 vasp.5.3.5 31Mar14 (build Dec 14 2018 19:18:10) complex                        
  
 executed on             LinuxIFC date 2022.11.17  20:18:40
 serial version


--------------------------------------------------------------------------------------------------------


 INCAR:
 POTCAR:   PAW_PBE W 08Apr2002                    
 POTCAR:   PAW_PBE W 08Apr2002                    
   VRHFIN =W : 6s5d                                                             
   LEXCH  = PE                                                                  
   EATOM  =   204.6100 eV,   15.0384 Ry                                         
                                                                                
   TITEL  = PAW_PBE W 08Apr2002                                                 
   LULTRA =        F    use ultrasoft PP ?                                      
   IUNSCR =        1    unscreen: 0-lin 1-nonlin 2-no                           
   RPACOR =    2.330    partial core radius                                     
   POMASS =  183.850; ZVAL   =    6.000    mass and valenz                      
   RCORE  =    2.750    outmost cutoff radius                                   
   RWIGS  =    2.750; RWIGS  =    1.455    wigner-seitz radius (au A)           
   ENMAX  =  223.057; ENMIN  =  167.293 eV                                      
   RCLOC  =    2.147    cutoff for local pot                                    
   LCOR   =        T    correct aug charges                                     
   LPAW   =        T    paw PP                                                  
   EAUG   =  373.438                                                            
   DEXC   =    -.060                                                            
   RMAX   =    3.087    core radius for proj-oper                               
   RAUG   =    1.300    factor for augmentation sphere                          
   RDEP   =    2.886    radius for radial grids                                 
   QCUT   =   -4.049; QGAM   =    8.098    optimization parameters              
                                                                                
   Description                                                                  
     l     E      TYP  RCUT    TYP  RCUT                                        
     2   .000     23  2.500                                                     
     2   .000     23  2.500                                                     
     0   .000     23  2.500                                                     
     0   .000     23  2.500                                                     
     1   .200     23  2.750                                                     
     1  2.000     23  2.750                                                     
     3   .000      7   .000                                                     
  local pseudopotential read in
  partial core-charges read in
  atomic valenz-charges read in
  non local Contribution for L=           2  read in
    real space projection operators read in
  non local Contribution for L=           2  read in
    real space projection operators read in
  non local Contribution for L=           0  read in
    real space projection operators read in
  non local Contribution for L=           0  read in
    real space projection operators read in
  non local Contribution for L=           1  read in
    real space projection operators read in
  non local Contribution for L=           1  read in
    real space projection operators read in
    PAW grid and wavefunctions read in
 
   number of l-projection  operators is LMAX  =           6
   number of lm-projection operators is LMMAX =          18
 
 PAW_PBE W 08Apr2002                    :
 energy of atom  1       EATOM= -204.6100
 kinetic energy error for atom=    0.0299 (will be added to EATOM!!)
 
 
 POSCAR: W bulk bcc                              
  positions in direct lattice
  velocities in cartesian coordinates
 exchange correlation table for  LEXCH =        8
   RHO(1)=    0.500       N(1)  =     2000
   RHO(2)=  100.500       N(2)  =     4000
 


--------------------------------------------------------------------------------------------------------


 ion  position               nearest neighbor table
   1  0.000  0.000  0.000-
 
  LATTYP: Found a body centered cubic cell.
 ALAT       =     3.1652000000
  
  Lattice vectors:
  
 A1 = (  -1.5826000000,   1.5826000000,   1.5826000000)
 A2 = (   1.5826000000,  -1.5826000000,   1.5826000000)
 A3 = (   1.5826000000,   1.5826000000,  -1.5826000000)


Analysis of symmetry for initial positions (statically):
=====================================================================
 Subroutine PRICEL returns:
 Original cell was already a primitive cell.
 

 Routine SETGRP: Setting up the symmetry group for a 
 body centered cubic supercell.


 Subroutine GETGRP returns: Found 48 space group operations
 (whereof 48 operations were pure point group operations)
 out of a pool of 48 trial point group operations.


The static configuration has the point symmetry O_h .


Analysis of symmetry for dynamics (positions and initial velocities):
=====================================================================
 Subroutine PRICEL returns:
 Original cell was already a primitive cell.
 

 Routine SETGRP: Setting up the symmetry group for a 
 body centered cubic supercell.


 Subroutine GETGRP returns: Found 48 space group operations
 (whereof 48 operations were pure point group operations)
 out of a pool of 48 trial point group operations.


The dynamic configuration has the point symmetry O_h .


Analysis of structural, dynamic, and magnetic symmetry:
=====================================================================
 Subroutine PRICEL returns:
 Original cell was already a primitive cell.
 

 Routine SETGRP: Setting up the symmetry group for a 
 body centered cubic supercell.


 Subroutine GETGRP returns: Found  6 space group operations
 (whereof  6 operations were pure point group operations)
 out of a pool of 48 trial point group operations.


The (compounded) configuration has the point symmetry S_6 .
 
 
 KPOINTS: 20x20x20                                

Automatic generation of k-mesh.
Space group operators:
 irot       det(A)        alpha          n_x          n_y          n_z        tau_x        tau_y        tau_z
    1     1.000000     0.000000     1.000000     0.000000     0.000000     0.000000     0.000000     0.000000
    2    -1.000000     0.000000     1.000000     0.000000     0.000000     0.000000     0.000000     0.000000
    3     1.000000   120.000000    -0.577350    -0.577350    -0.577350     0.000000     0.000000     0.000000
    4    -1.000000   120.000000    -0.577350    -0.577350    -0.577350     0.000000     0.000000     0.000000
    5     1.000000   120.000000     0.577350     0.577350     0.577350     0.000000     0.000000     0.000000
    6    -1.000000   120.000000     0.577350     0.577350     0.577350     0.000000     0.000000     0.000000
 
 Subroutine IBZKPT returns following result:
 ===========================================
 
 Found   1340 irreducible k-points:
 
 Following reciprocal coordinates:
            Coordinates               Weight
  0.025000  0.025000  0.025000      2.000000
  0.075000  0.025000  0.025000      6.000000
  0.125000  0.025000  0.025000      6.000000
  0.175000  0.025000  0.025000      6.000000
  0.225000  0.025000  0.025000      6.000000
  0.275000  0.025000  0.025000      6.000000
  0.325000  0.025000  0.025000      6.000000
  0.375000  0.025000  0.025000      6.000000
  0.425000  0.025000  0.025000      6.000000
  0.475000  0.025000  0.025000      6.000000
 -0.475000  0.025000  0.025000      6.000000
 -0.425000  0.025000  0.025000      6.000000
 -0.375000  0.025000  0.025000      6.000000
 -0.325000  0.025000  0.025000      6.000000
 -0.275000  0.025000  0.025000      6.000000
 -0.225000  0.025000  0.025000      6.000000
 -0.175000  0.025000  0.025000      6.000000
 -0.125000  0.025000  0.025000      6.000000
 -0.075000  0.025000  0.025000      6.000000
 -0.025000  0.025000  0.025000      6.000000
  0.075000  0.075000  0.025000      6.000000
  0.125000  0.075000  0.025000      6.000000
  0.175000  0.075000  0.025000      6.000000
  0.225000  0.075000  0.025000      6.000000
  0.275000  0.075000  0.025000      6.000000
  0.325000  0.075000  0.025000      6.000000
  0.375000  0.075000  0.025000      6.000000
  0.425000  0.075000  0.025000      6.000000
  0.475000  0.075000  0.025000      6.000000
 -0.475000  0.075000  0.025000      6.000000
 -0.425000  0.075000  0.025000      6.000000
 -0.375000  0.075000  0.025000      6.000000
 -0.325000  0.075000  0.025000      6.000000
 -0.275000  0.075000  0.025000      6.000000
 -0.225000  0.075000  0.025000      6.000000
 -0.175000  0.075000  0.025000      6.000000
 -0.125000  0.075000  0.025000      6.000000
 -0.075000  0.075000  0.025000      6.000000
 -0.025000  0.075000  0.025000      6.000000
  0.075000  0.125000  0.025000      6.000000
  0.125000  0.125000  0.025000      6.000000
  0.175000  0.125000  0.025000      6.000000
  0.225000  0.125000  0.025000      6.000000
  0.275000  0.125000  0.025000      6.000000
  0.325000  0.125000  0.025000      6.000000
  0.375000  0.125000  0.025000      6.000000
  0.425000  0.125000  0.025000      6.000000
  0.475000  0.125000  0.025000      6.000000
 -0.475000  0.125000  0.025000      6.000000
 -0.425000  0.125000  0.025000      6.000000
 -0.375000  0.125000  0.025000      6.000000
 -0.325000  0.125000  0.025000      6.000000
 -0.275000  0.125000  0.025000      6.000000
 -0.225000  0.125000  0.025000      6.000000
 -0.175000  0.125000  0.025000      6.000000
 -0.125000  0.125000  0.025000      6.000000
 -0.075000  0.125000  0.025000      6.000000
 -0.025000  0.125000  0.025000      6.000000
  0.075000  0.175000  0.025000      6.000000
  0.125000  0.175000  0.025000      6.000000
  0.175000  0.175000  0.025000      6.000000
  0.225000  0.175000  0.025000      6.000000
  0.275000  0.175000  0.025000      6.000000
  0.325000  0.175000  0.025000      6.000000
  0.375000  0.175000  0.025000      6.000000
  0.425000  0.175000  0.025000      6.000000
  0.475000  0.175000  0.025000      6.000000
 -0.475000  0.175000  0.025000      6.000000
 -0.425000  0.175000  0.025000      6.000000
 -0.375000  0.175000  0.025000      6.000000
 -0.325000  0.175000  0.025000      6.000000
 -0.275000  0.175000  0.025000      6.000000
 -0.225000  0.175000  0.025000      6.000000
 -0.175000  0.175000  0.025000      6.000000
 -0.125000  0.175000  0.025000      6.000000
 -0.075000  0.175000  0.025000      6.000000
 -0.025000  0.175000  0.025000      6.000000
  0.075000  0.225000  0.025000      6.000000
  0.125000  0.225000  0.025000      6.000000
  0.175000  0.225000  0.025000      6.000000
  0.225000  0.225000  0.025000      6.000000
  0.275000  0.225000  0.025000      6.000000
  0.325000  0.225000  0.025000      6.000000
  0.375000  0.225000  0.025000      6.000000
  0.425000  0.225000  0.025000      6.000000
  0.475000  0.225000  0.025000      6.000000
 -0.475000  0.225000  0.025000      6.000000
 -0.425000  0.225000  0.025000      6.000000
 -0.375000  0.225000  0.025000      6.000000
 -0.325000  0.225000  0.025000      6.000000
 -0.275000  0.225000  0.025000      6.000000
 -0.225000  0.225000  0.025000      6.000000
 -0.175000  0.225000  0.025000      6.000000
 -0.125000  0.225000  0.025000      6.000000
 -0.075000  0.225000  0.025000      6.000000
 -0.025000  0.225000  0.025000      6.000000
  0.075000  0.275000  0.025000      6.000000
  0.125000  0.275000  0.025000      6.000000
  0.175000  0.275000  0.025000      6.000000
  0.225000  0.275000  0.025000      6.000000
  0.275000  0.275000  0.025000      6.000000
  0.325000  0.275000  0.025000      6.000000
  0.375000  0.275000  0.025000      6.000000
  0.425000  0.275000  0.025000      6.000000
  0.475000  0.275000  0.025000      6.000000
 -0.475000  0.275000  0.025000      6.000000
 -0.425000  0.275000  0.025000      6.000000
 -0.375000  0.275000  0.025000      6.000000
 -0.325000  0.275000  0.025000      6.000000
 -0.275000  0.275000  0.025000      6.000000
 -0.225000  0.275000  0.025000      6.000000
 -0.175000  0.275000  0.025000      6.000000
 -0.125000  0.275000  0.025000      6.000000
 -0.075000  0.275000  0.025000      6.000000
 -0.025000  0.275000  0.025000      6.000000
  0.075000  0.325000  0.025000      6.000000
  0.125000  0.325000  0.025000      6.000000
  0.175000  0.325000  0.025000      6.000000
  0.225000  0.325000  0.025000      6.000000
  0.275000  0.325000  0.025000      6.000000
  0.325000  0.325000  0.025000      6.000000
  0.375000  0.325000  0.025000      6.000000
  0.425000  0.325000  0.025000      6.000000
  0.475000  0.325000  0.025000      6.000000
 -0.475000  0.325000  0.025000      6.000000
 -0.425000  0.325000  0.025000      6.000000
 -0.375000  0.325000  0.025000      6.000000
 -0.325000  0.325000  0.025000      6.000000
 -0.275000  0.325000  0.025000      6.000000
 -0.225000  0.325000  0.025000      6.000000
 -0.175000  0.325000  0.025000      6.000000
 -0.125000  0.325000  0.025000      6.000000
 -0.075000  0.325000  0.025000      6.000000
 -0.025000  0.325000  0.025000      6.000000
  0.075000  0.375000  0.025000      6.000000
  0.125000  0.375000  0.025000      6.000000
  0.175000  0.375000  0.025000      6.000000
  0.225000  0.375000  0.025000      6.000000
  0.275000  0.375000  0.025000      6.000000
  0.325000  0.375000  0.025000      6.000000
  0.375000  0.375000  0.025000      6.000000
  0.425000  0.375000  0.025000      6.000000
  0.475000  0.375000  0.025000      6.000000
 -0.475000  0.375000  0.025000      6.000000
 -0.425000  0.375000  0.025000      6.000000
 -0.375000  0.375000  0.025000      6.000000
 -0.325000  0.375000  0.025000      6.000000
 -0.275000  0.375000  0.025000      6.000000
 -0.225000  0.375000  0.025000      6.000000
 -0.175000  0.375000  0.025000      6.000000
 -0.125000  0.375000  0.025000      6.000000
 -0.075000  0.375000  0.025000      6.000000
 -0.025000  0.375000  0.025000      6.000000
  0.075000  0.425000  0.025000      6.000000
  0.125000  0.425000  0.025000      6.000000
  0.175000  0.425000  0.025000      6.000000
  0.225000  0.425000  0.025000      6.000000
  0.275000  0.425000  0.025000      6.000000
  0.325000  0.425000  0.025000      6.000000
  0.375000  0.425000  0.025000      6.000000
  0.425000  0.425000  0.025000      6.000000
  0.475000  0.425000  0.025000      6.000000
 -0.475000  0.425000  0.025000      6.000000
 -0.425000  0.425000  0.025000      6.000000
 -0.375000  0.425000  0.025000      6.000000
 -0.325000  0.425000  0.025000      6.000000
 -0.275000  0.425000  0.025000      6.000000
 -0.225000  0.425000  0.025000      6.000000
 -0.175000  0.425000  0.025000      6.000000
 -0.125000  0.425000  0.025000      6.000000
 -0.075000  0.425000  0.025000      6.000000
 -0.025000  0.425000  0.025000      6.000000
  0.075000  0.475000  0.025000      6.000000
  0.125000  0.475000  0.025000      6.000000
  0.175000  0.475000  0.025000      6.000000
  0.225000  0.475000  0.025000      6.000000
  0.275000  0.475000  0.025000      6.000000
  0.325000  0.475000  0.025000      6.000000
  0.375000  0.475000  0.025000      6.000000
  0.425000  0.475000  0.025000      6.000000
  0.475000  0.475000  0.025000      6.000000
 -0.475000  0.475000  0.025000      6.000000
 -0.425000  0.475000  0.025000      6.000000
 -0.375000  0.475000  0.025000      6.000000
 -0.325000  0.475000  0.025000      6.000000
 -0.275000  0.475000  0.025000      6.000000
 -0.225000  0.475000  0.025000      6.000000
 -0.175000  0.475000  0.025000      6.000000
 -0.125000  0.475000  0.025000      6.000000
 -0.075000  0.475000  0.025000      6.000000
 -0.025000  0.475000  0.025000      6.000000
  0.075000 -0.475000  0.025000      6.000000
  0.125000 -0.475000  0.025000      6.000000
  0.175000 -0.475000  0.025000      6.000000
  0.225000 -0.475000  0.025000      6.000000
  0.275000 -0.475000  0.025000      6.000000
  0.325000 -0.475000  0.025000      6.000000
  0.375000 -0.475000  0.025000      6.000000
  0.425000 -0.475000  0.025000      6.000000
  0.475000 -0.475000  0.025000      6.000000
 -0.475000 -0.475000  0.025000      6.000000
 -0.425000 -0.475000  0.025000      6.000000
 -0.375000 -0.475000  0.025000      6.000000
 -0.325000 -0.475000  0.025000      6.000000
 -0.275000 -0.475000  0.025000      6.000000
 -0.225000 -0.475000  0.025000      6.000000
 -0.175000 -0.475000  0.025000      6.000000
 -0.125000 -0.475000  0.025000      6.000000
 -0.075000 -0.475000  0.025000      6.000000
 -0.025000 -0.475000  0.025000      6.000000
  0.075000 -0.425000  0.025000      6.000000
  0.125000 -0.425000  0.025000      6.000000
  0.175000 -0.425000  0.025000      6.000000
  0.225000 -0.425000  0.025000      6.000000
  0.275000 -0.425000  0.025000      6.000000
  0.325000 -0.425000  0.025000      6.000000
  0.375000 -0.425000  0.025000      6.000000
  0.425000 -0.425000  0.025000      6.000000
  0.475000 -0.425000  0.025000      6.000000
 -0.475000 -0.425000  0.025000      6.000000
 -0.425000 -0.425000  0.025000      6.000000
 -0.375000 -0.425000  0.025000      6.000000
 -0.325000 -0.425000  0.025000      6.000000
 -0.275000 -0.425000  0.025000      6.000000
 -0.225000 -0.425000  0.025000      6.000000
 -0.175000 -0.425000  0.025000      6.000000
 -0.125000 -0.425000  0.025000      6.000000
 -0.075000 -0.425000  0.025000      6.000000
 -0.025000 -0.425000  0.025000      6.000000
  0.075000 -0.375000  0.025000      6.000000
  0.125000 -0.375000  0.025000      6.000000
  0.175000 -0.375000  0.025000      6.000000
  0.225000 -0.375000  0.025000      6.000000
  0.275000 -0.375000  0.025000      6.000000
  0.325000 -0.375000  0.025000      6.000000
  0.375000 -0.375000  0.025000      6.000000
  0.425000 -0.375000  0.025000      6.000000
  0.475000 -0.375000  0.025000      6.000000
 -0.475000 -0.375000  0.025000      6.000000
 -0.425000 -0.375000  0.025000      6.000000
 -0.375000 -0.375000  0.025000      6.000000
 -0.325000 -0.375000  0.025000      6.000000
 -0.275000 -0.375000  0.025000      6.000000
 -0.225000 -0.375000  0.025000      6.000000
 -0.175000 -0.375000  0.025000      6.000000
 -0.125000 -0.375000  0.025000      6.000000
 -0.075000 -0.375000  0.025000      6.000000
 -0.025000 -0.375000  0.025000      6.000000
  0.075000 -0.325000  0.025000      6.000000
  0.125000 -0.325000  0.025000      6.000000
  0.175000 -0.325000  0.025000      6.000000
  0.225000 -0.325000  0.025000      6.000000
  0.275000 -0.325000  0.025000      6.000000
  0.325000 -0.325000  0.025000      6.000000
  0.375000 -0.325000  0.025000      6.000000
  0.425000 -0.325000  0.025000      6.000000
  0.475000 -0.325000  0.025000      6.000000
 -0.475000 -0.325000  0.025000      6.000000
 -0.425000 -0.325000  0.025000      6.000000
 -0.375000 -0.325000  0.025000      6.000000
 -0.325000 -0.325000  0.025000      6.000000
 -0.275000 -0.325000  0.025000      6.000000
 -0.225000 -0.325000  0.025000      6.000000
 -0.175000 -0.325000  0.025000      6.000000
 -0.125000 -0.325000  0.025000      6.000000
 -0.075000 -0.325000  0.025000      6.000000
 -0.025000 -0.325000  0.025000      6.000000
  0.075000 -0.275000  0.025000      6.000000
  0.125000 -0.275000  0.025000      6.000000
  0.175000 -0.275000  0.025000      6.000000
  0.225000 -0.275000  0.025000      6.000000
  0.275000 -0.275000  0.025000      6.000000
  0.325000 -0.275000  0.025000      6.000000
  0.375000 -0.275000  0.025000      6.000000
  0.425000 -0.275000  0.025000      6.000000
  0.475000 -0.275000  0.025000      6.000000
 -0.475000 -0.275000  0.025000      6.000000
 -0.425000 -0.275000  0.025000      6.000000
 -0.375000 -0.275000  0.025000      6.000000
 -0.325000 -0.275000  0.025000      6.000000
 -0.275000 -0.275000  0.025000      6.000000
 -0.225000 -0.275000  0.025000      6.000000
 -0.175000 -0.275000  0.025000      6.000000
 -0.125000 -0.275000  0.025000      6.000000
 -0.075000 -0.275000  0.025000      6.000000
 -0.025000 -0.275000  0.025000      6.000000
  0.075000 -0.225000  0.025000      6.000000
  0.125000 -0.225000  0.025000      6.000000
  0.175000 -0.225000  0.025000      6.000000
  0.225000 -0.225000  0.025000      6.000000
  0.275000 -0.225000  0.025000      6.000000
  0.325000 -0.225000  0.025000      6.000000
  0.375000 -0.225000  0.025000      6.000000
  0.425000 -0.225000  0.025000      6.000000
  0.475000 -0.225000  0.025000      6.000000
 -0.475000 -0.225000  0.025000      6.000000
 -0.425000 -0.225000  0.025000      6.000000
 -0.375000 -0.225000  0.025000      6.000000
 -0.325000 -0.225000  0.025000      6.000000
 -0.275000 -0.225000  0.025000      6.000000
 -0.225000 -0.225000  0.025000      6.000000
 -0.175000 -0.225000  0.025000      6.000000
 -0.125000 -0.225000  0.025000      6.000000
 -0.075000 -0.225000  0.025000      6.000000
 -0.025000 -0.225000  0.025000      6.000000
  0.075000 -0.175000  0.025000      6.000000
  0.125000 -0.175000  0.025000      6.000000
  0.175000 -0.175000  0.025000      6.000000
  0.225000 -0.175000  0.025000      6.000000
  0.275000 -0.175000  0.025000      6.000000
  0.325000 -0.175000  0.025000      6.000000
  0.375000 -0.175000  0.025000      6.000000
  0.425000 -0.175000  0.025000      6.000000
  0.475000 -0.175000  0.025000      6.000000
 -0.475000 -0.175000  0.025000      6.000000
 -0.425000 -0.175000  0.025000      6.000000
 -0.375000 -0.175000  0.025000      6.000000
 -0.325000 -0.175000  0.025000      6.000000
 -0.275000 -0.175000  0.025000      6.000000
 -0.225000 -0.175000  0.025000      6.000000
 -0.175000 -0.175000  0.025000      6.000000
 -0.125000 -0.175000  0.025000      6.000000
 -0.075000 -0.175000  0.025000      6.000000
 -0.025000 -0.175000  0.025000      6.000000
  0.075000 -0.125000  0.025000      6.000000
  0.125000 -0.125000  0.025000      6.000000
  0.175000 -0.125000  0.025000      6.000000
  0.225000 -0.125000  0.025000      6.000000
  0.275000 -0.125000  0.025000      6.000000
  0.325000 -0.125000  0.025000      6.000000
  0.375000 -0.125000  0.025000      6.000000
  0.425000 -0.125000  0.025000      6.000000
  0.475000 -0.125000  0.025000      6.000000
 -0.475000 -0.125000  0.025000      6.000000
 -0.425000 -0.125000  0.025000      6.000000
 -0.375000 -0.125000  0.025000      6.000000
 -0.325000 -0.125000  0.025000      6.000000
 -0.275000 -0.125000  0.025000      6.000000
 -0.225000 -0.125000  0.025000      6.000000
 -0.175000 -0.125000  0.025000      6.000000
 -0.125000 -0.125000  0.025000      6.000000
 -0.075000 -0.125000  0.025000      6.000000
 -0.025000 -0.125000  0.025000      6.000000
  0.075000 -0.075000  0.025000      6.000000
  0.125000 -0.075000  0.025000      6.000000
  0.175000 -0.075000  0.025000      6.000000
  0.225000 -0.075000  0.025000      6.000000
  0.275000 -0.075000  0.025000      6.000000
  0.325000 -0.075000  0.025000      6.000000
  0.375000 -0.075000  0.025000      6.000000
  0.425000 -0.075000  0.025000      6.000000
  0.475000 -0.075000  0.025000      6.000000
 -0.475000 -0.075000  0.025000      6.000000
 -0.425000 -0.075000  0.025000      6.000000
 -0.375000 -0.075000  0.025000      6.000000
 -0.325000 -0.075000  0.025000      6.000000
 -0.275000 -0.075000  0.025000      6.000000
 -0.225000 -0.075000  0.025000      6.000000
 -0.175000 -0.075000  0.025000      6.000000
 -0.125000 -0.075000  0.025000      6.000000
 -0.075000 -0.075000  0.025000      6.000000
 -0.025000 -0.075000  0.025000      6.000000
  0.075000  0.075000  0.075000      2.000000
  0.125000  0.075000  0.075000      6.000000
  0.175000  0.075000  0.075000      6.000000
  0.225000  0.075000  0.075000      6.000000
  0.275000  0.075000  0.075000      6.000000
  0.325000  0.075000  0.075000      6.000000
  0.375000  0.075000  0.075000      6.000000
  0.425000  0.075000  0.075000      6.000000
  0.475000  0.075000  0.075000      6.000000
 -0.475000  0.075000  0.075000      6.000000
 -0.425000  0.075000  0.075000      6.000000
 -0.375000  0.075000  0.075000      6.000000
 -0.325000  0.075000  0.075000      6.000000
 -0.275000  0.075000  0.075000      6.000000
 -0.225000  0.075000  0.075000      6.000000
 -0.175000  0.075000  0.075000      6.000000
 -0.125000  0.075000  0.075000      6.000000
 -0.075000  0.075000  0.075000      6.000000
  0.125000  0.125000  0.075000      6.000000
  0.175000  0.125000  0.075000      6.000000
  0.225000  0.125000  0.075000      6.000000
  0.275000  0.125000  0.075000      6.000000
  0.325000  0.125000  0.075000      6.000000
  0.375000  0.125000  0.075000      6.000000
  0.425000  0.125000  0.075000      6.000000
  0.475000  0.125000  0.075000      6.000000
 -0.475000  0.125000  0.075000      6.000000
 -0.425000  0.125000  0.075000      6.000000
 -0.375000  0.125000  0.075000      6.000000
 -0.325000  0.125000  0.075000      6.000000
 -0.275000  0.125000  0.075000      6.000000
 -0.225000  0.125000  0.075000      6.000000
 -0.175000  0.125000  0.075000      6.000000
 -0.125000  0.125000  0.075000      6.000000
 -0.075000  0.125000  0.075000      6.000000
  0.125000  0.175000  0.075000      6.000000
  0.175000  0.175000  0.075000      6.000000
  0.225000  0.175000  0.075000      6.000000
  0.275000  0.175000  0.075000      6.000000
  0.325000  0.175000  0.075000      6.000000
  0.375000  0.175000  0.075000      6.000000
  0.425000  0.175000  0.075000      6.000000
  0.475000  0.175000  0.075000      6.000000
 -0.475000  0.175000  0.075000      6.000000
 -0.425000  0.175000  0.075000      6.000000
 -0.375000  0.175000  0.075000      6.000000
 -0.325000  0.175000  0.075000      6.000000
 -0.275000  0.175000  0.075000      6.000000
 -0.225000  0.175000  0.075000      6.000000
 -0.175000  0.175000  0.075000      6.000000
 -0.125000  0.175000  0.075000      6.000000
 -0.075000  0.175000  0.075000      6.000000
  0.125000  0.225000  0.075000      6.000000
  0.175000  0.225000  0.075000      6.000000
  0.225000  0.225000  0.075000      6.000000
  0.275000  0.225000  0.075000      6.000000
  0.325000  0.225000  0.075000      6.000000
  0.375000  0.225000  0.075000      6.000000
  0.425000  0.225000  0.075000      6.000000
  0.475000  0.225000  0.075000      6.000000
 -0.475000  0.225000  0.075000      6.000000
 -0.425000  0.225000  0.075000      6.000000
 -0.375000  0.225000  0.075000      6.000000
 -0.325000  0.225000  0.075000      6.000000
 -0.275000  0.225000  0.075000      6.000000
 -0.225000  0.225000  0.075000      6.000000
 -0.175000  0.225000  0.075000      6.000000
 -0.125000  0.225000  0.075000      6.000000
 -0.075000  0.225000  0.075000      6.000000
  0.125000  0.275000  0.075000      6.000000
  0.175000  0.275000  0.075000      6.000000
  0.225000  0.275000  0.075000      6.000000
  0.275000  0.275000  0.075000      6.000000
  0.325000  0.275000  0.075000      6.000000
  0.375000  0.275000  0.075000      6.000000
  0.425000  0.275000  0.075000      6.000000
  0.475000  0.275000  0.075000      6.000000
 -0.475000  0.275000  0.075000      6.000000
 -0.425000  0.275000  0.075000      6.000000
 -0.375000  0.275000  0.075000      6.000000
 -0.325000  0.275000  0.075000      6.000000
 -0.275000  0.275000  0.075000      6.000000
 -0.225000  0.275000  0.075000      6.000000
 -0.175000  0.275000  0.075000      6.000000
 -0.125000  0.275000  0.075000      6.000000
 -0.075000  0.275000  0.075000      6.000000
  0.125000  0.325000  0.075000      6.000000
  0.175000  0.325000  0.075000      6.000000
  0.225000  0.325000  0.075000      6.000000
  0.275000  0.325000  0.075000      6.000000
  0.325000  0.325000  0.075000      6.000000
  0.375000  0.325000  0.075000      6.000000
  0.425000  0.325000  0.075000      6.000000
  0.475000  0.325000  0.075000      6.000000
 -0.475000  0.325000  0.075000      6.000000
 -0.425000  0.325000  0.075000      6.000000
 -0.375000  0.325000  0.075000      6.000000
 -0.325000  0.325000  0.075000      6.000000
 -0.275000  0.325000  0.075000      6.000000
 -0.225000  0.325000  0.075000      6.000000
 -0.175000  0.325000  0.075000      6.000000
 -0.125000  0.325000  0.075000      6.000000
 -0.075000  0.325000  0.075000      6.000000
  0.125000  0.375000  0.075000      6.000000
  0.175000  0.375000  0.075000      6.000000
  0.225000  0.375000  0.075000      6.000000
  0.275000  0.375000  0.075000      6.000000
  0.325000  0.375000  0.075000      6.000000
  0.375000  0.375000  0.075000      6.000000
  0.425000  0.375000  0.075000      6.000000
  0.475000  0.375000  0.075000      6.000000
 -0.475000  0.375000  0.075000      6.000000
 -0.425000  0.375000  0.075000      6.000000
 -0.375000  0.375000  0.075000      6.000000
 -0.325000  0.375000  0.075000      6.000000
 -0.275000  0.375000  0.075000      6.000000
 -0.225000  0.375000  0.075000      6.000000
 -0.175000  0.375000  0.075000      6.000000
 -0.125000  0.375000  0.075000      6.000000
 -0.075000  0.375000  0.075000      6.000000
  0.125000  0.425000  0.075000      6.000000
  0.175000  0.425000  0.075000      6.000000
  0.225000  0.425000  0.075000      6.000000
  0.275000  0.425000  0.075000      6.000000
  0.325000  0.425000  0.075000      6.000000
  0.375000  0.425000  0.075000      6.000000
  0.425000  0.425000  0.075000      6.000000
  0.475000  0.425000  0.075000      6.000000
 -0.475000  0.425000  0.075000      6.000000
 -0.425000  0.425000  0.075000      6.000000
 -0.375000  0.425000  0.075000      6.000000
 -0.325000  0.425000  0.075000      6.000000
 -0.275000  0.425000  0.075000      6.000000
 -0.225000  0.425000  0.075000      6.000000
 -0.175000  0.425000  0.075000      6.000000
 -0.125000  0.425000  0.075000      6.000000
 -0.075000  0.425000  0.075000      6.000000
  0.125000  0.475000  0.075000      6.000000
  0.175000  0.475000  0.075000      6.000000
  0.225000  0.475000  0.075000      6.000000
  0.275000  0.475000  0.075000      6.000000
  0.325000  0.475000  0.075000      6.000000
  0.375000  0.475000  0.075000      6.000000
  0.425000  0.475000  0.075000      6.000000
  0.475000  0.475000  0.075000      6.000000
 -0.475000  0.475000  0.075000      6.000000
 -0.425000  0.475000  0.075000      6.000000
 -0.375000  0.475000  0.075000      6.000000
 -0.325000  0.475000  0.075000      6.000000
 -0.275000  0.475000  0.075000      6.000000
 -0.225000  0.475000  0.075000      6.000000
 -0.175000  0.475000  0.075000      6.000000
 -0.125000  0.475000  0.075000      6.000000
 -0.075000  0.475000  0.075000      6.000000
  0.125000 -0.475000  0.075000      6.000000
  0.175000 -0.475000  0.075000      6.000000
  0.225000 -0.475000  0.075000      6.000000
  0.275000 -0.475000  0.075000      6.000000
  0.325000 -0.475000  0.075000      6.000000
  0.375000 -0.475000  0.075000      6.000000
  0.425000 -0.475000  0.075000      6.000000
  0.475000 -0.475000  0.075000      6.000000
 -0.475000 -0.475000  0.075000      6.000000
 -0.425000 -0.475000  0.075000      6.000000
 -0.375000 -0.475000  0.075000      6.000000
 -0.325000 -0.475000  0.075000      6.000000
 -0.275000 -0.475000  0.075000      6.000000
 -0.225000 -0.475000  0.075000      6.000000
 -0.175000 -0.475000  0.075000      6.000000
 -0.125000 -0.475000  0.075000      6.000000
 -0.075000 -0.475000  0.075000      6.000000
  0.125000 -0.425000  0.075000      6.000000
  0.175000 -0.425000  0.075000      6.000000
  0.225000 -0.425000  0.075000      6.000000
  0.275000 -0.425000  0.075000      6.000000
  0.325000 -0.425000  0.075000      6.000000
  0.375000 -0.425000  0.075000      6.000000
  0.425000 -0.425000  0.075000      6.000000
  0.475000 -0.425000  0.075000      6.000000
 -0.475000 -0.425000  0.075000      6.000000
 -0.425000 -0.425000  0.075000      6.000000
 -0.375000 -0.425000  0.075000      6.000000
 -0.325000 -0.425000  0.075000      6.000000
 -0.275000 -0.425000  0.075000      6.000000
 -0.225000 -0.425000  0.075000      6.000000
 -0.175000 -0.425000  0.075000      6.000000
 -0.125000 -0.425000  0.075000      6.000000
 -0.075000 -0.425000  0.075000      6.000000
  0.125000 -0.375000  0.075000      6.000000
  0.175000 -0.375000  0.075000      6.000000
  0.225000 -0.375000  0.075000      6.000000
  0.275000 -0.375000  0.075000      6.000000
  0.325000 -0.375000  0.075000      6.000000
  0.375000 -0.375000  0.075000      6.000000
  0.425000 -0.375000  0.075000      6.000000
  0.475000 -0.375000  0.075000      6.000000
 -0.475000 -0.375000  0.075000      6.000000
 -0.425000 -0.375000  0.075000      6.000000
 -0.375000 -0.375000  0.075000      6.000000
 -0.325000 -0.375000  0.075000      6.000000
 -0.275000 -0.375000  0.075000      6.000000
 -0.225000 -0.375000  0.075000      6.000000
 -0.175000 -0.375000  0.075000      6.000000
 -0.125000 -0.375000  0.075000      6.000000
 -0.075000 -0.375000  0.075000      6.000000
  0.125000 -0.325000  0.075000      6.000000
  0.175000 -0.325000  0.075000      6.000000
  0.225000 -0.325000  0.075000      6.000000
  0.275000 -0.325000  0.075000      6.000000
  0.325000 -0.325000  0.075000      6.000000
  0.375000 -0.325000  0.075000      6.000000
  0.425000 -0.325000  0.075000      6.000000
  0.475000 -0.325000  0.075000      6.000000
 -0.475000 -0.325000  0.075000      6.000000
 -0.425000 -0.325000  0.075000      6.000000
 -0.375000 -0.325000  0.075000      6.000000
 -0.325000 -0.325000  0.075000      6.000000
 -0.275000 -0.325000  0.075000      6.000000
 -0.225000 -0.325000  0.075000      6.000000
 -0.175000 -0.325000  0.075000      6.000000
 -0.125000 -0.325000  0.075000      6.000000
 -0.075000 -0.325000  0.075000      6.000000
  0.125000 -0.275000  0.075000      6.000000
  0.175000 -0.275000  0.075000      6.000000
  0.225000 -0.275000  0.075000      6.000000
  0.275000 -0.275000  0.075000      6.000000
  0.325000 -0.275000  0.075000      6.000000
  0.375000 -0.275000  0.075000      6.000000
  0.425000 -0.275000  0.075000      6.000000
  0.475000 -0.275000  0.075000      6.000000
 -0.475000 -0.275000  0.075000      6.000000
 -0.425000 -0.275000  0.075000      6.000000
 -0.375000 -0.275000  0.075000      6.000000
 -0.325000 -0.275000  0.075000      6.000000
 -0.275000 -0.275000  0.075000      6.000000
 -0.225000 -0.275000  0.075000      6.000000
 -0.175000 -0.275000  0.075000      6.000000
 -0.125000 -0.275000  0.075000      6.000000
 -0.075000 -0.275000  0.075000      6.000000
  0.125000 -0.225000  0.075000      6.000000
  0.175000 -0.225000  0.075000      6.000000
  0.225000 -0.225000  0.075000      6.000000
  0.275000 -0.225000  0.075000      6.000000
  0.325000 -0.225000  0.075000      6.000000
  0.375000 -0.225000  0.075000      6.000000
  0.425000 -0.225000  0.075000      6.000000
  0.475000 -0.225000  0.075000      6.000000
 -0.475000 -0.225000  0.075000      6.000000
 -0.425000 -0.225000  0.075000      6.000000
 -0.375000 -0.225000  0.075000      6.000000
 -0.325000 -0.225000  0.075000      6.000000
 -0.275000 -0.225000  0.075000      6.000000
 -0.225000 -0.225000  0.075000      6.000000
 -0.175000 -0.225000  0.075000      6.000000
 -0.125000 -0.225000  0.075000      6.000000
 -0.075000 -0.225000  0.075000      6.000000
  0.125000 -0.175000  0.075000      6.000000
  0.175000 -0.175000  0.075000      6.000000
  0.225000 -0.175000  0.075000      6.000000
  0.275000 -0.175000  0.075000      6.000000
  0.325000 -0.175000  0.075000      6.000000
  0.375000 -0.175000  0.075000      6.000000
  0.425000 -0.175000  0.075000      6.000000
  0.475000 -0.175000  0.075000      6.000000
 -0.475000 -0.175000  0.075000      6.000000
 -0.425000 -0.175000  0.075000      6.000000
 -0.375000 -0.175000  0.075000      6.000000
 -0.325000 -0.175000  0.075000      6.000000
 -0.275000 -0.175000  0.075000      6.000000
 -0.225000 -0.175000  0.075000      6.000000
 -0.175000 -0.175000  0.075000      6.000000
 -0.125000 -0.175000  0.075000      6.000000
 -0.075000 -0.175000  0.075000      6.000000
  0.125000 -0.125000  0.075000      6.000000
  0.175000 -0.125000  0.075000      6.000000
  0.225000 -0.125000  0.075000      6.000000
  0.275000 -0.125000  0.075000      6.000000
  0.325000 -0.125000  0.075000      6.000000
  0.375000 -0.125000  0.075000      6.000000
  0.425000 -0.125000  0.075000      6.000000
  0.475000 -0.125000  0.075000      6.000000
 -0.475000 -0.125000  0.075000      6.000000
 -0.425000 -0.125000  0.075000      6.000000
 -0.375000 -0.125000  0.075000      6.000000
 -0.325000 -0.125000  0.075000      6.000000
 -0.275000 -0.125000  0.075000      6.000000
 -0.225000 -0.125000  0.075000      6.000000
 -0.175000 -0.125000  0.075000      6.000000
 -0.125000 -0.125000  0.075000      6.000000
 -0.075000 -0.125000  0.075000      6.000000
  0.125000  0.125000  0.125000      2.000000
  0.175000  0.125000  0.125000      6.000000
  0.225000  0.125000  0.125000      6.000000
  0.275000  0.125000  0.125000      6.000000
  0.325000  0.125000  0.125000      6.000000
  0.375000  0.125000  0.125000      6.000000
  0.425000  0.125000  0.125000      6.000000
  0.475000  0.125000  0.125000      6.000000
 -0.475000  0.125000  0.125000      6.000000
 -0.425000  0.125000  0.125000      6.000000
 -0.375000  0.125000  0.125000      6.000000
 -0.325000  0.125000  0.125000      6.000000
 -0.275000  0.125000  0.125000      6.000000
 -0.225000  0.125000  0.125000      6.000000
 -0.175000  0.125000  0.125000      6.000000
 -0.125000  0.125000  0.125000      6.000000
  0.175000  0.175000  0.125000      6.000000
  0.225000  0.175000  0.125000      6.000000
  0.275000  0.175000  0.125000      6.000000
  0.325000  0.175000  0.125000      6.000000
  0.375000  0.175000  0.125000      6.000000
  0.425000  0.175000  0.125000      6.000000
  0.475000  0.175000  0.125000      6.000000
 -0.475000  0.175000  0.125000      6.000000
 -0.425000  0.175000  0.125000      6.000000
 -0.375000  0.175000  0.125000      6.000000
 -0.325000  0.175000  0.125000      6.000000
 -0.275000  0.175000  0.125000      6.000000
 -0.225000  0.175000  0.125000      6.000000
 -0.175000  0.175000  0.125000      6.000000
 -0.125000  0.175000  0.125000      6.000000
  0.175000  0.225000  0.125000      6.000000
  0.225000  0.225000  0.125000      6.000000
  0.275000  0.225000  0.125000      6.000000
  0.325000  0.225000  0.125000      6.000000
  0.375000  0.225000  0.125000      6.000000
  0.425000  0.225000  0.125000      6.000000
  0.475000  0.225000  0.125000      6.000000
 -0.475000  0.225000  0.125000      6.000000
 -0.425000  0.225000  0.125000      6.000000
 -0.375000  0.225000  0.125000      6.000000
 -0.325000  0.225000  0.125000      6.000000
 -0.275000  0.225000  0.125000      6.000000
 -0.225000  0.225000  0.125000      6.000000
 -0.175000  0.225000  0.125000      6.000000
 -0.125000  0.225000  0.125000      6.000000
  0.175000  0.275000  0.125000      6.000000
  0.225000  0.275000  0.125000      6.000000
  0.275000  0.275000  0.125000      6.000000
  0.325000  0.275000  0.125000      6.000000
  0.375000  0.275000  0.125000      6.000000
  0.425000  0.275000  0.125000      6.000000
  0.475000  0.275000  0.125000      6.000000
 -0.475000  0.275000  0.125000      6.000000
 -0.425000  0.275000  0.125000      6.000000
 -0.375000  0.275000  0.125000      6.000000
 -0.325000  0.275000  0.125000      6.000000
 -0.275000  0.275000  0.125000      6.000000
 -0.225000  0.275000  0.125000      6.000000
 -0.175000  0.275000  0.125000      6.000000
 -0.125000  0.275000  0.125000      6.000000
  0.175000  0.325000  0.125000      6.000000
  0.225000  0.325000  0.125000      6.000000
  0.275000  0.325000  0.125000      6.000000
  0.325000  0.325000  0.125000      6.000000
  0.375000  0.325000  0.125000      6.000000
  0.425000  0.325000  0.125000      6.000000
  0.475000  0.325000  0.125000      6.000000
 -0.475000  0.325000  0.125000      6.000000
 -0.425000  0.325000  0.125000      6.000000
 -0.375000  0.325000  0.125000      6.000000
 -0.325000  0.325000  0.125000      6.000000
 -0.275000  0.325000  0.125000      6.000000
 -0.225000  0.325000  0.125000      6.000000
 -0.175000  0.325000  0.125000      6.000000
 -0.125000  0.325000  0.125000      6.000000
  0.175000  0.375000  0.125000      6.000000
  0.225000  0.375000  0.125000      6.000000
  0.275000  0.375000  0.125000      6.000000
  0.325000  0.375000  0.125000      6.000000
  0.375000  0.375000  0.125000      6.000000
  0.425000  0.375000  0.125000      6.000000
  0.475000  0.375000  0.125000      6.000000
 -0.475000  0.375000  0.125000      6.000000
 -0.425000  0.375000  0.125000      6.000000
 -0.375000  0.375000  0.125000      6.000000
 -0.325000  0.375000  0.125000      6.000000
 -0.275000  0.375000  0.125000      6.000000
 -0.225000  0.375000  0.125000      6.000000
 -0.175000  0.375000  0.125000      6.000000
 -0.125000  0.375000  0.125000      6.000000
  0.175000  0.425000  0.125000      6.000000
  0.225000  0.425000  0.125000      6.000000
  0.275000  0.425000  0.125000      6.000000
  0.325000  0.425000  0.125000      6.000000
  0.375000  0.425000  0.125000      6.000000
  0.425000  0.425000  0.125000      6.000000
  0.475000  0.425000  0.125000      6.000000
 -0.475000  0.425000  0.125000      6.000000
 -0.425000  0.425000  0.125000      6.000000
 -0.375000  0.425000  0.125000      6.000000
 -0.325000  0.425000  0.125000      6.000000
 -0.275000  0.425000  0.125000      6.000000
 -0.225000  0.425000  0.125000      6.000000
 -0.175000  0.425000  0.125000      6.000000
 -0.125000  0.425000  0.125000      6.000000
  0.175000  0.475000  0.125000      6.000000
  0.225000  0.475000  0.125000      6.000000
  0.275000  0.475000  0.125000      6.000000
  0.325000  0.475000  0.125000      6.000000
  0.375000  0.475000  0.125000      6.000000
  0.425000  0.475000  0.125000      6.000000
  0.475000  0.475000  0.125000      6.000000
 -0.475000  0.475000  0.125000      6.000000
 -0.425000  0.475000  0.125000      6.000000
 -0.375000  0.475000  0.125000      6.000000
 -0.325000  0.475000  0.125000      6.000000
 -0.275000  0.475000  0.125000      6.000000
 -0.225000  0.475000  0.125000      6.000000
 -0.175000  0.475000  0.125000      6.000000
 -0.125000  0.475000  0.125000      6.000000
  0.175000 -0.475000  0.125000      6.000000
  0.225000 -0.475000  0.125000      6.000000
  0.275000 -0.475000  0.125000      6.000000
  0.325000 -0.475000  0.125000      6.000000
  0.375000 -0.475000  0.125000      6.000000
  0.425000 -0.475000  0.125000      6.000000
  0.475000 -0.475000  0.125000      6.000000
 -0.475000 -0.475000  0.125000      6.000000
 -0.425000 -0.475000  0.125000      6.000000
 -0.375000 -0.475000  0.125000      6.000000
 -0.325000 -0.475000  0.125000      6.000000
 -0.275000 -0.475000  0.125000      6.000000
 -0.225000 -0.475000  0.125000      6.000000
 -0.175000 -0.475000  0.125000      6.000000
 -0.125000 -0.475000  0.125000      6.000000
  0.175000 -0.425000  0.125000      6.000000
  0.225000 -0.425000  0.125000      6.000000
  0.275000 -0.425000  0.125000      6.000000
  0.325000 -0.425000  0.125000      6.000000
  0.375000 -0.425000  0.125000      6.000000
  0.425000 -0.425000  0.125000      6.000000
  0.475000 -0.425000  0.125000      6.000000
 -0.475000 -0.425000  0.125000      6.000000
 -0.425000 -0.425000  0.125000      6.000000
 -0.375000 -0.425000  0.125000      6.000000
 -0.325000 -0.425000  0.125000      6.000000
 -0.275000 -0.425000  0.125000      6.000000
 -0.225000 -0.425000  0.125000      6.000000
 -0.175000 -0.425000  0.125000      6.000000
 -0.125000 -0.425000  0.125000      6.000000
  0.175000 -0.375000  0.125000      6.000000
  0.225000 -0.375000  0.125000      6.000000
  0.275000 -0.375000  0.125000      6.000000
  0.325000 -0.375000  0.125000      6.000000
  0.375000 -0.375000  0.125000      6.000000
  0.425000 -0.375000  0.125000      6.000000
  0.475000 -0.375000  0.125000      6.000000
 -0.475000 -0.375000  0.125000      6.000000
 -0.425000 -0.375000  0.125000      6.000000
 -0.375000 -0.375000  0.125000      6.000000
 -0.325000 -0.375000  0.125000      6.000000
 -0.275000 -0.375000  0.125000      6.000000
 -0.225000 -0.375000  0.125000      6.000000
 -0.175000 -0.375000  0.125000      6.000000
 -0.125000 -0.375000  0.125000      6.000000
  0.175000 -0.325000  0.125000      6.000000
  0.225000 -0.325000  0.125000      6.000000
  0.275000 -0.325000  0.125000      6.000000
  0.325000 -0.325000  0.125000      6.000000
  0.375000 -0.325000  0.125000      6.000000
  0.425000 -0.325000  0.125000      6.000000
  0.475000 -0.325000  0.125000      6.000000
 -0.475000 -0.325000  0.125000      6.000000
 -0.425000 -0.325000  0.125000      6.000000
 -0.375000 -0.325000  0.125000      6.000000
 -0.325000 -0.325000  0.125000      6.000000
 -0.275000 -0.325000  0.125000      6.000000
 -0.225000 -0.325000  0.125000      6.000000
 -0.175000 -0.325000  0.125000      6.000000
 -0.125000 -0.325000  0.125000      6.000000
  0.175000 -0.275000  0.125000      6.000000
  0.225000 -0.275000  0.125000      6.000000
  0.275000 -0.275000  0.125000      6.000000
  0.325000 -0.275000  0.125000      6.000000
  0.375000 -0.275000  0.125000      6.000000
  0.425000 -0.275000  0.125000      6.000000
  0.475000 -0.275000  0.125000      6.000000
 -0.475000 -0.275000  0.125000      6.000000
 -0.425000 -0.275000  0.125000      6.000000
 -0.375000 -0.275000  0.125000      6.000000
 -0.325000 -0.275000  0.125000      6.000000
 -0.275000 -0.275000  0.125000      6.000000
 -0.225000 -0.275000  0.125000      6.000000
 -0.175000 -0.275000  0.125000      6.000000
 -0.125000 -0.275000  0.125000      6.000000
  0.175000 -0.225000  0.125000      6.000000
  0.225000 -0.225000  0.125000      6.000000
  0.275000 -0.225000  0.125000      6.000000
  0.325000 -0.225000  0.125000      6.000000
  0.375000 -0.225000  0.125000      6.000000
  0.425000 -0.225000  0.125000      6.000000
  0.475000 -0.225000  0.125000      6.000000
 -0.475000 -0.225000  0.125000      6.000000
 -0.425000 -0.225000  0.125000      6.000000
 -0.375000 -0.225000  0.125000      6.000000
 -0.325000 -0.225000  0.125000      6.000000
 -0.275000 -0.225000  0.125000      6.000000
 -0.225000 -0.225000  0.125000      6.000000
 -0.175000 -0.225000  0.125000      6.000000
 -0.125000 -0.225000  0.125000      6.000000
  0.175000 -0.175000  0.125000      6.000000
  0.225000 -0.175000  0.125000      6.000000
  0.275000 -0.175000  0.125000      6.000000
  0.325000 -0.175000  0.125000      6.000000
  0.375000 -0.175000  0.125000      6.000000
  0.425000 -0.175000  0.125000      6.000000
  0.475000 -0.175000  0.125000      6.000000
 -0.475000 -0.175000  0.125000      6.000000
 -0.425000 -0.175000  0.125000      6.000000
 -0.375000 -0.175000  0.125000      6.000000
 -0.325000 -0.175000  0.125000      6.000000
 -0.275000 -0.175000  0.125000      6.000000
 -0.225000 -0.175000  0.125000      6.000000
 -0.175000 -0.175000  0.125000      6.000000
 -0.125000 -0.175000  0.125000      6.000000
  0.175000  0.175000  0.175000      2.000000
  0.225000  0.175000  0.175000      6.000000
  0.275000  0.175000  0.175000      6.000000
  0.325000  0.175000  0.175000      6.000000
  0.375000  0.175000  0.175000      6.000000
  0.425000  0.175000  0.175000      6.000000
  0.475000  0.175000  0.175000      6.000000
 -0.475000  0.175000  0.175000      6.000000
 -0.425000  0.175000  0.175000      6.000000
 -0.375000  0.175000  0.175000      6.000000
 -0.325000  0.175000  0.175000      6.000000
 -0.275000  0.175000  0.175000      6.000000
 -0.225000  0.175000  0.175000      6.000000
 -0.175000  0.175000  0.175000      6.000000
  0.225000  0.225000  0.175000      6.000000
  0.275000  0.225000  0.175000      6.000000
  0.325000  0.225000  0.175000      6.000000
  0.375000  0.225000  0.175000      6.000000
  0.425000  0.225000  0.175000      6.000000
  0.475000  0.225000  0.175000      6.000000
 -0.475000  0.225000  0.175000      6.000000
 -0.425000  0.225000  0.175000      6.000000
 -0.375000  0.225000  0.175000      6.000000
 -0.325000  0.225000  0.175000      6.000000
 -0.275000  0.225000  0.175000      6.000000
 -0.225000  0.225000  0.175000      6.000000
 -0.175000  0.225000  0.175000      6.000000
  0.225000  0.275000  0.175000      6.000000
  0.275000  0.275000  0.175000      6.000000
  0.325000  0.275000  0.175000      6.000000
  0.375000  0.275000  0.175000      6.000000
  0.425000  0.275000  0.175000      6.000000
  0.475000  0.275000  0.175000      6.000000
 -0.475000  0.275000  0.175000      6.000000
 -0.425000  0.275000  0.175000      6.000000
 -0.375000  0.275000  0.175000      6.000000
 -0.325000  0.275000  0.175000      6.000000
 -0.275000  0.275000  0.175000      6.000000
 -0.225000  0.275000  0.175000      6.000000
 -0.175000  0.275000  0.175000      6.000000
  0.225000  0.325000  0.175000      6.000000
  0.275000  0.325000  0.175000      6.000000
  0.325000  0.325000  0.175000      6.000000
  0.375000  0.325000  0.175000      6.000000
  0.425000  0.325000  0.175000      6.000000
  0.475000  0.325000  0.175000      6.000000
 -0.475000  0.325000  0.175000      6.000000
 -0.425000  0.325000  0.175000      6.000000
 -0.375000  0.325000  0.175000      6.000000
 -0.325000  0.325000  0.175000      6.000000
 -0.275000  0.325000  0.175000      6.000000
 -0.225000  0.325000  0.175000      6.000000
 -0.175000  0.325000  0.175000      6.000000
  0.225000  0.375000  0.175000      6.000000
  0.275000  0.375000  0.175000      6.000000
  0.325000  0.375000  0.175000      6.000000
  0.375000  0.375000  0.175000      6.000000
  0.425000  0.375000  0.175000      6.000000
  0.475000  0.375000  0.175000      6.000000
 -0.475000  0.375000  0.175000      6.000000
 -0.425000  0.375000  0.175000      6.000000
 -0.375000  0.375000  0.175000      6.000000
 -0.325000  0.375000  0.175000      6.000000
 -0.275000  0.375000  0.175000      6.000000
 -0.225000  0.375000  0.175000      6.000000
 -0.175000  0.375000  0.175000      6.000000
  0.225000  0.425000  0.175000      6.000000
  0.275000  0.425000  0.175000      6.000000
  0.325000  0.425000  0.175000      6.000000
  0.375000  0.425000  0.175000      6.000000
  0.425000  0.425000  0.175000      6.000000
  0.475000  0.425000  0.175000      6.000000
 -0.475000  0.425000  0.175000      6.000000
 -0.425000  0.425000  0.175000      6.000000
 -0.375000  0.425000  0.175000      6.000000
 -0.325000  0.425000  0.175000      6.000000
 -0.275000  0.425000  0.175000      6.000000
 -0.225000  0.425000  0.175000      6.000000
 -0.175000  0.425000  0.175000      6.000000
  0.225000  0.475000  0.175000      6.000000
  0.275000  0.475000  0.175000      6.000000
  0.325000  0.475000  0.175000      6.000000
  0.375000  0.475000  0.175000      6.000000
  0.425000  0.475000  0.175000      6.000000
  0.475000  0.475000  0.175000      6.000000
 -0.475000  0.475000  0.175000      6.000000
 -0.425000  0.475000  0.175000      6.000000
 -0.375000  0.475000  0.175000      6.000000
 -0.325000  0.475000  0.175000      6.000000
 -0.275000  0.475000  0.175000      6.000000
 -0.225000  0.475000  0.175000      6.000000
 -0.175000  0.475000  0.175000      6.000000
  0.225000 -0.475000  0.175000      6.000000
  0.275000 -0.475000  0.175000      6.000000
  0.325000 -0.475000  0.175000      6.000000
  0.375000 -0.475000  0.175000      6.000000
  0.425000 -0.475000  0.175000      6.000000
  0.475000 -0.475000  0.175000      6.000000
 -0.475000 -0.475000  0.175000      6.000000
 -0.425000 -0.475000  0.175000      6.000000
 -0.375000 -0.475000  0.175000      6.000000
 -0.325000 -0.475000  0.175000      6.000000
 -0.275000 -0.475000  0.175000      6.000000
 -0.225000 -0.475000  0.175000      6.000000
 -0.175000 -0.475000  0.175000      6.000000
  0.225000 -0.425000  0.175000      6.000000
  0.275000 -0.425000  0.175000      6.000000
  0.325000 -0.425000  0.175000      6.000000
  0.375000 -0.425000  0.175000      6.000000
  0.425000 -0.425000  0.175000      6.000000
  0.475000 -0.425000  0.175000      6.000000
 -0.475000 -0.425000  0.175000      6.000000
 -0.425000 -0.425000  0.175000      6.000000
 -0.375000 -0.425000  0.175000      6.000000
 -0.325000 -0.425000  0.175000      6.000000
 -0.275000 -0.425000  0.175000      6.000000
 -0.225000 -0.425000  0.175000      6.000000
 -0.175000 -0.425000  0.175000      6.000000
  0.225000 -0.375000  0.175000      6.000000
  0.275000 -0.375000  0.175000      6.000000
  0.325000 -0.375000  0.175000      6.000000
  0.375000 -0.375000  0.175000      6.000000
  0.425000 -0.375000  0.175000      6.000000
  0.475000 -0.375000  0.175000      6.000000
 -0.475000 -0.375000  0.175000      6.000000
 -0.425000 -0.375000  0.175000      6.000000
 -0.375000 -0.375000  0.175000      6.000000
 -0.325000 -0.375000  0.175000      6.000000
 -0.275000 -0.375000  0.175000      6.000000
 -0.225000 -0.375000  0.175000      6.000000
 -0.175000 -0.375000  0.175000      6.000000
  0.225000 -0.325000  0.175000      6.000000
  0.275000 -0.325000  0.175000      6.000000
  0.325000 -0.325000  0.175000      6.000000
  0.375000 -0.325000  0.175000      6.000000
  0.425000 -0.325000  0.175000      6.000000
  0.475000 -0.325000  0.175000      6.000000
 -0.475000 -0.325000  0.175000      6.000000
 -0.425000 -0.325000  0.175000      6.000000
 -0.375000 -0.325000  0.175000      6.000000
 -0.325000 -0.325000  0.175000      6.000000
 -0.275000 -0.325000  0.175000      6.000000
 -0.225000 -0.325000  0.175000      6.000000
 -0.175000 -0.325000  0.175000      6.000000
  0.225000 -0.275000  0.175000      6.000000
  0.275000 -0.275000  0.175000      6.000000
  0.325000 -0.275000  0.175000      6.000000
  0.375000 -0.275000  0.175000      6.000000
  0.425000 -0.275000  0.175000      6.000000
  0.475000 -0.275000  0.175000      6.000000
 -0.475000 -0.275000  0.175000      6.000000
 -0.425000 -0.275000  0.175000      6.000000
 -0.375000 -0.275000  0.175000      6.000000
 -0.325000 -0.275000  0.175000      6.000000
 -0.275000 -0.275000  0.175000      6.000000
 -0.225000 -0.275000  0.175000      6.000000
 -0.175000 -0.275000  0.175000      6.000000
  0.225000 -0.225000  0.175000      6.000000
  0.275000 -0.225000  0.175000      6.000000
  0.325000 -0.225000  0.175000      6.000000
  0.375000 -0.225000  0.175000      6.000000
  0.425000 -0.225000  0.175000      6.000000
  0.475000 -0.225000  0.175000      6.000000
 -0.475000 -0.225000  0.175000      6.000000
 -0.425000 -0.225000  0.175000      6.000000
 -0.375000 -0.225000  0.175000      6.000000
 -0.325000 -0.225000  0.175000      6.000000
 -0.275000 -0.225000  0.175000      6.000000
 -0.225000 -0.225000  0.175000      6.000000
 -0.175000 -0.225000  0.175000      6.000000
  0.225000  0.225000  0.225000      2.000000
  0.275000  0.225000  0.225000      6.000000
  0.325000  0.225000  0.225000      6.000000
  0.375000  0.225000  0.225000      6.000000
  0.425000  0.225000  0.225000      6.000000
  0.475000  0.225000  0.225000      6.000000
 -0.475000  0.225000  0.225000      6.000000
 -0.425000  0.225000  0.225000      6.000000
 -0.375000  0.225000  0.225000      6.000000
 -0.325000  0.225000  0.225000      6.000000
 -0.275000  0.225000  0.225000      6.000000
 -0.225000  0.225000  0.225000      6.000000
  0.275000  0.275000  0.225000      6.000000
  0.325000  0.275000  0.225000      6.000000
  0.375000  0.275000  0.225000      6.000000
  0.425000  0.275000  0.225000      6.000000
  0.475000  0.275000  0.225000      6.000000
 -0.475000  0.275000  0.225000      6.000000
 -0.425000  0.275000  0.225000      6.000000
 -0.375000  0.275000  0.225000      6.000000
 -0.325000  0.275000  0.225000      6.000000
 -0.275000  0.275000  0.225000      6.000000
 -0.225000  0.275000  0.225000      6.000000
  0.275000  0.325000  0.225000      6.000000
  0.325000  0.325000  0.225000      6.000000
  0.375000  0.325000  0.225000      6.000000
  0.425000  0.325000  0.225000      6.000000
  0.475000  0.325000  0.225000      6.000000
 -0.475000  0.325000  0.225000      6.000000
 -0.425000  0.325000  0.225000      6.000000
 -0.375000  0.325000  0.225000      6.000000
 -0.325000  0.325000  0.225000      6.000000
 -0.275000  0.325000  0.225000      6.000000
 -0.225000  0.325000  0.225000      6.000000
  0.275000  0.375000  0.225000      6.000000
  0.325000  0.375000  0.225000      6.000000
  0.375000  0.375000  0.225000      6.000000
  0.425000  0.375000  0.225000      6.000000
  0.475000  0.375000  0.225000      6.000000
 -0.475000  0.375000  0.225000      6.000000
 -0.425000  0.375000  0.225000      6.000000
 -0.375000  0.375000  0.225000      6.000000
 -0.325000  0.375000  0.225000      6.000000
 -0.275000  0.375000  0.225000      6.000000
 -0.225000  0.375000  0.225000      6.000000
  0.275000  0.425000  0.225000      6.000000
  0.325000  0.425000  0.225000      6.000000
  0.375000  0.425000  0.225000      6.000000
  0.425000  0.425000  0.225000      6.000000
  0.475000  0.425000  0.225000      6.000000
 -0.475000  0.425000  0.225000      6.000000
 -0.425000  0.425000  0.225000      6.000000
 -0.375000  0.425000  0.225000      6.000000
 -0.325000  0.425000  0.225000      6.000000
 -0.275000  0.425000  0.225000      6.000000
 -0.225000  0.425000  0.225000      6.000000
  0.275000  0.475000  0.225000      6.000000
  0.325000  0.475000  0.225000      6.000000
  0.375000  0.475000  0.225000      6.000000
  0.425000  0.475000  0.225000      6.000000
  0.475000  0.475000  0.225000      6.000000
 -0.475000  0.475000  0.225000      6.000000
 -0.425000  0.475000  0.225000      6.000000
 -0.375000  0.475000  0.225000      6.000000
 -0.325000  0.475000  0.225000      6.000000
 -0.275000  0.475000  0.225000      6.000000
 -0.225000  0.475000  0.225000      6.000000
  0.275000 -0.475000  0.225000      6.000000
  0.325000 -0.475000  0.225000      6.000000
  0.375000 -0.475000  0.225000      6.000000
  0.425000 -0.475000  0.225000      6.000000
  0.475000 -0.475000  0.225000      6.000000
 -0.475000 -0.475000  0.225000      6.000000
 -0.425000 -0.475000  0.225000      6.000000
 -0.375000 -0.475000  0.225000      6.000000
 -0.325000 -0.475000  0.225000      6.000000
 -0.275000 -0.475000  0.225000      6.000000
 -0.225000 -0.475000  0.225000      6.000000
  0.275000 -0.425000  0.225000      6.000000
  0.325000 -0.425000  0.225000      6.000000
  0.375000 -0.425000  0.225000      6.000000
  0.425000 -0.425000  0.225000      6.000000
  0.475000 -0.425000  0.225000      6.000000
 -0.475000 -0.425000  0.225000      6.000000
 -0.425000 -0.425000  0.225000      6.000000
 -0.375000 -0.425000  0.225000      6.000000
 -0.325000 -0.425000  0.225000      6.000000
 -0.275000 -0.425000  0.225000      6.000000
 -0.225000 -0.425000  0.225000      6.000000
  0.275000 -0.375000  0.225000      6.000000
  0.325000 -0.375000  0.225000      6.000000
  0.375000 -0.375000  0.225000      6.000000
  0.425000 -0.375000  0.225000      6.000000
  0.475000 -0.375000  0.225000      6.000000
 -0.475000 -0.375000  0.225000      6.000000
 -0.425000 -0.375000  0.225000      6.000000
 -0.375000 -0.375000  0.225000      6.000000
 -0.325000 -0.375000  0.225000      6.000000
 -0.275000 -0.375000  0.225000      6.000000
 -0.225000 -0.375000  0.225000      6.000000
  0.275000 -0.325000  0.225000      6.000000
  0.325000 -0.325000  0.225000      6.000000
  0.375000 -0.325000  0.225000      6.000000
  0.425000 -0.325000  0.225000      6.000000
  0.475000 -0.325000  0.225000      6.000000
 -0.475000 -0.325000  0.225000      6.000000
 -0.425000 -0.325000  0.225000      6.000000
 -0.375000 -0.325000  0.225000      6.000000
 -0.325000 -0.325000  0.225000      6.000000
 -0.275000 -0.325000  0.225000      6.000000
 -0.225000 -0.325000  0.225000      6.000000
  0.275000 -0.275000  0.225000      6.000000
  0.325000 -0.275000  0.225000      6.000000
  0.375000 -0.275000  0.225000      6.000000
  0.425000 -0.275000  0.225000      6.000000
  0.475000 -0.275000  0.225000      6.000000
 -0.475000 -0.275000  0.225000      6.000000
 -0.425000 -0.275000  0.225000      6.000000
 -0.375000 -0.275000  0.225000      6.000000
 -0.325000 -0.275000  0.225000      6.000000
 -0.275000 -0.275000  0.225000      6.000000
 -0.225000 -0.275000  0.225000      6.000000
  0.275000  0.275000  0.275000      2.000000
  0.325000  0.275000  0.275000      6.000000
  0.375000  0.275000  0.275000      6.000000
  0.425000  0.275000  0.275000      6.000000
  0.475000  0.275000  0.275000      6.000000
 -0.475000  0.275000  0.275000      6.000000
 -0.425000  0.275000  0.275000      6.000000
 -0.375000  0.275000  0.275000      6.000000
 -0.325000  0.275000  0.275000      6.000000
 -0.275000  0.275000  0.275000      6.000000
  0.325000  0.325000  0.275000      6.000000
  0.375000  0.325000  0.275000      6.000000
  0.425000  0.325000  0.275000      6.000000
  0.475000  0.325000  0.275000      6.000000
 -0.475000  0.325000  0.275000      6.000000
 -0.425000  0.325000  0.275000      6.000000
 -0.375000  0.325000  0.275000      6.000000
 -0.325000  0.325000  0.275000      6.000000
 -0.275000  0.325000  0.275000      6.000000
  0.325000  0.375000  0.275000      6.000000
  0.375000  0.375000  0.275000      6.000000
  0.425000  0.375000  0.275000      6.000000
  0.475000  0.375000  0.275000      6.000000
 -0.475000  0.375000  0.275000      6.000000
 -0.425000  0.375000  0.275000      6.000000
 -0.375000  0.375000  0.275000      6.000000
 -0.325000  0.375000  0.275000      6.000000
 -0.275000  0.375000  0.275000      6.000000
  0.325000  0.425000  0.275000      6.000000
  0.375000  0.425000  0.275000      6.000000
  0.425000  0.425000  0.275000      6.000000
  0.475000  0.425000  0.275000      6.000000
 -0.475000  0.425000  0.275000      6.000000
 -0.425000  0.425000  0.275000      6.000000
 -0.375000  0.425000  0.275000      6.000000
 -0.325000  0.425000  0.275000      6.000000
 -0.275000  0.425000  0.275000      6.000000
  0.325000  0.475000  0.275000      6.000000
  0.375000  0.475000  0.275000      6.000000
  0.425000  0.475000  0.275000      6.000000
  0.475000  0.475000  0.275000      6.000000
 -0.475000  0.475000  0.275000      6.000000
 -0.425000  0.475000  0.275000      6.000000
 -0.375000  0.475000  0.275000      6.000000
 -0.325000  0.475000  0.275000      6.000000
 -0.275000  0.475000  0.275000      6.000000
  0.325000 -0.475000  0.275000      6.000000
  0.375000 -0.475000  0.275000      6.000000
  0.425000 -0.475000  0.275000      6.000000
  0.475000 -0.475000  0.275000      6.000000
 -0.475000 -0.475000  0.275000      6.000000
 -0.425000 -0.475000  0.275000      6.000000
 -0.375000 -0.475000  0.275000      6.000000
 -0.325000 -0.475000  0.275000      6.000000
 -0.275000 -0.475000  0.275000      6.000000
  0.325000 -0.425000  0.275000      6.000000
  0.375000 -0.425000  0.275000      6.000000
  0.425000 -0.425000  0.275000      6.000000
  0.475000 -0.425000  0.275000      6.000000
 -0.475000 -0.425000  0.275000      6.000000
 -0.425000 -0.425000  0.275000      6.000000
 -0.375000 -0.425000  0.275000      6.000000
 -0.325000 -0.425000  0.275000      6.000000
 -0.275000 -0.425000  0.275000      6.000000
  0.325000 -0.375000  0.275000      6.000000
  0.375000 -0.375000  0.275000      6.000000
  0.425000 -0.375000  0.275000      6.000000
  0.475000 -0.375000  0.275000      6.000000
 -0.475000 -0.375000  0.275000      6.000000
 -0.425000 -0.375000  0.275000      6.000000
 -0.375000 -0.375000  0.275000      6.000000
 -0.325000 -0.375000  0.275000      6.000000
 -0.275000 -0.375000  0.275000      6.000000
  0.325000 -0.325000  0.275000      6.000000
  0.375000 -0.325000  0.275000      6.000000
  0.425000 -0.325000  0.275000      6.000000
  0.475000 -0.325000  0.275000      6.000000
 -0.475000 -0.325000  0.275000      6.000000
 -0.425000 -0.325000  0.275000      6.000000
 -0.375000 -0.325000  0.275000      6.000000
 -0.325000 -0.325000  0.275000      6.000000
 -0.275000 -0.325000  0.275000      6.000000
  0.325000  0.325000  0.325000      2.000000
  0.375000  0.325000  0.325000      6.000000
  0.425000  0.325000  0.325000      6.000000
  0.475000  0.325000  0.325000      6.000000
 -0.475000  0.325000  0.325000      6.000000
 -0.425000  0.325000  0.325000      6.000000
 -0.375000  0.325000  0.325000      6.000000
 -0.325000  0.325000  0.325000      6.000000
  0.375000  0.375000  0.325000      6.000000
  0.425000  0.375000  0.325000      6.000000
  0.475000  0.375000  0.325000      6.000000
 -0.475000  0.375000  0.325000      6.000000
 -0.425000  0.375000  0.325000      6.000000
 -0.375000  0.375000  0.325000      6.000000
 -0.325000  0.375000  0.325000      6.000000
  0.375000  0.425000  0.325000      6.000000
  0.425000  0.425000  0.325000      6.000000
  0.475000  0.425000  0.325000      6.000000
 -0.475000  0.425000  0.325000      6.000000
 -0.425000  0.425000  0.325000      6.000000
 -0.375000  0.425000  0.325000      6.000000
 -0.325000  0.425000  0.325000      6.000000
  0.375000  0.475000  0.325000      6.000000
  0.425000  0.475000  0.325000      6.000000
  0.475000  0.475000  0.325000      6.000000
 -0.475000  0.475000  0.325000      6.000000
 -0.425000  0.475000  0.325000      6.000000
 -0.375000  0.475000  0.325000      6.000000
 -0.325000  0.475000  0.325000      6.000000
  0.375000 -0.475000  0.325000      6.000000
  0.425000 -0.475000  0.325000      6.000000
  0.475000 -0.475000  0.325000      6.000000
 -0.475000 -0.475000  0.325000      6.000000
 -0.425000 -0.475000  0.325000      6.000000
 -0.375000 -0.475000  0.325000      6.000000
 -0.325000 -0.475000  0.325000      6.000000
  0.375000 -0.425000  0.325000      6.000000
  0.425000 -0.425000  0.325000      6.000000
  0.475000 -0.425000  0.325000      6.000000
 -0.475000 -0.425000  0.325000      6.000000
 -0.425000 -0.425000  0.325000      6.000000
 -0.375000 -0.425000  0.325000      6.000000
 -0.325000 -0.425000  0.325000      6.000000
  0.375000 -0.375000  0.325000      6.000000
  0.425000 -0.375000  0.325000      6.000000
  0.475000 -0.375000  0.325000      6.000000
 -0.475000 -0.375000  0.325000      6.000000
 -0.425000 -0.375000  0.325000      6.000000
 -0.375000 -0.375000  0.325000      6.000000
 -0.325000 -0.375000  0.325000      6.000000
  0.375000  0.375000  0.375000      2.000000
  0.425000  0.375000  0.375000      6.000000
  0.475000  0.375000  0.375000      6.000000
 -0.475000  0.375000  0.375000      6.000000
 -0.425000  0.375000  0.375000      6.000000
 -0.375000  0.375000  0.375000      6.000000
  0.425000  0.425000  0.375000      6.000000
  0.475000  0.425000  0.375000      6.000000
 -0.475000  0.425000  0.375000      6.000000
 -0.425000  0.425000  0.375000      6.000000
 -0.375000  0.425000  0.375000      6.000000
  0.425000  0.475000  0.375000      6.000000
  0.475000  0.475000  0.375000      6.000000
 -0.475000  0.475000  0.375000      6.000000
 -0.425000  0.475000  0.375000      6.000000
 -0.375000  0.475000  0.375000      6.000000
  0.425000 -0.475000  0.375000      6.000000
  0.475000 -0.475000  0.375000      6.000000
 -0.475000 -0.475000  0.375000      6.000000
 -0.425000 -0.475000  0.375000      6.000000
 -0.375000 -0.475000  0.375000      6.000000
  0.425000 -0.425000  0.375000      6.000000
  0.475000 -0.425000  0.375000      6.000000
 -0.475000 -0.425000  0.375000      6.000000
 -0.425000 -0.425000  0.375000      6.000000
 -0.375000 -0.425000  0.375000      6.000000
  0.425000  0.425000  0.425000      2.000000
  0.475000  0.425000  0.425000      6.000000
 -0.475000  0.425000  0.425000      6.000000
 -0.425000  0.425000  0.425000      6.000000
  0.475000  0.475000  0.425000      6.000000
 -0.475000  0.475000  0.425000      6.000000
 -0.425000  0.475000  0.425000      6.000000
  0.475000 -0.475000  0.425000      6.000000
 -0.475000 -0.475000  0.425000      6.000000
 -0.425000 -0.475000  0.425000      6.000000
  0.475000  0.475000  0.475000      2.000000
 -0.475000  0.475000  0.475000      6.000000
 
 Following cartesian coordinates:
            Coordinates               Weight
  0.050000  0.050000  0.050000      2.000000
  0.050000  0.100000  0.100000      6.000000
  0.050000  0.150000  0.150000      6.000000
  0.050000  0.200000  0.200000      6.000000
  0.050000  0.250000  0.250000      6.000000
  0.050000  0.300000  0.300000      6.000000
  0.050000  0.350000  0.350000      6.000000
  0.050000  0.400000  0.400000      6.000000
  0.050000  0.450000  0.450000      6.000000
  0.050000  0.500000  0.500000      6.000000
  0.050000 -0.450000 -0.450000      6.000000
  0.050000 -0.400000 -0.400000      6.000000
  0.050000 -0.350000 -0.350000      6.000000
  0.050000 -0.300000 -0.300000      6.000000
  0.050000 -0.250000 -0.250000      6.000000
  0.050000 -0.200000 -0.200000      6.000000
  0.050000 -0.150000 -0.150000      6.000000
  0.050000 -0.100000 -0.100000      6.000000
  0.050000 -0.050000 -0.050000      6.000000
  0.050000  0.000000  0.000000      6.000000
  0.100000  0.100000  0.150000      6.000000
  0.100000  0.150000  0.200000      6.000000
  0.100000  0.200000  0.250000      6.000000
  0.100000  0.250000  0.300000      6.000000
  0.100000  0.300000  0.350000      6.000000
  0.100000  0.350000  0.400000      6.000000
  0.100000  0.400000  0.450000      6.000000
  0.100000  0.450000  0.500000      6.000000
  0.100000  0.500000  0.550000      6.000000
  0.100000 -0.450000 -0.400000      6.000000
  0.100000 -0.400000 -0.350000      6.000000
  0.100000 -0.350000 -0.300000      6.000000
  0.100000 -0.300000 -0.250000      6.000000
  0.100000 -0.250000 -0.200000      6.000000
  0.100000 -0.200000 -0.150000      6.000000
  0.100000 -0.150000 -0.100000      6.000000
  0.100000 -0.100000 -0.050000      6.000000
  0.100000 -0.050000  0.000000      6.000000
  0.100000  0.000000  0.050000      6.000000
  0.150000  0.100000  0.200000      6.000000
  0.150000  0.150000  0.250000      6.000000
  0.150000  0.200000  0.300000      6.000000
  0.150000  0.250000  0.350000      6.000000
  0.150000  0.300000  0.400000      6.000000
  0.150000  0.350000  0.450000      6.000000
  0.150000  0.400000  0.500000      6.000000
  0.150000  0.450000  0.550000      6.000000
  0.150000  0.500000  0.600000      6.000000
  0.150000 -0.450000 -0.350000      6.000000
  0.150000 -0.400000 -0.300000      6.000000
  0.150000 -0.350000 -0.250000      6.000000
  0.150000 -0.300000 -0.200000      6.000000
  0.150000 -0.250000 -0.150000      6.000000
  0.150000 -0.200000 -0.100000      6.000000
  0.150000 -0.150000 -0.050000      6.000000
  0.150000 -0.100000  0.000000      6.000000
  0.150000 -0.050000  0.050000      6.000000
  0.150000  0.000000  0.100000      6.000000
  0.200000  0.100000  0.250000      6.000000
  0.200000  0.150000  0.300000      6.000000
  0.200000  0.200000  0.350000      6.000000
  0.200000  0.250000  0.400000      6.000000
  0.200000  0.300000  0.450000      6.000000
  0.200000  0.350000  0.500000      6.000000
  0.200000  0.400000  0.550000      6.000000
  0.200000  0.450000  0.600000      6.000000
  0.200000  0.500000  0.650000      6.000000
  0.200000 -0.450000 -0.300000      6.000000
  0.200000 -0.400000 -0.250000      6.000000
  0.200000 -0.350000 -0.200000      6.000000
  0.200000 -0.300000 -0.150000      6.000000
  0.200000 -0.250000 -0.100000      6.000000
  0.200000 -0.200000 -0.050000      6.000000
  0.200000 -0.150000  0.000000      6.000000
  0.200000 -0.100000  0.050000      6.000000
  0.200000 -0.050000  0.100000      6.000000
  0.200000  0.000000  0.150000      6.000000
  0.250000  0.100000  0.300000      6.000000
  0.250000  0.150000  0.350000      6.000000
  0.250000  0.200000  0.400000      6.000000
  0.250000  0.250000  0.450000      6.000000
  0.250000  0.300000  0.500000      6.000000
  0.250000  0.350000  0.550000      6.000000
  0.250000  0.400000  0.600000      6.000000
  0.250000  0.450000  0.650000      6.000000
  0.250000  0.500000  0.700000      6.000000
  0.250000 -0.450000 -0.250000      6.000000
  0.250000 -0.400000 -0.200000      6.000000
  0.250000 -0.350000 -0.150000      6.000000
  0.250000 -0.300000 -0.100000      6.000000
  0.250000 -0.250000 -0.050000      6.000000
  0.250000 -0.200000  0.000000      6.000000
  0.250000 -0.150000  0.050000      6.000000
  0.250000 -0.100000  0.100000      6.000000
  0.250000 -0.050000  0.150000      6.000000
  0.250000  0.000000  0.200000      6.000000
  0.300000  0.100000  0.350000      6.000000
  0.300000  0.150000  0.400000      6.000000
  0.300000  0.200000  0.450000      6.000000
  0.300000  0.250000  0.500000      6.000000
  0.300000  0.300000  0.550000      6.000000
  0.300000  0.350000  0.600000      6.000000
  0.300000  0.400000  0.650000      6.000000
  0.300000  0.450000  0.700000      6.000000
  0.300000  0.500000  0.750000      6.000000
  0.300000 -0.450000 -0.200000      6.000000
  0.300000 -0.400000 -0.150000      6.000000
  0.300000 -0.350000 -0.100000      6.000000
  0.300000 -0.300000 -0.050000      6.000000
  0.300000 -0.250000  0.000000      6.000000
  0.300000 -0.200000  0.050000      6.000000
  0.300000 -0.150000  0.100000      6.000000
  0.300000 -0.100000  0.150000      6.000000
  0.300000 -0.050000  0.200000      6.000000
  0.300000  0.000000  0.250000      6.000000
  0.350000  0.100000  0.400000      6.000000
  0.350000  0.150000  0.450000      6.000000
  0.350000  0.200000  0.500000      6.000000
  0.350000  0.250000  0.550000      6.000000
  0.350000  0.300000  0.600000      6.000000
  0.350000  0.350000  0.650000      6.000000
  0.350000  0.400000  0.700000      6.000000
  0.350000  0.450000  0.750000      6.000000
  0.350000  0.500000  0.800000      6.000000
  0.350000 -0.450000 -0.150000      6.000000
  0.350000 -0.400000 -0.100000      6.000000
  0.350000 -0.350000 -0.050000      6.000000
  0.350000 -0.300000  0.000000      6.000000
  0.350000 -0.250000  0.050000      6.000000
  0.350000 -0.200000  0.100000      6.000000
  0.350000 -0.150000  0.150000      6.000000
  0.350000 -0.100000  0.200000      6.000000
  0.350000 -0.050000  0.250000      6.000000
  0.350000  0.000000  0.300000      6.000000
  0.400000  0.100000  0.450000      6.000000
  0.400000  0.150000  0.500000      6.000000
  0.400000  0.200000  0.550000      6.000000
  0.400000  0.250000  0.600000      6.000000
  0.400000  0.300000  0.650000      6.000000
  0.400000  0.350000  0.700000      6.000000
  0.400000  0.400000  0.750000      6.000000
  0.400000  0.450000  0.800000      6.000000
  0.400000  0.500000  0.850000      6.000000
  0.400000 -0.450000 -0.100000      6.000000
  0.400000 -0.400000 -0.050000      6.000000
  0.400000 -0.350000  0.000000      6.000000
  0.400000 -0.300000  0.050000      6.000000
  0.400000 -0.250000  0.100000      6.000000
  0.400000 -0.200000  0.150000      6.000000
  0.400000 -0.150000  0.200000      6.000000
  0.400000 -0.100000  0.250000      6.000000
  0.400000 -0.050000  0.300000      6.000000
  0.400000  0.000000  0.350000      6.000000
  0.450000  0.100000  0.500000      6.000000
  0.450000  0.150000  0.550000      6.000000
  0.450000  0.200000  0.600000      6.000000
  0.450000  0.250000  0.650000      6.000000
  0.450000  0.300000  0.700000      6.000000
  0.450000  0.350000  0.750000      6.000000
  0.450000  0.400000  0.800000      6.000000
  0.450000  0.450000  0.850000      6.000000
  0.450000  0.500000  0.900000      6.000000
  0.450000 -0.450000 -0.050000      6.000000
  0.450000 -0.400000  0.000000      6.000000
  0.450000 -0.350000  0.050000      6.000000
  0.450000 -0.300000  0.100000      6.000000
  0.450000 -0.250000  0.150000      6.000000
  0.450000 -0.200000  0.200000      6.000000
  0.450000 -0.150000  0.250000      6.000000
  0.450000 -0.100000  0.300000      6.000000
  0.450000 -0.050000  0.350000      6.000000
  0.450000  0.000000  0.400000      6.000000
  0.500000  0.100000  0.550000      6.000000
  0.500000  0.150000  0.600000      6.000000
  0.500000  0.200000  0.650000      6.000000
  0.500000  0.250000  0.700000      6.000000
  0.500000  0.300000  0.750000      6.000000
  0.500000  0.350000  0.800000      6.000000
  0.500000  0.400000  0.850000      6.000000
  0.500000  0.450000  0.900000      6.000000
  0.500000  0.500000  0.950000      6.000000
  0.500000 -0.450000  0.000000      6.000000
  0.500000 -0.400000  0.050000      6.000000
  0.500000 -0.350000  0.100000      6.000000
  0.500000 -0.300000  0.150000      6.000000
  0.500000 -0.250000  0.200000      6.000000
  0.500000 -0.200000  0.250000      6.000000
  0.500000 -0.150000  0.300000      6.000000
  0.500000 -0.100000  0.350000      6.000000
  0.500000 -0.050000  0.400000      6.000000
  0.500000  0.000000  0.450000      6.000000
 -0.450000  0.100000 -0.400000      6.000000
 -0.450000  0.150000 -0.350000      6.000000
 -0.450000  0.200000 -0.300000      6.000000
 -0.450000  0.250000 -0.250000      6.000000
 -0.450000  0.300000 -0.200000      6.000000
 -0.450000  0.350000 -0.150000      6.000000
 -0.450000  0.400000 -0.100000      6.000000
 -0.450000  0.450000 -0.050000      6.000000
 -0.450000  0.500000  0.000000      6.000000
 -0.450000 -0.450000 -0.950000      6.000000
 -0.450000 -0.400000 -0.900000      6.000000
 -0.450000 -0.350000 -0.850000      6.000000
 -0.450000 -0.300000 -0.800000      6.000000
 -0.450000 -0.250000 -0.750000      6.000000
 -0.450000 -0.200000 -0.700000      6.000000
 -0.450000 -0.150000 -0.650000      6.000000
 -0.450000 -0.100000 -0.600000      6.000000
 -0.450000 -0.050000 -0.550000      6.000000
 -0.450000  0.000000 -0.500000      6.000000
 -0.400000  0.100000 -0.350000      6.000000
 -0.400000  0.150000 -0.300000      6.000000
 -0.400000  0.200000 -0.250000      6.000000
 -0.400000  0.250000 -0.200000      6.000000
 -0.400000  0.300000 -0.150000      6.000000
 -0.400000  0.350000 -0.100000      6.000000
 -0.400000  0.400000 -0.050000      6.000000
 -0.400000  0.450000  0.000000      6.000000
 -0.400000  0.500000  0.050000      6.000000
 -0.400000 -0.450000 -0.900000      6.000000
 -0.400000 -0.400000 -0.850000      6.000000
 -0.400000 -0.350000 -0.800000      6.000000
 -0.400000 -0.300000 -0.750000      6.000000
 -0.400000 -0.250000 -0.700000      6.000000
 -0.400000 -0.200000 -0.650000      6.000000
 -0.400000 -0.150000 -0.600000      6.000000
 -0.400000 -0.100000 -0.550000      6.000000
 -0.400000 -0.050000 -0.500000      6.000000
 -0.400000  0.000000 -0.450000      6.000000
 -0.350000  0.100000 -0.300000      6.000000
 -0.350000  0.150000 -0.250000      6.000000
 -0.350000  0.200000 -0.200000      6.000000
 -0.350000  0.250000 -0.150000      6.000000
 -0.350000  0.300000 -0.100000      6.000000
 -0.350000  0.350000 -0.050000      6.000000
 -0.350000  0.400000  0.000000      6.000000
 -0.350000  0.450000  0.050000      6.000000
 -0.350000  0.500000  0.100000      6.000000
 -0.350000 -0.450000 -0.850000      6.000000
 -0.350000 -0.400000 -0.800000      6.000000
 -0.350000 -0.350000 -0.750000      6.000000
 -0.350000 -0.300000 -0.700000      6.000000
 -0.350000 -0.250000 -0.650000      6.000000
 -0.350000 -0.200000 -0.600000      6.000000
 -0.350000 -0.150000 -0.550000      6.000000
 -0.350000 -0.100000 -0.500000      6.000000
 -0.350000 -0.050000 -0.450000      6.000000
 -0.350000  0.000000 -0.400000      6.000000
 -0.300000  0.100000 -0.250000      6.000000
 -0.300000  0.150000 -0.200000      6.000000
 -0.300000  0.200000 -0.150000      6.000000
 -0.300000  0.250000 -0.100000      6.000000
 -0.300000  0.300000 -0.050000      6.000000
 -0.300000  0.350000  0.000000      6.000000
 -0.300000  0.400000  0.050000      6.000000
 -0.300000  0.450000  0.100000      6.000000
 -0.300000  0.500000  0.150000      6.000000
 -0.300000 -0.450000 -0.800000      6.000000
 -0.300000 -0.400000 -0.750000      6.000000
 -0.300000 -0.350000 -0.700000      6.000000
 -0.300000 -0.300000 -0.650000      6.000000
 -0.300000 -0.250000 -0.600000      6.000000
 -0.300000 -0.200000 -0.550000      6.000000
 -0.300000 -0.150000 -0.500000      6.000000
 -0.300000 -0.100000 -0.450000      6.000000
 -0.300000 -0.050000 -0.400000      6.000000
 -0.300000  0.000000 -0.350000      6.000000
 -0.250000  0.100000 -0.200000      6.000000
 -0.250000  0.150000 -0.150000      6.000000
 -0.250000  0.200000 -0.100000      6.000000
 -0.250000  0.250000 -0.050000      6.000000
 -0.250000  0.300000  0.000000      6.000000
 -0.250000  0.350000  0.050000      6.000000
 -0.250000  0.400000  0.100000      6.000000
[...]
     E(ev)      X         Y         Z        XY        YZ        ZX
  --------------------------------------------------------------------------------------
    0.000000    0.000000    0.000000    0.000000    0.000000    0.000000    0.000000
    0.352327   20.823359   20.823359   20.823359    0.003159    0.003159    0.003159
    0.704653   38.519784   38.519784   38.519784    0.003867    0.003867    0.003867
    1.056980   21.550873   21.550873   21.550873    0.001141    0.001141    0.001141
    1.409306   26.371891   26.371891   26.371891    0.001663    0.001663    0.001663
    1.761633   23.773663   23.773663   23.773663    0.001167    0.001167    0.001167
    2.113960   23.938640   23.938640   23.938640    0.000394    0.000394    0.000394
    2.466286   25.149184   25.149184   25.149184    0.000111    0.000111    0.000111
    2.818613   21.286082   21.286082   21.286082   -0.000267   -0.000267   -0.000267
    3.170939   19.663664   19.663664   19.663664    0.000240    0.000240    0.000240
    3.523266   22.203744   22.203744   22.203744    0.000448    0.000448    0.000448
    3.875593   18.464348   18.464348   18.464348    0.000101    0.000101    0.000101
    4.227919   17.401153   17.401153   17.401153    0.000451    0.000451    0.000451
    4.580246   18.413287   18.413287   18.413287    0.000459    0.000459    0.000459
    4.932572   22.024649   22.024649   22.024649    0.001097    0.001097    0.001097
    5.284899   26.493382   26.493382   26.493382    0.000063    0.000063    0.000063
    5.637226   18.178801   18.178801   18.178801   -0.000748   -0.000748   -0.000748
    5.989552   13.736801   13.736801   13.736801   -0.000370   -0.000370   -0.000370
    6.341879    9.054839    9.054839    9.054839   -0.000472   -0.000472   -0.000472
    6.694205    7.498513    7.498513    7.498513   -0.000180   -0.000180   -0.000180
    7.046532    6.080664    6.080664    6.080664   -0.000560   -0.000560   -0.000560
    7.398859    4.503558    4.503558    4.503558   -0.000026   -0.000026   -0.000026
    7.751185    3.874927    3.874927    3.874927   -0.000213   -0.000213   -0.000213
    8.103512    3.394399    3.394399    3.394399   -0.000079   -0.000079   -0.000079
    8.455838    3.862790    3.862790    3.862790   -0.000478   -0.000478   -0.000478
    8.808165    3.324567    3.324567    3.324567   -0.000016   -0.000016   -0.000016
    9.160492    2.949896    2.949896    2.949896   -0.000100   -0.000100   -0.000100
    9.512818    3.310746    3.310746    3.310746   -0.000096   -0.000096   -0.000096
    9.865145    4.003104    4.003104    4.003104   -0.000235   -0.000235   -0.000235
   10.217471    3.924814    3.924814    3.924814   -0.000204   -0.000204   -0.000204
   10.569798    4.329167    4.329167    4.329167    0.000066    0.000066    0.000066
   10.922125    3.685580    3.685580    3.685580    0.000063    0.000063    0.000063
   11.274451    4.244765    4.244765    4.244765    0.000060    0.000060    0.000060
   11.626778    3.393407    3.393407    3.393407    0.000214    0.000214    0.000214
   11.979104    3.270976    3.270976    3.270976    0.000048    0.000048    0.000048
   12.331431    2.921856    2.921856    2.921856   -0.000018   -0.000018   -0.000018
   12.683758    3.032606    3.032606    3.032606    0.000188    0.000188    0.000188
   13.036084    2.582567    2.582567    2.582567   -0.000021   -0.000021   -0.000021
   13.388411    2.135933    2.135933    2.135933    0.000161    0.000161    0.000161
   13.740737    1.932715    1.932715    1.932715    0.000070    0.000070    0.000070
   14.093064    1.758707    1.758707    1.758707    0.000107    0.000107    0.000107
   14.445391    1.415702    1.415702    1.415702    0.000116    0.000116    0.000116
   14.797717    1.838359    1.838359    1.838359    0.000078    0.000078    0.000078
   15.150044    1.519489    1.519489    1.519489    0.000053    0.000053    0.000053
   15.502370    1.612727    1.612727    1.612727    0.000063    0.000063    0.000063
   15.854697    1.855590    1.855590    1.855590    0.000039    0.000039    0.000039
   16.207024    1.950109    1.950109    1.950109   -0.000102   -0.000102   -0.000102
   16.559350    2.319157    2.319157    2.319157   -0.000428   -0.000428   -0.000428
   16.911677    2.408728    2.408728    2.408728    0.001203    0.001203    0.001203
   17.264003    2.257754    2.257754    2.257754    0.001538    0.001538    0.001538
   17.616330    1.856686    1.856686    1.856686    0.000191    0.000191    0.000191
   17.968657    1.672167    1.672167    1.672167    0.000420    0.000420    0.000420
   18.320983    1.618615    1.618615    1.618615    0.000366    0.000366    0.000366
   18.673310    1.256693    1.256693    1.256693    0.000021    0.000021    0.000021
   19.025636    1.155044    1.155044    1.155044   -0.000122   -0.000122   -0.000122
   19.377963    1.132223    1.132223    1.132223    0.000214    0.000214    0.000214
   19.730290    0.595410    0.595410    0.595410    0.000050    0.000050    0.000050
   20.082616    0.340374    0.340374    0.340374    0.000029    0.000029    0.000029
   20.434943    0.211750    0.211750    0.211750    0.000029    0.000029    0.000029
   20.787269    0.131577    0.131577    0.131577   -0.000026   -0.000026   -0.000026
   21.139596    0.114166    0.114166    0.114166   -0.000000   -0.000000   -0.000000
   21.491923    0.066292    0.066292    0.066292    0.000003    0.000003    0.000003
   21.844249    0.050909    0.050909    0.050909    0.000002    0.000002    0.000002
   22.196576    0.041813    0.041813    0.041813   -0.000004   -0.000004   -0.000004
   22.548902    0.035364    0.035364    0.035364    0.000002    0.000002    0.000002
   22.901229    0.028803    0.028803    0.028803    0.000002    0.000002    0.000002
   23.253556    0.023776    0.023776    0.023776    0.000002    0.000002    0.000002
   23.605882    0.021490    0.021490    0.021490    0.000001    0.000001    0.000001
   23.958209    0.020429    0.020429    0.020429    0.000001    0.000001    0.000001
   24.310535    0.016294    0.016294    0.016294    0.000001    0.000001    0.000001
   24.662862    0.015992    0.015992    0.015992    0.000001    0.000001    0.000001
   25.015189    0.013626    0.013626    0.013626    0.000001    0.000001    0.000001
   25.367515    0.012687    0.012687    0.012687    0.000001    0.000001    0.000001
   25.719842    0.011168    0.011168    0.011168   -0.000000   -0.000000   -0.000000
   26.072168    0.010104    0.010104    0.010104    0.000001    0.000001    0.000001
   26.424495    0.009449    0.009449    0.009449    0.000001    0.000001    0.000001
   26.776822    0.008881    0.008881    0.008881    0.000001    0.000001    0.000001
   27.129148    0.008372    0.008372    0.008372    0.000000    0.000000    0.000000
   27.481475    0.007911    0.007911    0.007911    0.000000    0.000000    0.000000
   27.833801    0.007490    0.007490    0.007490    0.000000    0.000000    0.000000
   28.186128    0.007103    0.007103    0.007103    0.000000    0.000000    0.000000
   28.538455    0.006747    0.006747    0.006747    0.000000    0.000000    0.000000
   28.890781    0.006417    0.006417    0.006417    0.000000    0.000000    0.000000
   29.243108    0.006112    0.006112    0.006112    0.000000    0.000000    0.000000
   29.595434    0.005828    0.005828    0.005828    0.000000    0.000000    0.000000
   29.947761    0.005563    0.005563    0.005563    0.000000    0.000000    0.000000
   30.300088    0.005316    0.005316    0.005316    0.000000    0.000000    0.000000
   30.652414    0.005085    0.005085    0.005085    0.000000    0.000000    0.000000
   31.004741    0.004869    0.004869    0.004869    0.000000    0.000000    0.000000
   31.357067    0.004666    0.004666    0.004666    0.000000    0.000000    0.000000
   31.709394    0.004475    0.004475    0.004475    0.000000    0.000000    0.000000
   32.061721    0.004295    0.004295    0.004295    0.000000    0.000000    0.000000
   32.414047    0.004126    0.004126    0.004126    0.000000    0.000000    0.000000
   32.766374    0.003966    0.003966    0.003966    0.000000    0.000000    0.000000
   33.118700    0.003814    0.003814    0.003814    0.000000    0.000000    0.000000
   33.471027    0.003671    0.003671    0.003671    0.000000    0.000000    0.000000
   33.823354    0.003536    0.003536    0.003536    0.000000    0.000000    0.000000
   34.175680    0.003407    0.003407    0.003407    0.000000    0.000000    0.000000
   34.528007    0.003286    0.003286    0.003286    0.000000    0.000000    0.000000
   34.880333    0.003170    0.003170    0.003170    0.000000    0.000000    0.000000

  frequency dependent      REAL DIELECTRIC FUNCTION (independent particle, no local field effects)
     E(ev)      X         Y         Z        XY        YZ        ZX
  --------------------------------------------------------------------------------------
    0.000000   58.688639   58.688639   58.688639    0.004386    0.004386    0.004386
    0.352327   57.126082   57.126082   57.126082    0.003667    0.003667    0.003667
    0.704653   46.802802   46.802802   46.802802    0.001781    0.001781    0.001781
    1.056980   17.399900   17.399900   17.399900   -0.000706   -0.000706   -0.000706
    1.409306   25.811245   25.811245   25.811245   -0.001054   -0.001054   -0.001054
    1.761633   15.173569   15.173569   15.173569   -0.000891   -0.000891   -0.000891
    2.113960   17.107830   17.107830   17.107830    0.000259    0.000259    0.000259
    2.466286   12.668390   12.668390   12.668390   -0.001217   -0.001217   -0.001217
    2.818613    9.040604    9.040604    9.040604   -0.000215   -0.000215   -0.000215
    3.170939    8.394391    8.394391    8.394391    0.000191    0.000191    0.000191
    3.523266    7.123413    7.123413    7.123413   -0.000229   -0.000229   -0.000229
    3.875593    2.891975    2.891975    2.891975    0.000015    0.000015    0.000015
    4.227919    4.863463    4.863463    4.863463    0.000101    0.000101    0.000101
    4.580246    3.981181    3.981181    3.981181   -0.000198   -0.000198   -0.000198
    4.932572    5.302477    5.302477    5.302477   -0.000393   -0.000393   -0.000393
    5.284899   -3.509328   -3.509328   -3.509328   -0.001643   -0.001643   -0.001643
    5.637226  -10.634171  -10.634171  -10.634171   -0.000411   -0.000411   -0.000411
    5.989552  -10.461313  -10.461313  -10.461313   -0.000408   -0.000408   -0.000408
    6.341879   -9.646147   -9.646147   -9.646147   -0.000040   -0.000040   -0.000040
    6.694205   -7.752443   -7.752443   -7.752443   -0.000258   -0.000258   -0.000258
    7.046532   -6.725655   -6.725655   -6.725655    0.000239    0.000239    0.000239
    7.398859   -5.903746   -5.903746   -5.903746    0.000104    0.000104    0.000104
    7.751185   -4.653179   -4.653179   -4.653179    0.000002    0.000002    0.000002
    8.103512   -3.402987   -3.402987   -3.402987   -0.000080   -0.000080   -0.000080
    8.455838   -2.649226   -2.649226   -2.649226    0.000204    0.000204    0.000204
    8.808165   -2.613973   -2.613973   -2.613973    0.000179    0.000179    0.000179
    9.160492   -1.957911   -1.957911   -1.957911    0.000141    0.000141    0.000141
    9.512818   -0.810669   -0.810669   -0.810669    0.000089    0.000089    0.000089
    9.865145   -1.218685   -1.218685   -1.218685    0.000261    0.000261    0.000261
   10.217471   -0.834678   -0.834678   -0.834678    0.000189    0.000189    0.000189
   10.569798   -1.904823   -1.904823   -1.904823    0.000341    0.000341    0.000341
   10.922125   -1.541947   -1.541947   -1.541947    0.000370    0.000370    0.000370
   11.274451   -1.500477   -1.500477   -1.500477    0.000239    0.000239    0.000239
   11.626778   -2.490358   -2.490358   -2.490358    0.000086    0.000086    0.000086
   11.979104   -2.013235   -2.013235   -2.013235    0.000168    0.000168    0.000168
   12.331431   -1.581035   -1.581035   -1.581035    0.000238    0.000238    0.000238
   12.683758   -2.202513   -2.202513   -2.202513   -0.000048   -0.000048   -0.000048
   13.036084   -2.062409   -2.062409   -2.062409    0.000261    0.000261    0.000261
   13.388411   -1.847702   -1.847702   -1.847702    0.000214    0.000214    0.000214
   13.740737   -1.814111   -1.814111   -1.814111    0.000072    0.000072    0.000072
   14.093064   -1.609832   -1.609832   -1.609832    0.000102    0.000102    0.000102
   14.445391   -1.300509   -1.300509   -1.300509    0.000178    0.000178    0.000178
   14.797717   -0.895575   -0.895575   -0.895575    0.000112    0.000112    0.000112
   15.150044   -1.140444   -1.140444   -1.140444    0.000115    0.000115    0.000115
   15.502370   -0.625344   -0.625344   -0.625344    0.000214    0.000214    0.000214
   15.854697   -0.643372   -0.643372   -0.643372    0.000177    0.000177    0.000177
   16.207024   -0.587241   -0.587241   -0.587241   -0.000086   -0.000086   -0.000086
   16.559350   -0.562955   -0.562955   -0.562955    0.002546    0.002546    0.002546
   16.911677   -1.145124   -1.145124   -1.145124   -0.000376   -0.000376   -0.000376
   17.264003   -1.371624   -1.371624   -1.371624   -0.000448   -0.000448   -0.000448
   17.616330   -1.617367   -1.617367   -1.617367   -0.000645   -0.000645   -0.000645
   17.968657   -1.468135   -1.468135   -1.468135   -0.000054   -0.000054   -0.000054
   18.320983   -1.673314   -1.673314   -1.673314   -0.000552   -0.000552   -0.000552
   18.673310   -1.688992   -1.688992   -1.688992   -0.000528   -0.000528   -0.000528
   19.025636   -1.472181   -1.472181   -1.472181   -0.000188   -0.000188   -0.000188
   19.377963   -1.839537   -1.839537   -1.839537   -0.000168   -0.000168   -0.000168
   19.730290   -1.799112   -1.799112   -1.799112   -0.000239   -0.000239   -0.000239
   20.082616   -1.493329   -1.493329   -1.493329   -0.000192   -0.000192   -0.000192
   20.434943   -1.312552   -1.312552   -1.312552   -0.000178   -0.000178   -0.000178
   20.787269   -1.091939   -1.091939   -1.091939   -0.000172   -0.000172   -0.000172
   21.139596   -0.949363   -0.949363   -0.949363   -0.000108   -0.000108   -0.000108
   21.491923   -0.820721   -0.820721   -0.820721   -0.000108   -0.000108   -0.000108
   21.844249   -0.704666   -0.704666   -0.704666   -0.000105   -0.000105   -0.000105
   22.196576   -0.605361   -0.605361   -0.605361   -0.000086   -0.000086   -0.000086
   22.548902   -0.522566   -0.522566   -0.522566   -0.000082   -0.000082   -0.000082
   22.901229   -0.441992   -0.441992   -0.441992   -0.000076   -0.000076   -0.000076
   23.253556   -0.374391   -0.374391   -0.374391   -0.000072   -0.000072   -0.000072
   23.605882   -0.311183   -0.311183   -0.311183   -0.000067   -0.000067   -0.000067
   23.958209   -0.254818   -0.254818   -0.254818   -0.000063   -0.000063   -0.000063
   24.310535   -0.202417   -0.202417   -0.202417   -0.000060   -0.000060   -0.000060
   24.662862   -0.153801   -0.153801   -0.153801   -0.000056   -0.000056   -0.000056
   25.015189   -0.109523   -0.109523   -0.109523   -0.000054   -0.000054   -0.000054
   25.367515   -0.067707   -0.067707   -0.067707   -0.000051   -0.000051   -0.000051
   25.719842   -0.028940   -0.028940   -0.028940   -0.000048   -0.000048   -0.000048
   26.072168    0.007916    0.007916    0.007916   -0.000046   -0.000046   -0.000046
   26.424495    0.042324    0.042324    0.042324   -0.000044   -0.000044   -0.000044
   26.776822    0.074590    0.074590    0.074590   -0.000042   -0.000042   -0.000042
   27.129148    0.104964    0.104964    0.104964   -0.000040   -0.000040   -0.000040
   27.481475    0.133633    0.133633    0.133633   -0.000038   -0.000038   -0.000038
   27.833801    0.160749    0.160749    0.160749   -0.000037   -0.000037   -0.000037
   28.186128    0.186443    0.186443    0.186443   -0.000035   -0.000035   -0.000035
   28.538455    0.210830    0.210830    0.210830   -0.000034   -0.000034   -0.000034
   28.890781    0.234010    0.234010    0.234010   -0.000033   -0.000033   -0.000033
   29.243108    0.256072    0.256072    0.256072   -0.000031   -0.000031   -0.000031
   29.595434    0.277097    0.277097    0.277097   -0.000030   -0.000030   -0.000030
   29.947761    0.297158    0.297158    0.297158   -0.000029   -0.000029   -0.000029
   30.300088    0.316318    0.316318    0.316318   -0.000028   -0.000028   -0.000028
   30.652414    0.334636    0.334636    0.334636   -0.000027   -0.000027   -0.000027
   31.004741    0.352167    0.352167    0.352167   -0.000026   -0.000026   -0.000026
   31.357067    0.368959    0.368959    0.368959   -0.000026   -0.000026   -0.000026
   31.709394    0.385057    0.385057    0.385057   -0.000025   -0.000025   -0.000025
   32.061721    0.400503    0.400503    0.400503   -0.000024   -0.000024   -0.000024
   32.414047    0.415333    0.415333    0.415333   -0.000023   -0.000023   -0.000023
   32.766374    0.429583    0.429583    0.429583   -0.000023   -0.000023   -0.000023
   33.118700    0.443286    0.443286    0.443286   -0.000022   -0.000022   -0.000022
   33.471027    0.456470    0.456470    0.456470   -0.000021   -0.000021   -0.000021
   33.823354    0.469164    0.469164    0.469164   -0.000021   -0.000021   -0.000021
   34.175680    0.481394    0.481394    0.481394   -0.000020   -0.000020   -0.000020
   34.528007    0.493181    0.493181    0.493181   -0.000020   -0.000020   -0.000020
   34.880333    0.504551    0.504551    0.504551   -0.000019   -0.000019   -0.000019
 
 The outermost node in the dielectric function lies at epsilon=  26.0


--------------------------------------------------------------------------------------------------------


    OPTICS:  cpu time   18.56: real time   18.62
    4ORBIT:  cpu time    0.00: real time    0.00

 Spin-Orbit-Coupling matrix elements

 Ion:    1  E_soc:     -0.4576758
 l=   1
     0.0000000    -0.0350690    -0.0350690
    -0.0350690     0.0000000    -0.0350690
    -0.0350690    -0.0350690     0.0000000
 l=   2
     0.0000000    -0.0109580     0.0000000    -0.0109580    -0.0302523
    -0.0109580     0.0000000    -0.0226893    -0.0109580    -0.0075631
     0.0000000    -0.0226893     0.0000000    -0.0226893     0.0000000
    -0.0109580    -0.0109580    -0.0226893     0.0000000    -0.0075631
    -0.0302523    -0.0075631     0.0000000    -0.0075631     0.0000000
 l=   3
     0.0000000     0.0000000     0.0000000     0.0000000     0.0000000     0.0000000     0.0000000
     0.0000000     0.0000000     0.0000000     0.0000000     0.0000000     0.0000000     0.0000000
     0.0000000     0.0000000     0.0000000     0.0000000     0.0000000     0.0000000     0.0000000
     0.0000000     0.0000000     0.0000000     0.0000000     0.0000000     0.0000000     0.0000000
     0.0000000     0.0000000     0.0000000     0.0000000     0.0000000     0.0000000     0.0000000
     0.0000000     0.0000000     0.0000000     0.0000000     0.0000000     0.0000000     0.0000000
     0.0000000     0.0000000     0.0000000     0.0000000     0.0000000     0.0000000     0.0000000

 total amount of memory used by VASP on root node   163003. kBytes
========================================================================

   base      :      30000. kBytes
   nonl-proj :      26051. kBytes
   grid      :       1920. kBytes
   one-center:         62. kBytes
   wavefun   :     104970. kBytes
 
  
  
 General timing and accounting informations for this job:
 ========================================================
  
                  Total CPU time used (sec):      139.824
                            User time (sec):      136.181
                          System time (sec):        3.643
                         Elapsed time (sec):      140.844
  
                   Maximum memory used (kb):      431488.
                   Average memory used (kb):           0.
  
                          Minor page faults:        34571
                          Major page faults:            0
                 Voluntary context switches:          410
