<?xml version="1.0" encoding="ISO-8859-1"?>
<modeling>
 <generator>
  <i name="program" type="string">vasp </i>
  <i name="version" type="string">5.3.5  </i>
  <i name="subversion" type="string">31Mar14 (build Dec 14 2018 19:18:10) complex                          serial </i>
  <i name="platform" type="string">LinuxIFC </i>
  <i name="date" type="string">2022 11 17 </i>
  <i name="time" type="string">20:18:40 </i>
 </generator>
 <incar>
  <i type="string" name="SYSTEM"> W bcc</i>
  <i type="string" name="PREC">normal</i>
  <i type="logical" name="LSORBIT"> T  </i>
  <v name="SAXIS">      0.00000000      0.00000000      1.00000000</v>
  <i type="logical" name="LOPTICS"> T  </i>
  <i type="logical" name="LSCALAPACK"> F  </i>
 </incar>
 <kpoints>
  <generation param="Monkhorst-Pack">
   <v type="int" name="divisions">      20       20       20 </v>
   <v name="usershift">      0.00000000       0.00000000       0.00000000 </v>
   <v name="genvec1">      0.05000000       0.00000000       0.00000000 </v>
   <v name="genvec2">      0.00000000       0.05000000       0.00000000 </v>
   <v name="genvec3">      0.00000000       0.00000000       0.05000000 </v>
   <v name="shift">      0.50000000       0.50000000       0.50000000 </v>
  </generation>
  <varray name="kpointlist" >
   <v>       0.02500000       0.02500000       0.02500000 </v>
   <v>       0.07500000       0.02500000       0.02500000 </v>
   <v>       0.12500000       0.02500000       0.02500000 </v>
   <v>       0.17500000       0.02500000       0.02500000 </v>
   <v>       0.22500000       0.02500000       0.02500000 </v>
   <v>       0.27500000       0.02500000       0.02500000 </v>
   <v>       0.32500000       0.02500000       0.02500000 </v>
   <v>       0.37500000       0.02500000       0.02500000 </v>
   <v>       0.42500000       0.02500000       0.02500000 </v>
   <v>       0.47500000       0.02500000       0.02500000 </v>
   <v>      -0.47500000       0.02500000       0.02500000 </v>
   <v>      -0.42500000       0.02500000       0.02500000 </v>
   <v>      -0.37500000       0.02500000       0.02500000 </v>
   <v>      -0.32500000       0.02500000       0.02500000 </v>
   <v>      -0.27500000       0.02500000       0.02500000 </v>
   <v>      -0.22500000       0.02500000       0.02500000 </v>
   <v>      -0.17500000       0.02500000       0.02500000 </v>
   <v>      -0.12500000       0.02500000       0.02500000 </v>
   <v>      -0.07500000       0.02500000       0.02500000 </v>
   <v>      -0.02500000       0.02500000       0.02500000 </v>
   <v>       0.07500000       0.07500000       0.02500000 </v>
   <v>       0.12500000       0.07500000       0.02500000 </v>
   <v>       0.17500000       0.07500000       0.02500000 </v>
   <v>       0.22500000       0.07500000       0.02500000 </v>
   <v>       0.27500000       0.07500000       0.02500000 </v>
   <v>       0.32500000       0.07500000       0.02500000 </v>
   <v>       0.37500000       0.07500000       0.02500000 </v>
   <v>       0.42500000       0.07500000       0.02500000 </v>
   <v>       0.47500000       0.07500000       0.02500000 </v>
   <v>      -0.47500000       0.07500000       0.02500000 </v>
   <v>      -0.42500000       0.07500000       0.02500000 </v>
   <v>      -0.37500000       0.07500000       0.02500000 </v>
   <v>      -0.32500000       0.07500000       0.02500000 </v>
   <v>      -0.27500000       0.07500000       0.02500000 </v>
   <v>      -0.22500000       0.07500000       0.02500000 </v>
   <v>      -0.17500000       0.07500000       0.02500000 </v>
   <v>      -0.12500000       0.07500000       0.02500000 </v>
   <v>      -0.07500000       0.07500000       0.02500000 </v>
   <v>      -0.02500000       0.07500000       0.02500000 </v>
   <v>       0.07500000       0.12500000       0.02500000 </v>
   <v>       0.12500000       0.12500000       0.02500000 </v>
   <v>       0.17500000       0.12500000       0.02500000 </v>
   <v>       0.22500000       0.12500000       0.02500000 </v>
   <v>       0.27500000       0.12500000       0.02500000 </v>
   <v>       0.32500000       0.12500000       0.02500000 </v>
   <v>       0.37500000       0.12500000       0.02500000 </v>
   <v>       0.42500000       0.12500000       0.02500000 </v>
   <v>       0.47500000       0.12500000       0.02500000 </v>
   <v>      -0.47500000       0.12500000       0.02500000 </v>
   <v>      -0.42500000       0.12500000       0.02500000 </v>
   <v>      -0.37500000       0.12500000       0.02500000 </v>
   <v>      -0.32500000       0.12500000       0.02500000 </v>
   <v>      -0.27500000       0.12500000       0.02500000 </v>
   <v>      -0.22500000       0.12500000       0.02500000 </v>
   <v>      -0.17500000       0.12500000       0.02500000 </v>
   <v>      -0.12500000       0.12500000       0.02500000 </v>
   <v>      -0.07500000       0.12500000       0.02500000 </v>
   <v>      -0.02500000       0.12500000       0.02500000 </v>
   <v>       0.07500000       0.17500000       0.02500000 </v>
   <v>       0.12500000       0.17500000       0.02500000 </v>
   <v>       0.17500000       0.17500000       0.02500000 </v>
   <v>       0.22500000       0.17500000       0.02500000 </v>
   <v>       0.27500000       0.17500000       0.02500000 </v>
   <v>       0.32500000       0.17500000       0.02500000 </v>
   <v>       0.37500000       0.17500000       0.02500000 </v>
   <v>       0.42500000       0.17500000       0.02500000 </v>
   <v>       0.47500000       0.17500000       0.02500000 </v>
   <v>      -0.47500000       0.17500000       0.02500000 </v>
   <v>      -0.42500000       0.17500000       0.02500000 </v>
   <v>      -0.37500000       0.17500000       0.02500000 </v>
   <v>      -0.32500000       0.17500000       0.02500000 </v>
   <v>      -0.27500000       0.17500000       0.02500000 </v>
   <v>      -0.22500000       0.17500000       0.02500000 </v>
   <v>      -0.17500000       0.17500000       0.02500000 </v>
   <v>      -0.12500000       0.17500000       0.02500000 </v>
   <v>      -0.07500000       0.17500000       0.02500000 </v>
   <v>      -0.02500000       0.17500000       0.02500000 </v>
   <v>       0.07500000       0.22500000       0.02500000 </v>
   <v>       0.12500000       0.22500000       0.02500000 </v>
   <v>       0.17500000       0.22500000       0.02500000 </v>
   <v>       0.22500000       0.22500000       0.02500000 </v>
   <v>       0.27500000       0.22500000       0.02500000 </v>
   <v>       0.32500000       0.22500000       0.02500000 </v>
   <v>       0.37500000       0.22500000       0.02500000 </v>
   <v>       0.42500000       0.22500000       0.02500000 </v>
   <v>       0.47500000       0.22500000       0.02500000 </v>
   <v>      -0.47500000       0.22500000       0.02500000 </v>
   <v>      -0.42500000       0.22500000       0.02500000 </v>
   <v>      -0.37500000       0.22500000       0.02500000 </v>
   <v>      -0.32500000       0.22500000       0.02500000 </v>
   <v>      -0.27500000       0.22500000       0.02500000 </v>
   <v>      -0.22500000       0.22500000       0.02500000 </v>
   <v>      -0.17500000       0.22500000       0.02500000 </v>
   <v>      -0.12500000       0.22500000       0.02500000 </v>
   <v>      -0.07500000       0.22500000       0.02500000 </v>
   <v>      -0.02500000       0.22500000       0.02500000 </v>
   <v>       0.07500000       0.27500000       0.02500000 </v>
   <v>       0.12500000       0.27500000       0.02500000 </v>
   <v>       0.17500000       0.27500000       0.02500000 </v>
   <v>       0.22500000       0.27500000       0.02500000 </v>
   <v>       0.27500000       0.27500000       0.02500000 </v>
   <v>       0.32500000       0.27500000       0.02500000 </v>
   <v>       0.37500000       0.27500000       0.02500000 </v>
   <v>       0.42500000       0.27500000       0.02500000 </v>
   <v>       0.47500000       0.27500000       0.02500000 </v>
   <v>      -0.47500000       0.27500000       0.02500000 </v>
   <v>      -0.42500000       0.27500000       0.02500000 </v>
   <v>      -0.37500000       0.27500000       0.02500000 </v>
   <v>      -0.32500000       0.27500000       0.02500000 </v>
   <v>      -0.27500000       0.27500000       0.02500000 </v>
   <v>      -0.22500000       0.27500000       0.02500000 </v>
   <v>      -0.17500000       0.27500000       0.02500000 </v>
   <v>      -0.12500000       0.27500000       0.02500000 </v>
   <v>      -0.07500000       0.27500000       0.02500000 </v>
   <v>      -0.02500000       0.27500000       0.02500000 </v>
   <v>       0.07500000       0.32500000       0.02500000 </v>
   <v>       0.12500000       0.32500000       0.02500000 </v>
   <v>       0.17500000       0.32500000       0.02500000 </v>
   <v>       0.22500000       0.32500000       0.02500000 </v>
   <v>       0.27500000       0.32500000       0.02500000 </v>
   <v>       0.32500000       0.32500000       0.02500000 </v>
   <v>       0.37500000       0.32500000       0.02500000 </v>
   <v>       0.42500000       0.32500000       0.02500000 </v>
   <v>       0.47500000       0.32500000       0.02500000 </v>
   <v>      -0.47500000       0.32500000       0.02500000 </v>
   <v>      -0.42500000       0.32500000       0.02500000 </v>
   <v>      -0.37500000       0.32500000       0.02500000 </v>
   <v>      -0.32500000       0.32500000       0.02500000 </v>
   <v>      -0.27500000       0.32500000       0.02500000 </v>
   <v>      -0.22500000       0.32500000       0.02500000 </v>
   <v>      -0.17500000       0.32500000       0.02500000 </v>
   <v>      -0.12500000       0.32500000       0.02500000 </v>
   <v>      -0.07500000       0.32500000       0.02500000 </v>
   <v>      -0.02500000       0.32500000       0.02500000 </v>
   <v>       0.07500000       0.37500000       0.02500000 </v>
   <v>       0.12500000       0.37500000       0.02500000 </v>
   <v>       0.17500000       0.37500000       0.02500000 </v>
   <v>       0.22500000       0.37500000       0.02500000 </v>
   <v>       0.27500000       0.37500000       0.02500000 </v>
   <v>       0.32500000       0.37500000       0.02500000 </v>
   <v>       0.37500000       0.37500000       0.02500000 </v>
   <v>       0.42500000       0.37500000       0.02500000 </v>
   <v>       0.47500000       0.37500000       0.02500000 </v>
   <v>      -0.47500000       0.37500000       0.02500000 </v>
   <v>      -0.42500000       0.37500000       0.02500000 </v>
   <v>      -0.37500000       0.37500000       0.02500000 </v>
   <v>      -0.32500000       0.37500000       0.02500000 </v>
   <v>      -0.27500000       0.37500000       0.02500000 </v>
   <v>      -0.22500000       0.37500000       0.02500000 </v>
   <v>      -0.17500000       0.37500000       0.02500000 </v>
   <v>      -0.12500000       0.37500000       0.02500000 </v>
   <v>      -0.07500000       0.37500000       0.02500000 </v>
   <v>      -0.02500000       0.37500000       0.02500000 </v>
   <v>       0.07500000       0.42500000       0.02500000 </v>
   <v>       0.12500000       0.42500000       0.02500000 </v>
   <v>       0.17500000       0.42500000       0.02500000 </v>
   <v>       0.22500000       0.42500000       0.02500000 </v>
   <v>       0.27500000       0.42500000       0.02500000 </v>
   <v>       0.32500000       0.42500000       0.02500000 </v>
   <v>       0.37500000       0.42500000       0.02500000 </v>
   <v>       0.42500000       0.42500000       0.02500000 </v>
   <v>       0.47500000       0.42500000       0.02500000 </v>
   <v>      -0.47500000       0.42500000       0.02500000 </v>
   <v>      -0.42500000       0.42500000       0.02500000 </v>
   <v>      -0.37500000       0.42500000       0.02500000 </v>
   <v>      -0.32500000       0.42500000       0.02500000 </v>
   <v>      -0.27500000       0.42500000       0.02500000 </v>
   <v>      -0.22500000       0.42500000       0.02500000 </v>
   <v>      -0.17500000       0.42500000       0.02500000 </v>
   <v>      -0.12500000       0.42500000       0.02500000 </v>
   <v>      -0.07500000       0.42500000       0.02500000 </v>
   <v>      -0.02500000       0.42500000       0.02500000 </v>
   <v>       0.07500000       0.47500000       0.02500000 </v>
   <v>       0.12500000       0.47500000       0.02500000 </v>
   <v>       0.17500000       0.47500000       0.02500000 </v>
   <v>       0.22500000       0.47500000       0.02500000 </v>
   <v>       0.27500000       0.47500000       0.02500000 </v>
   <v>       0.32500000       0.47500000       0.02500000 </v>
   <v>       0.37500000       0.47500000       0.02500000 </v>
   <v>       0.42500000       0.47500000       0.02500000 </v>
   <v>       0.47500000       0.47500000       0.02500000 </v>
   <v>      -0.47500000       0.47500000       0.02500000 </v>
   <v>      -0.42500000       0.47500000       0.02500000 </v>
   <v>      -0.37500000       0.47500000       0.02500000 </v>
   <v>      -0.32500000       0.47500000       0.02500000 </v>
   <v>      -0.27500000       0.47500000       0.02500000 </v>
   <v>      -0.22500000       0.47500000       0.02500000 </v>
   <v>      -0.17500000       0.47500000       0.02500000 </v>
   <v>      -0.12500000       0.47500000       0.02500000 </v>
   <v>      -0.07500000       0.47500000       0.02500000 </v>
   <v>      -0.02500000       0.47500000       0.02500000 </v>
   <v>       0.07500000      -0.47500000       0.02500000 </v>
   <v>       0.12500000      -0.47500000       0.02500000 </v>
   <v>       0.17500000      -0.47500000       0.02500000 </v>
   <v>       0.22500000      -0.47500000       0.02500000 </v>
   <v>       0.27500000      -0.47500000       0.02500000 </v>
   <v>       0.32500000      -0.47500000       0.02500000 </v>
   <v>       0.37500000      -0.47500000       0.02500000 </v>
   <v>       0.42500000      -0.47500000       0.02500000 </v>
   <v>       0.47500000      -0.47500000       0.02500000 </v>
   <v>      -0.47500000      -0.47500000       0.02500000 </v>
   <v>      -0.42500000      -0.47500000       0.02500000 </v>
   <v>      -0.37500000      -0.47500000       0.02500000 </v>
   <v>      -0.32500000      -0.47500000       0.02500000 </v>
   <v>      -0.27500000      -0.47500000       0.02500000 </v>
   <v>      -0.22500000      -0.47500000       0.02500000 </v>
   <v>      -0.17500000      -0.47500000       0.02500000 </v>
   <v>      -0.12500000      -0.47500000       0.02500000 </v>
   <v>      -0.07500000      -0.47500000       0.02500000 </v>
   <v>      -0.02500000      -0.47500000       0.02500000 </v>
   <v>       0.07500000      -0.42500000       0.02500000 </v>
   <v>       0.12500000      -0.42500000       0.02500000 </v>
   <v>       0.17500000      -0.42500000       0.02500000 </v>
   <v>       0.22500000      -0.42500000       0.02500000 </v>
   <v>       0.27500000      -0.42500000       0.02500000 </v>
   <v>       0.32500000      -0.42500000       0.02500000 </v>
   <v>       0.37500000      -0.42500000       0.02500000 </v>
   <v>       0.42500000      -0.42500000       0.02500000 </v>
   <v>       0.47500000      -0.42500000       0.02500000 </v>
   <v>      -0.47500000      -0.42500000       0.02500000 </v>
   <v>      -0.42500000      -0.42500000       0.02500000 </v>
   <v>      -0.37500000      -0.42500000       0.02500000 </v>
   <v>      -0.32500000      -0.42500000       0.02500000 </v>
   <v>      -0.27500000      -0.42500000       0.02500000 </v>
   <v>      -0.22500000      -0.42500000       0.02500000 </v>
   <v>      -0.17500000      -0.42500000       0.02500000 </v>
   <v>      -0.12500000      -0.42500000       0.02500000 </v>
   <v>      -0.07500000      -0.42500000       0.02500000 </v>
   <v>      -0.02500000      -0.42500000       0.02500000 </v>
   <v>       0.07500000      -0.37500000       0.02500000 </v>
   <v>       0.12500000      -0.37500000       0.02500000 </v>
   <v>       0.17500000      -0.37500000       0.02500000 </v>
   <v>       0.22500000      -0.37500000       0.02500000 </v>
   <v>       0.27500000      -0.37500000       0.02500000 </v>
   <v>       0.32500000      -0.37500000       0.02500000 </v>
   <v>       0.37500000      -0.37500000       0.02500000 </v>
   <v>       0.42500000      -0.37500000       0.02500000 </v>
   <v>       0.47500000      -0.37500000       0.02500000 </v>
   <v>      -0.47500000      -0.37500000       0.02500000 </v>
   <v>      -0.42500000      -0.37500000       0.02500000 </v>
   <v>      -0.37500000      -0.37500000       0.02500000 </v>
   <v>      -0.32500000      -0.37500000       0.02500000 </v>
   <v>      -0.27500000      -0.37500000       0.02500000 </v>
   <v>      -0.22500000      -0.37500000       0.02500000 </v>
   <v>      -0.17500000      -0.37500000       0.02500000 </v>
   <v>      -0.12500000      -0.37500000       0.02500000 </v>
   <v>      -0.07500000      -0.37500000       0.02500000 </v>
   <v>      -0.02500000      -0.37500000       0.02500000 </v>
   <v>       0.07500000      -0.32500000       0.02500000 </v>
   <v>       0.12500000      -0.32500000       0.02500000 </v>
   <v>       0.17500000      -0.32500000       0.02500000 </v>
   <v>       0.22500000      -0.32500000       0.02500000 </v>
   <v>       0.27500000      -0.32500000       0.02500000 </v>
   <v>       0.32500000      -0.32500000       0.02500000 </v>
   <v>       0.37500000      -0.32500000       0.02500000 </v>
   <v>       0.42500000      -0.32500000       0.02500000 </v>
   <v>       0.47500000      -0.32500000       0.02500000 </v>
   <v>      -0.47500000      -0.32500000       0.02500000 </v>
   <v>      -0.42500000      -0.32500000       0.02500000 </v>
   <v>      -0.37500000      -0.32500000       0.02500000 </v>
   <v>      -0.32500000      -0.32500000       0.02500000 </v>
   <v>      -0.27500000      -0.32500000       0.02500000 </v>
   <v>      -0.22500000      -0.32500000       0.02500000 </v>
   <v>      -0.17500000      -0.32500000       0.02500000 </v>
   <v>      -0.12500000      -0.32500000       0.02500000 </v>
   <v>      -0.07500000      -0.32500000       0.02500000 </v>
   <v>      -0.02500000      -0.32500000       0.02500000 </v>
   <v>       0.07500000      -0.27500000       0.02500000 </v>
   <v>       0.12500000      -0.27500000       0.02500000 </v>
   <v>       0.17500000      -0.27500000       0.02500000 </v>
   <v>       0.22500000      -0.27500000       0.02500000 </v>
   <v>       0.27500000      -0.27500000       0.02500000 </v>
   <v>       0.32500000      -0.27500000       0.02500000 </v>
   <v>       0.37500000      -0.27500000       0.02500000 </v>
   <v>       0.42500000      -0.27500000       0.02500000 </v>
   <v>       0.47500000      -0.27500000       0.02500000 </v>
   <v>      -0.47500000      -0.27500000       0.02500000 </v>
   <v>      -0.42500000      -0.27500000       0.02500000 </v>
   <v>      -0.37500000      -0.27500000       0.02500000 </v>
   <v>      -0.32500000      -0.27500000       0.02500000 </v>
   <v>      -0.27500000      -0.27500000       0.02500000 </v>
   <v>      -0.22500000      -0.27500000       0.02500000 </v>
   <v>      -0.17500000      -0.27500000       0.02500000 </v>
   <v>      -0.12500000      -0.27500000       0.02500000 </v>
   <v>      -0.07500000      -0.27500000       0.02500000 </v>
   <v>      -0.02500000      -0.27500000       0.02500000 </v>
   <v>       0.07500000      -0.22500000       0.02500000 </v>
   <v>       0.12500000      -0.22500000       0.02500000 </v>
   <v>       0.17500000      -0.22500000       0.02500000 </v>
   <v>       0.22500000      -0.22500000       0.02500000 </v>
   <v>       0.27500000      -0.22500000       0.02500000 </v>
   <v>       0.32500000      -0.22500000       0.02500000 </v>
   <v>       0.37500000      -0.22500000       0.02500000 </v>
   <v>       0.42500000      -0.22500000       0.02500000 </v>
   <v>       0.47500000      -0.22500000       0.02500000 </v>
   <v>      -0.47500000      -0.22500000       0.02500000 </v>
   <v>      -0.42500000      -0.22500000       0.02500000 </v>
   <v>      -0.37500000      -0.22500000       0.02500000 </v>
   <v>      -0.32500000      -0.22500000       0.02500000 </v>
   <v>      -0.27500000      -0.22500000       0.02500000 </v>
   <v>      -0.22500000      -0.22500000       0.02500000 </v>
   <v>      -0.17500000      -0.22500000       0.02500000 </v>
   <v>      -0.12500000      -0.22500000       0.02500000 </v>
   <v>      -0.07500000      -0.22500000       0.02500000 </v>
   <v>      -0.02500000      -0.22500000       0.02500000 </v>
   <v>       0.07500000      -0.17500000       0.02500000 </v>
   <v>       0.12500000      -0.17500000       0.02500000 </v>
   <v>       0.17500000      -0.17500000       0.02500000 </v>
   <v>       0.22500000      -0.17500000       0.02500000 </v>
   <v>       0.27500000      -0.17500000       0.02500000 </v>
   <v>       0.32500000      -0.17500000       0.02500000 </v>
   <v>       0.37500000      -0.17500000       0.02500000 </v>
   <v>       0.42500000      -0.17500000       0.02500000 </v>
   <v>       0.47500000      -0.17500000       0.02500000 </v>
   <v>      -0.47500000      -0.17500000       0.02500000 </v>
   <v>      -0.42500000      -0.17500000       0.02500000 </v>
   <v>      -0.37500000      -0.17500000       0.02500000 </v>
   <v>      -0.32500000      -0.17500000       0.02500000 </v>
   <v>      -0.27500000      -0.17500000       0.02500000 </v>
   <v>      -0.22500000      -0.17500000       0.02500000 </v>
   <v>      -0.17500000      -0.17500000       0.02500000 </v>
   <v>      -0.12500000      -0.17500000       0.02500000 </v>
   <v>      -0.07500000      -0.17500000       0.02500000 </v>
   <v>      -0.02500000      -0.17500000       0.02500000 </v>
   <v>       0.07500000      -0.12500000       0.02500000 </v>
   <v>       0.12500000      -0.12500000       0.02500000 </v>
   <v>       0.17500000      -0.12500000       0.02500000 </v>
   <v>       0.22500000      -0.12500000       0.02500000 </v>
   <v>       0.27500000      -0.12500000       0.02500000 </v>
   <v>       0.32500000      -0.12500000       0.02500000 </v>
   <v>       0.37500000      -0.12500000       0.02500000 </v>
   <v>       0.42500000      -0.12500000       0.02500000 </v>
   <v>       0.47500000      -0.12500000       0.02500000 </v>
   <v>      -0.47500000      -0.12500000       0.02500000 </v>
   <v>      -0.42500000      -0.12500000       0.02500000 </v>
   <v>      -0.37500000      -0.12500000       0.02500000 </v>
   <v>      -0.32500000      -0.12500000       0.02500000 </v>
   <v>      -0.27500000      -0.12500000       0.02500000 </v>
   <v>      -0.22500000      -0.12500000       0.02500000 </v>
   <v>      -0.17500000      -0.12500000       0.02500000 </v>
   <v>      -0.12500000      -0.12500000       0.02500000 </v>
   <v>      -0.07500000      -0.12500000       0.02500000 </v>
   <v>      -0.02500000      -0.12500000       0.02500000 </v>
   <v>       0.07500000      -0.07500000       0.02500000 </v>
   <v>       0.12500000      -0.07500000       0.02500000 </v>
   <v>       0.17500000      -0.07500000       0.02500000 </v>
   <v>       0.22500000      -0.07500000       0.02500000 </v>
   <v>       0.27500000      -0.07500000       0.02500000 </v>
   <v>       0.32500000      -0.07500000       0.02500000 </v>
   <v>       0.37500000      -0.07500000       0.02500000 </v>
   <v>       0.42500000      -0.07500000       0.02500000 </v>
   <v>       0.47500000      -0.07500000       0.02500000 </v>
   <v>      -0.47500000      -0.07500000       0.02500000 </v>
   <v>      -0.42500000      -0.07500000       0.02500000 </v>
   <v>      -0.37500000      -0.07500000       0.02500000 </v>
   <v>      -0.32500000      -0.07500000       0.02500000 </v>
   <v>      -0.27500000      -0.07500000       0.02500000 </v>
   <v>      -0.22500000      -0.07500000       0.02500000 </v>
   <v>      -0.17500000      -0.07500000       0.02500000 </v>
   <v>      -0.12500000      -0.07500000       0.02500000 </v>
   <v>      -0.07500000      -0.07500000       0.02500000 </v>
   <v>      -0.02500000      -0.07500000       0.02500000 </v>
   <v>       0.07500000       0.07500000       0.07500000 </v>
   <v>       0.12500000       0.07500000       0.07500000 </v>
   <v>       0.17500000       0.07500000       0.07500000 </v>
   <v>       0.22500000       0.07500000       0.07500000 </v>
   <v>       0.27500000       0.07500000       0.07500000 </v>
   <v>       0.32500000       0.07500000       0.07500000 </v>
   <v>       0.37500000       0.07500000       0.07500000 </v>
   <v>       0.42500000       0.07500000       0.07500000 </v>
   <v>       0.47500000       0.07500000       0.07500000 </v>
   <v>      -0.47500000       0.07500000       0.07500000 </v>
   <v>      -0.42500000       0.07500000       0.07500000 </v>
   <v>      -0.37500000       0.07500000       0.07500000 </v>
   <v>      -0.32500000       0.07500000       0.07500000 </v>
   <v>      -0.27500000       0.07500000       0.07500000 </v>
   <v>      -0.22500000       0.07500000       0.07500000 </v>
   <v>      -0.17500000       0.07500000       0.07500000 </v>
   <v>      -0.12500000       0.07500000       0.07500000 </v>
   <v>      -0.07500000       0.07500000       0.07500000 </v>
   <v>       0.12500000       0.12500000       0.07500000 </v>
   <v>       0.17500000       0.12500000       0.07500000 </v>
   <v>       0.22500000       0.12500000       0.07500000 </v>
   <v>       0.27500000       0.12500000       0.07500000 </v>
   <v>       0.32500000       0.12500000       0.07500000 </v>
   <v>       0.37500000       0.12500000       0.07500000 </v>
   <v>       0.42500000       0.12500000       0.07500000 </v>
   <v>       0.47500000       0.12500000       0.07500000 </v>
   <v>      -0.47500000       0.12500000       0.07500000 </v>
   <v>      -0.42500000       0.12500000       0.07500000 </v>
   <v>      -0.37500000       0.12500000       0.07500000 </v>
   <v>      -0.32500000       0.12500000       0.07500000 </v>
   <v>      -0.27500000       0.12500000       0.07500000 </v>
   <v>      -0.22500000       0.12500000       0.07500000 </v>
   <v>      -0.17500000       0.12500000       0.07500000 </v>
   <v>      -0.12500000       0.12500000       0.07500000 </v>
   <v>      -0.07500000       0.12500000       0.07500000 </v>
   <v>       0.12500000       0.17500000       0.07500000 </v>
   <v>       0.17500000       0.17500000       0.07500000 </v>
   <v>       0.22500000       0.17500000       0.07500000 </v>
   <v>       0.27500000       0.17500000       0.07500000 </v>
   <v>       0.32500000       0.17500000       0.07500000 </v>
   <v>       0.37500000       0.17500000       0.07500000 </v>
   <v>       0.42500000       0.17500000       0.07500000 </v>
   <v>       0.47500000       0.17500000       0.07500000 </v>
   <v>      -0.47500000       0.17500000       0.07500000 </v>
   <v>      -0.42500000       0.17500000       0.07500000 </v>
   <v>      -0.37500000       0.17500000       0.07500000 </v>
   <v>      -0.32500000       0.17500000       0.07500000 </v>
   <v>      -0.27500000       0.17500000       0.07500000 </v>
   <v>      -0.22500000       0.17500000       0.07500000 </v>
   <v>      -0.17500000       0.17500000       0.07500000 </v>
   <v>      -0.12500000       0.17500000       0.07500000 </v>
   <v>      -0.07500000       0.17500000       0.07500000 </v>
   <v>       0.12500000       0.22500000       0.07500000 </v>
   <v>       0.17500000       0.22500000       0.07500000 </v>
   <v>       0.22500000       0.22500000       0.07500000 </v>
   <v>       0.27500000       0.22500000       0.07500000 </v>
   <v>       0.32500000       0.22500000       0.07500000 </v>
   <v>       0.37500000       0.22500000       0.07500000 </v>
   <v>       0.42500000       0.22500000       0.07500000 </v>
   <v>       0.47500000       0.22500000       0.07500000 </v>
   <v>      -0.47500000       0.22500000       0.07500000 </v>
   <v>      -0.42500000       0.22500000       0.07500000 </v>
   <v>      -0.37500000       0.22500000       0.07500000 </v>
   <v>      -0.32500000       0.22500000       0.07500000 </v>
   <v>      -0.27500000       0.22500000       0.07500000 </v>
   <v>      -0.22500000       0.22500000       0.07500000 </v>
   <v>      -0.17500000       0.22500000       0.07500000 </v>
   <v>      -0.12500000       0.22500000       0.07500000 </v>
   <v>      -0.07500000       0.22500000       0.07500000 </v>
   <v>       0.12500000       0.27500000       0.07500000 </v>
   <v>       0.17500000       0.27500000       0.07500000 </v>
   <v>       0.22500000       0.27500000       0.07500000 </v>
   <v>       0.27500000       0.27500000       0.07500000 </v>
   <v>       0.32500000       0.27500000       0.07500000 </v>
   <v>       0.37500000       0.27500000       0.07500000 </v>
   <v>       0.42500000       0.27500000       0.07500000 </v>
   <v>       0.47500000       0.27500000       0.07500000 </v>
   <v>      -0.47500000       0.27500000       0.07500000 </v>
   <v>      -0.42500000       0.27500000       0.07500000 </v>
   <v>      -0.37500000       0.27500000       0.07500000 </v>
   <v>      -0.32500000       0.27500000       0.07500000 </v>
   <v>      -0.27500000       0.27500000       0.07500000 </v>
   <v>      -0.22500000       0.27500000       0.07500000 </v>
   <v>      -0.17500000       0.27500000       0.07500000 </v>
   <v>      -0.12500000       0.27500000       0.07500000 </v>
   <v>      -0.07500000       0.27500000       0.07500000 </v>
   <v>       0.12500000       0.32500000       0.07500000 </v>
   <v>       0.17500000       0.32500000       0.07500000 </v>
   <v>       0.22500000       0.32500000       0.07500000 </v>
   <v>       0.27500000       0.32500000       0.07500000 </v>
   <v>       0.32500000       0.32500000       0.07500000 </v>
   <v>       0.37500000       0.32500000       0.07500000 </v>
   <v>       0.42500000       0.32500000       0.07500000 </v>
   <v>       0.47500000       0.32500000       0.07500000 </v>
   <v>      -0.47500000       0.32500000       0.07500000 </v>
   <v>      -0.42500000       0.32500000       0.07500000 </v>
   <v>      -0.37500000       0.32500000       0.07500000 </v>
   <v>      -0.32500000       0.32500000       0.07500000 </v>
   <v>      -0.27500000       0.32500000       0.07500000 </v>
   <v>      -0.22500000       0.32500000       0.07500000 </v>
   <v>      -0.17500000       0.32500000       0.07500000 </v>
   <v>      -0.12500000       0.32500000       0.07500000 </v>
   <v>      -0.07500000       0.32500000       0.07500000 </v>
   <v>       0.12500000       0.37500000       0.07500000 </v>
   <v>       0.17500000       0.37500000       0.07500000 </v>
   <v>       0.22500000       0.37500000       0.07500000 </v>
   <v>       0.27500000       0.37500000       0.07500000 </v>
   <v>       0.32500000       0.37500000       0.07500000 </v>
   <v>       0.37500000       0.37500000       0.07500000 </v>
   <v>       0.42500000       0.37500000       0.07500000 </v>
   <v>       0.47500000       0.37500000       0.07500000 </v>
   <v>      -0.47500000       0.37500000       0.07500000 </v>
   <v>      -0.42500000       0.37500000       0.07500000 </v>
   <v>      -0.37500000       0.37500000       0.07500000 </v>
   <v>      -0.32500000       0.37500000       0.07500000 </v>
   <v>      -0.27500000       0.37500000       0.07500000 </v>
   <v>      -0.22500000       0.37500000       0.07500000 </v>
   <v>      -0.17500000       0.37500000       0.07500000 </v>
   <v>      -0.12500000       0.37500000       0.07500000 </v>
   <v>      -0.07500000       0.37500000       0.07500000 </v>
   <v>       0.12500000       0.42500000       0.07500000 </v>
   <v>       0.17500000       0.42500000       0.07500000 </v>
   <v>       0.22500000       0.42500000       0.07500000 </v>
   <v>       0.27500000       0.42500000       0.07500000 </v>
   <v>       0.32500000       0.42500000       0.07500000 </v>
   <v>       0.37500000       0.42500000       0.07500000 </v>
   <v>       0.42500000       0.42500000       0.07500000 </v>
   <v>       0.47500000       0.42500000       0.07500000 </v>
   <v>      -0.47500000       0.42500000       0.07500000 </v>
   <v>      -0.42500000       0.42500000       0.07500000 </v>
   <v>      -0.37500000       0.42500000       0.07500000 </v>
   <v>      -0.32500000       0.42500000       0.07500000 </v>
   <v>      -0.27500000       0.42500000       0.07500000 </v>
   <v>      -0.22500000       0.42500000       0.07500000 </v>
   <v>      -0.17500000       0.42500000       0.07500000 </v>
   <v>      -0.12500000       0.42500000       0.07500000 </v>
   <v>      -0.07500000       0.42500000       0.07500000 </v>
   <v>       0.12500000       0.47500000       0.07500000 </v>
   <v>       0.17500000       0.47500000       0.07500000 </v>
   <v>       0.22500000       0.47500000       0.07500000 </v>
   <v>       0.27500000       0.47500000       0.07500000 </v>
   <v>       0.32500000       0.47500000       0.07500000 </v>
   <v>       0.37500000       0.47500000       0.07500000 </v>
   <v>       0.42500000       0.47500000       0.07500000 </v>
   <v>       0.47500000       0.47500000       0.07500000 </v>
   <v>      -0.47500000       0.47500000       0.07500000 </v>
   <v>      -0.42500000       0.47500000       0.07500000 </v>
   <v>      -0.37500000       0.47500000       0.07500000 </v>
   <v>      -0.32500000       0.47500000       0.07500000 </v>
   <v>      -0.27500000       0.47500000       0.07500000 </v>
   <v>      -0.22500000       0.47500000       0.07500000 </v>
   <v>      -0.17500000       0.47500000       0.07500000 </v>
   <v>      -0.12500000       0.47500000       0.07500000 </v>
   <v>      -0.07500000       0.47500000       0.07500000 </v>
   <v>       0.12500000      -0.47500000       0.07500000 </v>
   <v>       0.17500000      -0.47500000       0.07500000 </v>
   <v>       0.22500000      -0.47500000       0.07500000 </v>
   <v>       0.27500000      -0.47500000       0.07500000 </v>
   <v>       0.32500000      -0.47500000       0.07500000 </v>
   <v>       0.37500000      -0.47500000       0.07500000 </v>
   <v>       0.42500000      -0.47500000       0.07500000 </v>
   <v>       0.47500000      -0.47500000       0.07500000 </v>
   <v>      -0.47500000      -0.47500000       0.07500000 </v>
   <v>      -0.42500000      -0.47500000       0.07500000 </v>
   <v>      -0.37500000      -0.47500000       0.07500000 </v>
   <v>      -0.32500000      -0.47500000       0.07500000 </v>
   <v>      -0.27500000      -0.47500000       0.07500000 </v>
   <v>      -0.22500000      -0.47500000       0.07500000 </v>
   <v>      -0.17500000      -0.47500000       0.07500000 </v>
   <v>      -0.12500000      -0.47500000       0.07500000 </v>
   <v>      -0.07500000      -0.47500000       0.07500000 </v>
   <v>       0.12500000      -0.42500000       0.07500000 </v>
   <v>       0.17500000      -0.42500000       0.07500000 </v>
   <v>       0.22500000      -0.42500000       0.07500000 </v>
   <v>       0.27500000      -0.42500000       0.07500000 </v>
   <v>       0.32500000      -0.42500000       0.07500000 </v>
   <v>       0.37500000      -0.42500000       0.07500000 </v>
   <v>       0.42500000      -0.42500000       0.07500000 </v>
   <v>       0.47500000      -0.42500000       0.07500000 </v>
   <v>      -0.47500000      -0.42500000       0.07500000 </v>
   <v>      -0.42500000      -0.42500000       0.07500000 </v>
   <v>      -0.37500000      -0.42500000       0.07500000 </v>
   <v>      -0.32500000      -0.42500000       0.07500000 </v>
   <v>      -0.27500000      -0.42500000       0.07500000 </v>
   <v>      -0.22500000      -0.42500000       0.07500000 </v>
   <v>      -0.17500000      -0.42500000       0.07500000 </v>
   <v>      -0.12500000      -0.42500000       0.07500000 </v>
   <v>      -0.07500000      -0.42500000       0.07500000 </v>
   <v>       0.12500000      -0.37500000       0.07500000 </v>
   <v>       0.17500000      -0.37500000       0.07500000 </v>
   <v>       0.22500000      -0.37500000       0.07500000 </v>
   <v>       0.27500000      -0.37500000       0.07500000 </v>
   <v>       0.32500000      -0.37500000       0.07500000 </v>
   <v>       0.37500000      -0.37500000       0.07500000 </v>
   <v>       0.42500000      -0.37500000       0.07500000 </v>
   <v>       0.47500000      -0.37500000       0.07500000 </v>
   <v>      -0.47500000      -0.37500000       0.07500000 </v>
   <v>      -0.42500000      -0.37500000       0.07500000 </v>
   <v>      -0.37500000      -0.37500000       0.07500000 </v>
   <v>      -0.32500000      -0.37500000       0.07500000 </v>
   <v>      -0.27500000      -0.37500000       0.07500000 </v>
   <v>      -0.22500000      -0.37500000       0.07500000 </v>
   <v>      -0.17500000      -0.37500000       0.07500000 </v>
   <v>      -0.12500000      -0.37500000       0.07500000 </v>
   <v>      -0.07500000      -0.37500000       0.07500000 </v>
   <v>       0.12500000      -0.32500000       0.07500000 </v>
   <v>       0.17500000      -0.32500000       0.07500000 </v>
   <v>       0.22500000      -0.32500000       0.07500000 </v>
   <v>       0.27500000      -0.32500000       0.07500000 </v>
   <v>       0.32500000      -0.32500000       0.07500000 </v>
   <v>       0.37500000      -0.32500000       0.07500000 </v>
   <v>       0.42500000      -0.32500000       0.07500000 </v>
   <v>       0.47500000      -0.32500000       0.07500000 </v>
   <v>      -0.47500000      -0.32500000       0.07500000 </v>
   <v>      -0.42500000      -0.32500000       0.07500000 </v>
   <v>      -0.37500000      -0.32500000       0.07500000 </v>
   <v>      -0.32500000      -0.32500000       0.07500000 </v>
   <v>      -0.27500000      -0.32500000       0.07500000 </v>
   <v>      -0.22500000      -0.32500000       0.07500000 </v>
   <v>      -0.17500000      -0.32500000       0.07500000 </v>
   <v>      -0.12500000      -0.32500000       0.07500000 </v>
   <v>      -0.07500000      -0.32500000       0.07500000 </v>
   <v>       0.12500000      -0.27500000       0.07500000 </v>
   <v>       0.17500000      -0.27500000       0.07500000 </v>
   <v>       0.22500000      -0.27500000       0.07500000 </v>
   <v>       0.27500000      -0.27500000       0.07500000 </v>
   <v>       0.32500000      -0.27500000       0.07500000 </v>
   <v>       0.37500000      -0.27500000       0.07500000 </v>
   <v>       0.42500000      -0.27500000       0.07500000 </v>
   <v>       0.47500000      -0.27500000       0.07500000 </v>
   <v>      -0.47500000      -0.27500000       0.07500000 </v>
   <v>      -0.42500000      -0.27500000       0.07500000 </v>
   <v>      -0.37500000      -0.27500000       0.07500000 </v>
   <v>      -0.32500000      -0.27500000       0.07500000 </v>
   <v>      -0.27500000      -0.27500000       0.07500000 </v>
   <v>      -0.22500000      -0.27500000       0.07500000 </v>
   <v>      -0.17500000      -0.27500000       0.07500000 </v>
   <v>      -0.12500000      -0.27500000       0.07500000 </v>
   <v>      -0.07500000      -0.27500000       0.07500000 </v>
   <v>       0.12500000      -0.22500000       0.07500000 </v>
   <v>       0.17500000      -0.22500000       0.07500000 </v>
   <v>       0.22500000      -0.22500000       0.07500000 </v>
   <v>       0.27500000      -0.22500000       0.07500000 </v>
   <v>       0.32500000      -0.22500000       0.07500000 </v>
   <v>       0.37500000      -0.22500000       0.07500000 </v>
   <v>       0.42500000      -0.22500000       0.07500000 </v>
   <v>       0.47500000      -0.22500000       0.07500000 </v>
   <v>      -0.47500000      -0.22500000       0.07500000 </v>
   <v>      -0.42500000      -0.22500000       0.07500000 </v>
   <v>      -0.37500000      -0.22500000       0.07500000 </v>
   <v>      -0.32500000      -0.22500000       0.07500000 </v>
   <v>      -0.27500000      -0.22500000       0.07500000 </v>
   <v>      -0.22500000      -0.22500000       0.07500000 </v>
   <v>      -0.17500000      -0.22500000       0.07500000 </v>
   <v>      -0.12500000      -0.22500000       0.07500000 </v>
   <v>      -0.07500000      -0.22500000       0.07500000 </v>
   <v>       0.12500000      -0.17500000       0.07500000 </v>
   <v>       0.17500000      -0.17500000       0.07500000 </v>
   <v>       0.22500000      -0.17500000       0.07500000 </v>
   <v>       0.27500000      -0.17500000       0.07500000 </v>
   <v>       0.32500000      -0.17500000       0.07500000 </v>
   <v>       0.37500000      -0.17500000       0.07500000 </v>
   <v>       0.42500000      -0.17500000       0.07500000 </v>
   <v>       0.47500000      -0.17500000       0.07500000 </v>
   <v>      -0.47500000      -0.17500000       0.07500000 </v>
   <v>      -0.42500000      -0.17500000       0.07500000 </v>
   <v>      -0.37500000      -0.17500000       0.07500000 </v>
   <v>      -0.32500000      -0.17500000       0.07500000 </v>
   <v>      -0.27500000      -0.17500000       0.07500000 </v>
   <v>      -0.22500000      -0.17500000       0.07500000 </v>
   <v>      -0.17500000      -0.17500000       0.07500000 </v>
   <v>      -0.12500000      -0.17500000       0.07500000 </v>
   <v>      -0.07500000      -0.17500000       0.07500000 </v>
   <v>       0.12500000      -0.12500000       0.07500000 </v>
   <v>       0.17500000      -0.12500000       0.07500000 </v>
   <v>       0.22500000      -0.12500000       0.07500000 </v>
   <v>       0.27500000      -0.12500000       0.07500000 </v>
   <v>       0.32500000      -0.12500000       0.07500000 </v>
   <v>       0.37500000      -0.12500000       0.07500000 </v>
   <v>       0.42500000      -0.12500000       0.07500000 </v>
   <v>       0.47500000      -0.12500000       0.07500000 </v>
   <v>      -0.47500000      -0.12500000       0.07500000 </v>
   <v>      -0.42500000      -0.12500000       0.07500000 </v>
   <v>      -0.37500000      -0.12500000       0.07500000 </v>
   <v>      -0.32500000      -0.12500000       0.07500000 </v>
   <v>      -0.27500000      -0.12500000       0.07500000 </v>
   <v>      -0.22500000      -0.12500000       0.07500000 </v>
   <v>      -0.17500000      -0.12500000       0.07500000 </v>
   <v>      -0.12500000      -0.12500000       0.07500000 </v>
   <v>      -0.07500000      -0.12500000       0.07500000 </v>
   <v>       0.12500000       0.12500000       0.12500000 </v>
   <v>       0.17500000       0.12500000       0.12500000 </v>
   <v>       0.22500000       0.12500000       0.12500000 </v>
   <v>       0.27500000       0.12500000       0.12500000 </v>
   <v>       0.32500000       0.12500000       0.12500000 </v>
   <v>       0.37500000       0.12500000       0.12500000 </v>
   <v>       0.42500000       0.12500000       0.12500000 </v>
   <v>       0.47500000       0.12500000       0.12500000 </v>
   <v>      -0.47500000       0.12500000       0.12500000 </v>
   <v>      -0.42500000       0.12500000       0.12500000 </v>
   <v>      -0.37500000       0.12500000       0.12500000 </v>
   <v>      -0.32500000       0.12500000       0.12500000 </v>
   <v>      -0.27500000       0.12500000       0.12500000 </v>
   <v>      -0.22500000       0.12500000       0.12500000 </v>
   <v>      -0.17500000       0.12500000       0.12500000 </v>
   <v>      -0.12500000       0.12500000       0.12500000 </v>
   <v>       0.17500000       0.17500000       0.12500000 </v>
   <v>       0.22500000       0.17500000       0.12500000 </v>
   <v>       0.27500000       0.17500000       0.12500000 </v>
   <v>       0.32500000       0.17500000       0.12500000 </v>
   <v>       0.37500000       0.17500000       0.12500000 </v>
   <v>       0.42500000       0.17500000       0.12500000 </v>
   <v>       0.47500000       0.17500000       0.12500000 </v>
   <v>      -0.47500000       0.17500000       0.12500000 </v>
   <v>      -0.42500000       0.17500000       0.12500000 </v>
   <v>      -0.37500000       0.17500000       0.12500000 </v>
   <v>      -0.32500000       0.17500000       0.12500000 </v>
   <v>      -0.27500000       0.17500000       0.12500000 </v>
   <v>      -0.22500000       0.17500000       0.12500000 </v>
   <v>      -0.17500000       0.17500000       0.12500000 </v>
   <v>      -0.12500000       0.17500000       0.12500000 </v>
   <v>       0.17500000       0.22500000       0.12500000 </v>
   <v>       0.22500000       0.22500000       0.12500000 </v>
   <v>       0.27500000       0.22500000       0.12500000 </v>
   <v>       0.32500000       0.22500000       0.12500000 </v>
   <v>       0.37500000       0.22500000       0.12500000 </v>
   <v>       0.42500000       0.22500000       0.12500000 </v>
   <v>       0.47500000       0.22500000       0.12500000 </v>
   <v>      -0.47500000       0.22500000       0.12500000 </v>
   <v>      -0.42500000       0.22500000       0.12500000 </v>
   <v>      -0.37500000       0.22500000       0.12500000 </v>
   <v>      -0.32500000       0.22500000       0.12500000 </v>
   <v>      -0.27500000       0.22500000       0.12500000 </v>
   <v>      -0.22500000       0.22500000       0.12500000 </v>
   <v>      -0.17500000       0.22500000       0.12500000 </v>
   <v>      -0.12500000       0.22500000       0.12500000 </v>
   <v>       0.17500000       0.27500000       0.12500000 </v>
   <v>       0.22500000       0.27500000       0.12500000 </v>
   <v>       0.27500000       0.27500000       0.12500000 </v>
   <v>       0.32500000       0.27500000       0.12500000 </v>
   <v>       0.37500000       0.27500000       0.12500000 </v>
   <v>       0.42500000       0.27500000       0.12500000 </v>
   <v>       0.47500000       0.27500000       0.12500000 </v>
   <v>      -0.47500000       0.27500000       0.12500000 </v>
   <v>      -0.42500000       0.27500000       0.12500000 </v>
   <v>      -0.37500000       0.27500000       0.12500000 </v>
   <v>      -0.32500000       0.27500000       0.12500000 </v>
   <v>      -0.27500000       0.27500000       0.12500000 </v>
   <v>      -0.22500000       0.27500000       0.12500000 </v>
   <v>      -0.17500000       0.27500000       0.12500000 </v>
   <v>      -0.12500000       0.27500000       0.12500000 </v>
   <v>       0.17500000       0.32500000       0.12500000 </v>
   <v>       0.22500000       0.32500000       0.12500000 </v>
   <v>       0.27500000       0.32500000       0.12500000 </v>
   <v>       0.32500000       0.32500000       0.12500000 </v>
   <v>       0.37500000       0.32500000       0.12500000 </v>
   <v>       0.42500000       0.32500000       0.12500000 </v>
   <v>       0.47500000       0.32500000       0.12500000 </v>
   <v>      -0.47500000       0.32500000       0.12500000 </v>
   <v>      -0.42500000       0.32500000       0.12500000 </v>
   <v>      -0.37500000       0.32500000       0.12500000 </v>
   <v>      -0.32500000       0.32500000       0.12500000 </v>
   <v>      -0.27500000       0.32500000       0.12500000 </v>
   <v>      -0.22500000       0.32500000       0.12500000 </v>
   <v>      -0.17500000       0.32500000       0.12500000 </v>
   <v>      -0.12500000       0.32500000       0.12500000 </v>
   <v>       0.17500000       0.37500000       0.12500000 </v>
   <v>       0.22500000       0.37500000       0.12500000 </v>
   <v>       0.27500000       0.37500000       0.12500000 </v>
   <v>       0.32500000       0.37500000       0.12500000 </v>
   <v>       0.37500000       0.37500000       0.12500000 </v>
   <v>       0.42500000       0.37500000       0.12500000 </v>
   <v>       0.47500000       0.37500000       0.12500000 </v>
   <v>      -0.47500000       0.37500000       0.12500000 </v>
   <v>      -0.42500000       0.37500000       0.12500000 </v>
   <v>      -0.37500000       0.37500000       0.12500000 </v>
   <v>      -0.32500000       0.37500000       0.12500000 </v>
   <v>      -0.27500000       0.37500000       0.12500000 </v>
   <v>      -0.22500000       0.37500000       0.12500000 </v>
   <v>      -0.17500000       0.37500000       0.12500000 </v>
   <v>      -0.12500000       0.37500000       0.12500000 </v>
   <v>       0.17500000       0.42500000       0.12500000 </v>
   <v>       0.22500000       0.42500000       0.12500000 </v>
   <v>       0.27500000       0.42500000       0.12500000 </v>
   <v>       0.32500000       0.42500000       0.12500000 </v>
   <v>       0.37500000       0.42500000       0.12500000 </v>
   <v>       0.42500000       0.42500000       0.12500000 </v>
   <v>       0.47500000       0.42500000       0.12500000 </v>
   <v>      -0.47500000       0.42500000       0.12500000 </v>
   <v>      -0.42500000       0.42500000       0.12500000 </v>
   <v>      -0.37500000       0.42500000       0.12500000 </v>
   <v>      -0.32500000       0.42500000       0.12500000 </v>
   <v>      -0.27500000       0.42500000       0.12500000 </v>
   <v>      -0.22500000       0.42500000       0.12500000 </v>
   <v>      -0.17500000       0.42500000       0.12500000 </v>
   <v>      -0.12500000       0.42500000       0.12500000 </v>
   <v>       0.17500000       0.47500000       0.12500000 </v>
   <v>       0.22500000       0.47500000       0.12500000 </v>
   <v>       0.27500000       0.47500000       0.12500000 </v>
   <v>       0.32500000       0.47500000       0.12500000 </v>
   <v>       0.37500000       0.47500000       0.12500000 </v>
   <v>       0.42500000       0.47500000       0.12500000 </v>
   <v>       0.47500000       0.47500000       0.12500000 </v>
   <v>      -0.47500000       0.47500000       0.12500000 </v>
   <v>      -0.42500000       0.47500000       0.12500000 </v>
   <v>      -0.37500000       0.47500000       0.12500000 </v>
   <v>      -0.32500000       0.47500000       0.12500000 </v>
   <v>      -0.27500000       0.47500000       0.12500000 </v>
   <v>      -0.22500000       0.47500000       0.12500000 </v>
   <v>      -0.17500000       0.47500000       0.12500000 </v>
   <v>      -0.12500000       0.47500000       0.12500000 </v>
   <v>       0.17500000      -0.47500000       0.12500000 </v>
   <v>       0.22500000      -0.47500000       0.12500000 </v>
   <v>       0.27500000      -0.47500000       0.12500000 </v>
   <v>       0.32500000      -0.47500000       0.12500000 </v>
   <v>       0.37500000      -0.47500000       0.12500000 </v>
   <v>       0.42500000      -0.47500000       0.12500000 </v>
   <v>       0.47500000      -0.47500000       0.12500000 </v>
   <v>      -0.47500000      -0.47500000       0.12500000 </v>
   <v>      -0.42500000      -0.47500000       0.12500000 </v>
   <v>      -0.37500000      -0.47500000       0.12500000 </v>
   <v>      -0.32500000      -0.47500000       0.12500000 </v>
   <v>      -0.27500000      -0.47500000       0.12500000 </v>
   <v>      -0.22500000      -0.47500000       0.12500000 </v>
   <v>      -0.17500000      -0.47500000       0.12500000 </v>
   <v>      -0.12500000      -0.47500000       0.12500000 </v>
   <v>       0.17500000      -0.42500000       0.12500000 </v>
   <v>       0.22500000      -0.42500000       0.12500000 </v>
   <v>       0.27500000      -0.42500000       0.12500000 </v>
   <v>       0.32500000      -0.42500000       0.12500000 </v>
   <v>       0.37500000      -0.42500000       0.12500000 </v>
   <v>       0.42500000      -0.42500000       0.12500000 </v>
   <v>       0.47500000      -0.42500000       0.12500000 </v>
   <v>      -0.47500000      -0.42500000       0.12500000 </v>
   <v>      -0.42500000      -0.42500000       0.12500000 </v>
   <v>      -0.37500000      -0.42500000       0.12500000 </v>
   <v>      -0.32500000      -0.42500000       0.12500000 </v>
   <v>      -0.27500000      -0.42500000       0.12500000 </v>
   <v>      -0.22500000      -0.42500000       0.12500000 </v>
   <v>      -0.17500000      -0.42500000       0.12500000 </v>
   <v>      -0.12500000      -0.42500000       0.12500000 </v>
   <v>       0.17500000      -0.37500000       0.12500000 </v>
   <v>       0.22500000      -0.37500000       0.12500000 </v>
   <v>       0.27500000      -0.37500000       0.12500000 </v>
   <v>       0.32500000      -0.37500000       0.12500000 </v>
   <v>       0.37500000      -0.37500000       0.12500000 </v>
   <v>       0.42500000      -0.37500000       0.12500000 </v>
   <v>       0.47500000      -0.37500000       0.12500000 </v>
   <v>      -0.47500000      -0.37500000       0.12500000 </v>
   <v>      -0.42500000      -0.37500000       0.12500000 </v>
   <v>      -0.37500000      -0.37500000       0.12500000 </v>
   <v>      -0.32500000      -0.37500000       0.12500000 </v>
   <v>      -0.27500000      -0.37500000       0.12500000 </v>
   <v>      -0.22500000      -0.37500000       0.12500000 </v>
   <v>      -0.17500000      -0.37500000       0.12500000 </v>
   <v>      -0.12500000      -0.37500000       0.12500000 </v>
   <v>       0.17500000      -0.32500000       0.12500000 </v>
   <v>       0.22500000      -0.32500000       0.12500000 </v>
   <v>       0.27500000      -0.32500000       0.12500000 </v>
   <v>       0.32500000      -0.32500000       0.12500000 </v>
   <v>       0.37500000      -0.32500000       0.12500000 </v>
   <v>       0.42500000      -0.32500000       0.12500000 </v>
   <v>       0.47500000      -0.32500000       0.12500000 </v>
   <v>      -0.47500000      -0.32500000       0.12500000 </v>
   <v>      -0.42500000      -0.32500000       0.12500000 </v>
   <v>      -0.37500000      -0.32500000       0.12500000 </v>
   <v>      -0.32500000      -0.32500000       0.12500000 </v>
   <v>      -0.27500000      -0.32500000       0.12500000 </v>
   <v>      -0.22500000      -0.32500000       0.12500000 </v>
   <v>      -0.17500000      -0.32500000       0.12500000 </v>
   <v>      -0.12500000      -0.32500000       0.12500000 </v>
   <v>       0.17500000      -0.27500000       0.12500000 </v>
   <v>       0.22500000      -0.27500000       0.12500000 </v>
   <v>       0.27500000      -0.27500000       0.12500000 </v>
   <v>       0.32500000      -0.27500000       0.12500000 </v>
   <v>       0.37500000      -0.27500000       0.12500000 </v>
   <v>       0.42500000      -0.27500000       0.12500000 </v>
   <v>       0.47500000      -0.27500000       0.12500000 </v>
   <v>      -0.47500000      -0.27500000       0.12500000 </v>
   <v>      -0.42500000      -0.27500000       0.12500000 </v>
   <v>      -0.37500000      -0.27500000       0.12500000 </v>
   <v>      -0.32500000      -0.27500000       0.12500000 </v>
   <v>      -0.27500000      -0.27500000       0.12500000 </v>
   <v>      -0.22500000      -0.27500000       0.12500000 </v>
   <v>      -0.17500000      -0.27500000       0.12500000 </v>
   <v>      -0.12500000      -0.27500000       0.12500000 </v>
   <v>       0.17500000      -0.22500000       0.12500000 </v>
   <v>       0.22500000      -0.22500000       0.12500000 </v>
   <v>       0.27500000      -0.22500000       0.12500000 </v>
   <v>       0.32500000      -0.22500000       0.12500000 </v>
   <v>       0.37500000      -0.22500000       0.12500000 </v>
   <v>       0.42500000      -0.22500000       0.12500000 </v>
   <v>       0.47500000      -0.22500000       0.12500000 </v>
   <v>      -0.47500000      -0.22500000       0.12500000 </v>
   <v>      -0.42500000      -0.22500000       0.12500000 </v>
   <v>      -0.37500000      -0.22500000       0.12500000 </v>
   <v>      -0.32500000      -0.22500000       0.12500000 </v>
   <v>      -0.27500000      -0.22500000       0.12500000 </v>
   <v>      -0.22500000      -0.22500000       0.12500000 </v>
   <v>      -0.17500000      -0.22500000       0.12500000 </v>
   <v>      -0.12500000      -0.22500000       0.12500000 </v>
   <v>       0.17500000      -0.17500000       0.12500000 </v>
   <v>       0.22500000      -0.17500000       0.12500000 </v>
   <v>       0.27500000      -0.17500000       0.12500000 </v>
   <v>       0.32500000      -0.17500000       0.12500000 </v>
   <v>       0.37500000      -0.17500000       0.12500000 </v>
   <v>       0.42500000      -0.17500000       0.12500000 </v>
   <v>       0.47500000      -0.17500000       0.12500000 </v>
   <v>      -0.47500000      -0.17500000       0.12500000 </v>
   <v>      -0.42500000      -0.17500000       0.12500000 </v>
   <v>      -0.37500000      -0.17500000       0.12500000 </v>
   <v>      -0.32500000      -0.17500000       0.12500000 </v>
   <v>      -0.27500000      -0.17500000       0.12500000 </v>
   <v>      -0.22500000      -0.17500000       0.12500000 </v>
   <v>      -0.17500000      -0.17500000       0.12500000 </v>
   <v>      -0.12500000      -0.17500000       0.12500000 </v>
   <v>       0.17500000       0.17500000       0.17500000 </v>
   <v>       0.22500000       0.17500000       0.17500000 </v>
   <v>       0.27500000       0.17500000       0.17500000 </v>
   <v>       0.32500000       0.17500000       0.17500000 </v>
   <v>       0.37500000       0.17500000       0.17500000 </v>
   <v>       0.42500000       0.17500000       0.17500000 </v>
   <v>       0.47500000       0.17500000       0.17500000 </v>
   <v>      -0.47500000       0.17500000       0.17500000 </v>
   <v>      -0.42500000       0.17500000       0.17500000 </v>
   <v>      -0.37500000       0.17500000       0.17500000 </v>
   <v>      -0.32500000       0.17500000       0.17500000 </v>
   <v>      -0.27500000       0.17500000       0.17500000 </v>
   <v>      -0.22500000       0.17500000       0.17500000 </v>
   <v>      -0.17500000       0.17500000       0.17500000 </v>
   <v>       0.22500000       0.22500000       0.17500000 </v>
   <v>       0.27500000       0.22500000       0.17500000 </v>
   <v>       0.32500000       0.22500000       0.17500000 </v>
   <v>       0.37500000       0.22500000       0.17500000 </v>
   <v>       0.42500000       0.22500000       0.17500000 </v>
   <v>       0.47500000       0.22500000       0.17500000 </v>
   <v>      -0.47500000       0.22500000       0.17500000 </v>
   <v>      -0.42500000       0.22500000       0.17500000 </v>
   <v>      -0.37500000       0.22500000       0.17500000 </v>
   <v>      -0.32500000       0.22500000       0.17500000 </v>
   <v>      -0.27500000       0.22500000       0.17500000 </v>
   <v>      -0.22500000       0.22500000       0.17500000 </v>
   <v>      -0.17500000       0.22500000       0.17500000 </v>
   <v>       0.22500000       0.27500000       0.17500000 </v>
   <v>       0.27500000       0.27500000       0.17500000 </v>
   <v>       0.32500000       0.27500000       0.17500000 </v>
   <v>       0.37500000       0.27500000       0.17500000 </v>
   <v>       0.42500000       0.27500000       0.17500000 </v>
   <v>       0.47500000       0.27500000       0.17500000 </v>
   <v>      -0.47500000       0.27500000       0.17500000 </v>
   <v>      -0.42500000       0.27500000       0.17500000 </v>
   <v>      -0.37500000       0.27500000       0.17500000 </v>
   <v>      -0.32500000       0.27500000       0.17500000 </v>
   <v>      -0.27500000       0.27500000       0.17500000 </v>
   <v>      -0.22500000       0.27500000       0.17500000 </v>
   <v>      -0.17500000       0.27500000       0.17500000 </v>
   <v>       0.22500000       0.32500000       0.17500000 </v>
   <v>       0.27500000       0.32500000       0.17500000 </v>
   <v>       0.32500000       0.32500000       0.17500000 </v>
   <v>       0.37500000       0.32500000       0.17500000 </v>
   <v>       0.42500000       0.32500000       0.17500000 </v>
   <v>       0.47500000       0.32500000       0.17500000 </v>
   <v>      -0.47500000       0.32500000       0.17500000 </v>
   <v>      -0.42500000       0.32500000       0.17500000 </v>
   <v>      -0.37500000       0.32500000       0.17500000 </v>
   <v>      -0.32500000       0.32500000       0.17500000 </v>
   <v>      -0.27500000       0.32500000       0.17500000 </v>
   <v>      -0.22500000       0.32500000       0.17500000 </v>
   <v>      -0.17500000       0.32500000       0.17500000 </v>
   <v>       0.22500000       0.37500000       0.17500000 </v>
   <v>       0.27500000       0.37500000       0.17500000 </v>
   <v>       0.32500000       0.37500000       0.17500000 </v>
   <v>       0.37500000       0.37500000       0.17500000 </v>
   <v>       0.42500000       0.37500000       0.17500000 </v>
   <v>       0.47500000       0.37500000       0.17500000 </v>
   <v>      -0.47500000       0.37500000       0.17500000 </v>
   <v>      -0.42500000       0.37500000       0.17500000 </v>
   <v>      -0.37500000       0.37500000       0.17500000 </v>
   <v>      -0.32500000       0.37500000       0.17500000 </v>
   <v>      -0.27500000       0.37500000       0.17500000 </v>
   <v>      -0.22500000       0.37500000       0.17500000 </v>
   <v>      -0.17500000       0.37500000       0.17500000 </v>
   <v>       0.22500000       0.42500000       0.17500000 </v>
   <v>       0.27500000       0.42500000       0.17500000 </v>
   <v>       0.32500000       0.42500000       0.17500000 </v>
   <v>       0.37500000       0.42500000       0.17500000 </v>
   <v>       0.42500000       0.42500000       0.17500000 </v>
   <v>       0.47500000       0.42500000       0.17500000 </v>
   <v>      -0.47500000       0.42500000       0.17500000 </v>
   <v>      -0.42500000       0.42500000       0.17500000 </v>
   <v>      -0.37500000       0.42500000       0.17500000 </v>
   <v>      -0.32500000       0.42500000       0.17500000 </v>
   <v>      -0.27500000       0.42500000       0.17500000 </v>
   <v>      -0.22500000       0.42500000       0.17500000 </v>
   <v>      -0.17500000       0.42500000       0.17500000 </v>
   <v>       0.22500000       0.47500000       0.17500000 </v>
   <v>       0.27500000       0.47500000       0.17500000 </v>
   <v>       0.32500000       0.47500000       0.17500000 </v>
   <v>       0.37500000       0.47500000       0.17500000 </v>
   <v>       0.42500000       0.47500000       0.17500000 </v>
   <v>       0.47500000       0.47500000       0.17500000 </v>
   <v>      -0.47500000       0.47500000       0.17500000 </v>
   <v>      -0.42500000       0.47500000       0.17500000 </v>
   <v>      -0.37500000       0.47500000       0.17500000 </v>
   <v>      -0.32500000       0.47500000       0.17500000 </v>
   <v>      -0.27500000       0.47500000       0.17500000 </v>
   <v>      -0.22500000       0.47500000       0.17500000 </v>
   <v>      -0.17500000       0.47500000       0.17500000 </v>
   <v>       0.22500000      -0.47500000       0.17500000 </v>
   <v>       0.27500000      -0.47500000       0.17500000 </v>
   <v>       0.32500000      -0.47500000       0.17500000 </v>
   <v>       0.37500000      -0.47500000       0.17500000 </v>
   <v>       0.42500000      -0.47500000       0.17500000 </v>
   <v>       0.47500000      -0.47500000       0.17500000 </v>
   <v>      -0.47500000      -0.47500000       0.17500000 </v>
   <v>      -0.42500000      -0.47500000       0.17500000 </v>
   <v>      -0.37500000      -0.47500000       0.17500000 </v>
   <v>      -0.32500000      -0.47500000       0.17500000 </v>
   <v>      -0.27500000      -0.47500000       0.17500000 </v>
   <v>      -0.22500000      -0.47500000       0.17500000 </v>
   <v>      -0.17500000      -0.47500000       0.17500000 </v>
   <v>       0.22500000      -0.42500000       0.17500000 </v>
   <v>       0.27500000      -0.42500000       0.17500000 </v>
   <v>       0.32500000      -0.42500000       0.17500000 </v>
   <v>       0.37500000      -0.42500000       0.17500000 </v>
   <v>       0.42500000      -0.42500000       0.17500000 </v>
   <v>       0.47500000      -0.42500000       0.17500000 </v>
   <v>      -0.47500000      -0.42500000       0.17500000 </v>
   <v>      -0.42500000      -0.42500000       0.17500000 </v>
   <v>      -0.37500000      -0.42500000       0.17500000 </v>
   <v>      -0.32500000      -0.42500000       0.17500000 </v>
   <v>      -0.27500000      -0.42500000       0.17500000 </v>
   <v>      -0.22500000      -0.42500000       0.17500000 </v>
   <v>      -0.17500000      -0.42500000       0.17500000 </v>
   <v>       0.22500000      -0.37500000       0.17500000 </v>
   <v>       0.27500000      -0.37500000       0.17500000 </v>
   <v>       0.32500000      -0.37500000       0.17500000 </v>
   <v>       0.37500000      -0.37500000       0.17500000 </v>
   <v>       0.42500000      -0.37500000       0.17500000 </v>
   <v>       0.47500000      -0.37500000       0.17500000 </v>
   <v>      -0.47500000      -0.37500000       0.17500000 </v>
   <v>      -0.42500000      -0.37500000       0.17500000 </v>
   <v>      -0.37500000      -0.37500000       0.17500000 </v>
   <v>      -0.32500000      -0.37500000       0.17500000 </v>
   <v>      -0.27500000      -0.37500000       0.17500000 </v>
   <v>      -0.22500000      -0.37500000       0.17500000 </v>
   <v>      -0.17500000      -0.37500000       0.17500000 </v>
   <v>       0.22500000      -0.32500000       0.17500000 </v>
   <v>       0.27500000      -0.32500000       0.17500000 </v>
   <v>       0.32500000      -0.32500000       0.17500000 </v>
   <v>       0.37500000      -0.32500000       0.17500000 </v>
   <v>       0.42500000      -0.32500000       0.17500000 </v>
   <v>       0.47500000      -0.32500000       0.17500000 </v>
   <v>      -0.47500000      -0.32500000       0.17500000 </v>
   <v>      -0.42500000      -0.32500000       0.17500000 </v>
   <v>      -0.37500000      -0.32500000       0.17500000 </v>
   <v>      -0.32500000      -0.32500000       0.17500000 </v>
   <v>      -0.27500000      -0.32500000       0.17500000 </v>
   <v>      -0.22500000      -0.32500000       0.17500000 </v>
   <v>      -0.17500000      -0.32500000       0.17500000 </v>
   <v>       0.22500000      -0.27500000       0.17500000 </v>
   <v>       0.27500000      -0.27500000       0.17500000 </v>
   <v>       0.32500000      -0.27500000       0.17500000 </v>
   <v>       0.37500000      -0.27500000       0.17500000 </v>
   <v>       0.42500000      -0.27500000       0.17500000 </v>
   <v>       0.47500000      -0.27500000       0.17500000 </v>
   <v>      -0.47500000      -0.27500000       0.17500000 </v>
   <v>      -0.42500000      -0.27500000       0.17500000 </v>
   <v>      -0.37500000      -0.27500000       0.17500000 </v>
   <v>      -0.32500000      -0.27500000       0.17500000 </v>
   <v>      -0.27500000      -0.27500000       0.17500000 </v>
   <v>      -0.22500000      -0.27500000       0.17500000 </v>
   <v>      -0.17500000      -0.27500000       0.17500000 </v>
   <v>       0.22500000      -0.22500000       0.17500000 </v>
   <v>       0.27500000      -0.22500000       0.17500000 </v>
   <v>       0.32500000      -0.22500000       0.17500000 </v>
   <v>       0.37500000      -0.22500000       0.17500000 </v>
   <v>       0.42500000      -0.22500000       0.17500000 </v>
   <v>       0.47500000      -0.22500000       0.17500000 </v>
   <v>      -0.47500000      -0.22500000       0.17500000 </v>
   <v>      -0.42500000      -0.22500000       0.17500000 </v>
   <v>      -0.37500000      -0.22500000       0.17500000 </v>
   <v>      -0.32500000      -0.22500000       0.17500000 </v>
   <v>      -0.27500000      -0.22500000       0.17500000 </v>
   <v>      -0.22500000      -0.22500000       0.17500000 </v>
   <v>      -0.17500000      -0.22500000       0.17500000 </v>
   <v>       0.22500000       0.22500000       0.22500000 </v>
   <v>       0.27500000       0.22500000       0.22500000 </v>
   <v>       0.32500000       0.22500000       0.22500000 </v>
   <v>       0.37500000       0.22500000       0.22500000 </v>
   <v>       0.42500000       0.22500000       0.22500000 </v>
   <v>       0.47500000       0.22500000       0.22500000 </v>
   <v>      -0.47500000       0.22500000       0.22500000 </v>
   <v>      -0.42500000       0.22500000       0.22500000 </v>
   <v>      -0.37500000       0.22500000       0.22500000 </v>
   <v>      -0.32500000       0.22500000       0.22500000 </v>
   <v>      -0.27500000       0.22500000       0.22500000 </v>
   <v>      -0.22500000       0.22500000       0.22500000 </v>
   <v>       0.27500000       0.27500000       0.22500000 </v>
   <v>       0.32500000       0.27500000       0.22500000 </v>
   <v>       0.37500000       0.27500000       0.22500000 </v>
   <v>       0.42500000       0.27500000       0.22500000 </v>
   <v>       0.47500000       0.27500000       0.22500000 </v>
   <v>      -0.47500000       0.27500000       0.22500000 </v>
   <v>      -0.42500000       0.27500000       0.22500000 </v>
   <v>      -0.37500000       0.27500000       0.22500000 </v>
   <v>      -0.32500000       0.27500000       0.22500000 </v>
   <v>      -0.27500000       0.27500000       0.22500000 </v>
   <v>      -0.22500000       0.27500000       0.22500000 </v>
   <v>       0.27500000       0.32500000       0.22500000 </v>
   <v>       0.32500000       0.32500000       0.22500000 </v>
   <v>       0.37500000       0.32500000       0.22500000 </v>
   <v>       0.42500000       0.32500000       0.22500000 </v>
   <v>       0.47500000       0.32500000       0.22500000 </v>
   <v>      -0.47500000       0.32500000       0.22500000 </v>
   <v>      -0.42500000       0.32500000       0.22500000 </v>
   <v>      -0.37500000       0.32500000       0.22500000 </v>
   <v>      -0.32500000       0.32500000       0.22500000 </v>
   <v>      -0.27500000       0.32500000       0.22500000 </v>
   <v>      -0.22500000       0.32500000       0.22500000 </v>
   <v>       0.27500000       0.37500000       0.22500000 </v>
   <v>       0.32500000       0.37500000       0.22500000 </v>
   <v>       0.37500000       0.37500000       0.22500000 </v>
   <v>       0.42500000       0.37500000       0.22500000 </v>
   <v>       0.47500000       0.37500000       0.22500000 </v>
   <v>      -0.47500000       0.37500000       0.22500000 </v>
   <v>      -0.42500000       0.37500000       0.22500000 </v>
   <v>      -0.37500000       0.37500000       0.22500000 </v>
   <v>      -0.32500000       0.37500000       0.22500000 </v>
   <v>      -0.27500000       0.37500000       0.22500000 </v>
   <v>      -0.22500000       0.37500000       0.22500000 </v>
   <v>       0.27500000       0.42500000       0.22500000 </v>
   <v>       0.32500000       0.42500000       0.22500000 </v>
   <v>       0.37500000       0.42500000       0.22500000 </v>
   <v>       0.42500000       0.42500000       0.22500000 </v>
   <v>       0.47500000       0.42500000       0.22500000 </v>
   <v>      -0.47500000       0.42500000       0.22500000 </v>
   <v>      -0.42500000       0.42500000       0.22500000 </v>
   <v>      -0.37500000       0.42500000       0.22500000 </v>
   <v>      -0.32500000       0.42500000       0.22500000 </v>
   <v>      -0.27500000       0.42500000       0.22500000 </v>
   <v>      -0.22500000       0.42500000       0.22500000 </v>
   <v>       0.27500000       0.47500000       0.22500000 </v>
   <v>       0.32500000       0.47500000       0.22500000 </v>
   <v>       0.37500000       0.47500000       0.22500000 </v>
   <v>       0.42500000       0.47500000       0.22500000 </v>
   <v>       0.47500000       0.47500000       0.22500000 </v>
   <v>      -0.47500000       0.47500000       0.22500000 </v>
   <v>      -0.42500000       0.47500000       0.22500000 </v>
   <v>      -0.37500000       0.47500000       0.22500000 </v>
   <v>      -0.32500000       0.47500000       0.22500000 </v>
   <v>      -0.27500000       0.47500000       0.22500000 </v>
   <v>      -0.22500000       0.47500000       0.22500000 </v>
   <v>       0.27500000      -0.47500000       0.22500000 </v>
   <v>       0.32500000      -0.47500000       0.22500000 </v>
   <v>       0.37500000      -0.47500000       0.22500000 </v>
   <v>       0.42500000      -0.47500000       0.22500000 </v>
   <v>       0.47500000      -0.47500000       0.22500000 </v>
   <v>      -0.47500000      -0.47500000       0.22500000 </v>
   <v>      -0.42500000      -0.47500000       0.22500000 </v>
   <v>      -0.37500000      -0.47500000       0.22500000 </v>
   <v>      -0.32500000      -0.47500000       0.22500000 </v>
   <v>      -0.27500000      -0.47500000       0.22500000 </v>
   <v>      -0.22500000      -0.47500000       0.22500000 </v>
   <v>       0.27500000      -0.42500000       0.22500000 </v>
   <v>       0.32500000      -0.42500000       0.22500000 </v>
   <v>       0.37500000      -0.42500000       0.22500000 </v>
   <v>       0.42500000      -0.42500000       0.22500000 </v>
   <v>       0.47500000      -0.42500000       0.22500000 </v>
   <v>      -0.47500000      -0.42500000       0.22500000 </v>
   <v>      -0.42500000      -0.42500000       0.22500000 </v>
   <v>      -0.37500000      -0.42500000       0.22500000 </v>
   <v>      -0.32500000      -0.42500000       0.22500000 </v>
   <v>      -0.27500000      -0.42500000       0.22500000 </v>
   <v>      -0.22500000      -0.42500000       0.22500000 </v>
   <v>       0.27500000      -0.37500000       0.22500000 </v>
   <v>       0.32500000      -0.37500000       0.22500000 </v>
   <v>       0.37500000      -0.37500000       0.22500000 </v>
   <v>       0.42500000      -0.37500000       0.22500000 </v>
   <v>       0.47500000      -0.37500000       0.22500000 </v>
   <v>      -0.47500000      -0.37500000       0.22500000 </v>
   <v>      -0.42500000      -0.37500000       0.22500000 </v>
   <v>      -0.37500000      -0.37500000       0.22500000 </v>
   <v>      -0.32500000      -0.37500000       0.22500000 </v>
   <v>      -0.27500000      -0.37500000       0.22500000 </v>
   <v>      -0.22500000      -0.37500000       0.22500000 </v>
   <v>       0.27500000      -0.32500000       0.22500000 </v>
   <v>       0.32500000      -0.32500000       0.22500000 </v>
   <v>       0.37500000      -0.32500000       0.22500000 </v>
   <v>       0.42500000      -0.32500000       0.22500000 </v>
   <v>       0.47500000      -0.32500000       0.22500000 </v>
   <v>      -0.47500000      -0.32500000       0.22500000 </v>
   <v>      -0.42500000      -0.32500000       0.22500000 </v>
   <v>      -0.37500000      -0.32500000       0.22500000 </v>
   <v>      -0.32500000      -0.32500000       0.22500000 </v>
   <v>      -0.27500000      -0.32500000       0.22500000 </v>
   <v>      -0.22500000      -0.32500000       0.22500000 </v>
   <v>       0.27500000      -0.27500000       0.22500000 </v>
   <v>       0.32500000      -0.27500000       0.22500000 </v>
   <v>       0.37500000      -0.27500000       0.22500000 </v>
   <v>       0.42500000      -0.27500000       0.22500000 </v>
   <v>       0.47500000      -0.27500000       0.22500000 </v>
   <v>      -0.47500000      -0.27500000       0.22500000 </v>
   <v>      -0.42500000      -0.27500000       0.22500000 </v>
   <v>      -0.37500000      -0.27500000       0.22500000 </v>
   <v>      -0.32500000      -0.27500000       0.22500000 </v>
   <v>      -0.27500000      -0.27500000       0.22500000 </v>
   <v>      -0.22500000      -0.27500000       0.22500000 </v>
   <v>       0.27500000       0.27500000       0.27500000 </v>
   <v>       0.32500000       0.27500000       0.27500000 </v>
   <v>       0.37500000       0.27500000       0.27500000 </v>
   <v>       0.42500000       0.27500000       0.27500000 </v>
   <v>       0.47500000       0.27500000       0.27500000 </v>
   <v>      -0.47500000       0.27500000       0.27500000 </v>
   <v>      -0.42500000       0.27500000       0.27500000 </v>
   <v>      -0.37500000       0.27500000       0.27500000 </v>
   <v>      -0.32500000       0.27500000       0.27500000 </v>
   <v>      -0.27500000       0.27500000       0.27500000 </v>
   <v>       0.32500000       0.32500000       0.27500000 </v>
   <v>       0.37500000       0.32500000       0.27500000 </v>
   <v>       0.42500000       0.32500000       0.27500000 </v>
   <v>       0.47500000       0.32500000       0.27500000 </v>
   <v>      -0.47500000       0.32500000       0.27500000 </v>
   <v>      -0.42500000       0.32500000       0.27500000 </v>
   <v>      -0.37500000       0.32500000       0.27500000 </v>
   <v>      -0.32500000       0.32500000       0.27500000 </v>
   <v>      -0.27500000       0.32500000       0.27500000 </v>
   <v>       0.32500000       0.37500000       0.27500000 </v>
   <v>       0.37500000       0.37500000       0.27500000 </v>
   <v>       0.42500000       0.37500000       0.27500000 </v>
   <v>       0.47500000       0.37500000       0.27500000 </v>
   <v>      -0.47500000       0.37500000       0.27500000 </v>
   <v>      -0.42500000       0.37500000       0.27500000 </v>
   <v>      -0.37500000       0.37500000       0.27500000 </v>
   <v>      -0.32500000       0.37500000       0.27500000 </v>
   <v>      -0.27500000       0.37500000       0.27500000 </v>
   <v>       0.32500000       0.42500000       0.27500000 </v>
   <v>       0.37500000       0.42500000       0.27500000 </v>
   <v>       0.42500000       0.42500000       0.27500000 </v>
   <v>       0.47500000       0.42500000       0.27500000 </v>
   <v>      -0.47500000       0.42500000       0.27500000 </v>
   <v>      -0.42500000       0.42500000       0.27500000 </v>
   <v>      -0.37500000       0.42500000       0.27500000 </v>
   <v>      -0.32500000       0.42500000       0.27500000 </v>
   <v>      -0.27500000       0.42500000       0.27500000 </v>
   <v>       0.32500000       0.47500000       0.27500000 </v>
   <v>       0.37500000       0.47500000       0.27500000 </v>
   <v>       0.42500000       0.47500000       0.27500000 </v>
   <v>       0.47500000       0.47500000       0.27500000 </v>
   <v>      -0.47500000       0.47500000       0.27500000 </v>
   <v>      -0.42500000       0.47500000       0.27500000 </v>
   <v>      -0.37500000       0.47500000       0.27500000 </v>
   <v>      -0.32500000       0.47500000       0.27500000 </v>
   <v>      -0.27500000       0.47500000       0.27500000 </v>
   <v>       0.32500000      -0.47500000       0.27500000 </v>
   <v>       0.37500000      -0.47500000       0.27500000 </v>
   <v>       0.42500000      -0.47500000       0.27500000 </v>
   <v>       0.47500000      -0.47500000       0.27500000 </v>
   <v>      -0.47500000      -0.47500000       0.27500000 </v>
   <v>      -0.42500000      -0.47500000       0.27500000 </v>
   <v>      -0.37500000      -0.47500000       0.27500000 </v>
   <v>      -0.32500000      -0.47500000       0.27500000 </v>
   <v>      -0.27500000      -0.47500000       0.27500000 </v>
   <v>       0.32500000      -0.42500000       0.27500000 </v>
   <v>       0.37500000      -0.42500000       0.27500000 </v>
   <v>       0.42500000      -0.42500000       0.27500000 </v>
   <v>       0.47500000      -0.42500000       0.27500000 </v>
   <v>      -0.47500000      -0.42500000       0.27500000 </v>
   <v>      -0.42500000      -0.42500000       0.27500000 </v>
   <v>      -0.37500000      -0.42500000       0.27500000 </v>
   <v>      -0.32500000      -0.42500000       0.27500000 </v>
   <v>      -0.27500000      -0.42500000       0.27500000 </v>
   <v>       0.32500000      -0.37500000       0.27500000 </v>
   <v>       0.37500000      -0.37500000       0.27500000 </v>
   <v>       0.42500000      -0.37500000       0.27500000 </v>
   <v>       0.47500000      -0.37500000       0.27500000 </v>
   <v>      -0.47500000      -0.37500000       0.27500000 </v>
   <v>      -0.42500000      -0.37500000       0.27500000 </v>
   <v>      -0.37500000      -0.37500000       0.27500000 </v>
   <v>      -0.32500000      -0.37500000       0.27500000 </v>
   <v>      -0.27500000      -0.37500000       0.27500000 </v>
   <v>       0.32500000      -0.32500000       0.27500000 </v>
   <v>       0.37500000      -0.32500000       0.27500000 </v>
   <v>       0.42500000      -0.32500000       0.27500000 </v>
   <v>       0.47500000      -0.32500000       0.27500000 </v>
   <v>      -0.47500000      -0.32500000       0.27500000 </v>
   <v>      -0.42500000      -0.32500000       0.27500000 </v>
[...]
       <r>    19.7046     0.0000     0.0000 </r>
       <r>    19.8157     0.0000     0.0000 </r>
       <r>    19.9268     0.0000     0.0000 </r>
       <r>    20.0379     0.0000     0.0000 </r>
       <r>    20.1490     0.0000     0.0000 </r>
       <r>    20.2601     0.0000     0.0000 </r>
       <r>    20.3712     0.0000     0.0000 </r>
       <r>    20.4823     0.0000     0.0000 </r>
       <r>    20.5934     0.0000     0.0000 </r>
       <r>    20.7045     0.0000     0.0000 </r>
       <r>    20.8156     0.0000     0.0000 </r>
       <r>    20.9267     0.0000     0.0000 </r>
       <r>    21.0378     0.0000     0.0000 </r>
       <r>    21.1489     0.0000     0.0000 </r>
       <r>    21.2600     0.0000     0.0000 </r>
       <r>    21.3711     0.0000     0.0000 </r>
       <r>    21.4823     0.0000     0.0000 </r>
       <r>    21.5934     0.0000     0.0000 </r>
       <r>    21.7045     0.0000     0.0000 </r>
       <r>    21.8156     0.0000     0.0000 </r>
       <r>    21.9267     0.0000     0.0000 </r>
       <r>    22.0378     0.0000     0.0000 </r>
       <r>    22.1489     0.0000     0.0000 </r>
       <r>    22.2600     0.0000     0.0000 </r>
       <r>    22.3711     0.0000     0.0000 </r>
       <r>    22.4822     0.0000     0.0000 </r>
       <r>    22.5933     0.0000     0.0000 </r>
       <r>    22.7044     0.0000     0.0000 </r>
       <r>    22.8155     0.0000     0.0000 </r>
       <r>    22.9266     0.0000     0.0000 </r>
       <r>    23.0377     0.0000     0.0000 </r>
       <r>    23.1488     0.0000     0.0000 </r>
       <r>    23.2599     0.0000     0.0000 </r>
       <r>    23.3710     0.0000     0.0000 </r>
       <r>    23.4821     0.0000     0.0000 </r>
       <r>    23.5932     0.0000     0.0000 </r>
       <r>    23.7043     0.0000     0.0000 </r>
       <r>    23.8154     0.0000     0.0000 </r>
       <r>    23.9265     0.0000     0.0000 </r>
       <r>    24.0376     0.0000     0.0000 </r>
       <r>    24.1487     0.0000     0.0000 </r>
       <r>    24.2599     0.0000     0.0000 </r>
       <r>    24.3710     0.0000     0.0000 </r>
       <r>    24.4821     0.0000     0.0000 </r>
       <r>    24.5932     0.0000     0.0000 </r>
       <r>    24.7043     0.0000     0.0000 </r>
       <r>    24.8154     0.0000     0.0000 </r>
       <r>    24.9265     0.0000     0.0000 </r>
       <r>    25.0376     0.0000     0.0000 </r>
       <r>    25.1487     0.0000     0.0000 </r>
       <r>    25.2598     0.0000     0.0000 </r>
       <r>    25.3709     0.0000     0.0000 </r>
       <r>    25.4820     0.0000     0.0000 </r>
       <r>    25.5931     0.0000     0.0000 </r>
       <r>    25.7042     0.0000     0.0000 </r>
       <r>    25.8153     0.0000     0.0000 </r>
       <r>    25.9264     0.0000     0.0000 </r>
       <r>    26.0375     0.0000     0.0000 </r>
       <r>    26.1486     0.0000     0.0000 </r>
       <r>    26.2597     0.0000     0.0000 </r>
       <r>    26.3708     0.0000     0.0000 </r>
       <r>    26.4819     0.0000     0.0000 </r>
       <r>    26.5930     0.0000     0.0000 </r>
       <r>    26.7041     0.0000     0.0000 </r>
       <r>    26.8152     0.0000     0.0000 </r>
       <r>    26.9263     0.0000     0.0000 </r>
       <r>    27.0375     0.0000     0.0000 </r>
       <r>    27.1486     0.0000     0.0000 </r>
       <r>    27.2597     0.0000     0.0000 </r>
       <r>    27.3708     0.0000     0.0000 </r>
       <r>    27.4819     0.0000     0.0000 </r>
       <r>    27.5930     0.0000     0.0000 </r>
       <r>    27.7041     0.0000     0.0000 </r>
       <r>    27.8152     0.0000     0.0000 </r>
       <r>    27.9263     0.0000     0.0000 </r>
       <r>    28.0374     0.0000     0.0000 </r>
       <r>    28.1485     0.0000     0.0000 </r>
       <r>    28.2596     0.0000     0.0000 </r>
       <r>    28.3707     0.0000     0.0000 </r>
       <r>    28.4818     0.0000     0.0000 </r>
       <r>    28.5929     0.0000     0.0000 </r>
       <r>    28.7040     0.0000     0.0000 </r>
       <r>    28.8151     0.0000     0.0000 </r>
       <r>    28.9262     0.0000     0.0000 </r>
       <r>    29.0373     0.0000     0.0000 </r>
       <r>    29.1484     0.0000     0.0000 </r>
       <r>    29.2595     0.0000     0.0000 </r>
       <r>    29.3706     0.0000     0.0000 </r>
       <r>    29.4817     0.0000     0.0000 </r>
       <r>    29.5928     0.0000     0.0000 </r>
      </set>
      <set comment="spin 4">
       <r>    -3.7383     0.0000     0.0000 </r>
       <r>    -3.6272     0.0000     0.0000 </r>
       <r>    -3.5161     0.0000     0.0000 </r>
       <r>    -3.4050     0.0000     0.0000 </r>
       <r>    -3.2939     0.0000     0.0000 </r>
       <r>    -3.1828     0.0000     0.0000 </r>
       <r>    -3.0717     0.0000     0.0000 </r>
       <r>    -2.9606     0.0000     0.0000 </r>
       <r>    -2.8495     0.0000     0.0000 </r>
       <r>    -2.7384     0.0000     0.0000 </r>
       <r>    -2.6273     0.0000     0.0000 </r>
       <r>    -2.5162     0.0000     0.0000 </r>
       <r>    -2.4051     0.0000     0.0000 </r>
       <r>    -2.2940     0.0000     0.0000 </r>
       <r>    -2.1829     0.0000     0.0000 </r>
       <r>    -2.0718     0.0000     0.0000 </r>
       <r>    -1.9607     0.0000     0.0000 </r>
       <r>    -1.8496     0.0000     0.0000 </r>
       <r>    -1.7385     0.0000     0.0000 </r>
       <r>    -1.6274     0.0000     0.0000 </r>
       <r>    -1.5163     0.0000     0.0000 </r>
       <r>    -1.4052     0.0000     0.0000 </r>
       <r>    -1.2941     0.0000     0.0000 </r>
       <r>    -1.1830     0.0000     0.0000 </r>
       <r>    -1.0719     0.0000     0.0000 </r>
       <r>    -0.9607     0.0000     0.0000 </r>
       <r>    -0.8496     0.0000     0.0000 </r>
       <r>    -0.7385     0.0000     0.0000 </r>
       <r>    -0.6274     0.0000     0.0000 </r>
       <r>    -0.5163     0.0000     0.0000 </r>
       <r>    -0.4052     0.0000     0.0000 </r>
       <r>    -0.2941     0.0000     0.0000 </r>
       <r>    -0.1830     0.0000     0.0000 </r>
       <r>    -0.0719     0.0000     0.0000 </r>
       <r>     0.0392     0.0000     0.0000 </r>
       <r>     0.1503     0.0000     0.0000 </r>
       <r>     0.2614     0.0000     0.0000 </r>
       <r>     0.3725     0.0000     0.0000 </r>
       <r>     0.4836     0.0000     0.0000 </r>
       <r>     0.5947     0.0000     0.0000 </r>
       <r>     0.7058     0.0000     0.0000 </r>
       <r>     0.8169     0.0000     0.0000 </r>
       <r>     0.9280     0.0000     0.0000 </r>
       <r>     1.0391     0.0000     0.0000 </r>
       <r>     1.1502     0.0000     0.0000 </r>
       <r>     1.2613     0.0000     0.0000 </r>
       <r>     1.3724     0.0000     0.0000 </r>
       <r>     1.4835     0.0000     0.0000 </r>
       <r>     1.5946     0.0000     0.0000 </r>
       <r>     1.7057     0.0000     0.0000 </r>
       <r>     1.8169     0.0000     0.0000 </r>
       <r>     1.9280     0.0000     0.0000 </r>
       <r>     2.0391     0.0000     0.0000 </r>
       <r>     2.1502     0.0000     0.0000 </r>
       <r>     2.2613     0.0000     0.0000 </r>
       <r>     2.3724     0.0000     0.0000 </r>
       <r>     2.4835     0.0000     0.0000 </r>
       <r>     2.5946     0.0000     0.0000 </r>
       <r>     2.7057     0.0000     0.0000 </r>
       <r>     2.8168     0.0000     0.0000 </r>
       <r>     2.9279     0.0000     0.0000 </r>
       <r>     3.0390     0.0000     0.0000 </r>
       <r>     3.1501     0.0000     0.0000 </r>
       <r>     3.2612     0.0000     0.0000 </r>
       <r>     3.3723     0.0000     0.0000 </r>
       <r>     3.4834     0.0000     0.0000 </r>
       <r>     3.5945     0.0000     0.0000 </r>
       <r>     3.7056     0.0000     0.0000 </r>
       <r>     3.8167     0.0000     0.0000 </r>
       <r>     3.9278     0.0000     0.0000 </r>
       <r>     4.0389     0.0000     0.0000 </r>
       <r>     4.1500     0.0000     0.0000 </r>
       <r>     4.2611     0.0000     0.0000 </r>
       <r>     4.3722     0.0000     0.0000 </r>
       <r>     4.4833     0.0000     0.0000 </r>
       <r>     4.5945     0.0000     0.0000 </r>
       <r>     4.7056     0.0000     0.0000 </r>
       <r>     4.8167     0.0000     0.0000 </r>
       <r>     4.9278     0.0000     0.0000 </r>
       <r>     5.0389     0.0000     0.0000 </r>
       <r>     5.1500     0.0000     0.0000 </r>
       <r>     5.2611     0.0000     0.0000 </r>
       <r>     5.3722     0.0000     0.0000 </r>
       <r>     5.4833     0.0000     0.0000 </r>
       <r>     5.5944     0.0000     0.0000 </r>
       <r>     5.7055     0.0000     0.0000 </r>
       <r>     5.8166     0.0000     0.0000 </r>
       <r>     5.9277     0.0000     0.0000 </r>
       <r>     6.0388     0.0000     0.0000 </r>
       <r>     6.1499     0.0000     0.0000 </r>
       <r>     6.2610     0.0000     0.0000 </r>
       <r>     6.3721     0.0000     0.0000 </r>
       <r>     6.4832     0.0000     0.0000 </r>
       <r>     6.5943     0.0000     0.0000 </r>
       <r>     6.7054     0.0000     0.0000 </r>
       <r>     6.8165     0.0000     0.0000 </r>
       <r>     6.9276     0.0000     0.0000 </r>
       <r>     7.0387     0.0000     0.0000 </r>
       <r>     7.1498     0.0000     0.0000 </r>
       <r>     7.2609     0.0000     0.0000 </r>
       <r>     7.3720     0.0000     0.0000 </r>
       <r>     7.4832     0.0000     0.0000 </r>
       <r>     7.5943     0.0000     0.0000 </r>
       <r>     7.7054     0.0000     0.0000 </r>
       <r>     7.8165     0.0000     0.0000 </r>
       <r>     7.9276     0.0000     0.0000 </r>
       <r>     8.0387     0.0000     0.0000 </r>
       <r>     8.1498     0.0000     0.0000 </r>
       <r>     8.2609     0.0000     0.0000 </r>
       <r>     8.3720     0.0000     0.0000 </r>
       <r>     8.4831     0.0000     0.0000 </r>
       <r>     8.5942     0.0000     0.0000 </r>
       <r>     8.7053     0.0000     0.0000 </r>
       <r>     8.8164     0.0000     0.0000 </r>
       <r>     8.9275     0.0000     0.0000 </r>
       <r>     9.0386     0.0000     0.0000 </r>
       <r>     9.1497     0.0000     0.0000 </r>
       <r>     9.2608     0.0000     0.0000 </r>
       <r>     9.3719     0.0000     0.0000 </r>
       <r>     9.4830     0.0000     0.0000 </r>
       <r>     9.5941     0.0000     0.0000 </r>
       <r>     9.7052     0.0000     0.0000 </r>
       <r>     9.8163     0.0000     0.0000 </r>
       <r>     9.9274     0.0000     0.0000 </r>
       <r>    10.0385     0.0000     0.0000 </r>
       <r>    10.1496     0.0000     0.0000 </r>
       <r>    10.2608     0.0000     0.0000 </r>
       <r>    10.3719     0.0000     0.0000 </r>
       <r>    10.4830     0.0000     0.0000 </r>
       <r>    10.5941     0.0000     0.0000 </r>
       <r>    10.7052     0.0000     0.0000 </r>
       <r>    10.8163     0.0000     0.0000 </r>
       <r>    10.9274     0.0000     0.0000 </r>
       <r>    11.0385     0.0000     0.0000 </r>
       <r>    11.1496     0.0000     0.0000 </r>
       <r>    11.2607     0.0000     0.0000 </r>
       <r>    11.3718     0.0000     0.0000 </r>
       <r>    11.4829     0.0000     0.0000 </r>
       <r>    11.5940     0.0000     0.0000 </r>
       <r>    11.7051     0.0000     0.0000 </r>
       <r>    11.8162     0.0000     0.0000 </r>
       <r>    11.9273     0.0000     0.0000 </r>
       <r>    12.0384     0.0000     0.0000 </r>
       <r>    12.1495     0.0000     0.0000 </r>
       <r>    12.2606     0.0000     0.0000 </r>
       <r>    12.3717     0.0000     0.0000 </r>
       <r>    12.4828     0.0000     0.0000 </r>
       <r>    12.5939     0.0000     0.0000 </r>
       <r>    12.7050     0.0000     0.0000 </r>
       <r>    12.8161     0.0000     0.0000 </r>
       <r>    12.9272     0.0000     0.0000 </r>
       <r>    13.0384     0.0000     0.0000 </r>
       <r>    13.1495     0.0000     0.0000 </r>
       <r>    13.2606     0.0000     0.0000 </r>
       <r>    13.3717     0.0000     0.0000 </r>
       <r>    13.4828     0.0000     0.0000 </r>
       <r>    13.5939     0.0000     0.0000 </r>
       <r>    13.7050     0.0000     0.0000 </r>
       <r>    13.8161     0.0000     0.0000 </r>
       <r>    13.9272     0.0000     0.0000 </r>
       <r>    14.0383     0.0000     0.0000 </r>
       <r>    14.1494     0.0000     0.0000 </r>
       <r>    14.2605     0.0000     0.0000 </r>
       <r>    14.3716     0.0000     0.0000 </r>
       <r>    14.4827     0.0000     0.0000 </r>
       <r>    14.5938     0.0000     0.0000 </r>
       <r>    14.7049     0.0000     0.0000 </r>
       <r>    14.8160     0.0000     0.0000 </r>
       <r>    14.9271     0.0000     0.0000 </r>
       <r>    15.0382     0.0000     0.0000 </r>
       <r>    15.1493     0.0000     0.0000 </r>
       <r>    15.2604     0.0000     0.0000 </r>
       <r>    15.3715     0.0000     0.0000 </r>
       <r>    15.4826     0.0000     0.0000 </r>
       <r>    15.5937     0.0000     0.0000 </r>
       <r>    15.7048     0.0000     0.0000 </r>
       <r>    15.8160     0.0000     0.0000 </r>
       <r>    15.9271     0.0000     0.0000 </r>
       <r>    16.0382     0.0000     0.0000 </r>
       <r>    16.1493     0.0000     0.0000 </r>
       <r>    16.2604     0.0000     0.0000 </r>
       <r>    16.3715     0.0000     0.0000 </r>
       <r>    16.4826     0.0000     0.0000 </r>
       <r>    16.5937     0.0000     0.0000 </r>
       <r>    16.7048     0.0000     0.0000 </r>
       <r>    16.8159     0.0000     0.0000 </r>
       <r>    16.9270     0.0000     0.0000 </r>
       <r>    17.0381     0.0000     0.0000 </r>
       <r>    17.1492     0.0000     0.0000 </r>
       <r>    17.2603     0.0000     0.0000 </r>
       <r>    17.3714     0.0000     0.0000 </r>
       <r>    17.4825     0.0000     0.0000 </r>
       <r>    17.5936     0.0000     0.0000 </r>
       <r>    17.7047     0.0000     0.0000 </r>
       <r>    17.8158     0.0000     0.0000 </r>
       <r>    17.9269     0.0000     0.0000 </r>
       <r>    18.0380     0.0000     0.0000 </r>
       <r>    18.1491     0.0000     0.0000 </r>
       <r>    18.2602     0.0000     0.0000 </r>
       <r>    18.3713     0.0000     0.0000 </r>
       <r>    18.4824     0.0000     0.0000 </r>
       <r>    18.5935     0.0000     0.0000 </r>
       <r>    18.7047     0.0000     0.0000 </r>
       <r>    18.8158     0.0000     0.0000 </r>
       <r>    18.9269     0.0000     0.0000 </r>
       <r>    19.0380     0.0000     0.0000 </r>
       <r>    19.1491     0.0000     0.0000 </r>
       <r>    19.2602     0.0000     0.0000 </r>
       <r>    19.3713     0.0000     0.0000 </r>
       <r>    19.4824     0.0000     0.0000 </r>
       <r>    19.5935     0.0000     0.0000 </r>
       <r>    19.7046     0.0000     0.0000 </r>
       <r>    19.8157     0.0000     0.0000 </r>
       <r>    19.9268     0.0000     0.0000 </r>
       <r>    20.0379     0.0000     0.0000 </r>
       <r>    20.1490     0.0000     0.0000 </r>
       <r>    20.2601     0.0000     0.0000 </r>
       <r>    20.3712     0.0000     0.0000 </r>
       <r>    20.4823     0.0000     0.0000 </r>
       <r>    20.5934     0.0000     0.0000 </r>
       <r>    20.7045     0.0000     0.0000 </r>
       <r>    20.8156     0.0000     0.0000 </r>
       <r>    20.9267     0.0000     0.0000 </r>
       <r>    21.0378     0.0000     0.0000 </r>
       <r>    21.1489     0.0000     0.0000 </r>
       <r>    21.2600     0.0000     0.0000 </r>
       <r>    21.3711     0.0000     0.0000 </r>
       <r>    21.4823     0.0000     0.0000 </r>
       <r>    21.5934     0.0000     0.0000 </r>
       <r>    21.7045     0.0000     0.0000 </r>
       <r>    21.8156     0.0000     0.0000 </r>
       <r>    21.9267     0.0000     0.0000 </r>
       <r>    22.0378     0.0000     0.0000 </r>
       <r>    22.1489     0.0000     0.0000 </r>
       <r>    22.2600     0.0000     0.0000 </r>
       <r>    22.3711     0.0000     0.0000 </r>
       <r>    22.4822     0.0000     0.0000 </r>
       <r>    22.5933     0.0000     0.0000 </r>
       <r>    22.7044     0.0000     0.0000 </r>
       <r>    22.8155     0.0000     0.0000 </r>
       <r>    22.9266     0.0000     0.0000 </r>
       <r>    23.0377     0.0000     0.0000 </r>
       <r>    23.1488     0.0000     0.0000 </r>
       <r>    23.2599     0.0000     0.0000 </r>
       <r>    23.3710     0.0000     0.0000 </r>
       <r>    23.4821     0.0000     0.0000 </r>
       <r>    23.5932     0.0000     0.0000 </r>
       <r>    23.7043     0.0000     0.0000 </r>
       <r>    23.8154     0.0000     0.0000 </r>
       <r>    23.9265     0.0000     0.0000 </r>
       <r>    24.0376     0.0000     0.0000 </r>
       <r>    24.1487     0.0000     0.0000 </r>
       <r>    24.2599     0.0000     0.0000 </r>
       <r>    24.3710     0.0000     0.0000 </r>
       <r>    24.4821     0.0000     0.0000 </r>
       <r>    24.5932     0.0000     0.0000 </r>
       <r>    24.7043     0.0000     0.0000 </r>
       <r>    24.8154     0.0000     0.0000 </r>
       <r>    24.9265     0.0000     0.0000 </r>
       <r>    25.0376     0.0000     0.0000 </r>
       <r>    25.1487     0.0000     0.0000 </r>
       <r>    25.2598     0.0000     0.0000 </r>
       <r>    25.3709     0.0000     0.0000 </r>
       <r>    25.4820     0.0000     0.0000 </r>
       <r>    25.5931     0.0000     0.0000 </r>
       <r>    25.7042     0.0000     0.0000 </r>
       <r>    25.8153     0.0000     0.0000 </r>
       <r>    25.9264     0.0000     0.0000 </r>
       <r>    26.0375     0.0000     0.0000 </r>
       <r>    26.1486     0.0000     0.0000 </r>
       <r>    26.2597     0.0000     0.0000 </r>
       <r>    26.3708     0.0000     0.0000 </r>
       <r>    26.4819     0.0000     0.0000 </r>
       <r>    26.5930     0.0000     0.0000 </r>
       <r>    26.7041     0.0000     0.0000 </r>
       <r>    26.8152     0.0000     0.0000 </r>
       <r>    26.9263     0.0000     0.0000 </r>
       <r>    27.0375     0.0000     0.0000 </r>
       <r>    27.1486     0.0000     0.0000 </r>
       <r>    27.2597     0.0000     0.0000 </r>
       <r>    27.3708     0.0000     0.0000 </r>
       <r>    27.4819     0.0000     0.0000 </r>
       <r>    27.5930     0.0000     0.0000 </r>
       <r>    27.7041     0.0000     0.0000 </r>
       <r>    27.8152     0.0000     0.0000 </r>
       <r>    27.9263     0.0000     0.0000 </r>
       <r>    28.0374     0.0000     0.0000 </r>
       <r>    28.1485     0.0000     0.0000 </r>
       <r>    28.2596     0.0000     0.0000 </r>
       <r>    28.3707     0.0000     0.0000 </r>
       <r>    28.4818     0.0000     0.0000 </r>
       <r>    28.5929     0.0000     0.0000 </r>
       <r>    28.7040     0.0000     0.0000 </r>
       <r>    28.8151     0.0000     0.0000 </r>
       <r>    28.9262     0.0000     0.0000 </r>
       <r>    29.0373     0.0000     0.0000 </r>
       <r>    29.1484     0.0000     0.0000 </r>
       <r>    29.2595     0.0000     0.0000 </r>
       <r>    29.3706     0.0000     0.0000 </r>
       <r>    29.4817     0.0000     0.0000 </r>
       <r>    29.5928     0.0000     0.0000 </r>
      </set>
     </set>
    </array>
   </total>
  </dos>
 </calculation>
 <structure name="finalpos" >
  <crystal>
   <varray name="basis" >
    <v>      -1.58260000       1.58260000       1.58260000 </v>
    <v>       1.58260000      -1.58260000       1.58260000 </v>
    <v>       1.58260000       1.58260000      -1.58260000 </v>
   </varray>
   <i name="volume">     15.85526392 </i>
   <varray name="rec_basis" >
    <v>       0.00000000       0.31593580       0.31593580 </v>
    <v>       0.31593580       0.00000000       0.31593580 </v>
    <v>       0.31593580       0.31593580       0.00000000 </v>
   </varray>
  </crystal>
  <varray name="positions" >
   <v>       0.00000000       0.00000000       0.00000000 </v>
  </varray>
 </structure>
</modeling>
