Nb                                      
   3.30080000000000     
     1.000000    0.000000    0.000000
     0.000000    1.000000    0.000000
     0.000000    0.000000    1.000000
   Nb
     2
Direct
  0.000000  0.000000  0.000000
  0.500000  0.500000  0.500000
 
   28   28   28
  168.87      165.63      155.74      139.02      116.22      89.720      63.254      40.722      24.629      15.220    
  10.762      8.7236      7.7567      7.3734      7.2780      7.3734      7.7567      8.7236      10.762      15.220    
  24.629      40.722      63.254      89.720      116.22      139.02      155.74      165.63      165.63      162.42    
  152.61      136.06      113.55      87.474      61.552      39.595      24.007      14.954      10.677      8.6963    
  7.7558      7.3831      7.2904      7.3831      7.7558      8.6963      10.677      14.954      24.007      39.595    
  61.552      87.474      113.55      136.06      152.61      162.42      155.74      152.61      143.07      127.08    
  105.52      80.815      56.574      36.352      22.250      14.216      10.440      8.6194      7.7547      7.4120    
  7.3268      7.4120      7.7547      8.6194      10.440      14.216      22.250      36.352      56.574      80.815    
  105.52      127.08      143.07      152.61      139.02      136.06      127.08      112.18      92.417      70.181    
  48.824      31.451      19.685      13.177      10.087      8.5065      7.7566      7.4584      7.3840      7.4584    
  7.7566      8.5065      10.087      13.177      19.685      31.451      48.824      70.181      92.417      112.18    
  127.08      136.06      116.22      113.55      105.52      92.417      75.402      56.748      39.363      25.707    
  16.821      12.055      9.6611      8.3752      7.7626      7.5162      7.4540      7.5162      7.7626      8.3752    
  9.6611      12.055      16.821      25.707      39.363      56.748      75.402      92.417      105.52      113.55    
  89.720      87.474      80.815      70.181      56.748      42.505      29.736      20.149      14.192      11.009    
  9.2180      8.2419      7.7695      7.5736      7.5227      7.5736      7.7695      8.2419      9.2180      11.009    
  14.192      20.149      29.736      42.505      56.748      70.181      80.815      87.474      63.254      61.552    
  56.574      48.824      39.363      29.736      21.514      15.658      12.135      10.066      8.8105      8.1177    
  7.7693      7.6157      7.5735      7.6157      7.7693      8.1177      8.8105      10.066      12.135      15.658    
  21.514      29.736      39.363      48.824      56.574      61.552      40.722      39.595      36.352      31.451    
  25.707      20.149      15.658      12.586      10.606      9.2835      8.4711      8.0056      7.7528      7.6291    
  7.5922      7.6291      7.7528      8.0056      8.4711      9.2835      10.606      12.586      15.658      20.149    
  25.707      31.451      36.352      39.595      24.629      24.007      22.250      19.685      16.821      14.192    
  12.135      10.606      9.4686      8.6969      8.2063      7.9013      7.7134      7.6079      7.5735      7.6079    
  7.7134      7.9013      8.2063      8.6969      9.4686      10.606      12.135      14.192      16.821      19.685    
  22.250      24.007      15.220      14.954      14.216      13.177      12.055      11.009      10.066      9.2835    
  8.6969      8.2858      8.0013      7.7976      7.6499      7.5557      7.5227      7.5557      7.6499      7.7976    
  8.0013      8.2858      8.6969      9.2835      10.066      11.009      12.055      13.177      14.216      14.954    
  10.762      10.677      10.440      10.087      9.6611      9.2180      8.8105      8.4711      8.2063      8.0013    
  7.8339      7.6893      7.5682      7.4843      7.4540      7.4843      7.5682      7.6893      7.8339      8.0013    
  8.2063      8.4711      8.8105      9.2180      9.6611      10.087      10.440      10.677      8.7236      8.6963    
  8.6194      8.5065      8.3752      8.2419      8.1177      8.0056      7.9013      7.7976      7.6893      7.5794    
  7.4802      7.4097      7.3840      7.4097      7.4802      7.5794      7.6893      7.7976      7.9013      8.0056    
  8.1177      8.2419      8.3752      8.5065      8.6194      8.6963      7.7567      7.7558      7.7547      7.7566    
  7.7626      7.7695      7.7693      7.7528      7.7134      7.6499      7.5682      7.4802      7.4012      7.3464    
  7.3268      7.3464      7.4012      7.4802      7.5682      7.6499      7.7134      7.7528      7.7693      7.7695    
  7.7626      7.7566      7.7547      7.7558      7.3734      7.3831      7.4120      7.4584      7.5162      7.5736    
  7.6157      7.6291      7.6079      7.5557      7.4843      7.4097      7.3464      7.3048      7.2904      7.3048    
  7.3464      7.4097      7.4843      7.5557      7.6079      7.6291      7.6157      7.5736      7.5162      7.4584    
  7.4120      7.3831      7.2780      7.2904      7.3268      7.3840      7.4540      7.5227      7.5735      7.5922    
  7.5735      7.5227      7.4540      7.3840      7.3268      7.2904      7.2780      7.2904      7.3268      7.3840    
  7.4540      7.5227      7.5735      7.5922      7.5735      7.5227      7.4540      7.3840      7.3268      7.2904    
  7.3734      7.3831      7.4120      7.4584      7.5162      7.5736      7.6157      7.6291      7.6079      7.5557    
  7.4843      7.4097      7.3464      7.3048      7.2904      7.3048      7.3464      7.4097      7.4843      7.5557    
  7.6079      7.6291      7.6157      7.5736      7.5162      7.4584      7.4120      7.3831      7.7567      7.7558    
  7.7547      7.7566      7.7626      7.7695      7.7693      7.7528      7.7134      7.6499      7.5682      7.4802    
  7.4012      7.3464      7.3268      7.3464      7.4012      7.4802      7.5682      7.6499      7.7134      7.7528    
  7.7693      7.7695      7.7626      7.7566      7.7547      7.7558      8.7236      8.6963      8.6194      8.5065    
  8.3752      8.2419      8.1177      8.0056      7.9013      7.7976      7.6893      7.5794      7.4802      7.4097    
  7.3840      7.4097      7.4802      7.5794      7.6893      7.7976      7.9013      8.0056      8.1177      8.2419    
  8.3752      8.5065      8.6194      8.6963      10.762      10.677      10.440      10.087      9.6611      9.2180    
  8.8105      8.4711      8.2063      8.0013      7.8339      7.6893      7.5682      7.4843      7.4540      7.4843    
  7.5682      7.6893      7.8339      8.0013      8.2063      8.4711      8.8105      9.2180      9.6611      10.087    
  10.440      10.677      15.220      14.954      14.216      13.177      12.055      11.009      10.066      9.2835    
  8.6969      8.2858      8.0013      7.7976      7.6499      7.5557      7.5227      7.5557      7.6499      7.7976    
  8.0013      8.2858      8.6969      9.2835      10.066      11.009      12.055      13.177      14.216      14.954    
  24.629      24.007      22.250      19.685      16.821      14.192      12.135      10.606      9.4686      8.6969    
  8.2063      7.9013      7.7134      7.6079      7.5735      7.6079      7.7134      7.9013      8.2063      8.6969    
  9.4686      10.606      12.135      14.192      16.821      19.685      22.250      24.007      40.722      39.595    
  36.352      31.451      25.707      20.149      15.658      12.586      10.606      9.2835      8.4711      8.0056    
  7.7528      7.6291      7.5922      7.6291      7.7528      8.0056      8.4711      9.2835      10.606      12.586    
  15.658      20.149      25.707      31.451      36.352      39.595      63.254      61.552      56.574      48.824    
  39.363      29.736      21.514      15.658      12.135      10.066      8.8105      8.1177      7.7693      7.6157    
  7.5735      7.6157      7.7693      8.1177      8.8105      10.066      12.135      15.658      21.514      29.736    
  39.363      48.824      56.574      61.552      89.720      87.474      80.815      70.181      56.748      42.505    
  29.736      20.149      14.192      11.009      9.2180      8.2419      7.7695      7.5736      7.5227      7.5736    
  7.7695      8.2419      9.2180      11.009      14.192      20.149      29.736      42.505      56.748      70.181    
  80.815      87.474      116.22      113.55      105.52      92.417      75.402      56.748      39.363      25.707    
  16.821      12.055      9.6611      8.3752      7.7626      7.5162      7.4540      7.5162      7.7626      8.3752    
  9.6611      12.055      16.821      25.707      39.363      56.748      75.402      92.417      105.52      113.55    
  139.02      136.06      127.08      112.18      92.417      70.181      48.824      31.451      19.685      13.177    
  10.087      8.5065      7.7566      7.4584      7.3840      7.4584      7.7566      8.5065      10.087      13.177    
  19.685      31.451      48.824      70.181      92.417      112.18      127.08      136.06      155.74      152.61    
  143.07      127.08      105.52      80.815      56.574      36.352      22.250      14.216      10.440      8.6194    
  7.7547      7.4120      7.3268      7.4120      7.7547      8.6194      10.440      14.216      22.250      36.352    
  56.574      80.815      105.52      127.08      143.07      152.61      165.63      162.42      152.61      136.06    
  113.55      87.474      61.552      39.595      24.007      14.954      10.677      8.6963      7.7558      7.3831    
  7.2904      7.3831      7.7558      8.6963      10.677      14.954      24.007      39.595      61.552      87.474    
  113.55      136.06      152.61      162.42      165.63      162.42      152.61      136.06      113.55      87.474    
  61.552      39.595      24.007      14.954      10.677      8.6963      7.7558      7.3831      7.2904      7.3831    
  7.7558      8.6963      10.677      14.954      24.007      39.595      61.552      87.474      113.55      136.06    
  152.61      162.42      162.42      159.23      149.50      133.11      110.89      85.256      59.879      38.496    
  23.407      14.701      10.598      8.6721      7.7573      7.3950      7.3048      7.3950      7.7573      8.6721    
  10.598      14.701      23.407      38.496      59.879      85.256      110.89      133.11      149.50      159.23    
  152.61      149.50      140.03      124.20      102.95      78.692      55.000      35.341      21.714      14.000    
  10.375      8.6036      7.7626      7.4294      7.3464      7.4294      7.7626      8.6036      10.375      14.000    
  21.714      35.341      55.000      78.692      102.95      124.20      140.03      149.50      136.06      133.11    
  124.20      109.49      90.034      68.249      47.431      30.588      19.251      13.015      10.039      8.5017    
  7.7725      7.4822      7.4097      7.4822      7.7725      8.5017      10.039      13.015      19.251      30.588    
  47.431      68.249      90.034      109.49      124.20      133.11      113.55      110.89      102.95      90.034    
  73.336      55.121      38.233      25.044      16.511      11.949      9.6313      8.3816      7.7856      7.5452    
  7.4843      7.5452      7.7856      8.3816      9.6313      11.949      16.511      25.044      38.233      55.121    
  73.336      90.034      102.95      110.89      87.474      85.256      78.692      68.249      55.121      41.272    
  28.923      19.704      14.004      10.946      9.2068      8.2580      7.7975      7.6057      7.5557      7.6057    
  7.7975      8.2580      9.2068      10.946      14.004      19.704      28.923      41.272      55.121      68.249    
  78.692      85.256      61.552      59.879      55.000      47.431      38.233      28.923      21.014      15.410    
  12.039      10.035      8.8155      8.1414      7.8008      7.6497      7.6079      7.6497      7.8008      8.1414    
  8.8155      10.035      12.039      15.410      21.014      28.923      38.233      47.431      55.000      59.879    
  39.595      38.496      35.341      30.588      25.044      19.704      15.410      12.476      10.561      9.2783    
  8.4893      8.0356      7.7879      7.6658      7.6291      7.6658      7.7879      8.0356      8.4893      9.2783    
  10.561      12.476      15.410      19.704      25.044      30.588      35.341      38.496      24.007      23.407    
  21.714      19.251      16.511      14.004      12.039      10.561      9.4593      8.7113      8.2349      7.9376    
  7.7535      7.6497      7.6157      7.6497      7.7535      7.9376      8.2349      8.7113      9.4593      10.561    
  12.039      14.004      16.511      19.251      21.714      23.407      14.954      14.701      14.000      13.015    
  11.949      10.946      10.035      9.2783      8.7113      8.3138      8.0384      7.8409      7.6974      7.6057    
  7.5736      7.6057      7.6974      7.8409      8.0384      8.3138      8.7113      9.2783      10.035      10.946    
  11.949      13.015      14.000      14.701      10.677      10.598      10.375      10.039      9.6313      9.2068    
  8.8155      8.4893      8.2349      8.0384      7.8785      7.7407      7.6252      7.5452      7.5162      7.5452    
  7.6252      7.7407      7.8785      8.0384      8.2349      8.4893      8.8155      9.2068      9.6313      10.039    
  10.375      10.598      8.6963      8.6721      8.6036      8.5017      8.3816      8.2580      8.1414      8.0356    
  7.9376      7.8409      7.7407      7.6392      7.5475      7.4822      7.4584      7.4822      7.5475      7.6392    
  7.7407      7.8409      7.9376      8.0356      8.1414      8.2580      8.3816      8.5017      8.6036      8.6721    
  7.7558      7.7573      7.7626      7.7725      7.7856      7.7975      7.8008      7.7879      7.7535      7.6974    
  7.6252      7.5475      7.4777      7.4294      7.4120      7.4294      7.4777      7.5475      7.6252      7.6974    
  7.7535      7.7879      7.8008      7.7975      7.7856      7.7725      7.7626      7.7573      7.3831      7.3950    
  7.4294      7.4822      7.5452      7.6057      7.6497      7.6658      7.6497      7.6057      7.5452      7.4822    
  7.4294      7.3950      7.3831      7.3950      7.4294      7.4822      7.5452      7.6057      7.6497      7.6658    
  7.6497      7.6057      7.5452      7.4822      7.4294      7.3950      7.2904      7.3048      7.3464      7.4097    
  7.4843      7.5557      7.6079      7.6291      7.6157      7.5736      7.5162      7.4584      7.4120      7.3831    
  7.3734      7.3831      7.4120      7.4584      7.5162      7.5736      7.6157      7.6291      7.6079      7.5557    
  7.4843      7.4097      7.3464      7.3048      7.3831      7.3950      7.4294      7.4822      7.5452      7.6057    
  7.6497      7.6658      7.6497      7.6057      7.5452      7.4822      7.4294      7.3950      7.3831      7.3950    
  7.4294      7.4822      7.5452      7.6057      7.6497      7.6658      7.6497      7.6057      7.5452      7.4822    
  7.4294      7.3950      7.7558      7.7573      7.7626      7.7725      7.7856      7.7975      7.8008      7.7879    
  7.7535      7.6974      7.6252      7.5475      7.4777      7.4294      7.4120      7.4294      7.4777      7.5475    
  7.6252      7.6974      7.7535      7.7879      7.8008      7.7975      7.7856      7.7725      7.7626      7.7573    
  8.6963      8.6721      8.6036      8.5017      8.3816      8.2580      8.1414      8.0356      7.9376      7.8409    
  7.7407      7.6392      7.5475      7.4822      7.4584      7.4822      7.5475      7.6392      7.7407      7.8409    
  7.9376      8.0356      8.1414      8.2580      8.3816      8.5017      8.6036      8.6721      10.677      10.598    
  10.375      10.039      9.6313      9.2068      8.8155      8.4893      8.2349      8.0384      7.8785      7.7407    
  7.6252      7.5452      7.5162      7.5452      7.6252      7.7407      7.8785      8.0384      8.2349      8.4893    
  8.8155      9.2068      9.6313      10.039      10.375      10.598      14.954      14.701      14.000      13.015    
  11.949      10.946      10.035      9.2783      8.7113      8.3138      8.0384      7.8409      7.6974      7.6057    
  7.5736      7.6057      7.6974      7.8409      8.0384      8.3138      8.7113      9.2783      10.035      10.946    
  11.949      13.015      14.000      14.701      24.007      23.407      21.714      19.251      16.511      14.004    
  12.039      10.561      9.4593      8.7113      8.2349      7.9376      7.7535      7.6497      7.6157      7.6497    
  7.7535      7.9376      8.2349      8.7113      9.4593      10.561      12.039      14.004      16.511      19.251    
  21.714      23.407      39.595      38.496      35.341      30.588      25.044      19.704      15.410      12.476    
  10.561      9.2783      8.4893      8.0356      7.7879      7.6658      7.6291      7.6658      7.7879      8.0356    
  8.4893      9.2783      10.561      12.476      15.410      19.704      25.044      30.588      35.341      38.496    
  61.552      59.879      55.000      47.431      38.233      28.923      21.014      15.410      12.039      10.035    
  8.8155      8.1414      7.8008      7.6497      7.6079      7.6497      7.8008      8.1414      8.8155      10.035    
  12.039      15.410      21.014      28.923      38.233      47.431      55.000      59.879      87.474      85.256    
  78.692      68.249      55.121      41.272      28.923      19.704      14.004      10.946      9.2068      8.2580    
  7.7975      7.6057      7.5557      7.6057      7.7975      8.2580      9.2068      10.946      14.004      19.704    
  28.923      41.272      55.121      68.249      78.692      85.256      113.55      110.89      102.95      90.034    
  73.336      55.121      38.233      25.044      16.511      11.949      9.6313      8.3816      7.7856      7.5452    
  7.4843      7.5452      7.7856      8.3816      9.6313      11.949      16.511      25.044      38.233      55.121    
  73.336      90.034      102.95      110.89      136.06      133.11      124.20      109.49      90.034      68.249    
  47.431      30.588      19.251      13.015      10.039      8.5017      7.7725      7.4822      7.4097      7.4822    
  7.7725      8.5017      10.039      13.015      19.251      30.588      47.431      68.249      90.034      109.49    
  124.20      133.11      152.61      149.50      140.03      124.20      102.95      78.692      55.000      35.341    
  21.714      14.000      10.375      8.6036      7.7626      7.4294      7.3464      7.4294      7.7626      8.6036    
  10.375      14.000      21.714      35.341      55.000      78.692      102.95      124.20      140.03      149.50    
  162.42      159.23      149.50      133.11      110.89      85.256      59.879      38.496      23.407      14.701    
  10.598      8.6721      7.7573      7.3950      7.3048      7.3950      7.7573      8.6721      10.598      14.701    
  23.407      38.496      59.879      85.256      110.89      133.11      149.50      159.23      155.74      152.61    
  143.07      127.08      105.52      80.815      56.574      36.352      22.250      14.216      10.440      8.6194    
  7.7547      7.4120      7.3268      7.4120      7.7547      8.6194      10.440      14.216      22.250      36.352    
  56.574      80.815      105.52      127.08      143.07      152.61      152.61      149.50      140.03      124.20    
  102.95      78.692      55.000      35.341      21.714      14.000      10.375      8.6036      7.7626      7.4294    
  7.3464      7.4294      7.7626      8.6036      10.375      14.000      21.714      35.341      55.000      78.692    
  102.95      124.20      140.03      149.50      143.07      140.03      130.84      115.58      95.301      72.448    
  50.433      32.452      20.211      13.405      10.187      8.5575      7.7846      7.4777      7.4012      7.4777    
  7.7846      8.5575      10.187      13.405      20.211      32.452      50.433      72.448      95.301      115.58    
  130.84      140.03      127.08      124.20      115.58      101.45      83.004      62.621      43.424      28.144    
  18.042      12.567      9.8971      8.4860      7.8156      7.5475      7.4802      7.5475      7.8156      8.4860    
  9.8971      12.567      18.042      28.144      43.424      62.621      83.004      101.45      115.58      124.20    
  105.52      102.95      95.301      83.004      67.309      50.429      35.017      23.181      15.654      11.654    
  9.5435      8.3975      7.8486      7.6252      7.5682      7.6252      7.8486      8.3975      9.5435      11.654    
  15.654      23.181      35.017      50.429      67.309      83.004      95.301      102.95      80.815      78.692    
  72.448      62.621      50.429      37.755      26.633      18.469      13.486      10.766      9.1730      8.3030    
  7.8772      7.6974      7.6499      7.6974      7.8772      8.3030      9.1730      10.766      13.486      18.469    
  26.633      37.755      50.429      62.621      72.448      78.692      56.574      55.000      50.433      43.424    
  35.017      26.633      19.625      14.728      11.771      9.9450      8.8315      8.2128      7.8964      7.7535    
  7.7134      7.7535      7.8964      8.2128      8.8315      9.9450      11.771      14.728      19.625      26.633    
  35.017      43.424      50.433      55.000      36.352      35.341      32.452      28.144      23.181      18.469    
  14.728      12.167      10.435      9.2677      8.5491      8.1332      7.9031      7.7879      7.7528      7.7879    
  7.9031      8.1332      8.5491      9.2677      10.435      12.167      14.728      18.469      23.181      28.144    
  32.452      35.341      22.250      21.714      20.211      18.042      15.654      13.486      11.771      10.435    
  9.4379      8.7631      8.3334      8.0643      7.8964      7.8008      7.7693      7.8008      7.8964      8.0643    
  8.3334      8.7631      9.4379      10.435      11.771      13.486      15.654      18.042      20.211      21.714    
  14.216      14.000      13.405      12.567      11.654      10.766      9.9450      9.2677      8.7631      8.4125    
  8.1723      8.0014      7.8772      7.7975      7.7695      7.7975      7.8772      8.0014      8.1723      8.4125    
  8.7631      9.2677      9.9450      10.766      11.654      12.567      13.405      14.000      10.440      10.375    
  10.187      9.8971      9.5435      9.1730      8.8315      8.5491      8.3334      8.1723      8.0458      7.9386    
  7.8486      7.7856      7.7626      7.7856      7.8486      7.9386      8.0458      8.1723      8.3334      8.5491    
  8.8315      9.1730      9.5435      9.8971      10.187      10.375      8.6194      8.6036      8.5575      8.4860    
  8.3975      8.3030      8.2128      8.1332      8.0643      8.0014      7.9386      7.8747      7.8156      7.7725    
  7.7566      7.7725      7.8156      7.8747      7.9386      8.0014      8.0643      8.1332      8.2128      8.3030    
  8.3975      8.4860      8.5575      8.6036      7.7547      7.7626      7.7846      7.8156      7.8486      7.8772    
  7.8964      7.9031      7.8964      7.8772      7.8486      7.8156      7.7846      7.7626      7.7547      7.7626    
  7.7846      7.8156      7.8486      7.8772      7.8964      7.9031      7.8964      7.8772      7.8486      7.8156    
  7.7846      7.7626      7.4120      7.4294      7.4777      7.5475      7.6252      7.6974      7.7535      7.7879    
  7.8008      7.7975      7.7856      7.7725      7.7626      7.7573      7.7558      7.7573      7.7626      7.7725    
  7.7856      7.7975      7.8008      7.7879      7.7535      7.6974      7.6252      7.5475      7.4777      7.4294    
  7.3268      7.3464      7.4012      7.4802      7.5682      7.6499      7.7134      7.7528      7.7693      7.7695    
  7.7626      7.7566      7.7547      7.7558      7.7567      7.7558      7.7547      7.7566      7.7626      7.7695    
  7.7693      7.7528      7.7134      7.6499      7.5682      7.4802      7.4012      7.3464      7.4120      7.4294    
  7.4777      7.5475      7.6252      7.6974      7.7535      7.7879      7.8008      7.7975      7.7856      7.7725    
  7.7626      7.7573      7.7558      7.7573      7.7626      7.7725      7.7856      7.7975      7.8008      7.7879    
  7.7535      7.6974      7.6252      7.5475      7.4777      7.4294      7.7547      7.7626      7.7846      7.8156    
  7.8486      7.8772      7.8964      7.9031      7.8964      7.8772      7.8486      7.8156      7.7846      7.7626    
  7.7547      7.7626      7.7846      7.8156      7.8486      7.8772      7.8964      7.9031      7.8964      7.8772    
  7.8486      7.8156      7.7846      7.7626      8.6194      8.6036      8.5575      8.4860      8.3975      8.3030    
  8.2128      8.1332      8.0643      8.0014      7.9386      7.8747      7.8156      7.7725      7.7566      7.7725    
  7.8156      7.8747      7.9386      8.0014      8.0643      8.1332      8.2128      8.3030      8.3975      8.4860    
  8.5575      8.6036      10.440      10.375      10.187      9.8971      9.5435      9.1730      8.8315      8.5491    
  8.3334      8.1723      8.0458      7.9386      7.8486      7.7856      7.7626      7.7856      7.8486      7.9386    
  8.0458      8.1723      8.3334      8.5491      8.8315      9.1730      9.5435      9.8971      10.187      10.375    
  14.216      14.000      13.405      12.567      11.654      10.766      9.9450      9.2677      8.7631      8.4125    
  8.1723      8.0014      7.8772      7.7975      7.7695      7.7975      7.8772      8.0014      8.1723      8.4125    
  8.7631      9.2677      9.9450      10.766      11.654      12.567      13.405      14.000      22.250      21.714    
  20.211      18.042      15.654      13.486      11.771      10.435      9.4379      8.7631      8.3334      8.0643    
  7.8964      7.8008      7.7693      7.8008      7.8964      8.0643      8.3334      8.7631      9.4379      10.435    
  11.771      13.486      15.654      18.042      20.211      21.714      36.352      35.341      32.452      28.144    
  23.181      18.469      14.728      12.167      10.435      9.2677      8.5491      8.1332      7.9031      7.7879    
  7.7528      7.7879      7.9031      8.1332      8.5491      9.2677      10.435      12.167      14.728      18.469    
  23.181      28.144      32.452      35.341      56.574      55.000      50.433      43.424      35.017      26.633    
  19.625      14.728      11.771      9.9450      8.8315      8.2128      7.8964      7.7535      7.7134      7.7535    
  7.8964      8.2128      8.8315      9.9450      11.771      14.728      19.625      26.633      35.017      43.424    
  50.433      55.000      80.815      78.692      72.448      62.621      50.429      37.755      26.633      18.469    
  13.486      10.766      9.1730      8.3030      7.8772      7.6974      7.6499      7.6974      7.8772      8.3030    
  9.1730      10.766      13.486      18.469      26.633      37.755      50.429      62.621      72.448      78.692    
  105.52      102.95      95.301      83.004      67.309      50.429      35.017      23.181      15.654      11.654    
  9.5435      8.3975      7.8486      7.6252      7.5682      7.6252      7.8486      8.3975      9.5435      11.654    
  15.654      23.181      35.017      50.429      67.309      83.004      95.301      102.95      127.08      124.20    
  115.58      101.45      83.004      62.621      43.424      28.144      18.042      12.567      9.8971      8.4860    
  7.8156      7.5475      7.4802      7.5475      7.8156      8.4860      9.8971      12.567      18.042      28.144    
  43.424      62.621      83.004      101.45      115.58      124.20      143.07      140.03      130.84      115.58    
  95.301      72.448      50.433      32.452      20.211      13.405      10.187      8.5575      7.7846      7.4777    
  7.4012      7.4777      7.7846      8.5575      10.187      13.405      20.211      32.452      50.433      72.448    
  95.301      115.58      130.84      140.03      152.61      149.50      140.03      124.20      102.95      78.692    
  55.000      35.341      21.714      14.000      10.375      8.6036      7.7626      7.4294      7.3464      7.4294    
  7.7626      8.6036      10.375      14.000      21.714      35.341      55.000      78.692      102.95      124.20    
  140.03      149.50      139.02      136.06      127.08      112.18      92.417      70.181      48.824      31.451    
  19.685      13.177      10.087      8.5065      7.7566      7.4584      7.3840      7.4584      7.7566      8.5065    
  10.087      13.177      19.685      31.451      48.824      70.181      92.417      112.18      127.08      136.06    
  136.06      133.11      124.20      109.49      90.034      68.249      47.431      30.588      19.251      13.015    
  10.039      8.5017      7.7725      7.4822      7.4097      7.4822      7.7725      8.5017      10.039      13.015    
  19.251      30.588      47.431      68.249      90.034      109.49      124.20      133.11      127.08      124.20    
  115.58      101.45      83.004      62.621      43.424      28.144      18.042      12.567      9.8971      8.4860    
  7.8156      7.5475      7.4802      7.5475      7.8156      8.4860      9.8971      12.567      18.042      28.144    
  43.424      62.621      83.004      101.45      115.58      124.20      112.18      109.49      101.45      88.491    
  71.874      53.899      37.366      24.551      16.319      11.933      9.6767      8.4570      7.8747      7.6392    