Nb                                      
   3.30080000000000     
     1.000000    0.000000    0.000000
     0.000000    1.000000    0.000000
     0.000000    0.000000    1.000000
   Nb
     2
Direct
  0.000000  0.000000  0.000000
  0.500000  0.500000  0.500000
 
   28   28   28
 0.16886689013E+03 0.16563350139E+03 0.15574202950E+03 0.13902053026E+03 0.11622431152E+03
 0.89719793829E+02 0.63254031516E+02 0.40722474838E+02 0.24629369373E+02 0.15220423777E+02
 0.10762296361E+02 0.87236017022E+01 0.77566559006E+01 0.73734478345E+01 0.72780134315E+01
 0.73734478345E+01 0.77566559006E+01 0.87236017022E+01 0.10762296361E+02 0.15220423777E+02
 0.24629369373E+02 0.40722474838E+02 0.63254031516E+02 0.89719793829E+02 0.11622431152E+03
 0.13902053026E+03 0.15574202950E+03 0.16563350139E+03 0.16563350139E+03 0.16242311909E+03
 0.15261115483E+03 0.13605528441E+03 0.11354803998E+03 0.87474113192E+02 0.61551589145E+02
 0.39595276737E+02 0.24007036315E+02 0.14953877998E+02 0.10677452715E+02 0.86962902789E+01
 0.77557552259E+01 0.73831284515E+01 0.72903645917E+01 0.73831284515E+01 0.77557552259E+01
 0.86962902789E+01 0.10677452715E+02 0.14953877998E+02 0.24007036315E+02 0.39595276737E+02
 0.61551589145E+02 0.87474113192E+02 0.11354803998E+03 0.13605528441E+03 0.15261115483E+03
 0.16242311909E+03 0.15574202950E+03 0.15261115483E+03 0.14307237951E+03 0.12707564751E+03
 0.10551739627E+03 0.80815045021E+02 0.56573750588E+02 0.36352010546E+02 0.22249508557E+02
 0.14216306521E+02 0.10440176050E+02 0.86194153288E+01 0.77546588635E+01 0.74120414195E+01
 0.73267720768E+01 0.74120414195E+01 0.77546588635E+01 0.86194153288E+01 0.10440176050E+02
 0.14216306521E+02 0.22249508557E+02 0.36352010546E+02 0.56573750588E+02 0.80815045021E+02
 0.10551739627E+03 0.12707564751E+03 0.14307237951E+03 0.15261115483E+03 0.13902053026E+03
 0.13605528441E+03 0.12707564751E+03 0.11218399848E+03 0.92417137821E+02 0.70180723413E+02
 0.48824171968E+02 0.31451148978E+02 0.19685279514E+02 0.13177419344E+02 0.10087270742E+02
 0.85064867100E+01 0.77565515772E+01 0.74584350034E+01 0.73840429618E+01 0.74584350034E+01
 0.77565515772E+01 0.85064867100E+01 0.10087270742E+02 0.13177419344E+02 0.19685279514E+02
 0.31451148978E+02 0.48824171968E+02 0.70180723413E+02 0.92417137821E+02 0.11218399848E+03
 0.12707564751E+03 0.13605528441E+03 0.11622431152E+03 0.11354803998E+03 0.10551739627E+03
 0.92417137821E+02 0.75401593527E+02 0.56748444270E+02 0.39363017668E+02 0.25707394093E+02
 0.16820556088E+02 0.12055218753E+02 0.96610592145E+01 0.83751562437E+01 0.77626370277E+01
 0.75161948750E+01 0.74540048334E+01 0.75161948750E+01 0.77626370277E+01 0.83751562437E+01
 0.96610592145E+01 0.12055218753E+02 0.16820556088E+02 0.25707394093E+02 0.39363017668E+02
 0.56748444270E+02 0.75401593527E+02 0.92417137821E+02 0.10551739627E+03 0.11354803998E+03
 0.89719793829E+02 0.87474113192E+02 0.80815045021E+02 0.70180723413E+02 0.56748444270E+02
 0.42505258098E+02 0.29736103206E+02 0.20148642010E+02 0.14192049080E+02 0.11008677772E+02
 0.92180469753E+01 0.82419357573E+01 0.77694864308E+01 0.75736202629E+01 0.75227464583E+01
 0.75736202629E+01 0.77694864308E+01 0.82419357573E+01 0.92180469753E+01 0.11008677772E+02
 0.14192049080E+02 0.20148642010E+02 0.29736103206E+02 0.42505258098E+02 0.56748444270E+02
 0.70180723413E+02 0.80815045021E+02 0.87474113192E+02 0.63254031516E+02 0.61551589145E+02
 0.56573750588E+02 0.48824171968E+02 0.39363017668E+02 0.29736103206E+02 0.21513600663E+02
 0.15658180960E+02 0.12134673037E+02 0.10065946603E+02 0.88105125897E+01 0.81177342079E+01
 0.77692867564E+01 0.76156772413E+01 0.75734577226E+01 0.76156772413E+01 0.77692867564E+01
 0.81177342079E+01 0.88105125897E+01 0.10065946603E+02 0.12134673037E+02 0.15658180960E+02
 0.21513600663E+02 0.29736103206E+02 0.39363017668E+02 0.48824171968E+02 0.56573750588E+02
 0.61551589145E+02 0.40722474838E+02 0.39595276737E+02 0.36352010546E+02 0.31451148978E+02
 0.25707394093E+02 0.20148642010E+02 0.15658180960E+02 0.12586223046E+02 0.10605939165E+02
 0.92834928170E+01 0.84711407465E+01 0.80055792967E+01 0.77528111646E+01 0.76291416211E+01
 0.75921746735E+01 0.76291416211E+01 0.77528111646E+01 0.80055792967E+01 0.84711407465E+01
 0.92834928170E+01 0.10605939165E+02 0.12586223046E+02 0.15658180960E+02 0.20148642010E+02
 0.25707394093E+02 0.31451148978E+02 0.36352010546E+02 0.39595276737E+02 0.24629369373E+02
 0.24007036315E+02 0.22249508557E+02 0.19685279514E+02 0.16820556088E+02 0.14192049080E+02
 0.12134673037E+02 0.10605939165E+02 0.94686060551E+01 0.86969114159E+01 0.82063301985E+01
 0.79013428543E+01 0.77133666561E+01 0.76079266656E+01 0.75734577226E+01 0.76079266656E+01
 0.77133666561E+01 0.79013428543E+01 0.82063301985E+01 0.86969114159E+01 0.94686060551E+01
 0.10605939165E+02 0.12134673037E+02 0.14192049080E+02 0.16820556088E+02 0.19685279514E+02
 0.22249508557E+02 0.24007036315E+02 0.15220423777E+02 0.14953877998E+02 0.14216306521E+02
 0.13177419344E+02 0.12055218753E+02 0.11008677772E+02 0.10065946603E+02 0.92834928170E+01
 0.86969114159E+01 0.82857698520E+01 0.80013063300E+01 0.77975709172E+01 0.76498919916E+01
 0.75556755704E+01 0.75227464583E+01 0.75556755704E+01 0.76498919916E+01 0.77975709172E+01
 0.80013063300E+01 0.82857698520E+01 0.86969114159E+01 0.92834928170E+01 0.10065946603E+02
 0.11008677772E+02 0.12055218753E+02 0.13177419344E+02 0.14216306521E+02 0.14953877998E+02
 0.10762296361E+02 0.10677452715E+02 0.10440176050E+02 0.10087270742E+02 0.96610592145E+01
 0.92180469753E+01 0.88105125897E+01 0.84711407465E+01 0.82063301985E+01 0.80013063300E+01
 0.78338996750E+01 0.76893138706E+01 0.75682032686E+01 0.74843330843E+01 0.74540048334E+01
 0.74843330843E+01 0.75682032686E+01 0.76893138706E+01 0.78338996750E+01 0.80013063300E+01
 0.82063301985E+01 0.84711407465E+01 0.88105125897E+01 0.92180469753E+01 0.96610592145E+01
 0.10087270742E+02 0.10440176050E+02 0.10677452715E+02 0.87236017022E+01 0.86962902789E+01
 0.86194153288E+01 0.85064867100E+01 0.83751562437E+01 0.82419357573E+01 0.81177342079E+01
 0.80055792967E+01 0.79013428543E+01 0.77975709172E+01 0.76893138706E+01 0.75794177783E+01
 0.74801849157E+01 0.74096890145E+01 0.73840429618E+01 0.74096890145E+01 0.74801849157E+01
 0.75794177783E+01 0.76893138706E+01 0.77975709172E+01 0.79013428543E+01 0.80055792967E+01
 0.81177342079E+01 0.82419357573E+01 0.83751562437E+01 0.85064867100E+01 0.86194153288E+01
 0.86962902789E+01 0.77566559006E+01 0.77557552259E+01 0.77546588635E+01 0.77565515772E+01
 0.77626370277E+01 0.77694864308E+01 0.77692867564E+01 0.77528111646E+01 0.77133666561E+01
 0.76498919916E+01 0.75682032686E+01 0.74801849157E+01 0.74012032999E+01 0.73463885552E+01
 0.73267720768E+01 0.73463885552E+01 0.74012032999E+01 0.74801849157E+01 0.75682032686E+01
 0.76498919916E+01 0.77133666561E+01 0.77528111646E+01 0.77692867564E+01 0.77694864308E+01
 0.77626370277E+01 0.77565515772E+01 0.77546588635E+01 0.77557552259E+01 0.73734478345E+01
 0.73831284515E+01 0.74120414195E+01 0.74584350034E+01 0.75161948750E+01 0.75736202629E+01
 0.76156772413E+01 0.76291416211E+01 0.76079266656E+01 0.75556755704E+01 0.74843330843E+01
 0.74096890145E+01 0.73463885552E+01 0.73047781302E+01 0.72903645917E+01 0.73047781302E+01
 0.73463885552E+01 0.74096890145E+01 0.74843330843E+01 0.75556755704E+01 0.76079266656E+01
 0.76291416211E+01 0.76156772413E+01 0.75736202629E+01 0.75161948750E+01 0.74584350034E+01
 0.74120414195E+01 0.73831284515E+01 0.72780134315E+01 0.72903645917E+01 0.73267720768E+01
 0.73840429618E+01 0.74540048334E+01 0.75227464583E+01 0.75734577226E+01 0.75921746735E+01
 0.75734577226E+01 0.75227464583E+01 0.74540048334E+01 0.73840429618E+01 0.73267720768E+01
 0.72903645917E+01 0.72780134315E+01 0.72903645917E+01 0.73267720768E+01 0.73840429618E+01
 0.74540048334E+01 0.75227464583E+01 0.75734577226E+01 0.75921746735E+01 0.75734577226E+01
 0.75227464583E+01 0.74540048334E+01 0.73840429618E+01 0.73267720768E+01 0.72903645917E+01
 0.73734478345E+01 0.73831284515E+01 0.74120414195E+01 0.74584350034E+01 0.75161948750E+01
 0.75736202629E+01 0.76156772413E+01 0.76291416211E+01 0.76079266656E+01 0.75556755704E+01
 0.74843330843E+01 0.74096890145E+01 0.73463885552E+01 0.73047781302E+01 0.72903645917E+01
 0.73047781302E+01 0.73463885552E+01 0.74096890145E+01 0.74843330843E+01 0.75556755704E+01
 0.76079266656E+01 0.76291416211E+01 0.76156772413E+01 0.75736202629E+01 0.75161948750E+01
 0.74584350034E+01 0.74120414195E+01 0.73831284515E+01 0.77566559006E+01 0.77557552259E+01
 0.77546588635E+01 0.77565515772E+01 0.77626370277E+01 0.77694864308E+01 0.77692867564E+01
 0.77528111646E+01 0.77133666561E+01 0.76498919916E+01 0.75682032686E+01 0.74801849157E+01
 0.74012032999E+01 0.73463885552E+01 0.73267720768E+01 0.73463885552E+01 0.74012032999E+01
 0.74801849157E+01 0.75682032686E+01 0.76498919916E+01 0.77133666561E+01 0.77528111646E+01
 0.77692867564E+01 0.77694864308E+01 0.77626370277E+01 0.77565515772E+01 0.77546588635E+01
 0.77557552259E+01 0.87236017022E+01 0.86962902789E+01 0.86194153288E+01 0.85064867100E+01
 0.83751562437E+01 0.82419357573E+01 0.81177342079E+01 0.80055792967E+01 0.79013428543E+01
 0.77975709172E+01 0.76893138706E+01 0.75794177783E+01 0.74801849157E+01 0.74096890145E+01
 0.73840429618E+01 0.74096890145E+01 0.74801849157E+01 0.75794177783E+01 0.76893138706E+01
 0.77975709172E+01 0.79013428543E+01 0.80055792967E+01 0.81177342079E+01 0.82419357573E+01
 0.83751562437E+01 0.85064867100E+01 0.86194153288E+01 0.86962902789E+01 0.10762296361E+02
 0.10677452715E+02 0.10440176050E+02 0.10087270742E+02 0.96610592145E+01 0.92180469753E+01
 0.88105125897E+01 0.84711407465E+01 0.82063301985E+01 0.80013063300E+01 0.78338996750E+01
 0.76893138706E+01 0.75682032686E+01 0.74843330843E+01 0.74540048334E+01 0.74843330843E+01
 0.75682032686E+01 0.76893138706E+01 0.78338996750E+01 0.80013063300E+01 0.82063301985E+01
 0.84711407465E+01 0.88105125897E+01 0.92180469753E+01 0.96610592145E+01 0.10087270742E+02
 0.10440176050E+02 0.10677452715E+02 0.15220423777E+02 0.14953877998E+02 0.14216306521E+02
 0.13177419344E+02 0.12055218753E+02 0.11008677772E+02 0.10065946603E+02 0.92834928170E+01
 0.86969114159E+01 0.82857698520E+01 0.80013063300E+01 0.77975709172E+01 0.76498919916E+01
 0.75556755704E+01 0.75227464583E+01 0.75556755704E+01 0.76498919916E+01 0.77975709172E+01
 0.80013063300E+01 0.82857698520E+01 0.86969114159E+01 0.92834928170E+01 0.10065946603E+02
 0.11008677772E+02 0.12055218753E+02 0.13177419344E+02 0.14216306521E+02 0.14953877998E+02
 0.24629369373E+02 0.24007036315E+02 0.22249508557E+02 0.19685279514E+02 0.16820556088E+02
 0.14192049080E+02 0.12134673037E+02 0.10605939165E+02 0.94686060551E+01 0.86969114159E+01
 0.82063301985E+01 0.79013428543E+01 0.77133666561E+01 0.76079266656E+01 0.75734577226E+01
 0.76079266656E+01 0.77133666561E+01 0.79013428543E+01 0.82063301985E+01 0.86969114159E+01
 0.94686060551E+01 0.10605939165E+02 0.12134673037E+02 0.14192049080E+02 0.16820556088E+02
 0.19685279514E+02 0.22249508557E+02 0.24007036315E+02 0.40722474838E+02 0.39595276737E+02
 0.36352010546E+02 0.31451148978E+02 0.25707394093E+02 0.20148642010E+02 0.15658180960E+02
 0.12586223046E+02 0.10605939165E+02 0.92834928170E+01 0.84711407465E+01 0.80055792967E+01
 0.77528111646E+01 0.76291416211E+01 0.75921746735E+01 0.76291416211E+01 0.77528111646E+01
 0.80055792967E+01 0.84711407465E+01 0.92834928170E+01 0.10605939165E+02 0.12586223046E+02
 0.15658180960E+02 0.20148642010E+02 0.25707394093E+02 0.31451148978E+02 0.36352010546E+02
 0.39595276737E+02 0.63254031516E+02 0.61551589145E+02 0.56573750588E+02 0.48824171968E+02
 0.39363017668E+02 0.29736103206E+02 0.21513600663E+02 0.15658180960E+02 0.12134673037E+02
 0.10065946603E+02 0.88105125897E+01 0.81177342079E+01 0.77692867564E+01 0.76156772413E+01
 0.75734577226E+01 0.76156772413E+01 0.77692867564E+01 0.81177342079E+01 0.88105125897E+01
 0.10065946603E+02 0.12134673037E+02 0.15658180960E+02 0.21513600663E+02 0.29736103206E+02
 0.39363017668E+02 0.48824171968E+02 0.56573750588E+02 0.61551589145E+02 0.89719793829E+02
 0.87474113192E+02 0.80815045021E+02 0.70180723413E+02 0.56748444270E+02 0.42505258098E+02
 0.29736103206E+02 0.20148642010E+02 0.14192049080E+02 0.11008677772E+02 0.92180469753E+01
 0.82419357573E+01 0.77694864308E+01 0.75736202629E+01 0.75227464583E+01 0.75736202629E+01
 0.77694864308E+01 0.82419357573E+01 0.92180469753E+01 0.11008677772E+02 0.14192049080E+02
 0.20148642010E+02 0.29736103206E+02 0.42505258098E+02 0.56748444270E+02 0.70180723413E+02
 0.80815045021E+02 0.87474113192E+02 0.11622431152E+03 0.11354803998E+03 0.10551739627E+03
 0.92417137821E+02 0.75401593527E+02 0.56748444270E+02 0.39363017668E+02 0.25707394093E+02
 0.16820556088E+02 0.12055218753E+02 0.96610592145E+01 0.83751562437E+01 0.77626370277E+01
 0.75161948750E+01 0.74540048334E+01 0.75161948750E+01 0.77626370277E+01 0.83751562437E+01
 0.96610592145E+01 0.12055218753E+02 0.16820556088E+02 0.25707394093E+02 0.39363017668E+02
 0.56748444270E+02 0.75401593527E+02 0.92417137821E+02 0.10551739627E+03 0.11354803998E+03
 0.13902053026E+03 0.13605528441E+03 0.12707564751E+03 0.11218399848E+03 0.92417137821E+02
 0.70180723413E+02 0.48824171968E+02 0.31451148978E+02 0.19685279514E+02 0.13177419344E+02
 0.10087270742E+02 0.85064867100E+01 0.77565515772E+01 0.74584350034E+01 0.73840429618E+01
 0.74584350034E+01 0.77565515772E+01 0.85064867100E+01 0.10087270742E+02 0.13177419344E+02
 0.19685279514E+02 0.31451148978E+02 0.48824171968E+02 0.70180723413E+02 0.92417137821E+02
 0.11218399848E+03 0.12707564751E+03 0.13605528441E+03 0.15574202950E+03 0.15261115483E+03
 0.14307237951E+03 0.12707564751E+03 0.10551739627E+03 0.80815045021E+02 0.56573750588E+02
 0.36352010546E+02 0.22249508557E+02 0.14216306521E+02 0.10440176050E+02 0.86194153288E+01
 0.77546588635E+01 0.74120414195E+01 0.73267720768E+01 0.74120414195E+01 0.77546588635E+01
 0.86194153288E+01 0.10440176050E+02 0.14216306521E+02 0.22249508557E+02 0.36352010546E+02
 0.56573750588E+02 0.80815045021E+02 0.10551739627E+03 0.12707564751E+03 0.14307237951E+03
 0.15261115483E+03 0.16563350139E+03 0.16242311909E+03 0.15261115483E+03 0.13605528441E+03
 0.11354803998E+03 0.87474113192E+02 0.61551589145E+02 0.39595276737E+02 0.24007036315E+02
 0.14953877998E+02 0.10677452715E+02 0.86962902789E+01 0.77557552259E+01 0.73831284515E+01
 0.72903645917E+01 0.73831284515E+01 0.77557552259E+01 0.86962902789E+01 0.10677452715E+02
 0.14953877998E+02 0.24007036315E+02 0.39595276737E+02 0.61551589145E+02 0.87474113192E+02
 0.11354803998E+03 0.13605528441E+03 0.15261115483E+03 0.16242311909E+03 0.16563350139E+03
 0.16242311909E+03 0.15261115483E+03 0.13605528441E+03 0.11354803998E+03 0.87474113192E+02
 0.61551589145E+02 0.39595276737E+02 0.24007036315E+02 0.14953877998E+02 0.10677452715E+02
 0.86962902789E+01 0.77557552259E+01 0.73831284515E+01 0.72903645917E+01 0.73831284515E+01
 0.77557552259E+01 0.86962902789E+01 0.10677452715E+02 0.14953877998E+02 0.24007036315E+02
 0.39595276737E+02 0.61551589145E+02 0.87474113192E+02 0.11354803998E+03 0.13605528441E+03
 0.15261115483E+03 0.16242311909E+03 0.16242311909E+03 0.15923446874E+03 0.14949970701E+03
 0.13310915020E+03 0.11089401591E+03 0.85255540441E+02 0.59879189378E+02 0.38496385520E+02
 0.23406620964E+02 0.14700627506E+02 0.10598068396E+02 0.86720905394E+01 0.77573267455E+01
 0.73949651493E+01 0.73047781302E+01 0.73949651493E+01 0.77573267455E+01 0.86720905394E+01
 0.10598068396E+02 0.14700627506E+02 0.23406620964E+02 0.38496385520E+02 0.59879189378E+02
 0.85255540441E+02 0.11089401591E+03 0.13310915020E+03 0.14949970701E+03 0.15923446874E+03
 0.15261115483E+03 0.14949970701E+03 0.14003460647E+03 0.12420486478E+03 0.10294773738E+03
 0.78691604248E+02 0.54999544723E+02 0.35340633921E+02 0.21713809278E+02 0.14000432539E+02
 0.10374739794E+02 0.86035507535E+01 0.77626360479E+01 0.74293537103E+01 0.73463885552E+01
 0.74293537103E+01 0.77626360479E+01 0.86035507535E+01 0.10374739794E+02 0.14000432539E+02
 0.21713809278E+02 0.35340633921E+02 0.54999544723E+02 0.78691604248E+02 0.10294773738E+03
 0.12420486478E+03 0.14003460647E+03 0.14949970701E+03 0.13605528441E+03 0.13310915020E+03
 0.12420486478E+03 0.10948781454E+03 0.90033684863E+02 0.68249355776E+02 0.47430871664E+02
 0.30588409180E+02 0.19251425418E+02 0.13015104685E+02 0.10038749472E+02 0.85017254248E+01
 0.77724566190E+01 0.74822011400E+01 0.74096890145E+01 0.74822011400E+01 0.77724566190E+01
 0.85017254248E+01 0.10038749472E+02 0.13015104685E+02 0.19251425418E+02 0.30588409180E+02
 0.47430871664E+02 0.68249355776E+02 0.90033684863E+02 0.10948781454E+03 0.12420486478E+03
 0.13310915020E+03 0.11354803998E+03 0.11089401591E+03 0.10294773738E+03 0.90033684863E+02
 0.73336065325E+02 0.55121334686E+02 0.38233307890E+02 0.25043581718E+02 0.16510796904E+02
 0.11949424244E+02 0.96313211131E+01 0.83816052615E+01 0.77855979867E+01 0.75451639523E+01
 0.74843330843E+01 0.75451639523E+01 0.77855979867E+01 0.83816052615E+01 0.96313211131E+01
 0.11949424244E+02 0.16510796904E+02 0.25043581718E+02 0.38233307890E+02 0.55121334686E+02
 0.73336065325E+02 0.90033684863E+02 0.10294773738E+03 0.11089401591E+03 0.87474113192E+02
 0.85255540441E+02 0.78691604248E+02 0.68249355776E+02 0.55121334686E+02 0.41271723839E+02
 0.28922856339E+02 0.19703994627E+02 0.14004158603E+02 0.10946450717E+02 0.92067754602E+01
 0.82579751548E+01 0.77975002637E+01 0.76057122076E+01 0.75556755704E+01 0.76057122076E+01
 0.77975002637E+01 0.82579751548E+01 0.92067754602E+01 0.10946450717E+02 0.14004158603E+02
 0.19703994627E+02 0.28922856339E+02 0.41271723839E+02 0.55121334686E+02 0.68249355776E+02
 0.78691604248E+02 0.85255540441E+02 0.61551589145E+02 0.59879189378E+02 0.54999544723E+02
 0.47430871664E+02 0.38233307890E+02 0.28922856339E+02 0.21014118760E+02 0.15410485449E+02
 0.12039369616E+02 0.10034652251E+02 0.88154698081E+01 0.81413893987E+01 0.78008293176E+01
 0.76497035374E+01 0.76079266656E+01 0.76497035374E+01 0.78008293176E+01 0.81413893987E+01
 0.88154698081E+01 0.10034652251E+02 0.12039369616E+02 0.15410485449E+02 0.21014118760E+02
 0.28922856339E+02 0.38233307890E+02 0.47430871664E+02 0.54999544723E+02 0.59879189378E+02
 0.39595276737E+02 0.38496385520E+02 0.35340633921E+02 0.30588409180E+02 0.25043581718E+02
 0.19703994627E+02 0.15410485449E+02 0.12475526983E+02 0.10561381023E+02 0.92783085408E+01
 0.84892901424E+01 0.80356020295E+01 0.77878693472E+01 0.76658138575E+01 0.76291416211E+01
 0.76658138575E+01 0.77878693472E+01 0.80356020295E+01 0.84892901424E+01 0.92783085408E+01
 0.10561381023E+02 0.12475526983E+02 0.15410485449E+02 0.19703994627E+02 0.25043581718E+02
 0.30588409180E+02 0.35340633921E+02 0.38496385520E+02 0.24007036315E+02 0.23406620964E+02
 0.21713809278E+02 0.19251425418E+02 0.16510796904E+02 0.14004158603E+02 0.12039369616E+02
 0.10561381023E+02 0.94593442329E+01 0.87113373894E+01 0.82349060718E+01 0.79376272205E+01
 0.77534881221E+01 0.76497035374E+01 0.76156772413E+01 0.76497035374E+01 0.77534881221E+01
 0.79376272205E+01 0.82349060718E+01 0.87113373894E+01 0.94593442329E+01 0.10561381023E+02
 0.12039369616E+02 0.14004158603E+02 0.16510796904E+02 0.19251425418E+02 0.21713809278E+02
 0.23406620964E+02 0.14953877998E+02 0.14700627506E+02 0.14000432539E+02 0.13015104685E+02
 0.11949424244E+02 0.10946450717E+02 0.10034652251E+02 0.92783085408E+01 0.87113373894E+01
 0.83137668997E+01 0.80384253272E+01 0.78409036992E+01 0.76974272420E+01 0.76057122076E+01
 0.75736202629E+01 0.76057122076E+01 0.76974272420E+01 0.78409036992E+01 0.80384253272E+01
 0.83137668997E+01 0.87113373894E+01 0.92783085408E+01 0.10034652251E+02 0.10946450717E+02
 0.11949424244E+02 0.13015104685E+02 0.14000432539E+02 0.14700627506E+02 0.10677452715E+02
 0.10598068396E+02 0.10374739794E+02 0.10038749472E+02 0.96313211131E+01 0.92067754602E+01
 0.88154698081E+01 0.84892901424E+01 0.82349060718E+01 0.80384253272E+01 0.78785177066E+01
 0.77406790004E+01 0.76252103812E+01 0.75451639523E+01 0.75161948750E+01 0.75451639523E+01
 0.76252103812E+01 0.77406790004E+01 0.78785177066E+01 0.80384253272E+01 0.82349060718E+01
 0.84892901424E+01 0.88154698081E+01 0.92067754602E+01 0.96313211131E+01 0.10038749472E+02
 0.10374739794E+02 0.10598068396E+02 0.86962902789E+01 0.86720905394E+01 0.86035507535E+01
 0.85017254248E+01 0.83816052615E+01 0.82579751548E+01 0.81413893987E+01 0.80356020295E+01
 0.79376272205E+01 0.78409036992E+01 0.77406790004E+01 0.76391752995E+01 0.75474590113E+01
 0.74822011400E+01 0.74584350034E+01 0.74822011400E+01 0.75474590113E+01 0.76391752995E+01
 0.77406790004E+01 0.78409036992E+01 0.79376272205E+01 0.80356020295E+01 0.81413893987E+01
 0.82579751548E+01 0.83816052615E+01 0.85017254248E+01 0.86035507535E+01 0.86720905394E+01
 0.77557552259E+01 0.77573267455E+01 0.77626360479E+01 0.77724566190E+01 0.77855979867E+01
 0.77975002637E+01 0.78008293176E+01 0.77878693472E+01 0.77534881221E+01 0.76974272420E+01
 0.76252103812E+01 0.75474590113E+01 0.74777327607E+01 0.74293537103E+01 0.74120414195E+01
 0.74293537103E+01 0.74777327607E+01 0.75474590113E+01 0.76252103812E+01 0.76974272420E+01
 0.77534881221E+01 0.77878693472E+01 0.78008293176E+01 0.77975002637E+01 0.77855979867E+01
 0.77724566190E+01 0.77626360479E+01 0.77573267455E+01 0.73831284515E+01 0.73949651493E+01
 0.74293537103E+01 0.74822011400E+01 0.75451639523E+01 0.76057122076E+01 0.76497035374E+01
 0.76658138575E+01 0.76497035374E+01 0.76057122076E+01 0.75451639523E+01 0.74822011400E+01
 0.74293537103E+01 0.73949651493E+01 0.73831284515E+01 0.73949651493E+01 0.74293537103E+01
 0.74822011400E+01 0.75451639523E+01 0.76057122076E+01 0.76497035374E+01 0.76658138575E+01
 0.76497035374E+01 0.76057122076E+01 0.75451639523E+01 0.74822011400E+01 0.74293537103E+01
 0.73949651493E+01 0.72903645917E+01 0.73047781302E+01 0.73463885552E+01 0.74096890145E+01
 0.74843330843E+01 0.75556755704E+01 0.76079266656E+01 0.76291416211E+01 0.76156772413E+01
 0.75736202629E+01 0.75161948750E+01 0.74584350034E+01 0.74120414195E+01 0.73831284515E+01
 0.73734478345E+01 0.73831284515E+01 0.74120414195E+01 0.74584350034E+01 0.75161948750E+01
 0.75736202629E+01 0.76156772413E+01 0.76291416211E+01 0.76079266656E+01 0.75556755704E+01
 0.74843330843E+01 0.74096890145E+01 0.73463885552E+01 0.73047781302E+01 0.73831284515E+01
 0.73949651493E+01 0.74293537103E+01 0.74822011400E+01 0.75451639523E+01 0.76057122076E+01
 0.76497035374E+01 0.76658138575E+01 0.76497035374E+01 0.76057122076E+01 0.75451639523E+01
 0.74822011400E+01 0.74293537103E+01 0.73949651493E+01 0.73831284515E+01 0.73949651493E+01
 0.74293537103E+01 0.74822011400E+01 0.75451639523E+01 0.76057122076E+01 0.76497035374E+01
 0.76658138575E+01 0.76497035374E+01 0.76057122076E+01 0.75451639523E+01 0.74822011400E+01
 0.74293537103E+01 0.73949651493E+01 0.77557552259E+01 0.77573267455E+01 0.77626360479E+01
 0.77724566190E+01 0.77855979867E+01 0.77975002637E+01 0.78008293176E+01 0.77878693472E+01
 0.77534881221E+01 0.76974272420E+01 0.76252103812E+01 0.75474590113E+01 0.74777327607E+01
 0.74293537103E+01 0.74120414195E+01 0.74293537103E+01 0.74777327607E+01 0.75474590113E+01
 0.76252103812E+01 0.76974272420E+01 0.77534881221E+01 0.77878693472E+01 0.78008293176E+01
 0.77975002637E+01 0.77855979867E+01 0.77724566190E+01 0.77626360479E+01 0.77573267455E+01
 0.86962902789E+01 0.86720905394E+01 0.86035507535E+01 0.85017254248E+01 0.83816052615E+01
 0.82579751548E+01 0.81413893987E+01 0.80356020295E+01 0.79376272205E+01 0.78409036992E+01
 0.77406790004E+01 0.76391752995E+01 0.75474590113E+01 0.74822011400E+01 0.74584350034E+01
 0.74822011400E+01 0.75474590113E+01 0.76391752995E+01 0.77406790004E+01 0.78409036992E+01
 0.79376272205E+01 0.80356020295E+01 0.81413893987E+01 0.82579751548E+01 0.83816052615E+01
 0.85017254248E+01 0.86035507535E+01 0.86720905394E+01 0.10677452715E+02 0.10598068396E+02
 0.10374739794E+02 0.10038749472E+02 0.96313211131E+01 0.92067754602E+01 0.88154698081E+01
 0.84892901424E+01 0.82349060718E+01 0.80384253272E+01 0.78785177066E+01 0.77406790004E+01
 0.76252103812E+01 0.75451639523E+01 0.75161948750E+01 0.75451639523E+01 0.76252103812E+01
 0.77406790004E+01 0.78785177066E+01 0.80384253272E+01 0.82349060718E+01 0.84892901424E+01
 0.88154698081E+01 0.92067754602E+01 0.96313211131E+01 0.10038749472E+02 0.10374739794E+02
 0.10598068396E+02 0.14953877998E+02 0.14700627506E+02 0.14000432539E+02 0.13015104685E+02
 0.11949424244E+02 0.10946450717E+02 0.10034652251E+02 0.92783085408E+01 0.87113373894E+01
 0.83137668997E+01 0.80384253272E+01 0.78409036992E+01 0.76974272420E+01 0.76057122076E+01
 0.75736202629E+01 0.76057122076E+01 0.76974272420E+01 0.78409036992E+01 0.80384253272E+01
 0.83137668997E+01 0.87113373894E+01 0.92783085408E+01 0.10034652251E+02 0.10946450717E+02
 0.11949424244E+02 0.13015104685E+02 0.14000432539E+02 0.14700627506E+02 0.24007036315E+02
 0.23406620964E+02 0.21713809278E+02 0.19251425418E+02 0.16510796904E+02 0.14004158603E+02
 0.12039369616E+02 0.10561381023E+02 0.94593442329E+01 0.87113373894E+01 0.82349060718E+01
 0.79376272205E+01 0.77534881221E+01 0.76497035374E+01 0.76156772413E+01 0.76497035374E+01
 0.77534881221E+01 0.79376272205E+01 0.82349060718E+01 0.87113373894E+01 0.94593442329E+01
 0.10561381023E+02 0.12039369616E+02 0.14004158603E+02 0.16510796904E+02 0.19251425418E+02
 0.21713809278E+02 0.23406620964E+02 0.39595276737E+02 0.38496385520E+02 0.35340633921E+02
 0.30588409180E+02 0.25043581718E+02 0.19703994627E+02 0.15410485449E+02 0.12475526983E+02
 0.10561381023E+02 0.92783085408E+01 0.84892901424E+01 0.80356020295E+01 0.77878693472E+01
 0.76658138575E+01 0.76291416211E+01 0.76658138575E+01 0.77878693472E+01 0.80356020295E+01
 0.84892901424E+01 0.92783085408E+01 0.10561381023E+02 0.12475526983E+02 0.15410485449E+02
 0.19703994627E+02 0.25043581718E+02 0.30588409180E+02 0.35340633921E+02 0.38496385520E+02
 0.61551589145E+02 0.59879189378E+02 0.54999544723E+02 0.47430871664E+02 0.38233307890E+02
 0.28922856339E+02 0.21014118760E+02 0.15410485449E+02 0.12039369616E+02 0.10034652251E+02
 0.88154698081E+01 0.81413893987E+01 0.78008293176E+01 0.76497035374E+01 0.76079266656E+01
 0.76497035374E+01 0.78008293176E+01 0.81413893987E+01 0.88154698081E+01 0.10034652251E+02
 0.12039369616E+02 0.15410485449E+02 0.21014118760E+02 0.28922856339E+02 0.38233307890E+02
 0.47430871664E+02 0.54999544723E+02 0.59879189378E+02 0.87474113192E+02 0.85255540441E+02
 0.78691604248E+02 0.68249355776E+02 0.55121334686E+02 0.41271723839E+02 0.28922856339E+02
 0.19703994627E+02 0.14004158603E+02 0.10946450717E+02 0.92067754602E+01 0.82579751548E+01
 0.77975002637E+01 0.76057122076E+01 0.75556755704E+01 0.76057122076E+01 0.77975002637E+01
 0.82579751548E+01 0.92067754602E+01 0.10946450717E+02 0.14004158603E+02 0.19703994627E+02
 0.28922856339E+02 0.41271723839E+02 0.55121334686E+02 0.68249355776E+02 0.78691604248E+02
 0.85255540441E+02 0.11354803998E+03 0.11089401591E+03 0.10294773738E+03 0.90033684863E+02
 0.73336065325E+02 0.55121334686E+02 0.38233307890E+02 0.25043581718E+02 0.16510796904E+02
 0.11949424244E+02 0.96313211131E+01 0.83816052615E+01 0.77855979867E+01 0.75451639523E+01
 0.74843330843E+01 0.75451639523E+01 0.77855979867E+01 0.83816052615E+01 0.96313211131E+01
 0.11949424244E+02 0.16510796904E+02 0.25043581718E+02 0.38233307890E+02 0.55121334686E+02
 0.73336065325E+02 0.90033684863E+02 0.10294773738E+03 0.11089401591E+03 0.13605528441E+03
 0.13310915020E+03 0.12420486478E+03 0.10948781454E+03 0.90033684863E+02 0.68249355776E+02
 0.47430871664E+02 0.30588409180E+02 0.19251425418E+02 0.13015104685E+02 0.10038749472E+02
 0.85017254248E+01 0.77724566190E+01 0.74822011400E+01 0.74096890145E+01 0.74822011400E+01
 0.77724566190E+01 0.85017254248E+01 0.10038749472E+02 0.13015104685E+02 0.19251425418E+02
 0.30588409180E+02 0.47430871664E+02 0.68249355776E+02 0.90033684863E+02 0.10948781454E+03
 0.12420486478E+03 0.13310915020E+03 0.15261115483E+03 0.14949970701E+03 0.14003460647E+03
 0.12420486478E+03 0.10294773738E+03 0.78691604248E+02 0.54999544723E+02 0.35340633921E+02
 0.21713809278E+02 0.14000432539E+02 0.10374739794E+02 0.86035507535E+01 0.77626360479E+01
 0.74293537103E+01 0.73463885552E+01 0.74293537103E+01 0.77626360479E+01 0.86035507535E+01
 0.10374739794E+02 0.14000432539E+02 0.21713809278E+02 0.35340633921E+02 0.54999544723E+02
 0.78691604248E+02 0.10294773738E+03 0.12420486478E+03 0.14003460647E+03 0.14949970701E+03
 0.16242311909E+03 0.15923446874E+03 0.14949970701E+03 0.13310915020E+03 0.11089401591E+03
 0.85255540441E+02 0.59879189378E+02 0.38496385520E+02 0.23406620964E+02 0.14700627506E+02
 0.10598068396E+02 0.86720905394E+01 0.77573267455E+01 0.73949651493E+01 0.73047781302E+01
 0.73949651493E+01 0.77573267455E+01 0.86720905394E+01 0.10598068396E+02 0.14700627506E+02
 0.23406620964E+02 0.38496385520E+02 0.59879189378E+02 0.85255540441E+02 0.11089401591E+03
 0.13310915020E+03 0.14949970701E+03 0.15923446874E+03 0.15574202950E+03 0.15261115483E+03
 0.14307237951E+03 0.12707564751E+03 0.10551739627E+03 0.80815045021E+02 0.56573750588E+02
 0.36352010546E+02 0.22249508557E+02 0.14216306521E+02 0.10440176050E+02 0.86194153288E+01
 0.77546588635E+01 0.74120414195E+01 0.73267720768E+01 0.74120414195E+01 0.77546588635E+01
 0.86194153288E+01 0.10440176050E+02 0.14216306521E+02 0.22249508557E+02 0.36352010546E+02
 0.56573750588E+02 0.80815045021E+02 0.10551739627E+03 0.12707564751E+03 0.14307237951E+03
 0.15261115483E+03 0.15261115483E+03 0.14949970701E+03 0.14003460647E+03 0.12420486478E+03
 0.10294773738E+03 0.78691604248E+02 0.54999544723E+02 0.35340633921E+02 0.21713809278E+02
 0.14000432539E+02 0.10374739794E+02 0.86035507535E+01 0.77626360479E+01 0.74293537103E+01
 0.73463885552E+01 0.74293537103E+01 0.77626360479E+01 0.86035507535E+01 0.10374739794E+02
 0.14000432539E+02 0.21713809278E+02 0.35340633921E+02 0.54999544723E+02 0.78691604248E+02
 0.10294773738E+03 0.12420486478E+03 0.14003460647E+03 0.14949970701E+03 0.14307237951E+03
 0.14003460647E+03 0.13083584273E+03 0.11557655789E+03 0.95301122224E+02 0.72447823990E+02