    2    2    1    1
  0.1798157E+02  0.3300800E-09  0.3300800E-09  0.3300800E-09  0.5000000E-15
  1.000000000000000E-004
  CAR 
 Nb                                      
     22    220     40
 
  0.2500000E-01  0.2500000E-01  0.2500000E-01  0.1000000E-02
    1      -25.638986   1.000000
    2      -25.638986   1.000000
    3      -25.626766   1.000000
    4      -24.706743   1.000000
    5      -24.692855   1.000000
    6      -24.692855   1.000000
    7       -1.048717   1.000000
    8        1.106741   1.000000
    9        1.106741   1.000000
   10        5.150219   0.000000
   11        5.150219   0.000000
   12        5.211892   0.000000
   13        8.053505   0.000000
   14        8.053505   0.000000
   15       10.207568   0.000000
   16       10.404377   0.000000
   17       10.404377   0.000000
   18       14.277821   0.000000
   19       14.277821   0.000000
   20       14.372174   0.000000
   21       20.430642   0.000000
   22       20.483618   0.000000
   23       20.483618   0.000000
   24       23.481499   0.000000
   25       25.888449   0.000000
   26       25.888449   0.000000
   27       30.111419   0.000000
   28       30.203074   0.000000
   29       30.203074   0.000000
   30       34.033661   0.000000
   31       34.569523   0.000000
   32       34.569523   0.000000
   33       40.809609   0.000000
   34       40.993477   0.000000
   35       40.993477   0.000000
   36       41.449678   0.000000
   37       41.626980   0.000000
   38       41.987282   0.000000
   39       41.987282   0.000000
   40       42.214906   0.000000
 
  0.7500000E-01  0.2500000E-01  0.2500000E-01  0.3000000E-02
    1      -25.646993   1.000000
    2      -25.627009   1.000000
    3      -25.608477   1.000000
    4      -24.738387   1.000000
    5      -24.704121   1.000000
    6      -24.698211   1.000000
    7       -0.944177   1.000000
    8        1.163137   1.000000
    9        1.197813   1.000000
   10        5.111028   0.000000
   11        5.138167   0.000000
   12        5.289471   0.000000
   13        7.906086   0.000000
   14        8.108280   0.000000
   15        9.794860   0.000000
   16       10.038145   0.000000
   17       10.395430   0.000000
   18       13.990702   0.000000
   19       14.756393   0.000000
   20       14.802194   0.000000
   21       20.534700   0.000000
   22       20.657148   0.000000
   23       20.682702   0.000000
   24       23.745202   0.000000
   25       25.793143   0.000000
   26       25.837135   0.000000
   27       29.164337   0.000000
   28       30.255652   0.000000
   29       30.382287   0.000000
   30       33.726316   0.000000
   31       34.377400   0.000000
   32       35.467066   0.000000
   33       40.503551   0.000000
   34       40.747527   0.000000
   35       40.794716   0.000000
   36       40.885459   0.000000
   37       41.379251   0.000000
   38       41.809135   0.000000
   39       41.962127   0.000000
   40       42.439909   0.000000
 
  0.1250000E+00  0.2500000E-01  0.2500000E-01  0.3000000E-02
    1      -25.652481   1.000000
    2      -25.603325   1.000000
    3      -25.581692   1.000000
    4      -24.791333   1.000000
    5      -24.726285   1.000000
    6      -24.717085   1.000000
    7       -0.739500   1.000000
    8        1.275874   1.000000
    9        1.372756   1.000000
   10        5.079360  -0.003374
   11        5.120479   0.000000
   12        5.402838   0.000000
   13        7.626683   0.000000
   14        8.214660   0.000000
   15        9.245252   0.000000
   16        9.482169   0.000000
   17       10.248402   0.000000
   18       13.468939   0.000000
   19       15.536614   0.000000
   20       15.540815   0.000000
   21       20.767188   0.000000
   22       20.995150   0.000000
   23       21.032106   0.000000
   24       23.950025   0.000000
   25       25.737968   0.000000
   26       25.891689   0.000000
   27       27.727815   0.000000
   28       30.536918   0.000000
   29       30.735092   0.000000
   30       33.336279   0.000000
   31       33.990706   0.000000
   32       36.363845   0.000000
   33       39.849080   0.000000
   34       40.190705   0.000000
   35       40.370656   0.000000
   36       40.594425   0.000000
   37       40.617291   0.000000
   38       41.676949   0.000000
   39       42.005677   0.000000
   40       42.663005   0.000000
 
  0.1750000E+00  0.2500000E-01  0.2500000E-01  0.3000000E-02
    1      -25.655220   1.000000
    2      -25.568605   1.000000
    3      -25.545617   1.000000
    4      -24.863332   1.000000
    5      -24.758933   1.000000
    6      -24.747659   1.000000
    7       -0.443368   1.000000
    8        1.443935   1.000000
    9        1.614588   1.000000
   10        5.058929  -0.023794
   11        5.103475   0.000000
   12        5.555951   0.000000
   13        7.241402   0.000000
   14        8.365905   0.000000
   15        8.648461   0.000000
   16        8.869279   0.000000
   17       10.005991   0.000000
   18       12.816892   0.000000
   19       16.453567   0.000000
   20       16.481959   0.000000
   21       21.094808   0.000000
   22       21.477433   0.000000
   23       21.522018   0.000000
   24       23.676166   0.000000
   25       25.590921   0.000000
   26       26.221706   0.000000
   27       26.562802   0.000000
   28       30.941369   0.000000
   29       31.231619   0.000000
   30       32.770295   0.000000
   31       33.441157   0.000000
   32       37.043147   0.000000
   33       38.750441   0.000000
   34       39.127722   0.000000
   35       39.911385   0.000000
   36       40.310252   0.000000
   37       40.443958   0.000000
   38       41.345123   0.000000
   39       42.146395   0.000000
   40       42.778251   0.000000
 
  0.2250000E+00  0.2500000E-01  0.2500000E-01  0.3000000E-02
    1      -25.653416   1.000000
    2      -25.523715   1.000000
    3      -25.500281   1.000000
    4      -24.950216   1.000000
    5      -24.801363   1.000000
    6      -24.788529   1.000000
    7       -0.068645   1.000000
    8        1.666491   1.000000
    9        1.899586   1.000000
   10        5.056886  -0.044329
   11        5.095716  -0.002953
   12        5.750972   0.000000
   13        6.781286   0.000000
   14        8.059412   0.000000
   15        8.263482   0.000000
   16        8.552261   0.000000
   17        9.694116   0.000000
   18       12.117324   0.000000
   19       17.468884   0.000000
   20       17.524817   0.000000
   21       21.479702   0.000000
   22       22.060231   0.000000
   23       22.135432   0.000000
   24       23.068518   0.000000
   25       24.796069   0.000000
   26       25.400743   0.000000
   27       27.669105   0.000000
   28       31.451842   0.000000
   29       31.669161   0.000000
   30       32.030166   0.000000
   31       32.964205   0.000000
   32       37.494260   0.000000
   33       37.506839   0.000000
   34       37.753548   0.000000
   35       39.485799   0.000000
   36       40.226950   0.000000
   37       40.416344   0.000000
   38       41.024253   0.000000
   39       42.225671   0.000000
   40       42.823164   0.000000
 
  0.2750000E+00  0.2500000E-01  0.2500000E-01  0.3000000E-02
    1      -25.644669   1.000000
    2      -25.469880   1.000000
    3      -25.446537   1.000000
    4      -25.046904   1.000000
    5      -24.852642   1.000000
    6      -24.838461   1.000000
    7        0.367311   1.000000
    8        1.941670   1.000000
    9        2.191847   1.000000
   10        5.081544  -0.045443
   11        5.101522  -0.010566
   12        5.987566   0.000000
   13        6.280250   0.000000
   14        7.506753   0.000000
   15        7.693961   0.000000
   16        8.758058   0.000000
   17        9.332468   0.000000
   18       11.433778   0.000000
   19       18.541423   0.000000
   20       18.628848   0.000000
   21       21.890948   0.000000
   22       22.361395   0.000000
   23       22.540565   0.000000
   24       22.836074   0.000000
   25       23.685361   0.000000
   26       25.169748   0.000000
   27       29.002219   0.000000
   28       31.168363   0.000000
   29       31.318701   0.000000
   30       32.042420   0.000000
   31       33.350143   0.000000
   32       36.144419   0.000000
   33       36.311606   0.000000
   34       37.820291   0.000000
   35       38.895905   0.000000
   36       40.360273   0.000000
   37       40.518663   0.000000
   38       40.724168   0.000000
   39       42.237060   0.000000
   40       42.825401   0.000000
 
  0.3250000E+00  0.2500000E-01  0.2500000E-01  0.3000000E-02
    1      -25.626464   1.000000
    2      -25.408430   1.000000
    3      -25.385584   1.000000
    4      -25.147682   1.000000
    5      -24.911688   1.000000
    6      -24.896214   1.000000
    7        0.842449   1.000000
    8        2.267488   1.000000
    9        2.444731   1.000000
   10        5.102842  -0.071812
   11        5.142420  -0.013429
   12        5.790693   0.000000
   13        6.264261   0.000000
   14        7.006423   0.000000
   15        7.175656   0.000000
   16        8.938305   0.000000
   17        8.966260   0.000000
   18       10.816931   0.000000
   19       19.614553   0.000000
   20       19.768367   0.000000
   21       21.705019   0.000000
   22       22.011594   0.000000
   23       22.307586   0.000000
   24       23.552160   0.000000
   25       23.780668   0.000000
   26       24.904094   0.000000
   27       30.293522   0.000000
   28       30.476232   0.000000
   29       30.530258   0.000000
   30       32.670627   0.000000
   31       34.347993   0.000000
   32       34.784470   0.000000
   33       34.852663   0.000000
   34       38.009147   0.000000
   35       38.274765   0.000000
   36       40.436845   0.000000
   37       40.585759   0.000000
   38       40.748076   0.000000
   39       42.065107   0.000000
   40       42.801730   0.000000
 
  0.3750000E+00  0.2500000E-01  0.2500000E-01  0.3000000E-02
    1      -25.596564   1.000000
    2      -25.340962   1.000000
    3      -25.318884   1.000000
    4      -25.247185   1.000000
    5      -24.977047   1.000000
    6      -24.960329   1.000000
    7        1.329111   1.000000
    8        2.604213   1.000000
    9        2.641304   1.000000
   10        4.942073   0.369021
   11        5.247867  -0.003516
   12        5.500104   0.000000
   13        6.566832   0.000000
   14        6.578227   0.000000
   15        6.716468   0.000000
   16        8.526473   0.000000
   17        9.159754   0.000000
   18       10.306739   0.000000
   19       20.407935   0.000000
   20       20.916638   0.000000
   21       21.163972   0.000000
   22       21.435922   0.000000
   23       22.716836   0.000000
   24       24.140305   0.000000
   25       24.290937   0.000000
   26       24.609839   0.000000
   27       29.590207   0.000000
   28       29.846466   0.000000
   29       32.045124   0.000000
   30       32.931584   0.000000
   31       33.423011   0.000000
   32       33.856540   0.000000
   33       35.583172   0.000000
   34       37.437447   0.000000
   35       38.302207   0.000000
   36       40.150265   0.000000
   37       40.524748   0.000000
   38       41.105957   0.000000
   39       41.531935   0.000000
   40       42.760047   0.000000
 
  0.4250000E+00  0.2500000E-01  0.2500000E-01  0.3000000E-02
    1      -25.553245   1.000000
    2      -25.340699   1.000000
    3      -25.269232   1.000000
    4      -25.247968   1.000000
    5      -25.047211   1.000000
    6      -25.029271   1.000000
    7        1.792835   1.000000
    8        2.623791   1.000000
    9        3.059332   1.000000
   10        4.501561   1.028845
   11        5.403016   0.000000
   12        5.547964   0.000000
   13        6.190094   0.000000
   14        6.321023   0.000000
   15        6.925484   0.000000
   16        8.109792   0.000000
   17        9.329096   0.000000
   18        9.925858   0.000000
   19       20.318477   0.000000
   20       20.534041   0.000000
   21       22.032923   0.000000
   22       22.195283   0.000000
   23       23.103246   0.000000
   24       24.296547   0.000000
   25       24.351165   0.000000
   26       24.449156   0.000000
   27       29.351211   0.000000
   28       29.593893   0.000000
   29       31.854849   0.000000
   30       32.073618   0.000000
   31       33.690892   0.000000
   32       34.359414   0.000000
   33       36.675158   0.000000
   34       36.982848   0.000000
   35       38.158527   0.000000
   36       39.615509   0.000000
   37       39.867118   0.000000
   38       41.565961   0.000000
   39       41.695711   0.000000
   40       41.832396   0.000000
 
  0.4750000E+00  0.2500000E-01  0.2500000E-01  0.3000000E-02
    1      -25.495733   1.000000
    2      -25.424371   1.000000
    3      -25.195102   1.000000
    4      -25.174875   1.000000
    5      -25.120506   1.000000
    6      -25.101385   1.000000
    7        2.192311   1.000000
    8        2.481908   1.000000
    9        3.515981   1.000000
   10        4.002735   1.000000
   11        5.611059   0.000000
   12        5.731176   0.000000
   13        5.872817   0.000000
   14        5.991777   0.000000
   15        7.300961   0.000000
   16        7.698284   0.000000
   17        9.484838   0.000000
   18        9.665854   0.000000
   19       20.139089   0.000000
   20       20.191779   0.000000
   21       23.023806   0.000000
   22       23.191629   0.000000
   23       23.408366   0.000000
   24       23.994848   0.000000
   25       24.029204   0.000000
   26       24.058601   0.000000
   27       29.773065   0.000000
   28       29.979932   0.000000
   29       30.691229   0.000000
   30       30.880337   0.000000
   31       35.103602   0.000000
   32       35.370765   0.000000
   33       35.891029   0.000000
   34       36.988786   0.000000
   35       38.517607   0.000000
   36       39.397287   0.000000
   37       39.597129   0.000000
   38       40.154097   0.000000
   39       42.122909   0.000000
   40       42.141178   0.000000
 
  0.7500000E-01  0.7500000E-01  0.2500000E-01  0.3000000E-02
    1      -25.660886   1.000000
    2      -25.620267   1.000000
    3      -25.579658   1.000000
    4      -24.780612   1.000000
    5      -24.713538   1.000000
    6      -24.693517   1.000000
    7       -0.841968   1.000000
    8        1.234658   1.000000
    9        1.272781   1.000000
   10        5.025354  -0.017357
   11        5.113797   0.000000
   12        5.422730   0.000000
   13        7.879087   0.000000
   14        8.062275   0.000000
   15        9.322995   0.000000
   16        9.791421   0.000000
   17       10.439883   0.000000
   18       14.215232   0.000000
   19       14.686663   0.000000
   20       15.139418   0.000000
   21       20.582674   0.000000
   22       20.832606   0.000000
   23       20.896467   0.000000
   24       24.040281   0.000000
   25       25.682130   0.000000
   26       25.786492   0.000000
   27       28.940258   0.000000
   28       29.827606   0.000000
   29       30.396562   0.000000
   30       33.239634   0.000000
   31       34.558081   0.000000
   32       36.224962   0.000000
   33       39.907275   0.000000
   34       40.016980   0.000000
   35       40.591470   0.000000
   36       40.947772   0.000000
   37       41.105433   0.000000
   38       41.948433   0.000000
   39       42.250569   0.000000
   40       42.581006   0.000000
 
  0.1250000E+00  0.7500000E-01  0.2500000E-01  0.6000000E-02
    1      -25.675861   1.000000
    2      -25.597604   1.000000
    3      -25.543648   1.000000
    4      -24.843146   1.000000
    5      -24.735022   1.000000
    6      -24.701133   1.000000
    7       -0.642023   1.000000
    8        1.349551   1.000000
    9        1.442686   1.000000
   10        4.942332  -0.003035
   11        5.082971  -0.001288
   12        5.591029   0.000000
   13        7.663865   0.000000
   14        8.140477   0.000000
   15        8.762315   0.000000
   16        9.276032   0.000000
   17       10.400979   0.000000
   18       13.811285   0.000000
   19       15.283114   0.000000
   20       15.777562   0.000000
   21       20.750571   0.000000
   22       21.162712   0.000000
   23       21.237646   0.000000
   24       24.257911   0.000000
   25       25.593565   0.000000
   26       25.883955   0.000000
   27       27.802794   0.000000
   28       29.919054   0.000000
   29       30.670285   0.000000
   30       32.823722   0.000000
   31       34.284011   0.000000
   32       37.181970   0.000000
   33       38.989645   0.000000
   34       39.578134   0.000000
   35       40.301514   0.000000
   36       40.320391   0.000000
   37       40.844577   0.000000
   38       42.067720   0.000000
   39       42.136745   0.000000
   40       42.976105   0.000000
 
  0.1750000E+00  0.7500000E-01  0.2500000E-01  0.6000000E-02
    1      -25.686809   1.000000
    2      -25.563476   1.000000
    3      -25.500677   1.000000
    4      -24.921803   1.000000
    5      -24.766848   1.000000
    6      -24.722558   1.000000
    7       -0.353377   1.000000
    8        1.513388   1.000000
    9        1.683973   1.000000
   10        4.879595   0.258194
   11        5.047340  -0.013410
   12        5.789845   0.000000
   13        7.323844   0.000000
   14        8.179553   0.000000
   15        8.295446   0.000000
   16        8.691596   0.000000
   17       10.233665   0.000000
   18       13.153354   0.000000
   19       16.151663   0.000000
   20       16.616350   0.000000
   21       21.020210   0.000000
   22       21.608961   0.000000
   23       21.688920   0.000000
   24       23.932121   0.000000
   25       25.477177   0.000000
   26       26.416469   0.000000
   27       26.606677   0.000000
   28       30.296601   0.000000
   29       31.059446   0.000000
   30       32.309654   0.000000
   31       33.844524   0.000000
   32       37.689893   0.000000
   33       38.003157   0.000000
   34       39.178880   0.000000
   35       39.542519   0.000000
   36       40.065354   0.000000
   37       40.651310   0.000000
   38       41.894595   0.000000
   39       42.155110   0.000000
   40       43.100284   0.000000
 
  0.2250000E+00  0.7500000E-01  0.2500000E-01  0.6000000E-02
    1      -25.691701   1.000000
    2      -25.519168   1.000000
    3      -25.450679   1.000000
    4      -25.012728   1.000000
    5      -24.808275   1.000000
    6      -24.756238   1.000000
    7        0.010710   1.000000
    8        1.728000   1.000000
    9        1.968500   1.000000
   10        4.844795   0.494163
   11        5.012309  -0.027912
   12        6.021020   0.000000
   13        6.916577   0.000000
   14        7.614688   0.000000
   15        8.112878   0.000000
   16        8.489983   0.000000
   17        9.967301   0.000000
   18       12.430170   0.000000
   19       17.113010   0.000000
   20       17.586677   0.000000
   21       21.352967   0.000000
   22       22.032951   0.000000
   23       22.281694   0.000000
   24       23.311164   0.000000
   25       25.158807   0.000000
   26       25.299855   0.000000
   27       27.750432   0.000000
   28       30.621784   0.000000
   29       31.539775   0.000000
   30       31.672010   0.000000
   31       33.459029   0.000000
   32       36.929134   0.000000
   33       37.707842   0.000000
   34       37.881713   0.000000
   35       39.613748   0.000000
   36       40.038470   0.000000
   37       40.591196   0.000000
   38       41.531109   0.000000
   39       42.227565   0.000000
   40       43.015302   0.000000
 
  0.2750000E+00  0.7500000E-01  0.2500000E-01  0.6000000E-02
    1      -25.688382   1.000000
    2      -25.465911   1.000000
    3      -25.394029   1.000000
    4      -25.111332   1.000000
    5      -24.858449   1.000000
    6      -24.800578   1.000000
    7        0.432589   1.000000
    8        1.990901   1.000000
    9        2.259911   1.000000
   10        4.842958   0.525513
   11        4.974963  -0.027664
   12        6.285266   0.000000
   13        6.487622   0.000000
   14        7.091960   0.000000
   15        7.574895   0.000000
   16        8.704694   0.000000
   17        9.633150   0.000000
   18       11.711943   0.000000
   19       18.103247   0.000000
   20       18.640853   0.000000
   21       21.683350   0.000000
   22       22.188656   0.000000
   23       22.639903   0.000000
   24       22.969588   0.000000
   25       24.381876   0.000000
   26       25.084058   0.000000
   27       29.094070   0.000000
   28       30.440436   0.000000
   29       31.032931   0.000000
   30       32.069221   0.000000
   31       33.534830   0.000000
   32       35.774948   0.000000
   33       36.515850   0.000000
   34       37.641015   0.000000
   35       39.112521   0.000000
   36       40.399496   0.000000
   37       40.781937   0.000000
   38       41.091435   0.000000
   39       42.299323   0.000000
   40       42.892611   0.000000
 
  0.3250000E+00  0.7500000E-01  0.2500000E-01  0.6000000E-02
    1      -25.674613   1.000000
    2      -25.405227   1.000000
    3      -25.331516   1.000000
    4      -25.212508   1.000000
    5      -24.916239   1.000000
    6      -24.853848   1.000000
    7        0.890080   1.000000
    8        2.293461   1.000000
    9        2.515066   1.000000
   10        4.860022   0.578267
   11        4.925395   0.094094
   12        6.101513   0.000000
   13        6.583776   0.000000
   14        6.625169   0.000000
   15        7.098478   0.000000
   16        8.921472   0.000000
   17        9.256586   0.000000
   18       11.048213   0.000000
   19       19.035381   0.000000
   20       19.743658   0.000000
   21       21.538215   0.000000
   22       22.083476   0.000000
   23       22.207586   0.000000
   24       23.667091   0.000000
   25       24.406854   0.000000
   26       24.840831   0.000000
   27       29.759652   0.000000
   28       30.416185   0.000000
   29       30.556454   0.000000
   30       32.533334   0.000000
   31       34.237347   0.000000
   32       34.586776   0.000000
   33       35.220794   0.000000
   34       37.635517   0.000000
   35       38.495792   0.000000
   36       40.632640   0.000000
   37       40.681553   0.000000
   38       41.055392   0.000000
   39       42.396496   0.000000
   40       42.777402   0.000000
 
  0.3750000E+00  0.7500000E-01  0.2500000E-01  0.6000000E-02
    1      -25.648549   1.000000
    2      -25.338631   1.000000
    3      -25.311308   1.000000
    4      -25.264319   1.000000
    5      -24.980338   1.000000
    6      -24.914383   1.000000
    7        1.356512   1.000000
    8        2.569560   1.000000
    9        2.741047   1.000000
   10        4.701249   0.978931
   11        4.988099   0.021860
   12        5.862063   0.000000
   13        6.218848   0.000000
   14        6.697225   0.000000
   15        6.913522   0.000000
   16        8.858090   0.000000
   17        9.124587   0.000000
   18       10.478983   0.000000
   19       19.697804   0.000000
   20       20.860235   0.000000
   21       20.861671   0.000000
   22       21.901078   0.000000
   23       22.525715   0.000000
   24       24.226009   0.000000
   25       24.584458   0.000000
   26       24.729919   0.000000
   27       29.141828   0.000000
   28       29.872949   0.000000
   29       32.036980   0.000000
   30       32.527174   0.000000
   31       33.384213   0.000000
   32       34.515447   0.000000
   33       35.300108   0.000000
   34       37.530847   0.000000
   35       37.954277   0.000000
   36       40.182350   0.000000
   37       40.701441   0.000000
   38       41.223701   0.000000
   39       42.588807   0.000000
   40       42.591713   0.000000
 
  0.4250000E+00  0.7500000E-01  0.2500000E-01  0.6000000E-02
    1      -25.608536   1.000000
    2      -25.403327   1.000000
    3      -25.267838   1.000000
    4      -25.193951   1.000000
    5      -25.049236   1.000000
    6      -24.980415   1.000000
    7        1.800369   1.000000
    8        2.615240   1.000000
    9        3.093456   1.000000
   10        4.366421   1.011167
   11        5.127959  -0.047600
   12        5.825312   0.000000
   13        5.869272   0.000000
   14        6.374737   0.000000
   15        7.271452   0.000000
   16        8.452127   0.000000
   17        9.308949   0.000000
   18       10.032944   0.000000
   19       19.869749   0.000000
   20       20.289712   0.000000
   21       21.925458   0.000000
   22       22.353076   0.000000
   23       22.827670   0.000000
   24       24.345531   0.000000
   25       24.406268   0.000000
   26       24.769485   0.000000
   27       29.004493   0.000000
   28       29.711519   0.000000
   29       31.529339   0.000000
   30       32.139490   0.000000
   31       33.718401   0.000000
   32       34.818665   0.000000
   33       36.449584   0.000000
   34       36.929228   0.000000
   35       37.814872   0.000000
   36       39.754231   0.000000
   37       39.996751   0.000000
   38       41.481229   0.000000
   39       41.624864   0.000000
   40       42.674264   0.000000
 
  0.4750000E+00  0.7500000E-01  0.2500000E-01  0.6000000E-02
    1      -25.553928   1.000000
    2      -25.485005   1.000000
    3      -25.194810   1.000000
    4      -25.122027   1.000000
    5      -25.121304   1.000000
    6      -25.050233   1.000000
    7        2.185103   1.000000
    8        2.470307   1.000000
    9        3.510586   1.000000
   10        3.947008   1.000000
   11        5.322994  -0.020622
   12        5.570745   0.000000
   13        5.932225   0.000000
   14        6.121940   0.000000
   15        7.651900   0.000000
   16        8.047740   0.000000
   17        9.490403   0.000000
   18        9.713989   0.000000
   19       19.847396   0.000000
   20       19.951280   0.000000
   21       22.731946   0.000000
   22       22.993896   0.000000
   23       23.199042   0.000000
   24       24.019968   0.000000
   25       24.224332   0.000000
   26       24.433211   0.000000
   27       29.517020   0.000000
   28       30.124465   0.000000
   29       30.449711   0.000000
   30       31.000925   0.000000
   31       35.239410   0.000000
   32       35.486375   0.000000
   33       36.183267   0.000000
   34       36.544581   0.000000
   35       38.312618   0.000000
   36       39.284269   0.000000
   37       39.594676   0.000000
   38       40.126836   0.000000
   39       42.136287   0.000000
   40       42.556286   0.000000
 
  0.1250000E+00  0.1250000E+00  0.2500000E-01  0.3000000E-02
    1      -25.702260   1.000000
    2      -25.576370   1.000000
    3      -25.497512   1.000000
    4      -24.916470   1.000000
    5      -24.755160   1.000000
    6      -24.694753   1.000000
    7       -0.451993   1.000000
    8        1.470373   1.000000
    9        1.599533   1.000000
   10        4.799512   0.739148
   11        5.030314  -0.018266
   12        5.824527   0.000000
   13        7.647739   0.000000
   14        8.084623   0.000000
   15        8.201717   0.000000
   16        8.813594   0.000000
   17       10.507842   0.000000
   18       14.064333   0.000000
   19       15.142096   0.000000
   20       16.247580   0.000000
   21       20.810416   0.000000
   22       21.490980   0.000000
   23       21.526426   0.000000
   24       24.500364   0.000000
   25       25.368586   0.000000
   26       26.121176   0.000000
   27       27.627112   0.000000
   28       29.110863   0.000000
   29       30.925134   0.000000
   30       32.393876   0.000000
   31       34.162545   0.000000
   32       38.064713   0.000000
   33       38.375743   0.000000
   34       38.833469   0.000000
   35       39.899347   0.000000
   36       40.067459   0.000000
   37       40.916779   0.000000
   38       42.117025   0.000000
   39       42.229985   0.000000
   40       43.481136   0.000000
 
  0.1750000E+00  0.1250000E+00  0.2500000E-01  0.6000000E-02
    1      -25.724492   1.000000
    2      -25.543682   1.000000
    3      -25.445561   1.000000
    4      -25.003995   1.000000
    5      -24.785068   1.000000
    6      -24.702702   1.000000
    7       -0.178990   1.000000
    8        1.627045   1.000000
    9        1.838136   1.000000
   10        4.681348   1.054688
   11        4.967835  -0.036923
   12        6.085204   0.000000
   13        7.448437   0.000000
   14        7.632681   0.000000
   15        8.183386   0.000000
   16        8.279163   0.000000
   17       10.475579   0.000000
   18       13.620146   0.000000
   19       15.702326   0.000000
   20       16.922376   0.000000
   21       20.944975   0.000000
   22       21.827640   0.000000
   23       21.969555   0.000000
   24       24.174008   0.000000
   25       25.261320   0.000000
   26       26.715617   0.000000
   27       26.878982   0.000000
   28       29.137788   0.000000
   29       31.281062   0.000000
   30       31.856941   0.000000
   31       33.873450   0.000000
   32       37.147539   0.000000
   33       38.080044   0.000000
   34       39.131544   0.000000
   35       39.581690   0.000000
   36       39.905829   0.000000
   37       40.872027   0.000000
   38       42.151305   0.000000
   39       42.160686   0.000000
   40       43.519042   0.000000
 
  0.2250000E+00  0.1250000E+00  0.2500000E-01  0.6000000E-02
    1      -25.739784   1.000000
    2      -25.501119   1.000000
    3      -25.388410   1.000000
    4      -25.101239   1.000000
    5      -24.824078   1.000000
    6      -24.724403   1.000000
    7        0.162548   1.000000
    8        1.821501   1.000000
    9        2.126123   1.000000
   10        4.597434   1.046273
   11        4.902644   0.133423
   12        6.371228   0.000000
   13        7.089551   0.000000
   14        7.138189   0.000000
   15        7.755392   0.000000
   16        8.377434   0.000000
   17       10.309368   0.000000
   18       12.905151   0.000000
   19       16.541927   0.000000
   20       17.758631   0.000000
   21       21.114332   0.000000