       N       E                     dE             d eps       ncg     rms          rms(c)
DAV:   1    -0.270539002615E+01   -0.27054E+01   -0.10977E+04 18240   0.402E+02
DAV:   2    -0.233484062085E+02   -0.20643E+02   -0.20328E+02 23880   0.563E+01
DAV:   3    -0.233686427574E+02   -0.20237E-01   -0.20255E-01 21120   0.191E+00
DAV:   4    -0.233686481893E+02   -0.54318E-05   -0.54380E-05 30960   0.302E-02
DAV:   5    -0.233686481887E+02    0.51887E-09   -0.85813E-11 21360   0.300E-05    0.257E+01
DAV:   6    -0.224858725581E+02    0.88278E+00   -0.13503E+00 30840   0.474E+00    0.116E+01
DAV:   7    -0.222782261191E+02    0.20765E+00   -0.70144E-01 28440   0.321E+00    0.837E-01
DAV:   8    -0.222715820096E+02    0.66441E-02   -0.92390E-03 23800   0.443E-01    0.402E-02
DAV:   9    -0.222715696393E+02    0.12370E-04   -0.27306E-05 23080   0.262E-02    0.130E-02
DAV:  10    -0.222715661484E+02    0.34909E-05   -0.34696E-06 30280   0.865E-03    0.255E-03
DAV:  11    -0.222715660031E+02    0.14533E-06   -0.63943E-08 20640   0.112E-03    0.103E-03
DAV:  12    -0.222715660291E+02   -0.26019E-07   -0.62151E-09 11880   0.458E-04
   1 F= -.22271566E+02 E0= -.22271566E+02  d E =0.000000E+00
