<?xml version="1.0" encoding="ISO-8859-1"?>
<modeling>
 <generator>
  <i name="program" type="string">vasp </i>
  <i name="version" type="string">5.4.4.18Apr17-6-g9f103f2a35  </i>
  <i name="subversion" type="string">(build May 20 2018 16:52:39) complex            parallel </i>
  <i name="platform" type="string">LinuxIFC </i>
  <i name="date" type="string">2022 11 17 </i>
  <i name="time" type="string">21:34:40 </i>
 </generator>
 <incar>
  <i type="string" name="SYSTEM"> Nb</i>
  <i type="string" name="PREC">normal</i>
  <i name="EDIFF">      0.00000010</i>
  <i name="ENCUT">    300.00000000</i>
  <i type="int" name="ISMEAR">    -5</i>
  <v type="int" name="KPOINT_BSE">    -1     0     0     0</v>
 </incar>
 <structure name="primitive_cell" >
  <crystal>
   <varray name="basis" >
    <v>       1.65040000       1.65040000       1.65040000 </v>
    <v>       1.65040000      -1.65040000      -1.65040000 </v>
    <v>      -1.65040000       1.65040000      -1.65040000 </v>
   </varray>
   <i name="volume">     17.98157117 </i>
   <varray name="rec_basis" >
    <v>       0.30295686       0.30295686       0.00000000 </v>
    <v>       0.30295686      -0.00000000      -0.30295686 </v>
    <v>      -0.00000000       0.30295686      -0.30295686 </v>
   </varray>
  </crystal>
  <varray name="positions" >
   <v>       0.00000000       0.00000000       0.00000000 </v>
  </varray>
 </structure>
 <varray name="primitive_index" >
  <v type="int" >        1 </v>
 </varray>
 <kpoints>
  <generation param="Monkhorst-Pack">
   <v type="int" name="divisions">      20       20       20 </v>
   <v name="usershift">      0.00000000       0.00000000       0.00000000 </v>
   <v name="genvec1">      0.05000000       0.00000000       0.00000000 </v>
   <v name="genvec2">      0.00000000       0.05000000       0.00000000 </v>
   <v name="genvec3">      0.00000000       0.00000000       0.05000000 </v>
   <v name="shift">      0.50000000       0.50000000       0.50000000 </v>
  </generation>
  <varray name="kpointlist" >
   <v>       0.02500000       0.02500000       0.02500000 </v>
   <v>       0.07500000       0.02500000       0.02500000 </v>
   <v>       0.12500000       0.02500000       0.02500000 </v>
   <v>       0.17500000       0.02500000       0.02500000 </v>
   <v>       0.22500000       0.02500000       0.02500000 </v>
   <v>       0.27500000       0.02500000       0.02500000 </v>
   <v>       0.32500000       0.02500000       0.02500000 </v>
   <v>       0.37500000       0.02500000       0.02500000 </v>
   <v>       0.42500000       0.02500000       0.02500000 </v>
   <v>       0.47500000       0.02500000       0.02500000 </v>
   <v>       0.07500000       0.07500000       0.02500000 </v>
   <v>       0.12500000       0.07500000       0.02500000 </v>
   <v>       0.17500000       0.07500000       0.02500000 </v>
   <v>       0.22500000       0.07500000       0.02500000 </v>
   <v>       0.27500000       0.07500000       0.02500000 </v>
   <v>       0.32500000       0.07500000       0.02500000 </v>
   <v>       0.37500000       0.07500000       0.02500000 </v>
   <v>       0.42500000       0.07500000       0.02500000 </v>
   <v>       0.47500000       0.07500000       0.02500000 </v>
   <v>       0.12500000       0.12500000       0.02500000 </v>
   <v>       0.17500000       0.12500000       0.02500000 </v>
   <v>       0.22500000       0.12500000       0.02500000 </v>
   <v>       0.27500000       0.12500000       0.02500000 </v>
   <v>       0.32500000       0.12500000       0.02500000 </v>
   <v>       0.37500000       0.12500000       0.02500000 </v>
   <v>       0.42500000       0.12500000       0.02500000 </v>
   <v>       0.47500000       0.12500000       0.02500000 </v>
   <v>       0.17500000       0.17500000       0.02500000 </v>
   <v>       0.22500000       0.17500000       0.02500000 </v>
   <v>       0.27500000       0.17500000       0.02500000 </v>
   <v>       0.32500000       0.17500000       0.02500000 </v>
   <v>       0.37500000       0.17500000       0.02500000 </v>
   <v>       0.42500000       0.17500000       0.02500000 </v>
   <v>       0.47500000       0.17500000       0.02500000 </v>
   <v>       0.22500000       0.22500000       0.02500000 </v>
   <v>       0.27500000       0.22500000       0.02500000 </v>
   <v>       0.32500000       0.22500000       0.02500000 </v>
   <v>       0.37500000       0.22500000       0.02500000 </v>
   <v>       0.42500000       0.22500000       0.02500000 </v>
   <v>       0.47500000       0.22500000       0.02500000 </v>
   <v>       0.27500000       0.27500000       0.02500000 </v>
   <v>       0.32500000       0.27500000       0.02500000 </v>
   <v>       0.37500000       0.27500000       0.02500000 </v>
   <v>       0.42500000       0.27500000       0.02500000 </v>
   <v>       0.47500000       0.27500000       0.02500000 </v>
   <v>       0.32500000       0.32500000       0.02500000 </v>
   <v>       0.37500000       0.32500000       0.02500000 </v>
   <v>       0.42500000       0.32500000       0.02500000 </v>
   <v>       0.47500000       0.32500000       0.02500000 </v>
   <v>       0.37500000       0.37500000       0.02500000 </v>
   <v>       0.42500000       0.37500000       0.02500000 </v>
   <v>       0.47500000       0.37500000       0.02500000 </v>
   <v>       0.42500000       0.42500000       0.02500000 </v>
   <v>       0.47500000       0.42500000       0.02500000 </v>
   <v>       0.47500000       0.47500000       0.02500000 </v>
   <v>       0.07500000       0.07500000       0.07500000 </v>
   <v>       0.12500000       0.07500000       0.07500000 </v>
   <v>       0.17500000       0.07500000       0.07500000 </v>
   <v>       0.22500000       0.07500000       0.07500000 </v>
   <v>       0.27500000       0.07500000       0.07500000 </v>
   <v>       0.32500000       0.07500000       0.07500000 </v>
   <v>       0.37500000       0.07500000       0.07500000 </v>
   <v>       0.42500000       0.07500000       0.07500000 </v>
   <v>       0.47500000       0.07500000       0.07500000 </v>
   <v>       0.12500000       0.12500000       0.07500000 </v>
   <v>       0.17500000       0.12500000       0.07500000 </v>
   <v>       0.22500000       0.12500000       0.07500000 </v>
   <v>       0.27500000       0.12500000       0.07500000 </v>
   <v>       0.32500000       0.12500000       0.07500000 </v>
   <v>       0.37500000       0.12500000       0.07500000 </v>
   <v>       0.42500000       0.12500000       0.07500000 </v>
   <v>       0.47500000       0.12500000       0.07500000 </v>
   <v>       0.17500000       0.17500000       0.07500000 </v>
   <v>       0.22500000       0.17500000       0.07500000 </v>
   <v>       0.27500000       0.17500000       0.07500000 </v>
   <v>       0.32500000       0.17500000       0.07500000 </v>
   <v>       0.37500000       0.17500000       0.07500000 </v>
   <v>       0.42500000       0.17500000       0.07500000 </v>
   <v>       0.47500000       0.17500000       0.07500000 </v>
   <v>       0.22500000       0.22500000       0.07500000 </v>
   <v>       0.27500000       0.22500000       0.07500000 </v>
   <v>       0.32500000       0.22500000       0.07500000 </v>
   <v>       0.37500000       0.22500000       0.07500000 </v>
   <v>       0.42500000       0.22500000       0.07500000 </v>
   <v>       0.47500000       0.22500000       0.07500000 </v>
   <v>       0.27500000       0.27500000       0.07500000 </v>
   <v>       0.32500000       0.27500000       0.07500000 </v>
   <v>       0.37500000       0.27500000       0.07500000 </v>
   <v>       0.42500000       0.27500000       0.07500000 </v>
   <v>       0.47500000       0.27500000       0.07500000 </v>
   <v>       0.32500000       0.32500000       0.07500000 </v>
   <v>       0.37500000       0.32500000       0.07500000 </v>
   <v>       0.42500000       0.32500000       0.07500000 </v>
   <v>       0.47500000       0.32500000       0.07500000 </v>
   <v>       0.37500000       0.37500000       0.07500000 </v>
   <v>       0.42500000       0.37500000       0.07500000 </v>
   <v>       0.47500000       0.37500000       0.07500000 </v>
   <v>       0.42500000       0.42500000       0.07500000 </v>
   <v>       0.47500000       0.42500000       0.07500000 </v>
   <v>       0.47500000       0.47500000       0.07500000 </v>
   <v>       0.12500000       0.12500000       0.12500000 </v>
   <v>       0.17500000       0.12500000       0.12500000 </v>
   <v>       0.22500000       0.12500000       0.12500000 </v>
   <v>       0.27500000       0.12500000       0.12500000 </v>
   <v>       0.32500000       0.12500000       0.12500000 </v>
   <v>       0.37500000       0.12500000       0.12500000 </v>
   <v>       0.42500000       0.12500000       0.12500000 </v>
   <v>       0.47500000       0.12500000       0.12500000 </v>
   <v>       0.17500000       0.17500000       0.12500000 </v>
   <v>       0.22500000       0.17500000       0.12500000 </v>
   <v>       0.27500000       0.17500000       0.12500000 </v>
   <v>       0.32500000       0.17500000       0.12500000 </v>
   <v>       0.37500000       0.17500000       0.12500000 </v>
   <v>       0.42500000       0.17500000       0.12500000 </v>
   <v>       0.47500000       0.17500000       0.12500000 </v>
   <v>       0.22500000       0.22500000       0.12500000 </v>
   <v>       0.27500000       0.22500000       0.12500000 </v>
   <v>       0.32500000       0.22500000       0.12500000 </v>
   <v>       0.37500000       0.22500000       0.12500000 </v>
   <v>       0.42500000       0.22500000       0.12500000 </v>
   <v>       0.47500000       0.22500000       0.12500000 </v>
   <v>       0.27500000       0.27500000       0.12500000 </v>
   <v>       0.32500000       0.27500000       0.12500000 </v>
   <v>       0.37500000       0.27500000       0.12500000 </v>
   <v>       0.42500000       0.27500000       0.12500000 </v>
   <v>       0.47500000       0.27500000       0.12500000 </v>
   <v>       0.32500000       0.32500000       0.12500000 </v>
   <v>       0.37500000       0.32500000       0.12500000 </v>
   <v>       0.42500000       0.32500000       0.12500000 </v>
   <v>       0.47500000       0.32500000       0.12500000 </v>
   <v>       0.37500000       0.37500000       0.12500000 </v>
   <v>       0.42500000       0.37500000       0.12500000 </v>
   <v>       0.47500000       0.37500000       0.12500000 </v>
   <v>       0.42500000       0.42500000       0.12500000 </v>
   <v>       0.47500000       0.42500000       0.12500000 </v>
   <v>       0.47500000       0.47500000       0.12500000 </v>
   <v>       0.17500000       0.17500000       0.17500000 </v>
   <v>       0.22500000       0.17500000       0.17500000 </v>
   <v>       0.27500000       0.17500000       0.17500000 </v>
   <v>       0.32500000       0.17500000       0.17500000 </v>
   <v>       0.37500000       0.17500000       0.17500000 </v>
   <v>       0.42500000       0.17500000       0.17500000 </v>
   <v>       0.47500000       0.17500000       0.17500000 </v>
   <v>       0.22500000       0.22500000       0.17500000 </v>
   <v>       0.27500000       0.22500000       0.17500000 </v>
   <v>       0.32500000       0.22500000       0.17500000 </v>
   <v>       0.37500000       0.22500000       0.17500000 </v>
   <v>       0.42500000       0.22500000       0.17500000 </v>
   <v>       0.47500000       0.22500000       0.17500000 </v>
   <v>       0.27500000       0.27500000       0.17500000 </v>
   <v>       0.32500000       0.27500000       0.17500000 </v>
   <v>       0.37500000       0.27500000       0.17500000 </v>
   <v>       0.42500000       0.27500000       0.17500000 </v>
   <v>       0.47500000       0.27500000       0.17500000 </v>
   <v>       0.32500000       0.32500000       0.17500000 </v>
   <v>       0.37500000       0.32500000       0.17500000 </v>
   <v>       0.42500000       0.32500000       0.17500000 </v>
   <v>       0.47500000       0.32500000       0.17500000 </v>
   <v>       0.37500000       0.37500000       0.17500000 </v>
   <v>       0.42500000       0.37500000       0.17500000 </v>
   <v>       0.47500000       0.37500000       0.17500000 </v>
   <v>       0.42500000       0.42500000       0.17500000 </v>
   <v>       0.47500000       0.42500000       0.17500000 </v>
   <v>       0.47500000       0.47500000       0.17500000 </v>
   <v>       0.22500000       0.22500000       0.22500000 </v>
   <v>       0.27500000       0.22500000       0.22500000 </v>
   <v>       0.32500000       0.22500000       0.22500000 </v>
   <v>       0.37500000       0.22500000       0.22500000 </v>
   <v>       0.42500000       0.22500000       0.22500000 </v>
   <v>       0.47500000       0.22500000       0.22500000 </v>
   <v>       0.27500000       0.27500000       0.22500000 </v>
   <v>       0.32500000       0.27500000       0.22500000 </v>
   <v>       0.37500000       0.27500000       0.22500000 </v>
   <v>       0.42500000       0.27500000       0.22500000 </v>
   <v>       0.47500000       0.27500000       0.22500000 </v>
   <v>       0.32500000       0.32500000       0.22500000 </v>
   <v>       0.37500000       0.32500000       0.22500000 </v>
   <v>       0.42500000       0.32500000       0.22500000 </v>
   <v>       0.47500000       0.32500000       0.22500000 </v>
   <v>       0.37500000       0.37500000       0.22500000 </v>
   <v>       0.42500000       0.37500000       0.22500000 </v>
   <v>       0.47500000       0.37500000       0.22500000 </v>
   <v>       0.42500000       0.42500000       0.22500000 </v>
   <v>       0.47500000       0.42500000       0.22500000 </v>
   <v>       0.47500000       0.47500000       0.22500000 </v>
   <v>       0.27500000       0.27500000       0.27500000 </v>
   <v>       0.32500000       0.27500000       0.27500000 </v>
   <v>       0.37500000       0.27500000       0.27500000 </v>
   <v>       0.42500000       0.27500000       0.27500000 </v>
   <v>       0.47500000       0.27500000       0.27500000 </v>
   <v>       0.32500000       0.32500000       0.27500000 </v>
   <v>       0.37500000       0.32500000       0.27500000 </v>
   <v>       0.42500000       0.32500000       0.27500000 </v>
   <v>       0.47500000       0.32500000       0.27500000 </v>
   <v>       0.37500000       0.37500000       0.27500000 </v>
   <v>       0.42500000       0.37500000       0.27500000 </v>
   <v>       0.47500000       0.37500000       0.27500000 </v>
   <v>       0.42500000       0.42500000       0.27500000 </v>
   <v>       0.47500000       0.42500000       0.27500000 </v>
   <v>       0.47500000       0.47500000       0.27500000 </v>
   <v>       0.32500000       0.32500000       0.32500000 </v>
   <v>       0.37500000       0.32500000       0.32500000 </v>
   <v>       0.42500000       0.32500000       0.32500000 </v>
   <v>       0.47500000       0.32500000       0.32500000 </v>
   <v>       0.37500000       0.37500000       0.32500000 </v>
   <v>       0.42500000       0.37500000       0.32500000 </v>
   <v>       0.47500000       0.37500000       0.32500000 </v>
   <v>       0.42500000       0.42500000       0.32500000 </v>
   <v>       0.47500000       0.42500000       0.32500000 </v>
   <v>       0.47500000       0.47500000       0.32500000 </v>
   <v>       0.37500000       0.37500000       0.37500000 </v>
   <v>       0.42500000       0.37500000       0.37500000 </v>
   <v>       0.47500000       0.37500000       0.37500000 </v>
   <v>       0.42500000       0.42500000       0.37500000 </v>
   <v>       0.47500000       0.42500000       0.37500000 </v>
   <v>       0.47500000       0.47500000       0.37500000 </v>
   <v>       0.42500000       0.42500000       0.42500000 </v>
   <v>       0.47500000       0.42500000       0.42500000 </v>
   <v>       0.47500000       0.47500000       0.42500000 </v>
   <v>       0.47500000       0.47500000       0.47500000 </v>
  </varray>
  <varray name="weights" >
   <v>       0.00100000 </v>
   <v>       0.00300000 </v>
   <v>       0.00300000 </v>
   <v>       0.00300000 </v>
   <v>       0.00300000 </v>
   <v>       0.00300000 </v>
   <v>       0.00300000 </v>
   <v>       0.00300000 </v>
   <v>       0.00300000 </v>
   <v>       0.00300000 </v>
   <v>       0.00300000 </v>
   <v>       0.00600000 </v>
   <v>       0.00600000 </v>
   <v>       0.00600000 </v>
   <v>       0.00600000 </v>
   <v>       0.00600000 </v>
   <v>       0.00600000 </v>
   <v>       0.00600000 </v>
   <v>       0.00600000 </v>
   <v>       0.00300000 </v>
   <v>       0.00600000 </v>
   <v>       0.00600000 </v>
   <v>       0.00600000 </v>
   <v>       0.00600000 </v>
   <v>       0.00600000 </v>
   <v>       0.00600000 </v>
   <v>       0.00600000 </v>
   <v>       0.00300000 </v>
   <v>       0.00600000 </v>
   <v>       0.00600000 </v>
   <v>       0.00600000 </v>
   <v>       0.00600000 </v>
   <v>       0.00600000 </v>
   <v>       0.00600000 </v>
   <v>       0.00300000 </v>
   <v>       0.00600000 </v>
   <v>       0.00600000 </v>
   <v>       0.00600000 </v>
   <v>       0.00600000 </v>
   <v>       0.00600000 </v>
   <v>       0.00300000 </v>
   <v>       0.00600000 </v>
   <v>       0.00600000 </v>
   <v>       0.00600000 </v>
   <v>       0.00600000 </v>
   <v>       0.00300000 </v>
   <v>       0.00600000 </v>
   <v>       0.00600000 </v>
   <v>       0.00600000 </v>
   <v>       0.00300000 </v>
   <v>       0.00600000 </v>
   <v>       0.00600000 </v>
   <v>       0.00300000 </v>
   <v>       0.00600000 </v>
   <v>       0.00300000 </v>
   <v>       0.00100000 </v>
   <v>       0.00300000 </v>
   <v>       0.00300000 </v>
   <v>       0.00300000 </v>
   <v>       0.00300000 </v>
   <v>       0.00300000 </v>
   <v>       0.00300000 </v>
   <v>       0.00300000 </v>
   <v>       0.00300000 </v>
   <v>       0.00300000 </v>
   <v>       0.00600000 </v>
   <v>       0.00600000 </v>
   <v>       0.00600000 </v>
   <v>       0.00600000 </v>
   <v>       0.00600000 </v>
   <v>       0.00600000 </v>
   <v>       0.00600000 </v>
   <v>       0.00300000 </v>
   <v>       0.00600000 </v>
   <v>       0.00600000 </v>
   <v>       0.00600000 </v>
   <v>       0.00600000 </v>
   <v>       0.00600000 </v>
   <v>       0.00600000 </v>
   <v>       0.00300000 </v>
   <v>       0.00600000 </v>
   <v>       0.00600000 </v>
   <v>       0.00600000 </v>
   <v>       0.00600000 </v>
   <v>       0.00600000 </v>
   <v>       0.00300000 </v>
   <v>       0.00600000 </v>
   <v>       0.00600000 </v>
   <v>       0.00600000 </v>
   <v>       0.00600000 </v>
   <v>       0.00300000 </v>
   <v>       0.00600000 </v>
   <v>       0.00600000 </v>
   <v>       0.00600000 </v>
   <v>       0.00300000 </v>
   <v>       0.00600000 </v>
   <v>       0.00600000 </v>
   <v>       0.00300000 </v>
   <v>       0.00600000 </v>
   <v>       0.00300000 </v>
   <v>       0.00100000 </v>
   <v>       0.00300000 </v>
   <v>       0.00300000 </v>
   <v>       0.00300000 </v>
   <v>       0.00300000 </v>
   <v>       0.00300000 </v>
   <v>       0.00300000 </v>
   <v>       0.00300000 </v>
   <v>       0.00300000 </v>
   <v>       0.00600000 </v>
   <v>       0.00600000 </v>
   <v>       0.00600000 </v>
   <v>       0.00600000 </v>
   <v>       0.00600000 </v>
   <v>       0.00600000 </v>
   <v>       0.00300000 </v>
   <v>       0.00600000 </v>
   <v>       0.00600000 </v>
   <v>       0.00600000 </v>
   <v>       0.00600000 </v>
   <v>       0.00600000 </v>
   <v>       0.00300000 </v>
   <v>       0.00600000 </v>
   <v>       0.00600000 </v>
   <v>       0.00600000 </v>
   <v>       0.00600000 </v>
   <v>       0.00300000 </v>
   <v>       0.00600000 </v>
   <v>       0.00600000 </v>
   <v>       0.00600000 </v>
   <v>       0.00300000 </v>
   <v>       0.00600000 </v>
   <v>       0.00600000 </v>
   <v>       0.00300000 </v>
   <v>       0.00600000 </v>
   <v>       0.00300000 </v>
   <v>       0.00100000 </v>
   <v>       0.00300000 </v>
   <v>       0.00300000 </v>
   <v>       0.00300000 </v>
   <v>       0.00300000 </v>
   <v>       0.00300000 </v>
   <v>       0.00300000 </v>
   <v>       0.00300000 </v>
   <v>       0.00600000 </v>
   <v>       0.00600000 </v>
   <v>       0.00600000 </v>
   <v>       0.00600000 </v>
   <v>       0.00600000 </v>
   <v>       0.00300000 </v>
   <v>       0.00600000 </v>
   <v>       0.00600000 </v>
   <v>       0.00600000 </v>
   <v>       0.00600000 </v>
   <v>       0.00300000 </v>
   <v>       0.00600000 </v>
   <v>       0.00600000 </v>
   <v>       0.00600000 </v>
   <v>       0.00300000 </v>
   <v>       0.00600000 </v>
   <v>       0.00600000 </v>
   <v>       0.00300000 </v>
   <v>       0.00600000 </v>
   <v>       0.00300000 </v>
   <v>       0.00100000 </v>
   <v>       0.00300000 </v>
   <v>       0.00300000 </v>
   <v>       0.00300000 </v>
   <v>       0.00300000 </v>
   <v>       0.00300000 </v>
   <v>       0.00300000 </v>
   <v>       0.00600000 </v>
   <v>       0.00600000 </v>
   <v>       0.00600000 </v>
   <v>       0.00600000 </v>
   <v>       0.00300000 </v>
   <v>       0.00600000 </v>
   <v>       0.00600000 </v>
   <v>       0.00600000 </v>
   <v>       0.00300000 </v>
   <v>       0.00600000 </v>
   <v>       0.00600000 </v>
   <v>       0.00300000 </v>
   <v>       0.00600000 </v>
   <v>       0.00300000 </v>
   <v>       0.00100000 </v>
   <v>       0.00300000 </v>
   <v>       0.00300000 </v>
   <v>       0.00300000 </v>
   <v>       0.00300000 </v>
   <v>       0.00300000 </v>
   <v>       0.00600000 </v>
   <v>       0.00600000 </v>
   <v>       0.00600000 </v>
   <v>       0.00300000 </v>
   <v>       0.00600000 </v>
   <v>       0.00600000 </v>
   <v>       0.00300000 </v>
   <v>       0.00600000 </v>
   <v>       0.00300000 </v>
   <v>       0.00100000 </v>
   <v>       0.00300000 </v>
   <v>       0.00300000 </v>
   <v>       0.00300000 </v>
   <v>       0.00300000 </v>
   <v>       0.00600000 </v>
   <v>       0.00600000 </v>
   <v>       0.00300000 </v>
   <v>       0.00600000 </v>
   <v>       0.00300000 </v>
   <v>       0.00100000 </v>
   <v>       0.00300000 </v>
   <v>       0.00300000 </v>
   <v>       0.00300000 </v>
   <v>       0.00600000 </v>
   <v>       0.00300000 </v>
   <v>       0.00100000 </v>
   <v>       0.00300000 </v>
   <v>       0.00300000 </v>
   <v>       0.00100000 </v>
  </varray>
  <varray name="tetrahedronlist"  type="int" >
   <v type="int" >       24        1        2        2       11 </v>
   <v type="int" >       18        2        2       11       11 </v>
   <v type="int" >       12        2       11       11       56 </v>
   <v type="int" >       12        2        3       11       12 </v>
   <v type="int" >       24        2       11       11       12 </v>
   <v type="int" >       12       11       11       12       56 </v>
   <v type="int" >       24        3       11       12       12 </v>
   <v type="int" >       24       11       12       12       57 </v>
   <v type="int" >       24       11       12       56       57 </v>
   <v type="int" >       12        3        4       12       13 </v>
   <v type="int" >       24        3       12       12       13 </v>
   <v type="int" >       12       12       12       13       57 </v>
   <v type="int" >       24        4       12       13       13 </v>
   <v type="int" >       12       12       13       13       58 </v>
   <v type="int" >       12       12       13       57       58 </v>
   <v type="int" >       12        4        5       13       14 </v>
   <v type="int" >       24        4       13       13       14 </v>
   <v type="int" >       12       13       13       14       58 </v>
   <v type="int" >       24        5       13       14       14 </v>
   <v type="int" >       12       13       14       14       59 </v>
   <v type="int" >       12       13       14       58       59 </v>
   <v type="int" >       12        5        6       14       15 </v>
   <v type="int" >       24        5       14       14       15 </v>
   <v type="int" >       12       14       14       15       59 </v>
   <v type="int" >       24        6       14       15       15 </v>
   <v type="int" >       12       14       15       15       60 </v>
   <v type="int" >       12       14       15       59       60 </v>
   <v type="int" >       12        6        7       15       16 </v>
   <v type="int" >       24        6       15       15       16 </v>
   <v type="int" >       12       15       15       16       60 </v>
   <v type="int" >       24        7       15       16       16 </v>
   <v type="int" >       12       15       16       16       61 </v>
   <v type="int" >       12       15       16       60       61 </v>
   <v type="int" >       12        7        8       16       17 </v>
   <v type="int" >       24        7       16       16       17 </v>
   <v type="int" >       12       16       16       17       61 </v>
   <v type="int" >       24        8       16       17       17 </v>
   <v type="int" >       12       16       17       17       62 </v>
   <v type="int" >       12       16       17       61       62 </v>
   <v type="int" >       12        8        9       17       18 </v>
   <v type="int" >       24        8       17       17       18 </v>
   <v type="int" >       12       17       17       18       62 </v>
   <v type="int" >       24        9       17       18       18 </v>
   <v type="int" >       12       17       18       18       63 </v>
   <v type="int" >       12       17       18       62       63 </v>
   <v type="int" >       12        9       10       18       19 </v>
   <v type="int" >       24        9       18       18       19 </v>
   <v type="int" >       12       18       18       19       63 </v>
   <v type="int" >       24       10       18       19       19 </v>
   <v type="int" >       12       18       19       19       64 </v>
   <v type="int" >       12       18       19       63       64 </v>
   <v type="int" >       30       10       10       19       19 </v>
   <v type="int" >       36       10       19       19       19 </v>
   <v type="int" >       12       19       19       19       64 </v>
   <v type="int" >        6       19       19       64       64 </v>
   <v type="int" >       18        1        1        2        2 </v>
   <v type="int" >       24        1        2        2        2 </v>
   <v type="int" >       12        2        2        2       11 </v>
   <v type="int" >       12       11       12       20       56 </v>
   <v type="int" >       12       12       20       56       57 </v>
   <v type="int" >       12       20       56       57       65 </v>
   <v type="int" >       12       12       13       21       57 </v>
   <v type="int" >       12       12       20       21       57 </v>
   <v type="int" >       12       20       21       57       65 </v>
   <v type="int" >       12       13       21       57       58 </v>
   <v type="int" >       12       21       57       58       66 </v>
   <v type="int" >       12       21       57       65       66 </v>
   <v type="int" >       12       13       14       22       58 </v>
   <v type="int" >       12       13       21       22       58 </v>
   <v type="int" >       12       21       22       58       66 </v>
   <v type="int" >       12       14       22       58       59 </v>
   <v type="int" >       12       22       58       59       67 </v>
   <v type="int" >       12       22       58       66       67 </v>
   <v type="int" >       12       14       15       23       59 </v>
   <v type="int" >       12       14       22       23       59 </v>
   <v type="int" >       12       22       23       59       67 </v>
   <v type="int" >       12       15       23       59       60 </v>
   <v type="int" >       12       23       59       60       68 </v>
   <v type="int" >       12       23       59       67       68 </v>
   <v type="int" >       12       15       16       24       60 </v>
   <v type="int" >       12       15       23       24       60 </v>
   <v type="int" >       12       23       24       60       68 </v>
   <v type="int" >       12       16       24       60       61 </v>
   <v type="int" >       12       24       60       61       69 </v>
   <v type="int" >       12       24       60       68       69 </v>
   <v type="int" >       12       16       17       25       61 </v>
   <v type="int" >       12       16       24       25       61 </v>
   <v type="int" >       12       24       25       61       69 </v>
   <v type="int" >       12       17       25       61       62 </v>
   <v type="int" >       12       25       61       62       70 </v>
   <v type="int" >       12       25       61       69       70 </v>
   <v type="int" >       12       17       18       26       62 </v>
   <v type="int" >       12       17       25       26       62 </v>
   <v type="int" >       12       25       26       62       70 </v>
   <v type="int" >       12       18       26       62       63 </v>
   <v type="int" >       12       26       62       63       71 </v>
   <v type="int" >       12       26       62       70       71 </v>
   <v type="int" >       12       18       19       27       63 </v>
   <v type="int" >       12       18       26       27       63 </v>
   <v type="int" >       12       26       27       63       71 </v>
   <v type="int" >       12       19       27       63       64 </v>
   <v type="int" >       12       27       63       64       72 </v>
   <v type="int" >       12       27       63       71       72 </v>
   <v type="int" >       12       19       19       27       64 </v>
   <v type="int" >       12       19       27       27       64 </v>
   <v type="int" >       12       27       27       64       72 </v>
   <v type="int" >       12       19       27       64       64 </v>
   <v type="int" >       12       27       64       64       72 </v>
   <v type="int" >       12       27       64       72       72 </v>
   <v type="int" >       12       18       19       26       64 </v>
   <v type="int" >       12       19       26       27       64 </v>
   <v type="int" >       12       26       27       64       72 </v>
   <v type="int" >       12       18       26       63       64 </v>
   <v type="int" >       12       26       63       64       71 </v>
   <v type="int" >       12       26       64       71       72 </v>
   <v type="int" >       12       17       18       25       63 </v>
   <v type="int" >       12       18       25       26       63 </v>
   <v type="int" >       12       25       26       63       71 </v>
   <v type="int" >       12       17       25       62       63 </v>
   <v type="int" >       12       25       62       63       70 </v>
   <v type="int" >       12       25       63       70       71 </v>
   <v type="int" >       12       16       17       24       62 </v>
   <v type="int" >       12       17       24       25       62 </v>
   <v type="int" >       12       24       25       62       70 </v>
   <v type="int" >       12       16       24       61       62 </v>
   <v type="int" >       12       24       61       62       69 </v>
   <v type="int" >       12       24       62       69       70 </v>
   <v type="int" >       12       15       16       23       61 </v>
   <v type="int" >       12       16       23       24       61 </v>
   <v type="int" >       12       23       24       61       69 </v>
   <v type="int" >       12       15       23       60       61 </v>
   <v type="int" >       12       23       60       61       68 </v>
   <v type="int" >       12       23       61       68       69 </v>
   <v type="int" >       12       14       15       22       60 </v>
   <v type="int" >       12       15       22       23       60 </v>
   <v type="int" >       12       22       23       60       68 </v>
   <v type="int" >       12       14       22       59       60 </v>
   <v type="int" >       12       22       59       60       67 </v>
   <v type="int" >       12       22       60       67       68 </v>
   <v type="int" >       12       13       14       21       59 </v>
   <v type="int" >       12       14       21       22       59 </v>
   <v type="int" >       12       21       22       59       67 </v>
   <v type="int" >       12       13       21       58       59 </v>
   <v type="int" >       12       21       58       59       66 </v>
   <v type="int" >       12       21       59       66       67 </v>
   <v type="int" >       12       12       13       20       58 </v>
   <v type="int" >       12       13       20       21       58 </v>
   <v type="int" >       12       20       21       58       66 </v>
   <v type="int" >       12       12       20       57       58 </v>
   <v type="int" >       12       20       57       58       65 </v>
   <v type="int" >       12       20       58       65       66 </v>
   <v type="int" >       12       12       12       20       57 </v>
   <v type="int" >       12       12       20       57       65 </v>
   <v type="int" >       12       12       56       57       57 </v>
   <v type="int" >       12       12       57       57       65 </v>
   <v type="int" >       12        2        3       11       56 </v>
   <v type="int" >       12        3       11       12       56 </v>
   <v type="int" >       12        3       12       56       57 </v>
   <v type="int" >       12        2        2        3       11 </v>
   <v type="int" >       12        2        3        3       11 </v>
   <v type="int" >       12        3        3       11       12 </v>
   <v type="int" >       12        2        3       11       11 </v>
   <v type="int" >       12        3       11       11       12 </v>
   <v type="int" >       12       20       21       28       65 </v>
   <v type="int" >       12       21       28       65       66 </v>
   <v type="int" >       12       28       65       66       73 </v>
   <v type="int" >       12       21       22       29       66 </v>
   <v type="int" >       12       21       28       29       66 </v>
   <v type="int" >       12       28       29       66       73 </v>
   <v type="int" >       12       22       29       66       67 </v>
   <v type="int" >       12       29       66       67       74 </v>
   <v type="int" >       12       29       66       73       74 </v>
   <v type="int" >       12       22       23       30       67 </v>
   <v type="int" >       12       22       29       30       67 </v>
   <v type="int" >       12       29       30       67       74 </v>
   <v type="int" >       12       23       30       67       68 </v>
   <v type="int" >       12       30       67       68       75 </v>
   <v type="int" >       12       30       67       74       75 </v>
   <v type="int" >       12       23       24       31       68 </v>
   <v type="int" >       12       23       30       31       68 </v>
   <v type="int" >       12       30       31       68       75 </v>
   <v type="int" >       12       24       31       68       69 </v>
   <v type="int" >       12       31       68       69       76 </v>
   <v type="int" >       12       31       68       75       76 </v>
   <v type="int" >       12       24       25       32       69 </v>
   <v type="int" >       12       24       31       32       69 </v>
   <v type="int" >       12       31       32       69       76 </v>
   <v type="int" >       12       25       32       69       70 </v>
   <v type="int" >       12       32       69       70       77 </v>
   <v type="int" >       12       32       69       76       77 </v>
   <v type="int" >       12       25       26       33       70 </v>
   <v type="int" >       12       25       32       33       70 </v>
   <v type="int" >       12       32       33       70       77 </v>
   <v type="int" >       12       26       33       70       71 </v>
   <v type="int" >       12       33       70       71       78 </v>
   <v type="int" >       12       33       70       77       78 </v>
   <v type="int" >       12       26       27       34       71 </v>
   <v type="int" >       12       26       33       34       71 </v>
   <v type="int" >       12       33       34       71       78 </v>
   <v type="int" >       12       27       34       71       72 </v>
   <v type="int" >       12       34       71       72       79 </v>
   <v type="int" >       12       34       71       78       79 </v>
   <v type="int" >       12       27       27       34       72 </v>
   <v type="int" >       12       27       34       34       72 </v>
   <v type="int" >       12       34       34       72       79 </v>
   <v type="int" >       12       27       34       72       72 </v>
   <v type="int" >       12       34       72       72       79 </v>
   <v type="int" >       12       34       72       79       79 </v>
   <v type="int" >       12       26       27       33       72 </v>
   <v type="int" >       12       27       33       34       72 </v>
   <v type="int" >       12       33       34       72       79 </v>
   <v type="int" >       12       26       33       71       72 </v>
   <v type="int" >       12       33       71       72       78 </v>
   <v type="int" >       12       33       72       78       79 </v>
   <v type="int" >       12       25       26       32       71 </v>
   <v type="int" >       12       26       32       33       71 </v>
   <v type="int" >       12       32       33       71       78 </v>
   <v type="int" >       12       25       32       70       71 </v>
   <v type="int" >       12       32       70       71       77 </v>
   <v type="int" >       12       32       71       77       78 </v>
   <v type="int" >       12       24       25       31       70 </v>
   <v type="int" >       12       25       31       32       70 </v>
   <v type="int" >       12       31       32       70       77 </v>
   <v type="int" >       12       24       31       69       70 </v>
   <v type="int" >       12       31       69       70       76 </v>
   <v type="int" >       12       31       70       76       77 </v>
   <v type="int" >       12       23       24       30       69 </v>
   <v type="int" >       12       24       30       31       69 </v>
   <v type="int" >       12       30       31       69       76 </v>
   <v type="int" >       12       23       30       68       69 </v>
   <v type="int" >       12       30       68       69       75 </v>
   <v type="int" >       12       30       69       75       76 </v>
   <v type="int" >       12       22       23       29       68 </v>
   <v type="int" >       12       23       29       30       68 </v>
   <v type="int" >       12       29       30       68       75 </v>
   <v type="int" >       12       22       29       67       68 </v>
   <v type="int" >       12       29       67       68       74 </v>
   <v type="int" >       12       29       68       74       75 </v>
   <v type="int" >       12       21       22       28       67 </v>
   <v type="int" >       12       22       28       29       67 </v>
   <v type="int" >       12       28       29       67       74 </v>
   <v type="int" >       12       21       28       66       67 </v>
   <v type="int" >       12       28       66       67       73 </v>
   <v type="int" >       12       28       67       73       74 </v>
   <v type="int" >       12       20       21       21       66 </v>
   <v type="int" >       12       21       21       28       66 </v>
   <v type="int" >       12       21       28       66       73 </v>
   <v type="int" >       12       20       21       65       66 </v>
   <v type="int" >       12       21       65       66       66 </v>
   <v type="int" >       12       21       66       66       73 </v>
   <v type="int" >       12       12       13       20       65 </v>
   <v type="int" >       12       13       20       21       65 </v>
   <v type="int" >       12       13       21       65       66 </v>
   <v type="int" >       12       12       13       57       65 </v>
   <v type="int" >       12       13       57       58       65 </v>
   <v type="int" >       12       13       58       65       66 </v>
   <v type="int" >       12        3        4       12       57 </v>
   <v type="int" >       12        4       12       13       57 </v>
   <v type="int" >       12        4       13       57       58 </v>
   <v type="int" >       12        3        3        4       12 </v>
   <v type="int" >       12        3        4        4       12 </v>
   <v type="int" >       12        4        4       12       13 </v>
   <v type="int" >       12        3        4       12       12 </v>
   <v type="int" >       12        4       12       12       13 </v>
   <v type="int" >       12       28       29       35       73 </v>
   <v type="int" >       12       29       35       73       74 </v>
   <v type="int" >       12       35       73       74       80 </v>
   <v type="int" >       12       29       30       36       74 </v>
   <v type="int" >       12       29       35       36       74 </v>
   <v type="int" >       12       35       36       74       80 </v>
   <v type="int" >       12       30       36       74       75 </v>
   <v type="int" >       12       36       74       75       81 </v>
   <v type="int" >       12       36       74       80       81 </v>
   <v type="int" >       12       30       31       37       75 </v>
   <v type="int" >       12       30       36       37       75 </v>
   <v type="int" >       12       36       37       75       81 </v>
   <v type="int" >       12       31       37       75       76 </v>
   <v type="int" >       12       37       75       76       82 </v>
   <v type="int" >       12       37       75       81       82 </v>
   <v type="int" >       12       31       32       38       76 </v>
   <v type="int" >       12       31       37       38       76 </v>
   <v type="int" >       12       37       38       76       82 </v>
   <v type="int" >       12       32       38       76       77 </v>
   <v type="int" >       12       38       76       77       83 </v>
   <v type="int" >       12       38       76       82       83 </v>
   <v type="int" >       12       32       33       39       77 </v>
   <v type="int" >       12       32       38       39       77 </v>
   <v type="int" >       12       38       39       77       83 </v>
   <v type="int" >       12       33       39       77       78 </v>
   <v type="int" >       12       39       77       78       84 </v>
   <v type="int" >       12       39       77       83       84 </v>
   <v type="int" >       12       33       34       40       78 </v>
   <v type="int" >       12       33       39       40       78 </v>
   <v type="int" >       12       39       40       78       84 </v>
   <v type="int" >       12       34       40       78       79 </v>
   <v type="int" >       12       40       78       79       85 </v>
   <v type="int" >       12       40       78       84       85 </v>
   <v type="int" >       12       34       34       40       79 </v>
   <v type="int" >       12       34       40       40       79 </v>
   <v type="int" >       12       40       40       79       85 </v>
   <v type="int" >       12       34       40       79       79 </v>
   <v type="int" >       12       40       79       79       85 </v>
   <v type="int" >       12       40       79       85       85 </v>
   <v type="int" >       12       33       34       39       79 </v>
   <v type="int" >       12       34       39       40       79 </v>
   <v type="int" >       12       39       40       79       85 </v>
   <v type="int" >       12       33       39       78       79 </v>
   <v type="int" >       12       39       78       79       84 </v>
   <v type="int" >       12       39       79       84       85 </v>
   <v type="int" >       12       32       33       38       78 </v>
   <v type="int" >       12       33       38       39       78 </v>
   <v type="int" >       12       38       39       78       84 </v>
   <v type="int" >       12       32       38       77       78 </v>
   <v type="int" >       12       38       77       78       83 </v>
   <v type="int" >       12       38       78       83       84 </v>
   <v type="int" >       12       31       32       37       77 </v>
   <v type="int" >       12       32       37       38       77 </v>
   <v type="int" >       12       37       38       77       83 </v>
   <v type="int" >       12       31       37       76       77 </v>
   <v type="int" >       12       37       76       77       82 </v>
   <v type="int" >       12       37       77       82       83 </v>
   <v type="int" >       12       30       31       36       76 </v>
   <v type="int" >       12       31       36       37       76 </v>
   <v type="int" >       12       36       37       76       82 </v>
   <v type="int" >       12       30       36       75       76 </v>
   <v type="int" >       12       36       75       76       81 </v>
   <v type="int" >       12       36       76       81       82 </v>
   <v type="int" >       12       29       30       35       75 </v>
   <v type="int" >       12       30       35       36       75 </v>
   <v type="int" >       12       35       36       75       81 </v>
   <v type="int" >       12       29       35       74       75 </v>
   <v type="int" >       12       35       74       75       80 </v>
   <v type="int" >       12       35       75       80       81 </v>
   <v type="int" >       12       28       29       29       74 </v>
   <v type="int" >       12       29       29       35       74 </v>
   <v type="int" >       12       29       35       74       80 </v>
   <v type="int" >       12       28       29       73       74 </v>
   <v type="int" >       12       29       73       74       74 </v>
   <v type="int" >       12       29       74       74       80 </v>
   <v type="int" >       12       21       22       28       73 </v>
   <v type="int" >       12       22       28       29       73 </v>
   <v type="int" >       12       22       29       73       74 </v>
   <v type="int" >       12       21       22       66       73 </v>
   <v type="int" >       12       22       66       67       73 </v>
   <v type="int" >       12       22       67       73       74 </v>
   <v type="int" >       12       13       14       21       66 </v>
   <v type="int" >       12       14       21       22       66 </v>
   <v type="int" >       12       14       22       66       67 </v>
   <v type="int" >       12       13       14       58       66 </v>
   <v type="int" >       12       14       58       59       66 </v>
   <v type="int" >       12       14       59       66       67 </v>
   <v type="int" >       12        4        5       13       58 </v>
   <v type="int" >       12        5       13       14       58 </v>
   <v type="int" >       12        5       14       58       59 </v>
   <v type="int" >       12        4        4        5       13 </v>
   <v type="int" >       12        4        5        5       13 </v>
   <v type="int" >       12        5        5       13       14 </v>
   <v type="int" >       12        4        5       13       13 </v>
   <v type="int" >       12        5       13       13       14 </v>
   <v type="int" >       12       35       36       41       80 </v>
   <v type="int" >       12       36       41       80       81 </v>
   <v type="int" >       12       41       80       81       86 </v>
   <v type="int" >       12       36       37       42       81 </v>
   <v type="int" >       12       36       41       42       81 </v>
   <v type="int" >       12       41       42       81       86 </v>
   <v type="int" >       12       37       42       81       82 </v>
   <v type="int" >       12       42       81       82       87 </v>
   <v type="int" >       12       42       81       86       87 </v>
   <v type="int" >       12       37       38       43       82 </v>
   <v type="int" >       12       37       42       43       82 </v>
   <v type="int" >       12       42       43       82       87 </v>
   <v type="int" >       12       38       43       82       83 </v>
   <v type="int" >       12       43       82       83       88 </v>
   <v type="int" >       12       43       82       87       88 </v>
   <v type="int" >       12       38       39       44       83 </v>
   <v type="int" >       12       38       43       44       83 </v>
   <v type="int" >       12       43       44       83       88 </v>
   <v type="int" >       12       39       44       83       84 </v>
   <v type="int" >       12       44       83       84       89 </v>
   <v type="int" >       12       44       83       88       89 </v>
   <v type="int" >       12       39       40       45       84 </v>
   <v type="int" >       12       39       44       45       84 </v>
   <v type="int" >       12       44       45       84       89 </v>
   <v type="int" >       12       40       45       84       85 </v>
   <v type="int" >       12       45       84       85       90 </v>
   <v type="int" >       12       45       84       89       90 </v>
   <v type="int" >       12       40       40       45       85 </v>
   <v type="int" >       12       40       45       45       85 </v>
   <v type="int" >       12       45       45       85       90 </v>
   <v type="int" >       12       40       45       85       85 </v>
   <v type="int" >       12       45       85       85       90 </v>
   <v type="int" >       12       45       85       90       90 </v>
   <v type="int" >       12       39       40       44       85 </v>
   <v type="int" >       12       40       44       45       85 </v>
   <v type="int" >       12       44       45       85       90 </v>
   <v type="int" >       12       39       44       84       85 </v>
   <v type="int" >       12       44       84       85       89 </v>
   <v type="int" >       12       44       85       89       90 </v>
   <v type="int" >       12       38       39       43       84 </v>
   <v type="int" >       12       39       43       44       84 </v>
   <v type="int" >       12       43       44       84       89 </v>
   <v type="int" >       12       38       43       83       84 </v>
   <v type="int" >       12       43       83       84       88 </v>
   <v type="int" >       12       43       84       88       89 </v>
   <v type="int" >       12       37       38       42       83 </v>
   <v type="int" >       12       38       42       43       83 </v>
   <v type="int" >       12       42       43       83       88 </v>
   <v type="int" >       12       37       42       82       83 </v>
   <v type="int" >       12       42       82       83       87 </v>
   <v type="int" >       12       42       83       87       88 </v>
   <v type="int" >       12       36       37       41       82 </v>
   <v type="int" >       12       37       41       42       82 </v>
   <v type="int" >       12       41       42       82       87 </v>
   <v type="int" >       12       36       41       81       82 </v>
   <v type="int" >       12       41       81       82       86 </v>
   <v type="int" >       12       41       82       86       87 </v>
   <v type="int" >       12       35       36       36       81 </v>
   <v type="int" >       12       36       36       41       81 </v>
   <v type="int" >       12       36       41       81       86 </v>
   <v type="int" >       12       35       36       80       81 </v>
   <v type="int" >       12       36       80       81       81 </v>
   <v type="int" >       12       36       81       81       86 </v>
   <v type="int" >       12       29       30       35       80 </v>
   <v type="int" >       12       30       35       36       80 </v>
   <v type="int" >       12       30       36       80       81 </v>
   <v type="int" >       12       29       30       74       80 </v>
   <v type="int" >       12       30       74       75       80 </v>
   <v type="int" >       12       30       75       80       81 </v>
   <v type="int" >       12       22       23       29       74 </v>
   <v type="int" >       12       23       29       30       74 </v>
   <v type="int" >       12       23       30       74       75 </v>
   <v type="int" >       12       22       23       67       74 </v>
   <v type="int" >       12       23       67       68       74 </v>
   <v type="int" >       12       23       68       74       75 </v>
   <v type="int" >       12       14       15       22       67 </v>
   <v type="int" >       12       15       22       23       67 </v>
   <v type="int" >       12       15       23       67       68 </v>
   <v type="int" >       12       14       15       59       67 </v>
   <v type="int" >       12       15       59       60       67 </v>
   <v type="int" >       12       15       60       67       68 </v>
   <v type="int" >       12        5        6       14       59 </v>
   <v type="int" >       12        6       14       15       59 </v>
   <v type="int" >       12        6       15       59       60 </v>
   <v type="int" >       12        5        5        6       14 </v>
   <v type="int" >       12        5        6        6       14 </v>
   <v type="int" >       12        6        6       14       15 </v>
   <v type="int" >       12        5        6       14       14 </v>
   <v type="int" >       12        6       14       14       15 </v>
   <v type="int" >       12       41       42       46       86 </v>
   <v type="int" >       12       42       46       86       87 </v>
   <v type="int" >       12       46       86       87       91 </v>
   <v type="int" >       12       42       43       47       87 </v>
   <v type="int" >       12       42       46       47       87 </v>
   <v type="int" >       12       46       47       87       91 </v>
   <v type="int" >       12       43       47       87       88 </v>
   <v type="int" >       12       47       87       88       92 </v>
   <v type="int" >       12       47       87       91       92 </v>
   <v type="int" >       12       43       44       48       88 </v>
   <v type="int" >       12       43       47       48       88 </v>
   <v type="int" >       12       47       48       88       92 </v>
   <v type="int" >       12       44       48       88       89 </v>
   <v type="int" >       12       48       88       89       93 </v>
   <v type="int" >       12       48       88       92       93 </v>
   <v type="int" >       12       44       45       49       89 </v>
   <v type="int" >       12       44       48       49       89 </v>
   <v type="int" >       12       48       49       89       93 </v>
   <v type="int" >       12       45       49       89       90 </v>
   <v type="int" >       12       49       89       90       94 </v>
   <v type="int" >       12       49       89       93       94 </v>
   <v type="int" >       12       45       45       49       90 </v>
   <v type="int" >       12       45       49       49       90 </v>
   <v type="int" >       12       49       49       90       94 </v>
   <v type="int" >       12       45       49       90       90 </v>
   <v type="int" >       12       49       90       90       94 </v>
   <v type="int" >       12       49       90       94       94 </v>
   <v type="int" >       12       44       45       48       90 </v>
   <v type="int" >       12       45       48       49       90 </v>
   <v type="int" >       12       48       49       90       94 </v>
   <v type="int" >       12       44       48       89       90 </v>
   <v type="int" >       12       48       89       90       93 </v>
   <v type="int" >       12       48       90       93       94 </v>
   <v type="int" >       12       43       44       47       89 </v>
   <v type="int" >       12       44       47       48       89 </v>
   <v type="int" >       12       47       48       89       93 </v>
   <v type="int" >       12       43       47       88       89 </v>
   <v type="int" >       12       47       88       89       92 </v>
   <v type="int" >       12       47       89       92       93 </v>
   <v type="int" >       12       42       43       46       88 </v>
   <v type="int" >       12       43       46       47       88 </v>
   <v type="int" >       12       46       47       88       92 </v>
   <v type="int" >       12       42       46       87       88 </v>
   <v type="int" >       12       46       87       88       91 </v>
   <v type="int" >       12       46       88       91       92 </v>
   <v type="int" >       12       41       42       42       87 </v>
   <v type="int" >       12       42       42       46       87 </v>
   <v type="int" >       12       42       46       87       91 </v>
   <v type="int" >       12       41       42       86       87 </v>
   <v type="int" >       12       42       86       87       87 </v>
   <v type="int" >       12       42       87       87       91 </v>
   <v type="int" >       12       36       37       41       86 </v>
   <v type="int" >       12       37       41       42       86 </v>
   <v type="int" >       12       37       42       86       87 </v>
   <v type="int" >       12       36       37       81       86 </v>
   <v type="int" >       12       37       81       82       86 </v>
   <v type="int" >       12       37       82       86       87 </v>
   <v type="int" >       12       30       31       36       81 </v>
   <v type="int" >       12       31       36       37       81 </v>
   <v type="int" >       12       31       37       81       82 </v>
   <v type="int" >       12       30       31       75       81 </v>
   <v type="int" >       12       31       75       76       81 </v>
   <v type="int" >       12       31       76       81       82 </v>
   <v type="int" >       12       23       24       30       75 </v>
   <v type="int" >       12       24       30       31       75 </v>
   <v type="int" >       12       24       31       75       76 </v>
   <v type="int" >       12       23       24       68       75 </v>
   <v type="int" >       12       24       68       69       75 </v>
   <v type="int" >       12       24       69       75       76 </v>
   <v type="int" >       12       15       16       23       68 </v>
   <v type="int" >       12       16       23       24       68 </v>
   <v type="int" >       12       16       24       68       69 </v>
   <v type="int" >       12       15       16       60       68 </v>
   <v type="int" >       12       16       60       61       68 </v>
   <v type="int" >       12       16       61       68       69 </v>
   <v type="int" >       12        6        7       15       60 </v>
   <v type="int" >       12        7       15       16       60 </v>
   <v type="int" >       12        7       16       60       61 </v>
   <v type="int" >       12        6        6        7       15 </v>
   <v type="int" >       12        6        7        7       15 </v>
   <v type="int" >       12        7        7       15       16 </v>
   <v type="int" >       12        6        7       15       15 </v>
   <v type="int" >       12        7       15       15       16 </v>
   <v type="int" >       12       46       47       50       91 </v>
   <v type="int" >       12       47       50       91       92 </v>
   <v type="int" >       12       50       91       92       95 </v>
   <v type="int" >       12       47       48       51       92 </v>
   <v type="int" >       12       47       50       51       92 </v>
   <v type="int" >       12       50       51       92       95 </v>
   <v type="int" >       12       48       51       92       93 </v>
   <v type="int" >       12       51       92       93       96 </v>
   <v type="int" >       12       51       92       95       96 </v>
   <v type="int" >       12       48       49       52       93 </v>
   <v type="int" >       12       48       51       52       93 </v>
   <v type="int" >       12       51       52       93       96 </v>
   <v type="int" >       12       49       52       93       94 </v>
   <v type="int" >       12       52       93       94       97 </v>
   <v type="int" >       12       52       93       96       97 </v>
   <v type="int" >       12       49       49       52       94 </v>
   <v type="int" >       12       49       52       52       94 </v>
   <v type="int" >       12       52       52       94       97 </v>
   <v type="int" >       12       49       52       94       94 </v>
   <v type="int" >       12       52       94       94       97 </v>
   <v type="int" >       12       52       94       97       97 </v>
   <v type="int" >       12       48       49       51       94 </v>
   <v type="int" >       12       49       51       52       94 </v>
   <v type="int" >       12       51       52       94       97 </v>
   <v type="int" >       12       48       51       93       94 </v>
   <v type="int" >       12       51       93       94       96 </v>
   <v type="int" >       12       51       94       96       97 </v>
   <v type="int" >       12       47       48       50       93 </v>
   <v type="int" >       12       48       50       51       93 </v>
   <v type="int" >       12       50       51       93       96 </v>
   <v type="int" >       12       47       50       92       93 </v>
   <v type="int" >       12       50       92       93       95 </v>
   <v type="int" >       12       50       93       95       96 </v>
   <v type="int" >       12       46       47       47       92 </v>
   <v type="int" >       12       47       47       50       92 </v>
   <v type="int" >       12       47       50       92       95 </v>
   <v type="int" >       12       46       47       91       92 </v>
   <v type="int" >       12       47       91       92       92 </v>
   <v type="int" >       12       47       92       92       95 </v>
   <v type="int" >       12       42       43       46       91 </v>
   <v type="int" >       12       43       46       47       91 </v>
   <v type="int" >       12       43       47       91       92 </v>
   <v type="int" >       12       42       43       87       91 </v>
   <v type="int" >       12       43       87       88       91 </v>
   <v type="int" >       12       43       88       91       92 </v>
   <v type="int" >       12       37       38       42       87 </v>
   <v type="int" >       12       38       42       43       87 </v>
   <v type="int" >       12       38       43       87       88 </v>
   <v type="int" >       12       37       38       82       87 </v>
   <v type="int" >       12       38       82       83       87 </v>
   <v type="int" >       12       38       83       87       88 </v>
   <v type="int" >       12       31       32       37       82 </v>
   <v type="int" >       12       32       37       38       82 </v>
   <v type="int" >       12       32       38       82       83 </v>
   <v type="int" >       12       31       32       76       82 </v>
   <v type="int" >       12       32       76       77       82 </v>
   <v type="int" >       12       32       77       82       83 </v>
   <v type="int" >       12       24       25       31       76 </v>
   <v type="int" >       12       25       31       32       76 </v>
   <v type="int" >       12       25       32       76       77 </v>
   <v type="int" >       12       24       25       69       76 </v>
   <v type="int" >       12       25       69       70       76 </v>
   <v type="int" >       12       25       70       76       77 </v>
   <v type="int" >       12       16       17       24       69 </v>
   <v type="int" >       12       17       24       25       69 </v>
   <v type="int" >       12       17       25       69       70 </v>
   <v type="int" >       12       16       17       61       69 </v>
   <v type="int" >       12       17       61       62       69 </v>
   <v type="int" >       12       17       62       69       70 </v>
   <v type="int" >       12        7        8       16       61 </v>
   <v type="int" >       12        8       16       17       61 </v>
   <v type="int" >       12        8       17       61       62 </v>
   <v type="int" >       12        7        7        8       16 </v>
   <v type="int" >       12        7        8        8       16 </v>
   <v type="int" >       12        8        8       16       17 </v>
   <v type="int" >       12        7        8       16       16 </v>
   <v type="int" >       12        8       16       16       17 </v>
   <v type="int" >       12       50       51       53       95 </v>
   <v type="int" >       12       51       53       95       96 </v>
   <v type="int" >       12       53       95       96       98 </v>
   <v type="int" >       12       51       52       54       96 </v>
   <v type="int" >       12       51       53       54       96 </v>
   <v type="int" >       12       53       54       96       98 </v>
   <v type="int" >       12       52       54       96       97 </v>
   <v type="int" >       12       54       96       97       99 </v>
   <v type="int" >       12       54       96       98       99 </v>
   <v type="int" >       12       52       52       54       97 </v>
   <v type="int" >       12       52       54       54       97 </v>
   <v type="int" >       12       54       54       97       99 </v>
   <v type="int" >       12       52       54       97       97 </v>
   <v type="int" >       12       54       97       97       99 </v>
   <v type="int" >       12       54       97       99       99 </v>
   <v type="int" >       12       51       52       53       97 </v>
   <v type="int" >       12       52       53       54       97 </v>
   <v type="int" >       12       53       54       97       99 </v>
   <v type="int" >       12       51       53       96       97 </v>
   <v type="int" >       12       53       96       97       98 </v>
   <v type="int" >       12       53       97       98       99 </v>
   <v type="int" >       12       50       51       51       96 </v>
   <v type="int" >       12       51       51       53       96 </v>
   <v type="int" >       12       51       53       96       98 </v>
   <v type="int" >       12       50       51       95       96 </v>
   <v type="int" >       12       51       95       96       96 </v>
   <v type="int" >       12       51       96       96       98 </v>
   <v type="int" >       12       47       48       50       95 </v>
   <v type="int" >       12       48       50       51       95 </v>
   <v type="int" >       12       48       51       95       96 </v>
   <v type="int" >       12       47       48       92       95 </v>
   <v type="int" >       12       48       92       93       95 </v>
   <v type="int" >       12       48       93       95       96 </v>
   <v type="int" >       12       43       44       47       92 </v>
   <v type="int" >       12       44       47       48       92 </v>
   <v type="int" >       12       44       48       92       93 </v>
   <v type="int" >       12       43       44       88       92 </v>
   <v type="int" >       12       44       88       89       92 </v>
   <v type="int" >       12       44       89       92       93 </v>
   <v type="int" >       12       38       39       43       88 </v>
   <v type="int" >       12       39       43       44       88 </v>
   <v type="int" >       12       39       44       88       89 </v>
   <v type="int" >       12       38       39       83       88 </v>
   <v type="int" >       12       39       83       84       88 </v>
   <v type="int" >       12       39       84       88       89 </v>
   <v type="int" >       12       32       33       38       83 </v>
   <v type="int" >       12       33       38       39       83 </v>
   <v type="int" >       12       33       39       83       84 </v>
   <v type="int" >       12       32       33       77       83 </v>
   <v type="int" >       12       33       77       78       83 </v>
   <v type="int" >       12       33       78       83       84 </v>
   <v type="int" >       12       25       26       32       77 </v>
   <v type="int" >       12       26       32       33       77 </v>
   <v type="int" >       12       26       33       77       78 </v>
   <v type="int" >       12       25       26       70       77 </v>
   <v type="int" >       12       26       70       71       77 </v>
   <v type="int" >       12       26       71       77       78 </v>
   <v type="int" >       12       17       18       25       70 </v>
   <v type="int" >       12       18       25       26       70 </v>
   <v type="int" >       12       18       26       70       71 </v>
   <v type="int" >       12       17       18       62       70 </v>
   <v type="int" >       12       18       62       63       70 </v>
   <v type="int" >       12       18       63       70       71 </v>
   <v type="int" >       12        8        9       17       62 </v>
   <v type="int" >       12        9       17       18       62 </v>
   <v type="int" >       12        9       18       62       63 </v>
   <v type="int" >       12        8        8        9       17 </v>
   <v type="int" >       12        8        9        9       17 </v>
   <v type="int" >       12        9        9       17       18 </v>
   <v type="int" >       12        8        9       17       17 </v>
   <v type="int" >       12        9       17       17       18 </v>
   <v type="int" >       12       53       54       55       98 </v>
   <v type="int" >       12       54       55       98       99 </v>
   <v type="int" >       12       55       98       99      100 </v>
   <v type="int" >       24       54       54       55       99 </v>
   <v type="int" >       12       54       55       55       99 </v>
   <v type="int" >       12       55       55       99      100 </v>
   <v type="int" >       12       54       55       99       99 </v>
   <v type="int" >       12       55       99       99      100 </v>
   <v type="int" >       12       55       99      100      100 </v>
   <v type="int" >       12       53       54       54       99 </v>
   <v type="int" >       12       54       55       99      100 </v>
   <v type="int" >       12       53       54       98       99 </v>
   <v type="int" >       12       54       98       99       99 </v>
   <v type="int" >       24       54       99       99      100 </v>
   <v type="int" >       12       51       52       53       98 </v>
   <v type="int" >       12       52       53       54       98 </v>
   <v type="int" >       12       52       54       98       99 </v>
   <v type="int" >       12       51       52       96       98 </v>
   <v type="int" >       12       52       96       97       98 </v>
   <v type="int" >       12       52       97       98       99 </v>
   <v type="int" >       12       48       49       51       96 </v>
   <v type="int" >       12       49       51       52       96 </v>
   <v type="int" >       12       49       52       96       97 </v>
   <v type="int" >       12       48       49       93       96 </v>
   <v type="int" >       12       49       93       94       96 </v>
   <v type="int" >       12       49       94       96       97 </v>
   <v type="int" >       12       44       45       48       93 </v>
   <v type="int" >       12       45       48       49       93 </v>
   <v type="int" >       12       45       49       93       94 </v>
   <v type="int" >       12       44       45       89       93 </v>
   <v type="int" >       12       45       89       90       93 </v>
   <v type="int" >       12       45       90       93       94 </v>
   <v type="int" >       12       39       40       44       89 </v>
   <v type="int" >       12       40       44       45       89 </v>
   <v type="int" >       12       40       45       89       90 </v>
   <v type="int" >       12       39       40       84       89 </v>
   <v type="int" >       12       40       84       85       89 </v>
   <v type="int" >       12       40       85       89       90 </v>
   <v type="int" >       12       33       34       39       84 </v>
   <v type="int" >       12       34       39       40       84 </v>
   <v type="int" >       12       34       40       84       85 </v>
   <v type="int" >       12       33       34       78       84 </v>
   <v type="int" >       12       34       78       79       84 </v>
   <v type="int" >       12       34       79       84       85 </v>
   <v type="int" >       12       26       27       33       78 </v>
   <v type="int" >       12       27       33       34       78 </v>
   <v type="int" >       12       27       34       78       79 </v>
   <v type="int" >       12       26       27       71       78 </v>
   <v type="int" >       12       27       71       72       78 </v>
   <v type="int" >       12       27       72       78       79 </v>
   <v type="int" >       12       18       19       26       71 </v>
   <v type="int" >       12       19       26       27       71 </v>
   <v type="int" >       12       19       27       71       72 </v>
   <v type="int" >       12       18       19       63       71 </v>
   <v type="int" >       12       19       63       64       71 </v>
   <v type="int" >       12       19       64       71       72 </v>
   <v type="int" >       12        9       10       18       63 </v>
   <v type="int" >       12       10       18       19       63 </v>
   <v type="int" >       12       10       19       63       64 </v>
   <v type="int" >       12        9        9       10       18 </v>
   <v type="int" >       12        9       10       10       18 </v>
   <v type="int" >       12       10       10       18       19 </v>
   <v type="int" >       12        9       10       18       18 </v>
   <v type="int" >       12       10       18       18       19 </v>
   <v type="int" >       12       55       55       55      100 </v>
   <v type="int" >       12       55       55      100      100 </v>
   <v type="int" >       12       55      100      100      100 </v>
   <v type="int" >       12       54       54       55      100 </v>
   <v type="int" >       12       54       55       55      100 </v>
   <v type="int" >       12       54       55      100      100 </v>
   <v type="int" >       12       54       54       99      100 </v>
   <v type="int" >       12       54       99      100      100 </v>
   <v type="int" >       12       52       52       54       99 </v>
   <v type="int" >       12       52       54       54       99 </v>
   <v type="int" >       12       52       54       99       99 </v>
   <v type="int" >       12       52       52       97       99 </v>
   <v type="int" >       12       52       97       97       99 </v>
   <v type="int" >       12       52       97       99       99 </v>
   <v type="int" >       12       49       49       52       97 </v>
   <v type="int" >       12       49       52       52       97 </v>
   <v type="int" >       12       49       52       97       97 </v>
   <v type="int" >       12       49       49       94       97 </v>
   <v type="int" >       12       49       94       94       97 </v>
   <v type="int" >       12       49       94       97       97 </v>
   <v type="int" >       12       45       45       49       94 </v>
   <v type="int" >       12       45       49       49       94 </v>
   <v type="int" >       12       45       49       94       94 </v>
   <v type="int" >       12       45       45       90       94 </v>
   <v type="int" >       12       45       90       90       94 </v>
   <v type="int" >       12       45       90       94       94 </v>
   <v type="int" >       12       40       40       45       90 </v>
   <v type="int" >       12       40       45       45       90 </v>
   <v type="int" >       12       40       45       90       90 </v>
   <v type="int" >       12       40       40       85       90 </v>
   <v type="int" >       12       40       85       85       90 </v>
   <v type="int" >       12       40       85       90       90 </v>
   <v type="int" >       12       34       34       40       85 </v>
   <v type="int" >       12       34       40       40       85 </v>
   <v type="int" >       12       34       40       85       85 </v>
   <v type="int" >       12       34       34       79       85 </v>
   <v type="int" >       12       34       79       79       85 </v>
   <v type="int" >       12       34       79       85       85 </v>
   <v type="int" >       12       27       27       34       79 </v>
   <v type="int" >       12       27       34       34       79 </v>
   <v type="int" >       12       27       34       79       79 </v>
   <v type="int" >       12       27       27       72       79 </v>
   <v type="int" >       12       27       72       72       79 </v>
   <v type="int" >       12       27       72       79       79 </v>
   <v type="int" >       12       19       19       27       72 </v>
   <v type="int" >       12       19       27       27       72 </v>
   <v type="int" >       12       19       27       72       72 </v>
   <v type="int" >       12       19       19       64       72 </v>
   <v type="int" >       12       19       64       64       72 </v>
   <v type="int" >       12       19       64       72       72 </v>
   <v type="int" >       12       10       10       19       64 </v>
   <v type="int" >       12       10       19       19       64 </v>
   <v type="int" >       12       10       19       64       64 </v>
   <v type="int" >       24       10       10       10       19 </v>
   <v type="int" >       12       53       54       55      100 </v>
   <v type="int" >       12       53       54       99      100 </v>
   <v type="int" >       12       53       98       99      100 </v>
   <v type="int" >       12       51       52       54       99 </v>
   <v type="int" >       12       51       53       54       99 </v>
   <v type="int" >       12       51       53       98       99 </v>
   <v type="int" >       12       51       52       97       99 </v>
   <v type="int" >       12       51       96       97       99 </v>
   <v type="int" >       12       51       96       98       99 </v>
   <v type="int" >       12       48       49       52       97 </v>
   <v type="int" >       12       48       51       52       97 </v>
   <v type="int" >       12       48       51       96       97 </v>
   <v type="int" >       12       48       49       94       97 </v>
   <v type="int" >       12       48       93       94       97 </v>
   <v type="int" >       12       48       93       96       97 </v>
   <v type="int" >       12       44       45       49       94 </v>
   <v type="int" >       12       44       48       49       94 </v>
   <v type="int" >       12       44       48       93       94 </v>
   <v type="int" >       12       44       45       90       94 </v>
   <v type="int" >       12       44       89       90       94 </v>
   <v type="int" >       12       44       89       93       94 </v>
   <v type="int" >       12       39       40       45       90 </v>
   <v type="int" >       12       39       44       45       90 </v>
   <v type="int" >       12       39       44       89       90 </v>
   <v type="int" >       12       39       40       85       90 </v>
   <v type="int" >       12       39       84       85       90 </v>
   <v type="int" >       12       39       84       89       90 </v>
   <v type="int" >       12       33       34       40       85 </v>
   <v type="int" >       12       33       39       40       85 </v>
   <v type="int" >       12       33       39       84       85 </v>
   <v type="int" >       12       33       34       79       85 </v>
   <v type="int" >       12       33       78       79       85 </v>
   <v type="int" >       12       33       78       84       85 </v>
   <v type="int" >       12       26       27       34       79 </v>
   <v type="int" >       12       26       33       34       79 </v>
   <v type="int" >       12       26       33       78       79 </v>
   <v type="int" >       12       26       27       72       79 </v>
   <v type="int" >       12       26       71       72       79 </v>
[...]
       <r>    8.8772    0.0000 </r>
       <r>    8.8785    0.0000 </r>
       <r>   14.7286    0.0000 </r>
       <r>   14.7719    0.0000 </r>
       <r>   15.6935    0.0000 </r>
       <r>   15.9228    0.0000 </r>
       <r>   16.9136    0.0000 </r>
       <r>   17.4894    0.0000 </r>
       <r>   18.1312    0.0000 </r>
       <r>   18.5317    0.0000 </r>
       <r>   28.3590    0.0000 </r>
       <r>   28.6947    0.0000 </r>
       <r>   29.7541    0.0000 </r>
       <r>   30.8398    0.0000 </r>
       <r>   32.0836    0.0000 </r>
       <r>   32.6718    0.0000 </r>
       <r>   32.7824    0.0000 </r>
       <r>   33.3896    0.0000 </r>
       <r>   34.4869    0.0000 </r>
       <r>   35.2314    0.0000 </r>
       <r>   35.6917    0.0000 </r>
       <r>   35.8017    0.0000 </r>
       <r>   42.0567    0.0000 </r>
       <r>   42.0618    0.0000 </r>
       <r>   45.2714    0.0000 </r>
       <r>   45.7149    0.0000 </r>
      </set>
      <set comment="kpoint 219">
       <r>  -25.5777    1.0000 </r>
       <r>  -25.5524    1.0000 </r>
       <r>  -25.4120    1.0000 </r>
       <r>  -25.3525    1.0000 </r>
       <r>  -25.2328    1.0000 </r>
       <r>  -25.2025    1.0000 </r>
       <r>    3.3024    1.0000 </r>
       <r>    3.4405    1.0000 </r>
       <r>    3.5466    1.0000 </r>
       <r>    3.7014    1.0000 </r>
       <r>    4.1441    1.0000 </r>
       <r>    4.1445    1.0000 </r>
       <r>    8.8590    0.0000 </r>
       <r>    8.8602    0.0000 </r>
       <r>    8.8994    0.0000 </r>
       <r>    8.8999    0.0000 </r>
       <r>   14.6443    0.0000 </r>
       <r>   14.6696    0.0000 </r>
       <r>   15.9505    0.0000 </r>
       <r>   16.0811    0.0000 </r>
       <r>   17.0560    0.0000 </r>
       <r>   17.4174    0.0000 </r>
       <r>   17.8163    0.0000 </r>
       <r>   18.0755    0.0000 </r>
       <r>   28.9210    0.0000 </r>
       <r>   29.1244    0.0000 </r>
       <r>   30.2133    0.0000 </r>
       <r>   31.0072    0.0000 </r>
       <r>   31.4570    0.0000 </r>
       <r>   32.0338    0.0000 </r>
       <r>   33.1102    0.0000 </r>
       <r>   33.7460    0.0000 </r>
       <r>   33.8670    0.0000 </r>
       <r>   34.5356    0.0000 </r>
       <r>   35.3322    0.0000 </r>
       <r>   35.3514    0.0000 </r>
       <r>   42.0551    0.0000 </r>
       <r>   42.0564    0.0000 </r>
       <r>   46.6028    0.0000 </r>
       <r>   46.6116    0.0000 </r>
      </set>
      <set comment="kpoint 220">
       <r>  -25.4990    1.0000 </r>
       <r>  -25.4465    1.0000 </r>
       <r>  -25.4465    1.0000 </r>
       <r>  -25.3391    1.0000 </r>
       <r>  -25.3391    1.0000 </r>
       <r>  -25.2855    1.0000 </r>
       <r>    3.4857    1.0000 </r>
       <r>    3.6259    1.0000 </r>
       <r>    3.6259    1.0000 </r>
       <r>    3.8605    1.0000 </r>
       <r>    3.8605    1.0000 </r>
       <r>    3.9491    1.0000 </r>
       <r>    8.9054    0.0000 </r>
       <r>    8.9054    0.0000 </r>
       <r>    8.9057    0.0000 </r>
       <r>    8.9057    0.0000 </r>
       <r>   14.5316    0.0000 </r>
       <r>   14.5421    0.0000 </r>
       <r>   16.4411    0.0000 </r>
       <r>   16.7356    0.0000 </r>
       <r>   16.7356    0.0000 </r>
       <r>   17.3258    0.0000 </r>
       <r>   17.3258    0.0000 </r>
       <r>   17.6330    0.0000 </r>
       <r>   29.6609    0.0000 </r>
       <r>   30.0946    0.0000 </r>
       <r>   30.0946    0.0000 </r>
       <r>   31.1154    0.0000 </r>
       <r>   31.1154    0.0000 </r>
       <r>   31.7032    0.0000 </r>
       <r>   33.1493    0.0000 </r>
       <r>   33.6447    0.0000 </r>
       <r>   33.6447    0.0000 </r>
       <r>   34.3802    0.0000 </r>
       <r>   34.3802    0.0000 </r>
       <r>   34.5971    0.0000 </r>
       <r>   42.0487    0.0000 </r>
       <r>   42.0490    0.0000 </r>
       <r>   47.4595    0.0000 </r>
       <r>   47.6122    0.0000 </r>
      </set>
     </set>
    </set>
   </array>
  </eigenvalues>
  <separator name="orbital magnetization" >
   <v name="MAGDIPOLOUT">      0.00000000      0.00000000      0.00000000</v>
  </separator>
  <dos>
   <i name="efermi">      4.83864257 </i>
   <total>
    <array>
     <dimension dim="1">gridpoints</dimension>
     <dimension dim="2">spin</dimension>
     <field>energy</field>
     <field>total</field>
     <field>integrated</field>
     <set>
      <set comment="spin 1">
       <r>   -29.7536     0.0000     0.0000 </r>
       <r>   -29.4834     0.0000     0.0000 </r>
       <r>   -29.2133     0.0000     0.0000 </r>
       <r>   -28.9431     0.0000     0.0000 </r>
       <r>   -28.6729     0.0000     0.0000 </r>
       <r>   -28.4028     0.0000     0.0000 </r>
       <r>   -28.1326     0.0000     0.0000 </r>
       <r>   -27.8624     0.0000     0.0000 </r>
       <r>   -27.5923     0.0000     0.0000 </r>
       <r>   -27.3221     0.0000     0.0000 </r>
       <r>   -27.0519     0.0000     0.0000 </r>
       <r>   -26.7818     0.0000     0.0000 </r>
       <r>   -26.5116     0.0000     0.0000 </r>
       <r>   -26.2414     0.0000     0.0000 </r>
       <r>   -25.9713     4.3426     0.2626 </r>
       <r>   -25.7011     7.0878     2.6913 </r>
       <r>   -25.4309     7.0097     4.2804 </r>
       <r>   -25.1608    10.3202     6.5970 </r>
       <r>   -24.8906    12.3448     9.2719 </r>
       <r>   -24.6204     0.0000    12.0000 </r>
       <r>   -24.3503     0.0000    12.0000 </r>
       <r>   -24.0801     0.0000    12.0000 </r>
       <r>   -23.8099     0.0000    12.0000 </r>
       <r>   -23.5398     0.0000    12.0000 </r>
       <r>   -23.2696     0.0000    12.0000 </r>
       <r>   -22.9994     0.0000    12.0000 </r>
       <r>   -22.7293     0.0000    12.0000 </r>
       <r>   -22.4591     0.0000    12.0000 </r>
       <r>   -22.1890     0.0000    12.0000 </r>
       <r>   -21.9188     0.0000    12.0000 </r>
       <r>   -21.6486     0.0000    12.0000 </r>
       <r>   -21.3785     0.0000    12.0000 </r>
       <r>   -21.1083     0.0000    12.0000 </r>
       <r>   -20.8381     0.0000    12.0000 </r>
       <r>   -20.5680     0.0000    12.0000 </r>
       <r>   -20.2978     0.0000    12.0000 </r>
       <r>   -20.0276     0.0000    12.0000 </r>
       <r>   -19.7575     0.0000    12.0000 </r>
       <r>   -19.4873     0.0000    12.0000 </r>
       <r>   -19.2171     0.0000    12.0000 </r>
       <r>   -18.9470     0.0000    12.0000 </r>
       <r>   -18.6768     0.0000    12.0000 </r>
       <r>   -18.4066     0.0000    12.0000 </r>
       <r>   -18.1365     0.0000    12.0000 </r>
       <r>   -17.8663     0.0000    12.0000 </r>
       <r>   -17.5961     0.0000    12.0000 </r>
       <r>   -17.3260     0.0000    12.0000 </r>
       <r>   -17.0558     0.0000    12.0000 </r>
       <r>   -16.7856     0.0000    12.0000 </r>
       <r>   -16.5155     0.0000    12.0000 </r>
       <r>   -16.2453     0.0000    12.0000 </r>
       <r>   -15.9751     0.0000    12.0000 </r>
       <r>   -15.7050     0.0000    12.0000 </r>
       <r>   -15.4348     0.0000    12.0000 </r>
       <r>   -15.1646     0.0000    12.0000 </r>
       <r>   -14.8945     0.0000    12.0000 </r>
       <r>   -14.6243     0.0000    12.0000 </r>
       <r>   -14.3541     0.0000    12.0000 </r>
       <r>   -14.0840     0.0000    12.0000 </r>
       <r>   -13.8138     0.0000    12.0000 </r>
       <r>   -13.5436     0.0000    12.0000 </r>
       <r>   -13.2735     0.0000    12.0000 </r>
       <r>   -13.0033     0.0000    12.0000 </r>
       <r>   -12.7331     0.0000    12.0000 </r>
       <r>   -12.4630     0.0000    12.0000 </r>
       <r>   -12.1928     0.0000    12.0000 </r>
       <r>   -11.9226     0.0000    12.0000 </r>
       <r>   -11.6525     0.0000    12.0000 </r>
       <r>   -11.3823     0.0000    12.0000 </r>
       <r>   -11.1121     0.0000    12.0000 </r>
       <r>   -10.8420     0.0000    12.0000 </r>
       <r>   -10.5718     0.0000    12.0000 </r>
       <r>   -10.3016     0.0000    12.0000 </r>
       <r>   -10.0315     0.0000    12.0000 </r>
       <r>    -9.7613     0.0000    12.0000 </r>
       <r>    -9.4911     0.0000    12.0000 </r>
       <r>    -9.2210     0.0000    12.0000 </r>
       <r>    -8.9508     0.0000    12.0000 </r>
       <r>    -8.6806     0.0000    12.0000 </r>
       <r>    -8.4105     0.0000    12.0000 </r>
       <r>    -8.1403     0.0000    12.0000 </r>
       <r>    -7.8701     0.0000    12.0000 </r>
       <r>    -7.6000     0.0000    12.0000 </r>
       <r>    -7.3298     0.0000    12.0000 </r>
       <r>    -7.0596     0.0000    12.0000 </r>
       <r>    -6.7895     0.0000    12.0000 </r>
       <r>    -6.5193     0.0000    12.0000 </r>
       <r>    -6.2491     0.0000    12.0000 </r>
       <r>    -5.9790     0.0000    12.0000 </r>
       <r>    -5.7088     0.0000    12.0000 </r>
       <r>    -5.4386     0.0000    12.0000 </r>
       <r>    -5.1685     0.0000    12.0000 </r>
       <r>    -4.8983     0.0000    12.0000 </r>
       <r>    -4.6282     0.0000    12.0000 </r>
       <r>    -4.3580     0.0000    12.0000 </r>
       <r>    -4.0878     0.0000    12.0000 </r>
       <r>    -3.8177     0.0000    12.0000 </r>
       <r>    -3.5475     0.0000    12.0000 </r>
       <r>    -3.2773     0.0000    12.0000 </r>
       <r>    -3.0072     0.0000    12.0000 </r>
       <r>    -2.7370     0.0000    12.0000 </r>
       <r>    -2.4668     0.0000    12.0000 </r>
       <r>    -2.1967     0.0000    12.0000 </r>
       <r>    -1.9265     0.0000    12.0000 </r>
       <r>    -1.6563     0.0000    12.0000 </r>
       <r>    -1.3862     0.0000    12.0000 </r>
       <r>    -1.1160     0.0000    12.0000 </r>
       <r>    -0.8458     0.0612    12.0090 </r>
       <r>    -0.5757     0.0998    12.0313 </r>
       <r>    -0.3055     0.1343    12.0632 </r>
       <r>    -0.0353     0.1709    12.1043 </r>
       <r>     0.2348     0.2090    12.1552 </r>
       <r>     0.5050     0.2573    12.2179 </r>
       <r>     0.7752     0.3223    12.2954 </r>
       <r>     1.0453     0.4256    12.3950 </r>
       <r>     1.3155     1.8338    12.6900 </r>
       <r>     1.5857     2.0550    13.2186 </r>
       <r>     1.8558     2.3243    13.8049 </r>
       <r>     2.1260     2.9812    14.5074 </r>
       <r>     2.3962     2.8368    15.2645 </r>
       <r>     2.6663     1.7609    15.9960 </r>
       <r>     2.9365     0.9840    16.3322 </r>
       <r>     3.2067     3.0690    16.7097 </r>
       <r>     3.4768     5.1336    17.8394 </r>
       <r>     3.7470     2.2778    18.8094 </r>
       <r>     4.0172     2.2683    19.4380 </r>
       <r>     4.2873     2.2318    20.0311 </r>
       <r>     4.5575     4.5788    20.8486 </r>
       <r>     4.8277     2.9924    21.9673 </r>
       <r>     5.0978     2.6787    22.6789 </r>
       <r>     5.3680     1.1124    23.0496 </r>
       <r>     5.6382     0.9914    23.3308 </r>
       <r>     5.9083     0.9632    23.5778 </r>
       <r>     6.1785     0.9933    23.8352 </r>
       <r>     6.4487     1.1175    24.1317 </r>
       <r>     6.7188     1.6160    24.4830 </r>
       <r>     6.9890     1.9108    24.9879 </r>
       <r>     7.2592     2.1223    25.5216 </r>
       <r>     7.5293     2.5487    26.1573 </r>
       <r>     7.7995     2.5661    26.8631 </r>
       <r>     8.0697     3.2871    27.6103 </r>
       <r>     8.3398     2.6001    28.3950 </r>
       <r>     8.6100     3.1721    29.1679 </r>
       <r>     8.8802     7.0478    30.5434 </r>
       <r>     9.1503     2.0736    31.4095 </r>
       <r>     9.4205     1.6472    31.9138 </r>
       <r>     9.6907     1.4818    32.3447 </r>
       <r>     9.9608     1.2186    32.7190 </r>
       <r>    10.2310     1.1904    33.0392 </r>
       <r>    10.5012     1.0077    33.3650 </r>
       <r>    10.7713     0.7506    33.5981 </r>
       <r>    11.0415     0.6726    33.7780 </r>
       <r>    11.3117     0.7291    33.9817 </r>
       <r>    11.5818     0.6631    34.1709 </r>
       <r>    11.8520     0.6384    34.3464 </r>
       <r>    12.1222     0.6176    34.5159 </r>
       <r>    12.3923     0.6001    34.6804 </r>
       <r>    12.6625     0.5800    34.8400 </r>
       <r>    12.9326     0.5634    34.9950 </r>
       <r>    13.2028     0.5427    35.1444 </r>
       <r>    13.4730     0.5192    35.2887 </r>
       <r>    13.7431     0.4996    35.4267 </r>
       <r>    14.0133     0.4757    35.5577 </r>
       <r>    14.2835     0.3819    35.6755 </r>
       <r>    14.5536     0.3882    35.7748 </r>
       <r>    14.8238     0.5294    35.9102 </r>
       <r>    15.0940     0.1931    35.9966 </r>
       <r>    15.3641     0.5303    36.0769 </r>
       <r>    15.6343     0.7607    36.2658 </r>
       <r>    15.9045     1.0123    36.5093 </r>
       <r>    16.1746     0.9902    36.7796 </r>
       <r>    16.4448     1.0712    37.0573 </r>
       <r>    16.7150     1.2133    37.3631 </r>
       <r>    16.9851     1.1712    37.7021 </r>
       <r>    17.2553     1.0788    38.0032 </r>
       <r>    17.5255     1.2019    38.3079 </r>
       <r>    17.7956     1.3901    38.6605 </r>
       <r>    18.0658     1.7012    39.0678 </r>
       <r>    18.3360     2.1891    39.5608 </r>
       <r>    18.6061     1.6455    40.0214 </r>
       <r>    18.8763     1.5828    40.4566 </r>
       <r>    19.1465     1.5136    40.8744 </r>
       <r>    19.4166     1.5043    41.2791 </r>
       <r>    19.6868     1.3744    41.6673 </r>
       <r>    19.9570     1.3487    42.0324 </r>
       <r>    20.2271     1.1821    42.3735 </r>
       <r>    20.4973     1.1898    42.6893 </r>
       <r>    20.7675     1.3502    43.0340 </r>
       <r>    21.0376     1.5394    43.4325 </r>
       <r>    21.3078     1.5516    43.8493 </r>
       <r>    21.5780     1.7275    44.2751 </r>
       <r>    21.8481     2.0321    44.7734 </r>
       <r>    22.1183     1.5475    45.2879 </r>
       <r>    22.3885     1.4220    45.6866 </r>
       <r>    22.6586     1.3101    46.0604 </r>
       <r>    22.9288     1.2860    46.4119 </r>
       <r>    23.1990     0.8075    46.7072 </r>
       <r>    23.4691     0.7132    46.9114 </r>
       <r>    23.7393     0.8859    47.1471 </r>
       <r>    24.0095     1.2728    47.4046 </r>
       <r>    24.2796     1.3395    47.7352 </r>
       <r>    24.5498     1.3507    48.0893 </r>
       <r>    24.8200     1.6479    48.4737 </r>
       <r>    25.0901     1.9466    49.0315 </r>
       <r>    25.3603     1.4214    49.4715 </r>
       <r>    25.6305     1.2681    49.8285 </r>
       <r>    25.9006     1.1725    50.1749 </r>
       <r>    26.1708     1.1483    50.4865 </r>
       <r>    26.4410     1.0991    50.7876 </r>
       <r>    26.7111     1.0793    51.0819 </r>
       <r>    26.9813     0.9692    51.3698 </r>
       <r>    27.2515     0.8543    51.6088 </r>
       <r>    27.5216     1.0210    51.8584 </r>
       <r>    27.7918     1.3618    52.1886 </r>
       <r>    28.0620     1.3029    52.5549 </r>
       <r>    28.3321     1.1202    52.8781 </r>
       <r>    28.6023     1.5075    53.2065 </r>
       <r>    28.8725     1.6933    53.6142 </r>
       <r>    29.1426     1.6008    54.0692 </r>
       <r>    29.4128     1.4126    54.4724 </r>
       <r>    29.6830     1.4486    54.8449 </r>
       <r>    29.9531     1.7706    55.2990 </r>
       <r>    30.2233     1.0859    55.6970 </r>
       <r>    30.4935     0.9312    55.9776 </r>
       <r>    30.7636     1.5073    56.3278 </r>
       <r>    31.0338     1.3684    56.7154 </r>
       <r>    31.3039     1.2430    57.0784 </r>
       <r>    31.5741     1.1843    57.4335 </r>
       <r>    31.8443     1.3585    57.7753 </r>
       <r>    32.1144     1.4487    58.1601 </r>
       <r>    32.3846     1.8775    58.5973 </r>
       <r>    32.6548     1.9420    59.1166 </r>
       <r>    32.9249     1.6464    59.6118 </r>
       <r>    33.1951     1.7212    60.0624 </r>
       <r>    33.4653     1.7817    60.5254 </r>
       <r>    33.7354     1.8360    61.0234 </r>
       <r>    34.0056     1.7456    61.4913 </r>
       <r>    34.2758     1.5760    61.9460 </r>
       <r>    34.5459     1.7747    62.3922 </r>
       <r>    34.8161     1.4391    62.8601 </r>
       <r>    35.0863     1.3841    63.2369 </r>
       <r>    35.3564     1.3489    63.6107 </r>
       <r>    35.6266     1.1864    63.9716 </r>
       <r>    35.8968     1.0736    64.2571 </r>
       <r>    36.1669     1.0895    64.5491 </r>
       <r>    36.4371     1.1836    64.8434 </r>
       <r>    36.7073     1.4378    65.2013 </r>
       <r>    36.9774     1.7088    65.6089 </r>
       <r>    37.2476     2.0598    66.1166 </r>
       <r>    37.5178     2.1523    66.6947 </r>
       <r>    37.7879     2.0261    67.2515 </r>
       <r>    38.0581     1.8212    67.7659 </r>
       <r>    38.3283     1.8478    68.2713 </r>
       <r>    38.5984     1.4077    68.7212 </r>
       <r>    38.8686     1.3043    69.0831 </r>
       <r>    39.1388     1.4173    69.4624 </r>
       <r>    39.4089     1.5459    69.8739 </r>
       <r>    39.6791     1.5664    70.3084 </r>
       <r>    39.9493     1.6257    70.7534 </r>
       <r>    40.2194     1.5243    71.1976 </r>
       <r>    40.4896     1.6677    71.6176 </r>
       <r>    40.7598     1.7254    72.0861 </r>
       <r>    41.0299     1.7705    72.5597 </r>
       <r>    41.3001     1.9756    73.0629 </r>
       <r>    41.5703     2.8675    73.7099 </r>
       <r>    41.8404     3.1312    74.5557 </r>
       <r>    42.1106     7.4045    75.8001 </r>
       <r>    42.3808     3.4434    77.7027 </r>
       <r>    42.6509     2.6618    78.4889 </r>
       <r>    42.9211     1.6387    79.0889 </r>
       <r>    43.1913     0.8955    79.4204 </r>
       <r>    43.4614     0.6171    79.6206 </r>
       <r>    43.7316     0.4103    79.7563 </r>
       <r>    44.0018     0.2494    79.8413 </r>
       <r>    44.2719     0.1785    79.8986 </r>
       <r>    44.5421     0.1226    79.9449 </r>
       <r>    44.8123     0.0256    79.9621 </r>
       <r>    45.0824     0.0227    79.9686 </r>
       <r>    45.3526     0.0200    79.9743 </r>
       <r>    45.6228     0.0177    79.9794 </r>
       <r>    45.8929     0.0156    79.9839 </r>
       <r>    46.1631     0.0134    79.9878 </r>
       <r>    46.4333     0.0114    79.9912 </r>
       <r>    46.7034     0.0103    79.9941 </r>
       <r>    46.9736     0.0077    79.9965 </r>
       <r>    47.2438     0.0054    79.9983 </r>
       <r>    47.5139     0.0018    79.9996 </r>
       <r>    47.7841     0.0000    80.0000 </r>
       <r>    48.0543     0.0000    80.0000 </r>
       <r>    48.3244     0.0000    80.0000 </r>
       <r>    48.5946     0.0000    80.0000 </r>
       <r>    48.8647     0.0000    80.0000 </r>
       <r>    49.1349     0.0000    80.0000 </r>
       <r>    49.4051     0.0000    80.0000 </r>
       <r>    49.6752     0.0000    80.0000 </r>
       <r>    49.9454     0.0000    80.0000 </r>
       <r>    50.2156     0.0000    80.0000 </r>
       <r>    50.4857     0.0000    80.0000 </r>
       <r>    50.7559     0.0000    80.0000 </r>
       <r>    51.0261     0.0000    80.0000 </r>
       <r>    51.2962     0.0000    80.0000 </r>
      </set>
     </set>
    </array>
   </total>
  </dos>
 </calculation>
 <structure name="finalpos" >
  <crystal>
   <varray name="basis" >
    <v>       3.30080000       0.00000000       0.00000000 </v>
    <v>       0.00000000       3.30080000       0.00000000 </v>
    <v>       0.00000000       0.00000000       3.30080000 </v>
   </varray>
   <i name="volume">     35.96314234 </i>
   <varray name="rec_basis" >
    <v>       0.30295686       0.00000000       0.00000000 </v>
    <v>       0.00000000       0.30295686       0.00000000 </v>
    <v>       0.00000000       0.00000000       0.30295686 </v>
   </varray>
  </crystal>
  <varray name="positions" >
   <v>       0.00000000       0.00000000       0.00000000 </v>
   <v>       0.50000000       0.50000000       0.50000000 </v>
  </varray>
 </structure>
</modeling>
