bcc Al                                  
   4.05000000000000     
     0.499603    0.499603   -0.000000
     0.000000    0.499603    0.499603
     0.499603   -0.000000    0.499603
   Al
     1
Direct
  0.000000  0.000000  0.000000
 
   24   24   24
 -.21358     -.64532E-01 0.36246      1.0033      1.7491      2.4649      3.0298      3.3782      3.5175      3.5134    
  3.4463      3.3780      3.3503      3.3780      3.4463      3.5134      3.5175      3.3782      3.0298      2.4649    
  1.7491      1.0033     0.36246     -.64532E-01 -.64532E-01 0.22360     0.75785      1.4508      2.1782      2.8093    
  3.2503      3.4745      3.5228      3.4738      3.3974      3.3452      3.3452      3.3974      3.4738      3.5228    
  3.4745      3.2503      2.8093      2.1782      1.4508     0.75779     0.22353     -.64567E-01 0.36246     0.75785    
  1.3444      2.0162      2.6480      3.1321      3.4150      3.5103      3.4823      3.4038      3.3313      3.3027    
  3.3313      3.4038      3.4823      3.5103      3.4150      3.1321      2.6480      2.0162      1.3443     0.75778    
 0.36240     0.22353      1.0033      1.4508      2.0162      2.5889      3.0617      3.3653      3.4895      3.4790    
  3.4011      3.3127      3.2570      3.2570      3.3127      3.4011      3.4790      3.4895      3.3653      3.0617    
  2.5889      2.0162      1.4508      1.0033     0.75778     0.75779      1.7491      2.1782      2.6480      3.0617    
  3.3460      3.4747      3.4724      3.3947      3.2946      3.2156      3.1861      3.2156      3.2946      3.3947    
  3.4724      3.4747      3.3460      3.0617      2.6480      2.1782      1.7491      1.4508      1.3443      1.4508    
  2.4649      2.8093      3.1321      3.3653      3.4747      3.4693      3.3901      3.2816      3.1846      3.1287    
  3.1287      3.1846      3.2816      3.3901      3.4693      3.4747      3.3652      3.1321      2.8093      2.4649    
  2.1782      2.0162      2.0162      2.1782      3.0298      3.2503      3.4150      3.4895      3.4724      3.3901    
  3.2769      3.1682      3.0918      3.0646      3.0918      3.1682      3.2769      3.3901      3.4724      3.4895    
  3.4150      3.2503      3.0297      2.8093      2.6480      2.5889      2.6480      2.8093      3.3782      3.4745    
  3.5103      3.4790      3.3947      3.2816      3.1682      3.0792      3.0309      3.0309      3.0792      3.1682    
  3.2816      3.3947      3.4790      3.5103      3.4746      3.3782      3.2503      3.1321      3.0617      3.0617    
  3.1321      3.2503      3.5175      3.5228      3.4823      3.4011      3.2946      3.1846      3.0918      3.0309    
  3.0098      3.0309      3.0918      3.1846      3.2946      3.4010      3.4823      3.5228      3.5176      3.4746    
  3.4150      3.3652      3.3460      3.3653      3.4150      3.4745      3.5134      3.4738      3.4038      3.3127    
  3.2156      3.1287      3.0646      3.0309      3.0309      3.0646      3.1287      3.2156      3.3127      3.4038    
  3.4738      3.5134      3.5228      3.5103      3.4895      3.4747      3.4747      3.4895      3.5103      3.5228    
  3.4463      3.3974      3.3313      3.2570      3.1861      3.1287      3.0918      3.0792      3.0918      3.1287    
  3.1861      3.2571      3.3313      3.3974      3.4463      3.4738      3.4823      3.4790      3.4724      3.4693    
  3.4724      3.4790      3.4823      3.4738      3.3780      3.3452      3.3027      3.2570      3.2156      3.1846    
  3.1682      3.1682      3.1846      3.2156      3.2571      3.3027      3.3452      3.3780      3.3974      3.4038    
  3.4010      3.3947      3.3901      3.3901      3.3947      3.4011      3.4038      3.3974      3.3503      3.3452    
  3.3313      3.3127      3.2946      3.2816      3.2769      3.2816      3.2946      3.3127      3.3313      3.3452    
  3.3503      3.3452      3.3313      3.3127      3.2946      3.2816      3.2769      3.2816      3.2946      3.3127    
  3.3313      3.3452      3.3780      3.3974      3.4038      3.4011      3.3947      3.3901      3.3901      3.3947    
  3.4010      3.4038      3.3974      3.3780      3.3452      3.3027      3.2571      3.2156      3.1846      3.1682    
  3.1682      3.1846      3.2156      3.2570      3.3027      3.3452      3.4463      3.4738      3.4823      3.4790    
  3.4724      3.4693      3.4724      3.4790      3.4823      3.4738      3.4463      3.3974      3.3313      3.2571    
  3.1861      3.1287      3.0918      3.0792      3.0918      3.1287      3.1861      3.2570      3.3313      3.3974    
  3.5134      3.5228      3.5103      3.4895      3.4747      3.4747      3.4895      3.5103      3.5228      3.5134    
  3.4738      3.4038      3.3127      3.2156      3.1287      3.0646      3.0309      3.0309      3.0646      3.1287    
  3.2156      3.3127      3.4038      3.4738      3.5175      3.4745      3.4150      3.3653      3.3460      3.3652    
  3.4150      3.4746      3.5176      3.5228      3.4823      3.4010      3.2946      3.1846      3.0918      3.0309    
  3.0098      3.0309      3.0918      3.1846      3.2946      3.4011      3.4823      3.5228      3.3782      3.2503    
  3.1321      3.0617      3.0617      3.1321      3.2503      3.3782      3.4746      3.5103      3.4790      3.3947    
  3.2816      3.1682      3.0792      3.0309      3.0309      3.0792      3.1682      3.2816      3.3947      3.4790    
  3.5103      3.4745      3.0298      2.8093      2.6480      2.5889      2.6480      2.8093      3.0297      3.2503    
  3.4150      3.4895      3.4724      3.3901      3.2769      3.1682      3.0918      3.0646      3.0918      3.1682    
  3.2769      3.3901      3.4724      3.4895      3.4150      3.2503      2.4649      2.1782      2.0162      2.0162    
  2.1782      2.4649      2.8093      3.1321      3.3652      3.4747      3.4693      3.3901      3.2816      3.1846    
  3.1287      3.1287      3.1846      3.2816      3.3901      3.4693      3.4747      3.3653      3.1321      2.8093    
  1.7491      1.4508      1.3443      1.4508      1.7491      2.1782      2.6480      3.0617      3.3460      3.4747    
  3.4724      3.3947      3.2946      3.2156      3.1861      3.2156      3.2946      3.3947      3.4724      3.4747    
  3.3460      3.0617      2.6480      2.1782      1.0033     0.75779     0.75778      1.0033      1.4508      2.0162    
  2.5889      3.0617      3.3653      3.4895      3.4790      3.4011      3.3127      3.2570      3.2570      3.3127    
  3.4011      3.4790      3.4895      3.3653      3.0617      2.5889      2.0162      1.4508     0.36246     0.22353    
 0.36240     0.75778      1.3443      2.0162      2.6480      3.1321      3.4150      3.5103      3.4823      3.4038    
  3.3313      3.3027      3.3313      3.4038      3.4823      3.5103      3.4150      3.1321      2.6480      2.0162    
  1.3444     0.75785     -.64532E-01 -.64567E-01 0.22353     0.75779      1.4508      2.1782      2.8093      3.2503    
  3.4745      3.5228      3.4738      3.3974      3.3452      3.3452      3.3974      3.4738      3.5228      3.4745    
  3.2503      2.8093      2.1782      1.4508     0.75785     0.22360     -.64532E-01 0.22360     0.75785      1.4508    
  2.1782      2.8093      3.2503      3.4745      3.5228      3.4738      3.3974      3.3452      3.3452      3.3974    
  3.4738      3.5228      3.4745      3.2503      2.8093      2.1782      1.4508     0.75779     0.22353     -.64567E-01
 0.22360     0.63214      1.2399      1.9391      2.6006      3.1124      3.4172      3.5271      3.5069      3.4322    
  3.3611      3.3328      3.3611      3.4322      3.5069      3.5271      3.4172      3.1124      2.6006      1.9391    
  1.2399     0.63203     0.22351     0.80260E-01 0.75785      1.2399      1.8532      2.4809      3.0075      3.3562    
  3.5125      3.5204      3.4517      3.3672      3.3126      3.3126      3.3672      3.4517      3.5204      3.5125    
  3.3562      3.0075      2.4809      1.8532      1.2399     0.75779     0.49442     0.49445      1.4508      1.9391    
  2.4809      2.9685      3.3178      3.4950      3.5224      3.4600      3.3665      3.2896      3.2604      3.2896    
  3.3665      3.4600      3.5224      3.4949      3.3178      2.9685      2.4809      1.9392      1.4509      1.1141    
 0.99440      1.1141      2.1782      2.6006      3.0075      3.3178      3.4874      3.5209      3.4623      3.3632    
  3.2689      3.2132      3.2132      3.2689      3.3632      3.4623      3.5209      3.4874      3.3178      3.0075    
  2.6006      2.1782      1.8321      1.6382      1.6381      1.8321      2.8093      3.1124      3.3562      3.4950    
  3.5209      3.4625      3.3605      3.2549      3.1782      3.1505      3.1782      3.2549      3.3605      3.4625    
  3.5209      3.4950      3.3562      3.1124      2.8093      2.5170      2.3069      2.2306      2.3069      2.5170    
  3.2503      3.4172      3.5125      3.5224      3.4623      3.3605      3.2499      3.1598      3.1100      3.1100    
  3.1598      3.2499      3.3605      3.4623      3.5225      3.5125      3.4172      3.2503      3.0527      2.8786    
  2.7771      2.7771      2.8786      3.0527      3.4745      3.5271      3.5204      3.4600      3.3632      3.2549    
  3.1598      3.0961      3.0738      3.0961      3.1598      3.2549      3.3632      3.4600      3.5204      3.5271    
  3.4746      3.3776      3.2680      3.1829      3.1509      3.1829      3.2681      3.3776      3.5228      3.5069    
  3.4517      3.3665      3.2689      3.1782      3.1100      3.0738      3.0738      3.1100      3.1782      3.2689    
  3.3665      3.4517      3.5069      3.5228      3.5011      3.4544      3.4044      3.3727      3.3727      3.4044    
  3.4544      3.5010      3.4738      3.4322      3.3672      3.2896      3.2132      3.1505      3.1100      3.0961    
  3.1100      3.1505      3.2132      3.2896      3.3672      3.4322      3.4738      3.4881      3.4798      3.4595    
  3.4401      3.4323      3.4401      3.4595      3.4797      3.4881      3.3974      3.3611      3.3126      3.2604    
  3.2132      3.1782      3.1598      3.1598      3.1782      3.2132      3.2604      3.3127      3.3611      3.3974    
  3.4166      3.4191      3.4100      3.3974      3.3889      3.3889      3.3974      3.4100      3.4191      3.4167    
  3.3452      3.3328      3.3126      3.2896      3.2689      3.2549      3.2499      3.2549      3.2689      3.2896    
  3.3127      3.3329      3.3452      3.3466      3.3375      3.3213      3.3036      3.2902      3.2852      3.2902    
  3.3036      3.3213      3.3375      3.3466      3.3452      3.3611      3.3672      3.3665      3.3632      3.3605    
  3.3605      3.3632      3.3665      3.3672      3.3611      3.3452      3.3186      3.2835      3.2449      3.2089    
  3.1813      3.1664      3.1664      3.1813      3.2089      3.2449      3.2835      3.3185      3.3974      3.4322    
  3.4517      3.4600      3.4623      3.4625      3.4623      3.4600      3.4517      3.4322      3.3974      3.3466    
  3.2835      3.2155      3.1516      3.1001      3.0671      3.0557      3.0671      3.1001      3.1516      3.2155    
  3.2835      3.3466      3.4738      3.5069      3.5204      3.5224      3.5209      3.5209      3.5225      3.5204    
  3.5069      3.4738      3.4166      3.3375      3.2449      3.1516      3.0704      3.0114      2.9807      2.9807    
  3.0115      3.0704      3.1516      3.2449      3.3375      3.4167      3.5228      3.5271      3.5125      3.4949    
  3.4874      3.4950      3.5125      3.5271      3.5228      3.4881      3.4191      3.3213      3.2089      3.1001    
  3.0114      2.9543      2.9346      2.9543      3.0115      3.1001      3.2089      3.3213      3.4191      3.4881    
  3.4745      3.4172      3.3562      3.3178      3.3178      3.3562      3.4172      3.4746      3.5011      3.4798    
  3.4100      3.3036      3.1813      3.0671      2.9807      2.9346      2.9346      2.9807      3.0671      3.1813    
  3.3036      3.4100      3.4797      3.5010      3.2503      3.1124      3.0075      2.9685      3.0075      3.1124    
  3.2503      3.3776      3.4544      3.4595      3.3974      3.2902      3.1664      3.0557      2.9807      2.9543    
  2.9807      3.0557      3.1664      3.2902      3.3974      3.4595      3.4544      3.3776      2.8093      2.6006    
  2.4809      2.4809      2.6006      2.8093      3.0527      3.2680      3.4044      3.4401      3.3889      3.2852    
  3.1664      3.0671      3.0115      3.0115      3.0671      3.1664      3.2852      3.3889      3.4401      3.4044    
  3.2681      3.0527      2.1782      1.9391      1.8532      1.9392      2.1782      2.5170      2.8786      3.1829    
  3.3727      3.4323      3.3889      3.2902      3.1813      3.1001      3.0704      3.1001      3.1813      3.2902    
  3.3889      3.4323      3.3727      3.1829      2.8786      2.5170      1.4508      1.2399      1.2399      1.4509    
  1.8321      2.3069      2.7771      3.1509      3.3727      3.4401      3.3974      3.3036      3.2089      3.1516    
  3.1516      3.2089      3.3036      3.3974      3.4401      3.3727      3.1509      2.7771      2.3069      1.8321    
 0.75779     0.63203     0.75779      1.1141      1.6382      2.2306      2.7771      3.1829      3.4044      3.4595    
  3.4100      3.3213      3.2449      3.2155      3.2449      3.3213      3.4100      3.4595      3.4044      3.1829    
  2.7771      2.2306      1.6381      1.1141     0.22353     0.22351     0.49442     0.99440      1.6381      2.3069    
  2.8786      3.2681      3.4544      3.4797      3.4191      3.3375      3.2835      3.2835      3.3375      3.4191    
  3.4797      3.4544      3.2681      2.8786      2.3069      1.6381     0.99442     0.49445     -.64567E-01 0.80260E-01
 0.49445      1.1141      1.8321      2.5170      3.0527      3.3776      3.5010      3.4881      3.4167      3.3466    
  3.3185      3.3466      3.4167      3.4881      3.5010      3.3776      3.0527      2.5170      1.8321      1.1141    
 0.49445     0.80260E-01 0.36246     0.75785      1.3444      2.0162      2.6480      3.1321      3.4150      3.5103    
  3.4823      3.4038      3.3313      3.3027      3.3313      3.4038      3.4823      3.5103      3.4150      3.1321    
  2.6480      2.0162      1.3443     0.75778     0.36240     0.22353     0.75785      1.2399      1.8532      2.4809    
  3.0075      3.3562      3.5125      3.5204      3.4517      3.3672      3.3126      3.3126      3.3672      3.4517    
  3.5204      3.5125      3.3562      3.0075      2.4809      1.8532      1.2399     0.75779     0.49442     0.49445    
  1.3444      1.8532      2.4201      2.9337      3.3061      3.5007      3.5391      3.4822      3.3912      3.3150    
  3.2860      3.3150      3.3912      3.4822      3.5391      3.5007      3.3061      2.9337      2.4201      1.8532    
  1.3444     0.99441     0.87013     0.99442      2.0162      2.4809      2.9337      3.2867      3.4901      3.5458    
  3.4990      3.4054      3.3129      3.2574      3.2574      3.3129      3.4054      3.4990      3.5458      3.4901    
  3.2867      2.9337      2.4809      2.0163      1.6382      1.4271      1.4271      1.6381      2.6480      3.0075    
  3.3061      3.4901      3.5472      3.5061      3.4124      3.3094      3.2329      3.2049      3.2329      3.3094    
  3.4124      3.5061      3.5472      3.4901      3.3061      3.0075      2.6480      2.3069      2.0639      1.9760    
  2.0638      2.3069      3.1321      3.3562      3.5007      3.5458      3.5061      3.4145      3.3070      3.2166    
  3.1659      3.1659      3.2166      3.3070      3.4145      3.5061      3.5458      3.5007      3.3562      3.1321    
  2.8786      2.6600      2.5340      2.5340      2.6600      2.8786      3.4150      3.5125      3.5391      3.4990    
  3.4124      3.3070      3.2110      3.1454      3.1223      3.1454      3.2110      3.3070      3.4124      3.4990    
  3.5391      3.5125      3.4150      3.2680      3.1127      2.9954      2.9519      2.9954      3.1127      3.2681    
  3.5103      3.5204      3.4822      3.4054      3.3094      3.2166      3.1454      3.1072      3.1072      3.1454    
  3.2166      3.3094      3.4054      3.4822      3.5204      3.5103      3.4544      3.3714      3.2909      3.2419    
  3.2419      3.2909      3.3714      3.4544      3.4823      3.4517      3.3912      3.3129      3.2329      3.1659    
  3.1223      3.1072      3.1223      3.1659      3.2329      3.3129      3.3912      3.4517      3.4823      3.4798    
  3.4507      3.4096      3.3747      3.3611      3.3747      3.4096      3.4507      3.4797      3.4038      3.3672    
  3.3150      3.2574      3.2049      3.1659      3.1454      3.1454      3.1659      3.2049      3.2574      3.3150    
  3.3672      3.4038      3.4191      3.4138      3.3950      3.3735      3.3596      3.3596      3.3735      3.3950    
  3.4138      3.4191      3.3313      3.3126      3.2860      3.2574      3.2329      3.2166      3.2110      3.2166    
  3.2329      3.2574      3.2860      3.3127      3.3313      3.3375      3.3306      3.3141      3.2945      3.2790    
  3.2731      3.2790      3.2944      3.3141      3.3306      3.3375      3.3027      3.3126      3.3150      3.3129    
  3.3094      3.3070      3.3070      3.3094      3.3129      3.3150      3.3127      3.3027      3.2835      3.2560    
  3.2237      3.1919      3.1667      3.1528      3.1528      3.1667      3.1919      3.2237      3.2560      3.2835    
  3.3313      3.3672      3.3912      3.4054      3.4124      3.4145      3.4124      3.4054      3.3912      3.3672    
  3.3313      3.2835      3.2269      3.1670      3.1109      3.0654      3.0360      3.0259      3.0360      3.0654    
  3.1109      3.1669      3.2268      3.2835      3.4038      3.4517      3.4822      3.4990      3.5061      3.5061    
  3.4990      3.4822      3.4517      3.4038      3.3375      3.2560      3.1670      3.0805      3.0068      2.9536    
  2.9259      2.9260      2.9536      3.0068      3.0805      3.1669      3.2560      3.3375      3.4823      3.5204    
  3.5391      3.5458      3.5472      3.5458      3.5391      3.5204      3.4823      3.4191      3.3306      3.2237    
  3.1109      3.0068      2.9241      2.8716      2.8536      2.8716      2.9241      3.0068      3.1109      3.2237    
  3.3306      3.4191      3.5103      3.5125      3.5007      3.4901      3.4901      3.5007      3.5125      3.5103    
  3.4798      3.4138      3.3141      3.1919      3.0654      2.9536      2.8716      2.8286      2.8286      2.8716    
  2.9536      3.0654      3.1919      3.3141      3.4138      3.4797      3.4150      3.3562      3.3061      3.2867    
  3.3061      3.3562      3.4150      3.4544      3.4507      3.3950      3.2945      3.1667      3.0360      2.9259    
  2.8536      2.8286      2.8536      2.9259      3.0360      3.1667      3.2945      3.3950      3.4507      3.4544    
  3.1321      3.0075      2.9337      2.9337      3.0075      3.1321      3.2680      3.3714      3.4096      3.3735    
  3.2790      3.1528      3.0259      2.9260      2.8716      2.8716      2.9259      3.0259      3.1528      3.2790    
  3.3735      3.4096      3.3714      3.2681      2.6480      2.4809      2.4201      2.4809      2.6480      2.8786    
  3.1127      3.2909      3.3747      3.3596      3.2731      3.1528      3.0360      2.9536      2.9241      2.9536    
  3.0360      3.1528      3.2731      3.3596      3.3747      3.2909      3.1127      2.8786      2.0162      1.8532    
  1.8532      2.0163      2.3069      2.6600      2.9954      3.2419      3.3611      3.3596      3.2790      3.1667    
  3.0654      3.0068      3.0068      3.0654      3.1667      3.2790      3.3596      3.3611      3.2419      2.9954    
  2.6600      2.3069      1.3443      1.2399      1.3444      1.6382      2.0639      2.5340      2.9519      3.2419    
  3.3747      3.3735      3.2944      3.1919      3.1109      3.0805      3.1109      3.1919      3.2945      3.3735    
  3.3747      3.2419      2.9519      2.5340      2.0638      1.6381     0.75778     0.75779     0.99441      1.4271    
  1.9760      2.5340      2.9954      3.2909      3.4096      3.3950      3.3141      3.2237      3.1669      3.1669    
  3.2237      3.3141      3.3950      3.4096      3.2909      2.9954      2.5340      1.9760      1.4271     0.99440    
 0.36240     0.49442     0.87013      1.4271      2.0638      2.6600      3.1127      3.3714      3.4507      3.4138    
  3.3306      3.2560      3.2268      3.2560      3.3306      3.4138      3.4507      3.3714      3.1127      2.6600    
  2.0638      1.4271     0.87013     0.49442     0.22353     0.49445     0.99442      1.6381      2.3069      2.8786    
  3.2681      3.4544      3.4797      3.4191      3.3375      3.2835      3.2835      3.3375      3.4191      3.4797    
  3.4544      3.2681      2.8786      2.3069      1.6381     0.99440     0.49442     0.22351      1.0033      1.4508    
  2.0162      2.5889      3.0617      3.3653      3.4895      3.4790      3.4011      3.3127      3.2570      3.2570    
  3.3127      3.4011      3.4790      3.4895      3.3653      3.0617      2.5889      2.0162      1.4508      1.0033    
 0.75778     0.75779      1.4508      1.9391      2.4809      2.9685      3.3178      3.4950      3.5224      3.4600    
  3.3665      3.2896      3.2604      3.2896      3.3665      3.4600      3.5224      3.4949      3.3178      2.9685    
  2.4809      1.9392      1.4509      1.1141     0.99440      1.1141      2.0162      2.4809      2.9337      3.2867    
  3.4901      3.5458      3.4990      3.4054      3.3129      3.2574      3.2574      3.3129      3.4054      3.4990    
  3.5458      3.4901      3.2867      2.9337      2.4809      2.0163      1.6382      1.4271      1.4271      1.6381    
  2.5889      2.9685      3.2867      3.4869      3.5553      3.5206      3.4300      3.3280      3.2516      3.2236    
  3.2516      3.3280      3.4300      3.5206      3.5553      3.4869      3.2867      2.9685      2.5889      2.2306    
  1.9760      1.8840      1.9760      2.2306      3.0617      3.3178      3.4901      3.5553      3.5274      3.4418    
  3.3364      3.2459      3.1948      3.1948      3.2459      3.3364      3.4418      3.5274      3.5553      3.4901    
  3.3178      3.0617      2.7771      2.5340      2.3944      2.3944      2.5340      2.7771      3.3653      3.4950    
  3.5458      3.5206      3.4418      3.3390      3.2426      3.1759      3.1523      3.1759      3.2426      3.3390    
  3.4418      3.5206      3.5458      3.4949      3.3652      3.1829      2.9954      2.8557      2.8041      2.8557    
  2.9954      3.1829      3.4895      3.5224      3.4990      3.4300      3.3364      3.2426      3.1694      3.1298    
  3.1298      3.1694      3.2426      3.3364      3.4300      3.4990      3.5224      3.4895      3.4044      3.2909    
  3.1851      3.1217      3.1217      3.1851      3.2909      3.4044      3.4790      3.4600      3.4054      3.3280    
  3.2459      3.1759      3.1298      3.1138      3.1298      3.1759      3.2459      3.3280      3.4054      3.4600    
  3.4790      3.4595      3.4096      3.3479      3.2979      3.2788      3.2979      3.3479      3.4096      3.4595    
  3.4011      3.3665      3.3129      3.2516      3.1948      3.1523      3.1298      3.1298      3.1523      3.1948    
  3.2516      3.3129      3.3665      3.4010      3.4100      3.3950      3.3650      3.3334      3.3135      3.3135    
  3.3334      3.3650      3.3950      3.4100      3.3127      3.2896      3.2574      3.2236      3.1948      3.1759    
  3.1694      3.1759      3.1948      3.2236      3.2574      3.2896      3.3127      3.3213      3.3141      3.2949    
  3.2715      3.2528      3.2457      3.2528      3.2715      3.2949      3.3141      3.3213      3.2570      3.2604    
  3.2574      3.2516      3.2459      3.2426      3.2426      3.2459      3.2516      3.2574      3.2604      3.2571    
  3.2449      3.2237      3.1959      3.1669      3.1427      3.1291      3.1291      3.1427      3.1669      3.1959    
  3.2237      3.2449      3.2570      3.2896      3.3129      3.3280      3.3364      3.3390      3.3364      3.3280    
  3.3129      3.2896      3.2571      3.2155      3.1670      3.1156      3.0670      3.0270      3.0007      2.9915    
  3.0007      3.0270      3.0670      3.1156      3.1669      3.2155      3.3127      3.3665      3.4054      3.4300    
  3.4418      3.4418      3.4300      3.4054      3.3665      3.3127      3.2449      3.1670      3.0853      3.0077    
  2.9421      2.8950      2.8704      2.8704      2.8950      2.9421      3.0077      3.0852      3.1669      3.2449    
  3.4011      3.4600      3.4990      3.5206      3.5274      3.5206      3.4990      3.4600      3.4010      3.3213    
  3.2237      3.1156      3.0077      2.9113      2.8362      2.7888      2.7726      2.7888      2.8362      2.9113    
  3.0077      3.1156      3.2237      3.3213      3.4790      3.5224      3.5458      3.5553      3.5553      3.5458    
  3.5224      3.4790      3.4100      3.3141      3.1959      3.0670      2.9421      2.8362      2.7601      2.7207    
  2.7207      2.7601      2.8362      2.9422      3.0670      3.1959      3.3141      3.4100      3.4895      3.4949    
  3.4901      3.4869      3.4901      3.4949      3.4895      3.4595      3.3950      3.2949      3.1669      3.0270    
  2.8950      2.7888      2.7207      2.6974      2.7207      2.7888      2.8950      3.0270      3.1669      3.2949    
  3.3950      3.4595      3.3653      3.3178      3.2867      3.2867      3.3178      3.3652      3.4044      3.4096    
  3.3650      3.2715      3.1427      3.0007      2.8704      2.7726      2.7207      2.7207      2.7726      2.8704    
  3.0007      3.1427      3.2715      3.3650      3.4096      3.4044      3.0617      2.9685      2.9337      2.9685    
  3.0617      3.1829      3.2909      3.3479      3.3334      3.2528      3.1291      2.9915      2.8704      2.7888    
  2.7601      2.7888      2.8704      2.9915      3.1291      3.2528      3.3334      3.3479      3.2909      3.1829    
  2.5889      2.4809      2.4809      2.5889      2.7771      2.9954      3.1851      3.2979      3.3135      3.2457    
  3.1291      3.0007      2.8950      2.8362      2.8362      2.8950      3.0007      3.1291      3.2457      3.3135    
  3.2979      3.1851      2.9954      2.7771      2.0162      1.9392      2.0163      2.2306      2.5340      2.8557    
  3.1217      3.2788      3.3135      3.2528      3.1427      3.0270      2.9421      2.9113      2.9422      3.0270    
  3.1427      3.2528      3.3135      3.2788      3.1217      2.8557      2.5340      2.2306      1.4508      1.4509    
  1.6382      1.9760      2.3944      2.8041      3.1217      3.2979      3.3334      3.2715      3.1669      3.0670    
  3.0077      3.0077      3.0670      3.1669      3.2715      3.3334      3.2979      3.1217      2.8041      2.3944    
  1.9760      1.6382      1.0033      1.1141      1.4271      1.8840      2.3944      2.8557      3.1851      3.3479    
  3.3650      3.2949      3.1959      3.1156      3.0852      3.1156      3.1959      3.2949      3.3650      3.3479    
  3.1851      2.8557      2.3944      1.8840      1.4271      1.1141     0.75778     0.99440      1.4271      1.9760    
  2.5340      2.9954      3.2909      3.4096      3.3950      3.3141      3.2237      3.1669      3.1669      3.2237    
  3.3141      3.3950      3.4096      3.2909      2.9954      2.5340      1.9760      1.4271     0.99441     0.75779    
 0.75779      1.1141      1.6381      2.2306      2.7771      3.1829      3.4044      3.4595      3.4100      3.3213    
  3.2449      3.2155      3.2449      3.3213      3.4100      3.4595      3.4044      3.1829      2.7771      2.2306    
  1.6382      1.1141     0.75779     0.63203      1.7491      2.1782      2.6480      3.0617      3.3460      3.4747    
  3.4724      3.3947      3.2946      3.2156      3.1861      3.2156      3.2946      3.3947      3.4724      3.4747    
  3.3460      3.0617      2.6480      2.1782      1.7491      1.4508      1.3443      1.4508      2.1782      2.6006    
  3.0075      3.3178      3.4874      3.5209      3.4623      3.3632      3.2689      3.2132      3.2132      3.2689    
  3.3632      3.4623      3.5209      3.4874      3.3178      3.0075      2.6006      2.1782      1.8321      1.6382    
  1.6381      1.8321      2.6480      3.0075      3.3061      3.4901      3.5472      3.5061      3.4124      3.3094    
  3.2329      3.2049      3.2329      3.3094      3.4124      3.5061      3.5472      3.4901      3.3061      3.0075    
  2.6480      2.3069      2.0639      1.9760      2.0638      2.3069      3.0617      3.3178      3.4901      3.5553    
  3.5274      3.4418      3.3364      3.2459      3.1948      3.1948      3.2459      3.3364      3.4418      3.5274    
  3.5553      3.4901      3.3178      3.0617      2.7771      2.5340      2.3944      2.3944      2.5340      2.7771    
  3.3460      3.4874      3.5472      3.5274      3.4515      3.3498      3.2533      3.1862      3.1624      3.1862    
  3.2533      3.3498      3.4515      3.5274      3.5472      3.4874      3.3460      3.1509      2.9519      2.8041    
  2.7497      2.8041      2.9519      3.1509      3.4747      3.5209      3.5061      3.4418      3.3498      3.2557    
  3.1814      3.1411      3.1411      3.1814      3.2557      3.3498      3.4418      3.5061      3.5209      3.4747    
  3.3727      3.2418      3.1217      3.0501      3.0501      3.1217      3.2419      3.3727      3.4724      3.4623    