bcc Al                                  
   4.05000000000000     
     0.499609    0.499609   -0.000000
     0.000000    0.499609    0.499609
     0.499609   -0.000000    0.499609
   Al
     1
Direct
  0.000000 -0.000000 -0.000000
 
   24   24   24
 -.21184541410E+00 -.63427574006E-01 0.36184912524E+00 0.10004132093E+01 0.17440624057E+01
 0.24585633423E+01 0.30234411157E+01 0.33730616904E+01 0.35143593973E+01 0.35121792765E+01
 0.34466694005E+01 0.33794049030E+01 0.33520829216E+01 0.33794049030E+01 0.34466694005E+01
 0.35121792765E+01 0.35143593973E+01 0.33730616904E+01 0.30234411157E+01 0.24585633423E+01
 0.17440624057E+01 0.10004132093E+01 0.36184912524E+00 -.63427574006E-01 -.63427574006E-01
 0.22353478220E+00 0.75578334827E+00 0.14465720056E+01 0.21722726298E+01 0.28028637429E+01
 0.32445917043E+01 0.34704539717E+01 0.35207195818E+01 0.34735315943E+01 0.33984927699E+01
 0.33469104854E+01 0.33469089434E+01 0.33984914864E+01 0.34735339908E+01 0.35207217862E+01
 0.34704519582E+01 0.32445918741E+01 0.28028745826E+01 0.21722836206E+01 0.14465537711E+01
 0.75572119292E+00 0.22345827696E+00 -.63462559015E-01 0.36184912524E+00 0.75578334827E+00
 0.13404080736E+01 0.20105816180E+01 0.26415148540E+01 0.31260248643E+01 0.34103560901E+01
 0.35075695512E+01 0.34814735219E+01 0.34045278978E+01 0.33329408305E+01 0.33046640431E+01
 0.33329398574E+01 0.34045301086E+01 0.34814775178E+01 0.35075686765E+01 0.34103519954E+01
 0.31260304665E+01 0.26415337669E+01 0.20105907146E+01 0.13403764536E+01 0.75571389928E+00
 0.36178952870E+00 0.22345827696E+00 0.10004132093E+01 0.14465720056E+01 0.20105816180E+01
 0.25825053308E+01 0.30554699070E+01 0.33602399492E+01 0.34863352681E+01 0.34776764501E+01
 0.34014314064E+01 0.33142528268E+01 0.32592039739E+01 0.32592039149E+01 0.33142541128E+01
 0.34014346038E+01 0.34776772618E+01 0.34863298937E+01 0.33602333840E+01 0.30554726171E+01
 0.25825192541E+01 0.20105944928E+01 0.14465707560E+01 0.10004007730E+01 0.75571389928E+00
 0.75572119292E+00 0.17440624057E+01 0.21722726298E+01 0.26415148540E+01 0.30554699070E+01
 0.33409174149E+01 0.34712634526E+01 0.34708246022E+01 0.33948750087E+01 0.32960305560E+01
 0.32178774410E+01 0.31886437926E+01 0.32178760628E+01 0.32960303480E+01 0.33948767172E+01
 0.34708244561E+01 0.34712565156E+01 0.33409040720E+01 0.30554581494E+01 0.26415148441E+01
 0.21722878808E+01 0.17440855176E+01 0.14465707560E+01 0.13403764536E+01 0.14465537711E+01
 0.24585633423E+01 0.28028637429E+01 0.31260248643E+01 0.33602399492E+01 0.34712634526E+01
 0.34676962176E+01 0.33900743549E+01 0.32829858661E+01 0.31869196019E+01 0.31314550047E+01
 0.31314538008E+01 0.31869172884E+01 0.32829856694E+01 0.33900785389E+01 0.34677017495E+01
 0.34712616491E+01 0.33602239004E+01 0.31259985153E+01 0.28028410280E+01 0.24585554740E+01
 0.21722878808E+01 0.20105944928E+01 0.20105907146E+01 0.21722836206E+01 0.30234411157E+01
 0.32445917043E+01 0.34103560901E+01 0.34863352681E+01 0.34708246022E+01 0.33900743549E+01
 0.32782726620E+01 0.31704613682E+01 0.30946865122E+01 0.30676441353E+01 0.30946881867E+01
 0.31704622290E+01 0.32782735794E+01 0.33900806057E+01 0.34708378499E+01 0.34863467727E+01
 0.34103521833E+01 0.32445669825E+01 0.30234042814E+01 0.28028410280E+01 0.26415148441E+01
 0.25825192541E+01 0.26415337669E+01 0.28028745826E+01 0.33730616904E+01 0.34704539717E+01
 0.35075695512E+01 0.34776764501E+01 0.33948750087E+01 0.32829858661E+01 0.31704613682E+01
 0.30820608888E+01 0.30340925755E+01 0.30340950349E+01 0.30820648235E+01 0.31704609862E+01
 0.32829814866E+01 0.33948753266E+01 0.34776903855E+01 0.35075948630E+01 0.34704750106E+01
 0.33730611048E+01 0.32445669825E+01 0.31259985153E+01 0.30554581494E+01 0.30554726171E+01
 0.31260304665E+01 0.32445918741E+01 0.35143593973E+01 0.35207195818E+01 0.34814735219E+01
 0.34014314064E+01 0.32960305560E+01 0.31869196019E+01 0.30946865122E+01 0.30340925755E+01
 0.30130999955E+01 0.30340927044E+01 0.30946863522E+01 0.31869154423E+01 0.32960188850E+01
 0.34014181354E+01 0.34814740761E+01 0.35207431352E+01 0.35143945109E+01 0.34704750106E+01
 0.34103521833E+01 0.33602239004E+01 0.33409040720E+01 0.33602333840E+01 0.34103519954E+01
 0.34704519582E+01 0.35121792765E+01 0.34735315943E+01 0.34045278978E+01 0.33142528268E+01
 0.32178774410E+01 0.31314550047E+01 0.30676441353E+01 0.30340950349E+01 0.30340927044E+01
 0.30676419148E+01 0.31314581583E+01 0.32178792880E+01 0.33142405757E+01 0.34045015017E+01
 0.34735091315E+01 0.35121790635E+01 0.35207431352E+01 0.35075948630E+01 0.34863467727E+01
 0.34712616491E+01 0.34712565156E+01 0.34863298937E+01 0.35075686765E+01 0.35207217862E+01
 0.34466694005E+01 0.33984927699E+01 0.33329408305E+01 0.32592039739E+01 0.31886437926E+01
 0.31314538008E+01 0.30946881867E+01 0.30820648235E+01 0.30946863522E+01 0.31314581583E+01
 0.31886580058E+01 0.32592184600E+01 0.33329395758E+01 0.33984694345E+01 0.34466352626E+01
 0.34735091315E+01 0.34814740761E+01 0.34776903855E+01 0.34708378499E+01 0.34677017495E+01
 0.34708244561E+01 0.34776772618E+01 0.34814775178E+01 0.34735339908E+01 0.33794049030E+01
 0.33469104854E+01 0.33046640431E+01 0.32592039149E+01 0.32178760628E+01 0.31869172884E+01
 0.31704622290E+01 0.31704609862E+01 0.31869154423E+01 0.32178792880E+01 0.32592184600E+01
 0.33046884528E+01 0.33469311452E+01 0.33794054139E+01 0.33984694345E+01 0.34045015017E+01
 0.34014181354E+01 0.33948753266E+01 0.33900806057E+01 0.33900785389E+01 0.33948767172E+01
 0.34014346038E+01 0.34045301086E+01 0.33984914864E+01 0.33520829216E+01 0.33469089434E+01
 0.33329398574E+01 0.33142541128E+01 0.32960303480E+01 0.32829856694E+01 0.32782735794E+01
 0.32829814866E+01 0.32960188850E+01 0.33142405757E+01 0.33329395758E+01 0.33469311452E+01
 0.33521164533E+01 0.33469311452E+01 0.33329395758E+01 0.33142405757E+01 0.32960188850E+01
 0.32829814866E+01 0.32782735794E+01 0.32829856694E+01 0.32960303480E+01 0.33142541128E+01
 0.33329398574E+01 0.33469089434E+01 0.33794049030E+01 0.33984914864E+01 0.34045301086E+01
 0.34014346038E+01 0.33948767172E+01 0.33900785389E+01 0.33900806057E+01 0.33948753266E+01
 0.34014181354E+01 0.34045015017E+01 0.33984694345E+01 0.33794054139E+01 0.33469311452E+01
 0.33046884528E+01 0.32592184600E+01 0.32178792880E+01 0.31869154423E+01 0.31704609862E+01
 0.31704622290E+01 0.31869172884E+01 0.32178760628E+01 0.32592039149E+01 0.33046640431E+01
 0.33469104854E+01 0.34466694005E+01 0.34735339908E+01 0.34814775178E+01 0.34776772618E+01
 0.34708244561E+01 0.34677017495E+01 0.34708378499E+01 0.34776903855E+01 0.34814740761E+01
 0.34735091315E+01 0.34466352626E+01 0.33984694345E+01 0.33329395758E+01 0.32592184600E+01
 0.31886580058E+01 0.31314581583E+01 0.30946863522E+01 0.30820648235E+01 0.30946881867E+01
 0.31314538008E+01 0.31886437926E+01 0.32592039739E+01 0.33329408305E+01 0.33984927699E+01
 0.35121792765E+01 0.35207217862E+01 0.35075686765E+01 0.34863298937E+01 0.34712565156E+01
 0.34712616491E+01 0.34863467727E+01 0.35075948630E+01 0.35207431352E+01 0.35121790635E+01
 0.34735091315E+01 0.34045015017E+01 0.33142405757E+01 0.32178792880E+01 0.31314581583E+01
 0.30676419148E+01 0.30340927044E+01 0.30340950349E+01 0.30676441353E+01 0.31314550047E+01
 0.32178774410E+01 0.33142528268E+01 0.34045278978E+01 0.34735315943E+01 0.35143593973E+01
 0.34704519582E+01 0.34103519954E+01 0.33602333840E+01 0.33409040720E+01 0.33602239004E+01
 0.34103521833E+01 0.34704750106E+01 0.35143945109E+01 0.35207431352E+01 0.34814740761E+01
 0.34014181354E+01 0.32960188850E+01 0.31869154423E+01 0.30946863522E+01 0.30340927044E+01
 0.30130999955E+01 0.30340925755E+01 0.30946865122E+01 0.31869196019E+01 0.32960305560E+01
 0.34014314064E+01 0.34814735219E+01 0.35207195818E+01 0.33730616904E+01 0.32445918741E+01
 0.31260304665E+01 0.30554726171E+01 0.30554581494E+01 0.31259985153E+01 0.32445669825E+01
 0.33730611048E+01 0.34704750106E+01 0.35075948630E+01 0.34776903855E+01 0.33948753266E+01
 0.32829814866E+01 0.31704609862E+01 0.30820648235E+01 0.30340950349E+01 0.30340925755E+01
 0.30820608888E+01 0.31704613682E+01 0.32829858661E+01 0.33948750087E+01 0.34776764501E+01
 0.35075695512E+01 0.34704539717E+01 0.30234411157E+01 0.28028745826E+01 0.26415337669E+01
 0.25825192541E+01 0.26415148441E+01 0.28028410280E+01 0.30234042814E+01 0.32445669825E+01
 0.34103521833E+01 0.34863467727E+01 0.34708378499E+01 0.33900806057E+01 0.32782735794E+01
 0.31704622290E+01 0.30946881867E+01 0.30676441353E+01 0.30946865122E+01 0.31704613682E+01
 0.32782726620E+01 0.33900743549E+01 0.34708246022E+01 0.34863352681E+01 0.34103560901E+01
 0.32445917043E+01 0.24585633423E+01 0.21722836206E+01 0.20105907146E+01 0.20105944928E+01
 0.21722878808E+01 0.24585554740E+01 0.28028410280E+01 0.31259985153E+01 0.33602239004E+01
 0.34712616491E+01 0.34677017495E+01 0.33900785389E+01 0.32829856694E+01 0.31869172884E+01
 0.31314538008E+01 0.31314550047E+01 0.31869196019E+01 0.32829858661E+01 0.33900743549E+01
 0.34676962176E+01 0.34712634526E+01 0.33602399492E+01 0.31260248643E+01 0.28028637429E+01
 0.17440624057E+01 0.14465537711E+01 0.13403764536E+01 0.14465707560E+01 0.17440855176E+01
 0.21722878808E+01 0.26415148441E+01 0.30554581494E+01 0.33409040720E+01 0.34712565156E+01
 0.34708244561E+01 0.33948767172E+01 0.32960303480E+01 0.32178760628E+01 0.31886437926E+01
 0.32178774410E+01 0.32960305560E+01 0.33948750087E+01 0.34708246022E+01 0.34712634526E+01
 0.33409174149E+01 0.30554699070E+01 0.26415148540E+01 0.21722726298E+01 0.10004132093E+01
 0.75572119292E+00 0.75571389928E+00 0.10004007730E+01 0.14465707560E+01 0.20105944928E+01
 0.25825192541E+01 0.30554726171E+01 0.33602333840E+01 0.34863298937E+01 0.34776772618E+01
 0.34014346038E+01 0.33142541128E+01 0.32592039149E+01 0.32592039739E+01 0.33142528268E+01
 0.34014314064E+01 0.34776764501E+01 0.34863352681E+01 0.33602399492E+01 0.30554699070E+01
 0.25825053308E+01 0.20105816180E+01 0.14465720056E+01 0.36184912524E+00 0.22345827696E+00
 0.36178952870E+00 0.75571389928E+00 0.13403764536E+01 0.20105907146E+01 0.26415337669E+01
 0.31260304665E+01 0.34103519954E+01 0.35075686765E+01 0.34814775178E+01 0.34045301086E+01
 0.33329398574E+01 0.33046640431E+01 0.33329408305E+01 0.34045278978E+01 0.34814735219E+01
 0.35075695512E+01 0.34103560901E+01 0.31260248643E+01 0.26415148540E+01 0.20105816180E+01
 0.13404080736E+01 0.75578334827E+00 -.63427574006E-01 -.63462559015E-01 0.22345827696E+00
 0.75572119292E+00 0.14465537711E+01 0.21722836206E+01 0.28028745826E+01 0.32445918741E+01
 0.34704519582E+01 0.35207217862E+01 0.34735339908E+01 0.33984914864E+01 0.33469089434E+01
 0.33469104854E+01 0.33984927699E+01 0.34735315943E+01 0.35207195818E+01 0.34704539717E+01
 0.32445917043E+01 0.28028637429E+01 0.21722726298E+01 0.14465720056E+01 0.75578334827E+00
 0.22353478220E+00 -.63427574006E-01 0.22353478220E+00 0.75578334827E+00 0.14465720056E+01
 0.21722726298E+01 0.28028637429E+01 0.32445917043E+01 0.34704539717E+01 0.35207195818E+01
 0.34735315943E+01 0.33984927699E+01 0.33469104854E+01 0.33469089434E+01 0.33984914864E+01
 0.34735339908E+01 0.35207217862E+01 0.34704519582E+01 0.32445918741E+01 0.28028745826E+01
 0.21722836206E+01 0.14465537711E+01 0.75572119292E+00 0.22345827696E+00 -.63462559015E-01
 0.22353478220E+00 0.63053400799E+00 0.12363121049E+01 0.19336955474E+01 0.25942050775E+01
 0.31062388709E+01 0.34124284790E+01 0.35241883271E+01 0.35059629685E+01 0.34328357435E+01
 0.33627265516E+01 0.33347885663E+01 0.33627265947E+01 0.34328386026E+01 0.35059655851E+01
 0.35241847259E+01 0.34124245730E+01 0.31062510469E+01 0.25942320662E+01 0.19337004625E+01
 0.12362535825E+01 0.63042245499E+00 0.22344279162E+00 0.80762220849E-01 0.75578334827E+00
 0.12363121049E+01 0.18479582596E+01 0.24745676739E+01 0.30011612902E+01 0.33509808058E+01
 0.35090609390E+01 0.35189322352E+01 0.34519418925E+01 0.33686445417E+01 0.33147283428E+01
 0.33147285278E+01 0.33686467244E+01 0.34519459055E+01 0.35189321965E+01 0.35090548871E+01
 0.33509804171E+01 0.30011796188E+01 0.24745942982E+01 0.18479591798E+01 0.12362666423E+01
 0.75571733813E+00 0.49329043107E+00 0.49332196335E+00 0.14465720056E+01 0.19336955474E+01
 0.24745676739E+01 0.29621248882E+01 0.33123600026E+01 0.34911513250E+01 0.35205593878E+01
 0.34599117209E+01 0.33678290198E+01 0.32917333287E+01 0.32628172304E+01 0.32917314697E+01
 0.33678301819E+01 0.34599161495E+01 0.35205599153E+01 0.34911439429E+01 0.33123528706E+01
 0.29621307622E+01 0.24745880900E+01 0.19337180967E+01 0.14465846648E+01 0.11108460823E+01
 0.99148756677E+00 0.11108430767E+01 0.21722726298E+01 0.25942050775E+01 0.30011612902E+01
 0.33123600026E+01 0.34835193663E+01 0.35188671554E+01 0.34619439176E+01 0.33643229458E+01
 0.32710939927E+01 0.32158838905E+01 0.32158822243E+01 0.32710916417E+01 0.33643242770E+01
 0.34619484551E+01 0.35188680919E+01 0.34835102401E+01 0.33123434905E+01 0.30011503093E+01
 0.25942128828E+01 0.21722998000E+01 0.18268527756E+01 0.16333327157E+01 0.16333191967E+01
 0.18268219016E+01 0.28028637429E+01 0.31062388709E+01 0.33509808058E+01 0.34911513250E+01
 0.35188671554E+01 0.34621175535E+01 0.33616024590E+01 0.32570245005E+01 0.31810269145E+01
 0.31535303622E+01 0.31810275373E+01 0.32570242822E+01 0.33616032144E+01 0.34621233845E+01
 0.35188759586E+01 0.34911519861E+01 0.33509645864E+01 0.31062123746E+01 0.28028445414E+01
 0.25106457059E+01 0.23007178160E+01 0.22245386180E+01 0.23007121276E+01 0.25106481632E+01
 0.32445917043E+01 0.34124284790E+01 0.35090609390E+01 0.35205593878E+01 0.34619439176E+01
 0.33616024590E+01 0.32520613977E+01 0.31626324477E+01 0.31132060711E+01 0.31132081319E+01
 0.31626353199E+01 0.32520611933E+01 0.33616031883E+01 0.34619539094E+01 0.35205785206E+01
 0.35090761210E+01 0.34124251353E+01 0.32445682035E+01 0.30464429776E+01 0.28721138562E+01
 0.27706149023E+01 0.27706237360E+01 0.28721382071E+01 0.30464743559E+01 0.34704539717E+01
 0.35241883271E+01 0.35189322352E+01 0.34599117209E+01 0.33643229458E+01 0.32570245005E+01
 0.31626324477E+01 0.30993352360E+01 0.30772118621E+01 0.30993370678E+01 0.31626335594E+01
 0.32570222892E+01 0.33643190837E+01 0.34599138860E+01 0.35189481625E+01 0.35242153977E+01
 0.34704766158E+01 0.33726244214E+01 0.32624956638E+01 0.31770274456E+01 0.31449616573E+01
 0.31770461456E+01 0.32625134831E+01 0.33726222590E+01 0.35207195818E+01 0.35059629685E+01
 0.34519418925E+01 0.33678290198E+01 0.32710939927E+01 0.31810269145E+01 0.31132060711E+01
 0.30772118621E+01 0.30772107145E+01 0.31132048402E+01 0.31810267232E+01 0.32710890858E+01
 0.33678144983E+01 0.34519262313E+01 0.35059641094E+01 0.35207444155E+01 0.34980161507E+01
 0.34506075920E+01 0.34000900838E+01 0.33681625896E+01 0.33681648274E+01 0.34000877443E+01
 0.34505874108E+01 0.34979827926E+01 0.34735315943E+01 0.34328357435E+01 0.33686445417E+01
 0.32917333287E+01 0.32158838905E+01 0.31535303622E+01 0.31132081319E+01 0.30993370678E+01
 0.31132048402E+01 0.31535312131E+01 0.32158903390E+01 0.32917345466E+01 0.33686294932E+01
 0.34328087846E+01 0.34735106997E+01 0.34869898119E+01 0.34779184461E+01 0.34571200715E+01
 0.34374440188E+01 0.34295158186E+01 0.34374312321E+01 0.34570993969E+01 0.34779017653E+01
 0.34869906948E+01 0.33984927699E+01 0.33627265516E+01 0.33147283428E+01 0.32628172304E+01
 0.32158822243E+01 0.31810275373E+01 0.31626353199E+01 0.31626335594E+01 0.31810267232E+01
 0.32158903390E+01 0.32628350168E+01 0.33147446507E+01 0.33627261077E+01 0.33984703950E+01
 0.34171041015E+01 0.34190004700E+01 0.34094834290E+01 0.33965624400E+01 0.33878342271E+01
 0.33878277276E+01 0.33965517381E+01 0.34094857293E+01 0.34190232895E+01 0.34171366595E+01
 0.33469104854E+01 0.33347885663E+01 0.33147285278E+01 0.32917314697E+01 0.32710916417E+01
 0.32570242822E+01 0.32520611933E+01 0.32570222892E+01 0.32710890858E+01 0.32917345466E+01
 0.33147446507E+01 0.33348152913E+01 0.33469319349E+01 0.33481147818E+01 0.33386608171E+01
 0.33221604016E+01 0.33042418400E+01 0.32906758277E+01 0.32856481241E+01 0.32906766015E+01
 0.33042523724E+01 0.33221824482E+01 0.33386802327E+01 0.33481143996E+01 0.33469089434E+01
 0.33627265947E+01 0.33686467244E+01 0.33678301819E+01 0.33643242770E+01 0.33616032144E+01
 0.33616031883E+01 0.33643190837E+01 0.33678144983E+01 0.33686294932E+01 0.33627261077E+01
 0.33469319349E+01 0.33204009630E+01 0.32853631279E+01 0.32467132292E+01 0.32106371700E+01
 0.31829803384E+01 0.31680458798E+01 0.31680483476E+01 0.31829880452E+01 0.32106464504E+01
 0.32467126989E+01 0.32853434118E+01 0.33203690549E+01 0.33984914864E+01 0.34328386026E+01
 0.34519459055E+01 0.34599161495E+01 0.34619484551E+01 0.34621233845E+01 0.34619539094E+01
 0.34599138860E+01 0.34519262313E+01 0.34328087846E+01 0.33984703950E+01 0.33481147818E+01
 0.32853631279E+01 0.32176035307E+01 0.31538847547E+01 0.31025095086E+01 0.30694746276E+01
 0.30581202699E+01 0.30694771278E+01 0.31025083944E+01 0.31538734690E+01 0.32175831023E+01
 0.32853453049E+01 0.33481143996E+01 0.34735339908E+01 0.35059655851E+01 0.35189321965E+01
 0.35205599153E+01 0.35188680919E+01 0.35188759586E+01 0.35205785206E+01 0.35189481625E+01
 0.35059641094E+01 0.34735106997E+01 0.34171041015E+01 0.33386608171E+01 0.32467132292E+01
 0.31538847547E+01 0.30730497243E+01 0.30142418262E+01 0.29835295218E+01 0.29835312892E+01
 0.30142419503E+01 0.30730413810E+01 0.31538731123E+01 0.32467137678E+01 0.33386822684E+01
 0.34171366595E+01 0.35207217862E+01 0.35241847259E+01 0.35090548871E+01 0.34911439429E+01
 0.34835102401E+01 0.34911519861E+01 0.35090761210E+01 0.35242153977E+01 0.35207444155E+01
 0.34869898119E+01 0.34190004700E+01 0.33221604016E+01 0.32106371700E+01 0.31025095086E+01
 0.30142418262E+01 0.29573025256E+01 0.29377315488E+01 0.29573044810E+01 0.30142417177E+01
 0.31025092357E+01 0.32106460678E+01 0.33221816849E+01 0.34190209872E+01 0.34869906948E+01
 0.34704519582E+01 0.34124245730E+01 0.33509804171E+01 0.33123528706E+01 0.33123434905E+01
 0.33509645864E+01 0.34124251353E+01 0.34704766158E+01 0.34980161507E+01 0.34779184461E+01
 0.34094834290E+01 0.33042418400E+01 0.31829803384E+01 0.30694746276E+01 0.29835295218E+01
 0.29377315488E+01 0.29377303932E+01 0.29835279474E+01 0.30694772127E+01 0.31829899166E+01
 0.33042532534E+01 0.34094836298E+01 0.34778980943E+01 0.34979827926E+01 0.32445918741E+01
 0.31062510469E+01 0.30011796188E+01 0.29621307622E+01 0.30011503093E+01 0.31062123746E+01
 0.32445682035E+01 0.33726244214E+01 0.34506075920E+01 0.34571200715E+01 0.33965624400E+01
 0.32906758277E+01 0.31680458798E+01 0.30581202699E+01 0.29835312892E+01 0.29573044810E+01
 0.29835279474E+01 0.30581186762E+01 0.31680487467E+01 0.32906778985E+01 0.33965546981E+01
 0.34571006970E+01 0.34505880023E+01 0.33726222590E+01 0.28028745826E+01 0.25942320662E+01
 0.24745942982E+01 0.24745880900E+01 0.25942128828E+01 0.28028445414E+01 0.30464429776E+01
 0.32624956638E+01 0.34000900838E+01 0.34374440188E+01 0.33878342271E+01 0.32856481241E+01
 0.31680483476E+01 0.30694771278E+01 0.30142419503E+01 0.30142417177E+01 0.30694772127E+01
 0.31680487467E+01 0.32856457576E+01 0.33878268782E+01 0.34374365852E+01 0.34000931938E+01
 0.32625156190E+01 0.30464743559E+01 0.21722836206E+01 0.19337004625E+01 0.18479591798E+01
 0.19337180967E+01 0.21722998000E+01 0.25106457059E+01 0.28721138562E+01 0.31770274456E+01
 0.33681625896E+01 0.34295158186E+01 0.33878277276E+01 0.32906766015E+01 0.31829880452E+01
 0.31025083944E+01 0.30730413810E+01 0.31025092357E+01 0.31829899166E+01 0.32906778985E+01
 0.33878268782E+01 0.34295163385E+01 0.33681721212E+01 0.31770476013E+01 0.28721330674E+01
 0.25106481632E+01 0.14465537711E+01 0.12362535825E+01 0.12362666423E+01 0.14465846648E+01
 0.18268527756E+01 0.23007178160E+01 0.27706149023E+01 0.31449616573E+01 0.33681648274E+01
 0.34374312321E+01 0.33965517381E+01 0.33042523724E+01 0.32106464504E+01 0.31538734690E+01
 0.31538731123E+01 0.32106460678E+01 0.33042532534E+01 0.33965546981E+01 0.34374365852E+01
 0.33681721212E+01 0.31449677072E+01 0.27706126625E+01 0.23007004801E+01 0.18268219016E+01
 0.75572119292E+00 0.63042245499E+00 0.75571733813E+00 0.11108460823E+01 0.16333327157E+01
 0.22245386180E+01 0.27706237360E+01 0.31770461456E+01 0.34000877443E+01 0.34570993969E+01
 0.34094857293E+01 0.33221824482E+01 0.32467126989E+01 0.32175831023E+01 0.32467137678E+01
 0.33221816849E+01 0.34094836298E+01 0.34571006970E+01 0.34000931938E+01 0.31770476013E+01
 0.27706126625E+01 0.22245183669E+01 0.16333168789E+01 0.11108430767E+01 0.22345827696E+00
 0.22344279162E+00 0.49329043107E+00 0.99148756677E+00 0.16333191967E+01 0.23007121276E+01
 0.28721382071E+01 0.32625134831E+01 0.34505874108E+01 0.34779017653E+01 0.34190232895E+01
 0.33386802327E+01 0.32853434118E+01 0.32853453049E+01 0.33386822684E+01 0.34190209872E+01
 0.34778980943E+01 0.34505880023E+01 0.32625156190E+01 0.28721330674E+01 0.23007004801E+01
 0.16333168789E+01 0.99150748553E+00 0.49332196335E+00 -.63462559015E-01 0.80762220849E-01
 0.49332196335E+00 0.11108430767E+01 0.18268219016E+01 0.25106481632E+01 0.30464743559E+01
 0.33726222590E+01 0.34979827926E+01 0.34869906948E+01 0.34171366595E+01 0.33481143996E+01
 0.33203690549E+01 0.33481143996E+01 0.34171366595E+01 0.34869906948E+01 0.34979827926E+01
 0.33726222590E+01 0.30464743559E+01 0.25106481632E+01 0.18268219016E+01 0.11108430767E+01
 0.49332196335E+00 0.80762220849E-01 0.36184912524E+00 0.75578334827E+00 0.13404080736E+01
 0.20105816180E+01 0.26415148540E+01 0.31260248643E+01 0.34103560901E+01 0.35075695512E+01
 0.34814735219E+01 0.34045278978E+01 0.33329408305E+01 0.33046640431E+01 0.33329398574E+01
 0.34045301086E+01 0.34814775178E+01 0.35075686765E+01 0.34103519954E+01 0.31260304665E+01
 0.26415337669E+01 0.20105907146E+01 0.13403764536E+01 0.75571389928E+00 0.36178952870E+00
 0.22345827696E+00 0.75578334827E+00 0.12363121049E+01 0.18479582596E+01 0.24745676739E+01
 0.30011612902E+01 0.33509808058E+01 0.35090609390E+01 0.35189322352E+01 0.34519418925E+01
 0.33686445417E+01 0.33147283428E+01 0.33147285278E+01 0.33686467244E+01 0.34519459055E+01
 0.35189321965E+01 0.35090548871E+01 0.33509804171E+01 0.30011796188E+01 0.24745942982E+01
 0.18479591798E+01 0.12362666423E+01 0.75571733813E+00 0.49329043107E+00 0.49332196335E+00
 0.13404080736E+01 0.18479582596E+01 0.24138530071E+01 0.29273321175E+01 0.33005889391E+01
 0.34967803597E+01 0.35370705374E+01 0.34820088309E+01 0.33924440696E+01 0.33171548030E+01
 0.32883768382E+01 0.33171523625E+01 0.33924447233E+01 0.34820128299E+01 0.35370705925E+01
 0.34967744367E+01 0.33005885769E+01 0.29273497741E+01 0.24138831455E+01 0.18479800272E+01
 0.13404094200E+01 0.99149923400E+00 0.86762400645E+00 0.99150748553E+00 0.20105816180E+01
 0.24745676739E+01 0.29273321175E+01 0.32810725474E+01 0.34859208303E+01 0.35435028987E+01
 0.34984729702E+01 0.34064113864E+01 0.33149975840E+01 0.32600532873E+01 0.32600502470E+01
 0.33149928954E+01 0.34064120179E+01 0.34984779553E+01 0.35435032235E+01 0.34859112924E+01
 0.32810617473E+01 0.29273378724E+01 0.24746010832E+01 0.20106349299E+01 0.16333661328E+01
 0.14228190556E+01 0.14227991020E+01 0.16333168789E+01 0.26415148540E+01 0.30011612902E+01
 0.33005889391E+01 0.34859208303E+01 0.35447884249E+01 0.35054387674E+01 0.34133247177E+01
 0.33114864457E+01 0.32356478681E+01 0.32079400403E+01 0.32356468902E+01 0.33114843514E+01
 0.34133238216E+01 0.35054412970E+01 0.35447899434E+01 0.34859122032E+01 0.33005703470E+01
 0.30011505912E+01 0.26415327600E+01 0.23007441806E+01 0.20580504101E+01 0.19703184741E+01
 0.20580124753E+01 0.23007004801E+01 0.31260248643E+01 0.33509808058E+01 0.34967803597E+01
 0.35435028987E+01 0.35054387674E+01 0.34153633323E+01 0.33090960306E+01 0.32194452935E+01
 0.31691421139E+01 0.31691441855E+01 0.32194471854E+01 0.33090929643E+01 0.34153606583E+01
 0.35054454635E+01 0.35435154750E+01 0.34967826044E+01 0.33509637243E+01 0.31260002358E+01
 0.28721202014E+01 0.26535052765E+01 0.25275319067E+01 0.25275280119E+01 0.26535028526E+01
 0.28721330674E+01 0.34103560901E+01 0.35090609390E+01 0.35370705374E+01 0.34984729702E+01
 0.34133247177E+01 0.33090960306E+01 0.32138065474E+01 0.31486727714E+01 0.31257198456E+01
 0.31486746835E+01 0.32138060833E+01 0.33090924577E+01 0.34133248643E+01 0.34984842515E+01
 0.35370906486E+01 0.35090771005E+01 0.34103556852E+01 0.32624972064E+01 0.31066513766E+01
 0.29891342781E+01 0.29455485811E+01 0.29891520857E+01 0.31066769923E+01 0.32625156190E+01
 0.35075695512E+01 0.35189322352E+01 0.34820088309E+01 0.34064113864E+01 0.33114864457E+01
 0.32194452935E+01 0.31486727714E+01 0.31107250581E+01 0.31107250068E+01 0.31486726610E+01
 0.32194439054E+01 0.33114813846E+01 0.34064043586E+01 0.34820090818E+01 0.35189488706E+01
 0.35075984293E+01 0.34506110327E+01 0.33668506145E+01 0.32858490426E+01 0.32365424053E+01
 0.32365502710E+01 0.32858616450E+01 0.33668481102E+01 0.34505880023E+01 0.34814735219E+01
 0.34519418925E+01 0.33924440696E+01 0.33149975840E+01 0.32356478681E+01 0.31691421139E+01
 0.31257198456E+01 0.31107250068E+01 0.31257186729E+01 0.31691422266E+01 0.32356468498E+01
 0.33149880970E+01 0.33924253824E+01 0.34519268825E+01 0.34814775790E+01 0.34779214351E+01
 0.34480738762E+01 0.34063266889E+01 0.33710577522E+01 0.33573720210E+01 0.33710541210E+01
 0.34063116887E+01 0.34480473461E+01 0.34778980943E+01 0.34045278978E+01 0.33686445417E+01
 0.33171548030E+01 0.32600532873E+01 0.32079400403E+01 0.31691441855E+01 0.31486746835E+01
 0.31486726610E+01 0.31691422266E+01 0.32079439582E+01 0.32600601909E+01 0.33171537669E+01
 0.33686288528E+01 0.34045040875E+01 0.34190036991E+01 0.34129570140E+01 0.33935859904E+01
 0.33717033240E+01 0.33576269083E+01 0.33576208343E+01 0.33716890988E+01 0.33935740101E+01
 0.34129582659E+01 0.34190209872E+01 0.33329408305E+01 0.33147283428E+01 0.32883768382E+01
 0.32600502470E+01 0.32356468902E+01 0.32194471854E+01 0.32138060833E+01 0.32194439054E+01
 0.32356468498E+01 0.32600601909E+01 0.32883955927E+01 0.33147444323E+01 0.33329405402E+01
 0.33386626482E+01 0.33312692805E+01 0.33143095400E+01 0.32943471067E+01 0.32786455715E+01
 0.32727263477E+01 0.32786391289E+01 0.32943469365E+01 0.33143255831E+01 0.33312957475E+01
 0.33386822684E+01 0.33046640431E+01 0.33147285278E+01 0.33171523625E+01 0.33149928954E+01
 0.33114843514E+01 0.33090929643E+01 0.33090924577E+01 0.33114813846E+01 0.33149880970E+01
 0.33171537669E+01 0.33147444323E+01 0.33046900434E+01 0.32853646256E+01 0.32576331447E+01
 0.32250662223E+01 0.31931344070E+01 0.31677389190E+01 0.31537046656E+01 0.31537047767E+01
 0.31677433948E+01 0.31931473941E+01 0.32250800816E+01 0.32576328995E+01 0.32853453049E+01
 0.33329398574E+01 0.33686467244E+01 0.33924447233E+01 0.34064120179E+01 0.34133238216E+01
 0.34153606583E+01 0.34133248643E+01 0.34064043586E+01 0.33924253824E+01 0.33686288528E+01
 0.33329405402E+01 0.32853646256E+01 0.32288317744E+01 0.31689736571E+01 0.31128726870E+01
 0.30674108006E+01 0.30379625002E+01 0.30277901527E+01 0.30379667804E+01 0.30674162984E+01
 0.31128715796E+01 0.31689582728E+01 0.32288053204E+01 0.32853434118E+01 0.34045301086E+01
 0.34519459055E+01 0.34820128299E+01 0.34984779553E+01 0.35054412970E+01 0.35054454635E+01
 0.34984842515E+01 0.34820090818E+01 0.34519268825E+01 0.34045040875E+01 0.33386626482E+01
 0.32576331447E+01 0.31689736571E+01 0.30828102944E+01 0.30092257780E+01 0.29561414157E+01
 0.29284925049E+01 0.29284944576E+01 0.29561430717E+01 0.30092196486E+01 0.30827954911E+01
 0.31689597325E+01 0.32576328995E+01 0.33386802327E+01 0.34814775178E+01 0.35189321965E+01
 0.35370705925E+01 0.35435032235E+01 0.35447899434E+01 0.35435154750E+01 0.35370906486E+01
 0.35189488706E+01 0.34814775790E+01 0.34190036991E+01 0.33312692805E+01 0.32250662223E+01
 0.31128726870E+01 0.30092257780E+01 0.29268517457E+01 0.28744413609E+01 0.28565291340E+01
 0.28744427749E+01 0.29268489827E+01 0.30092190148E+01 0.31128724988E+01 0.32250820582E+01
 0.33312957475E+01 0.34190232895E+01 0.35075686765E+01 0.35090548871E+01 0.34967744367E+01
 0.34859112924E+01 0.34859122032E+01 0.34967826044E+01 0.35090771005E+01 0.35075984293E+01
 0.34779214351E+01 0.34129570140E+01 0.33143095400E+01 0.31931344070E+01 0.30674108006E+01
 0.29561414157E+01 0.28744413609E+01 0.28315742066E+01 0.28315746760E+01 0.28744416170E+01
 0.29561417182E+01 0.30674162758E+01 0.31931485850E+01 0.33143248841E+01 0.34129582659E+01
 0.34779017653E+01 0.34103519954E+01 0.33509804171E+01 0.33005885769E+01 0.32810617473E+01
 0.33005703470E+01 0.33509637243E+01 0.34103556852E+01 0.34506110327E+01 0.34480738762E+01
 0.33935859904E+01 0.32943471067E+01 0.31677389190E+01 0.30379625002E+01 0.29284925049E+01
 0.28565291340E+01 0.28315746760E+01 0.28565281674E+01 0.29284929795E+01 0.30379669470E+01
 0.31677456083E+01 0.32943479097E+01 0.33935722238E+01 0.34480473461E+01 0.34505874108E+01
 0.31260304665E+01 0.30011796188E+01 0.29273497741E+01 0.29273378724E+01 0.30011505912E+01
 0.31260002358E+01 0.32624972064E+01 0.33668506145E+01 0.34063266889E+01 0.33717033240E+01
 0.32786455715E+01 0.31537046656E+01 0.30277901527E+01 0.29284944576E+01 0.28744427749E+01
 0.28744416170E+01 0.29284929795E+01 0.30277909533E+01 0.31537056474E+01 0.32786408317E+01
 0.33716906058E+01 0.34063128952E+01 0.33668481102E+01 0.32625134831E+01 0.26415337669E+01
 0.24745942982E+01 0.24138831455E+01 0.24746010832E+01 0.26415327600E+01 0.28721202014E+01
 0.31066513766E+01 0.32858490426E+01 0.33710577522E+01 0.33576269083E+01 0.32727263477E+01
 0.31537047767E+01 0.30379667804E+01 0.29561430717E+01 0.29268489827E+01 0.29561417182E+01
 0.30379669470E+01 0.31537056474E+01 0.32727231251E+01 0.33576201052E+01 0.33710576686E+01
 0.32858648059E+01 0.31066769923E+01 0.28721382071E+01 0.20105907146E+01 0.18479591798E+01
 0.18479800272E+01 0.20106349299E+01 0.23007441806E+01 0.26535052765E+01 0.29891342781E+01
 0.32365424053E+01 0.33573720210E+01 0.33576208343E+01 0.32786391289E+01 0.31677433948E+01
 0.30674162984E+01 0.30092196486E+01 0.30092190148E+01 0.30674162758E+01 0.31677456083E+01
 0.32786408317E+01 0.33576201052E+01 0.33573744779E+01 0.32365547883E+01 0.29891496358E+01