   1   1   1   0
  0.1660753E+02  0.2863783E-09  0.2863783E-09  0.2863783E-09  0.5000000E-15
  1.000000000000000E-004
  CAR 
 bcc Al                                  
     25.29527776     -5.16331435  301      7.94232915      1.00000000
     -5.163  0.0000E+00  0.0000E+00
     -5.062  0.0000E+00  0.0000E+00
     -4.960  0.0000E+00  0.0000E+00
     -4.859 -0.4316E-35 -0.4382E-36
     -4.757 -0.3033E-31 -0.3080E-32
     -4.656 -0.7613E-28 -0.7733E-29
     -4.554 -0.1144E-24 -0.1162E-25
     -4.453 -0.1028E-21 -0.1045E-22
     -4.351 -0.5539E-19 -0.5634E-20
     -4.250 -0.1730E-16 -0.1762E-17
     -4.148 -0.3321E-14 -0.3389E-15
     -4.046 -0.3814E-12 -0.3906E-13
     -3.945 -0.2616E-10 -0.2695E-11
     -3.843 -0.1070E-08 -0.1113E-09
     -3.742 -0.2598E-07 -0.2749E-08
     -3.640 -0.3712E-06 -0.4044E-07
     -3.539 -0.3056E-05 -0.3507E-06
     -3.437 -0.1372E-04 -0.1744E-05
     -3.336 -0.2685E-04 -0.4469E-05
     -3.234  0.2132E-04 -0.2305E-05
     -3.133  0.2354E-03  0.2160E-04
     -3.031  0.6041E-03  0.8293E-04
     -2.930  0.9753E-03  0.1819E-03
     -2.828  0.1254E-02  0.3092E-03
     -2.727  0.1461E-02  0.4575E-03
     -2.625  0.1637E-02  0.6237E-03
     -2.524  0.1797E-02  0.8061E-03
     -2.422  0.1945E-02  0.1004E-02
     -2.321  0.2083E-02  0.1215E-02
     -2.219  0.2214E-02  0.1440E-02
     -2.117  0.2337E-02  0.1677E-02
     -2.016  0.2455E-02  0.1926E-02
     -1.914  0.2567E-02  0.2187E-02
     -1.813  0.2676E-02  0.2459E-02
     -1.711  0.2780E-02  0.2741E-02
     -1.610  0.2881E-02  0.3033E-02
     -1.508  0.2982E-02  0.3336E-02
     -1.407  0.3071E-02  0.3648E-02
     -1.305  0.3169E-02  0.3970E-02
     -1.204  0.3260E-02  0.4301E-02
     -1.102  0.3338E-02  0.4640E-02
     -1.001  0.3439E-02  0.4989E-02
     -0.899  0.3519E-02  0.5346E-02
     -0.798  0.3586E-02  0.5710E-02
     -0.696  0.3693E-02  0.6085E-02
     -0.595  0.3764E-02  0.6467E-02
     -0.493  0.3820E-02  0.6855E-02
     -0.391  0.3928E-02  0.7254E-02
     -0.290  0.4006E-02  0.7661E-02
     -0.188  0.4042E-02  0.8071E-02
     -0.087  0.4136E-02  0.8491E-02
      0.015  0.4247E-02  0.8922E-02
      0.116  0.4266E-02  0.9355E-02
      0.218  0.4325E-02  0.9794E-02
      0.319  0.4458E-02  0.1025E-01
      0.421  0.4511E-02  0.1071E-01
      0.522  0.4524E-02  0.1116E-01
      0.624  0.4613E-02  0.1163E-01
      0.725  0.4740E-02  0.1211E-01
      0.827  0.4777E-02  0.1260E-01
      0.928  0.4763E-02  0.1308E-01
      1.030  0.4889E-02  0.1358E-01
      1.131  0.5028E-02  0.1409E-01
      1.233  0.5008E-02  0.1460E-01
      1.335  0.5022E-02  0.1511E-01
      1.436  0.5151E-02  0.1563E-01
      1.538  0.5264E-02  0.1617E-01
      1.639  0.5290E-02  0.1670E-01
      1.741  0.5269E-02  0.1724E-01
      1.842  0.5346E-02  0.1778E-01
      1.944  0.5534E-02  0.1834E-01
      2.045  0.5576E-02  0.1891E-01
      2.147  0.5482E-02  0.1946E-01
      2.248  0.5574E-02  0.2003E-01
      2.350  0.5772E-02  0.2062E-01
      2.451  0.5808E-02  0.2121E-01
      2.553  0.5787E-02  0.2179E-01
      2.654  0.5815E-02  0.2238E-01
      2.756  0.5904E-02  0.2298E-01
      2.857  0.6069E-02  0.2360E-01
      2.959  0.6141E-02  0.2422E-01
      3.061  0.6048E-02  0.2484E-01
      3.162  0.6067E-02  0.2545E-01
      3.264  0.6325E-02  0.2610E-01
      3.365  0.6485E-02  0.2675E-01
      3.467  0.6346E-02  0.2740E-01
      3.568  0.6246E-02  0.2803E-01
      3.670  0.6392E-02  0.2868E-01
      3.771  0.6542E-02  0.2935E-01
      3.873  0.6586E-02  0.3001E-01
      3.974  0.6628E-02  0.3069E-01
      4.076  0.6630E-02  0.3136E-01
      4.177  0.6663E-02  0.3204E-01
      4.279  0.6882E-02  0.3274E-01
      4.380  0.7015E-02  0.3345E-01
      4.482  0.6910E-02  0.3415E-01
      4.583  0.6899E-02  0.3485E-01
      4.685  0.7148E-02  0.3558E-01
      4.786  0.7353E-02  0.3632E-01
      4.888  0.7360E-02  0.3707E-01
      4.990  0.7467E-02  0.3783E-01
      5.091  0.7751E-02  0.3861E-01
      5.193  0.7849E-02  0.3941E-01
      5.294  0.7651E-02  0.4019E-01
      5.396  0.7524E-02  0.4095E-01
      5.497  0.7573E-02  0.4172E-01
      5.599  0.7473E-02  0.4248E-01
      5.700  0.7258E-02  0.4322E-01
      5.802  0.7209E-02  0.4395E-01
      5.903  0.7229E-02  0.4468E-01
      6.005  0.7105E-02  0.4540E-01
      6.106  0.6923E-02  0.4611E-01
      6.208  0.6880E-02  0.4680E-01
      6.309  0.6955E-02  0.4751E-01
      6.411  0.7074E-02  0.4823E-01
      6.512  0.7206E-02  0.4896E-01
      6.614  0.7315E-02  0.4970E-01
      6.716  0.7425E-02  0.5046E-01
      6.817  0.7596E-02  0.5123E-01
      6.919  0.7813E-02  0.5202E-01
      7.020  0.7904E-02  0.5282E-01
      7.122  0.7881E-02  0.5362E-01
      7.223  0.7817E-02  0.5442E-01
      7.325  0.7696E-02  0.5520E-01
      7.426  0.7660E-02  0.5598E-01
      7.528  0.7709E-02  0.5676E-01
      7.629  0.7688E-02  0.5754E-01
      7.731  0.7657E-02  0.5832E-01
      7.832  0.7816E-02  0.5911E-01
      7.934  0.8074E-02  0.5993E-01
      8.035  0.8245E-02  0.6077E-01
      8.137  0.8379E-02  0.6162E-01
      8.238  0.8441E-02  0.6248E-01
      8.340  0.8346E-02  0.6332E-01
      8.442  0.8276E-02  0.6416E-01
      8.543  0.8389E-02  0.6502E-01
      8.645  0.8465E-02  0.6587E-01
      8.746  0.8430E-02  0.6673E-01
      8.848  0.8563E-02  0.6760E-01
      8.949  0.8649E-02  0.6848E-01
      9.051  0.8308E-02  0.6932E-01
      9.152  0.8015E-02  0.7014E-01
      9.254  0.8413E-02  0.7099E-01
      9.355  0.9139E-02  0.7192E-01
      9.457  0.9309E-02  0.7286E-01
      9.558  0.8673E-02  0.7374E-01
      9.660  0.8100E-02  0.7457E-01
      9.761  0.8472E-02  0.7543E-01
      9.863  0.9260E-02  0.7637E-01
      9.964  0.9443E-02  0.7732E-01
     10.066  0.9055E-02  0.7824E-01
     10.168  0.8800E-02  0.7914E-01
     10.269  0.8963E-02  0.8005E-01
     10.371  0.9059E-02  0.8097E-01
     10.472  0.9006E-02  0.8188E-01
     10.574  0.9360E-02  0.8283E-01
     10.675  0.9622E-02  0.8381E-01
     10.777  0.9311E-02  0.8475E-01
     10.878  0.9147E-02  0.8568E-01
     10.980  0.9349E-02  0.8663E-01
     11.081  0.9453E-02  0.8759E-01
     11.183  0.9509E-02  0.8856E-01
     11.284  0.9651E-02  0.8954E-01
     11.386  0.9587E-02  0.9051E-01
     11.487  0.9564E-02  0.9148E-01
     11.589  0.9881E-02  0.9248E-01
     11.690  0.9987E-02  0.9350E-01
     11.792  0.9638E-02  0.9448E-01
     11.893  0.9476E-02  0.9544E-01
     11.995  0.9823E-02  0.9644E-01
     12.097  0.1029E-01  0.9748E-01
     12.198  0.1037E-01  0.9853E-01
     12.300  0.1010E-01  0.9956E-01
     12.401  0.1006E-01  0.1006E+00
     12.503  0.1010E-01  0.1016E+00
     12.604  0.9980E-02  0.1026E+00
     12.706  0.1027E-01  0.1037E+00
     12.807  0.1088E-01  0.1048E+00
     12.909  0.1087E-01  0.1059E+00
     13.010  0.1050E-01  0.1069E+00
     13.112  0.1058E-01  0.1080E+00
     13.213  0.1081E-01  0.1091E+00
     13.315  0.1091E-01  0.1102E+00
     13.416  0.1127E-01  0.1114E+00
     13.518  0.1187E-01  0.1126E+00
     13.619  0.1217E-01  0.1138E+00
     13.721  0.1191E-01  0.1150E+00
     13.823  0.1149E-01  0.1162E+00
     13.924  0.1150E-01  0.1173E+00
     14.026  0.1151E-01  0.1185E+00
     14.127  0.1118E-01  0.1196E+00
     14.229  0.1112E-01  0.1208E+00
     14.330  0.1131E-01  0.1219E+00
     14.432  0.1122E-01  0.1231E+00
     14.533  0.1092E-01  0.1242E+00
     14.635  0.1071E-01  0.1253E+00
     14.736  0.1070E-01  0.1263E+00
     14.838  0.1081E-01  0.1274E+00
     14.939  0.1072E-01  0.1285E+00
     15.041  0.1048E-01  0.1296E+00
     15.142  0.1055E-01  0.1307E+00
     15.244  0.1076E-01  0.1318E+00
     15.345  0.1085E-01  0.1329E+00
     15.447  0.1078E-01  0.1340E+00
     15.549  0.1045E-01  0.1350E+00
     15.650  0.1028E-01  0.1361E+00
     15.752  0.1055E-01  0.1371E+00
     15.853  0.1064E-01  0.1382E+00
     15.955  0.1059E-01  0.1393E+00
     16.056  0.1086E-01  0.1404E+00
     16.158  0.1095E-01  0.1415E+00
     16.259  0.1059E-01  0.1426E+00
     16.361  0.1035E-01  0.1436E+00
     16.462  0.1032E-01  0.1447E+00
     16.564  0.1035E-01  0.1457E+00
     16.665  0.1066E-01  0.1468E+00
     16.767  0.1104E-01  0.1479E+00
     16.868  0.1087E-01  0.1490E+00
     16.970  0.1039E-01  0.1501E+00
     17.071  0.1034E-01  0.1511E+00
     17.173  0.1050E-01  0.1522E+00
     17.275  0.1040E-01  0.1533E+00
     17.376  0.1037E-01  0.1543E+00
     17.478  0.1058E-01  0.1554E+00
     17.579  0.1058E-01  0.1565E+00
     17.681  0.1044E-01  0.1575E+00
     17.782  0.1062E-01  0.1586E+00
     17.884  0.1063E-01  0.1597E+00
     17.985  0.1025E-01  0.1607E+00
     18.087  0.1004E-01  0.1617E+00
     18.188  0.1012E-01  0.1628E+00
     18.290  0.1039E-01  0.1638E+00
     18.391  0.1062E-01  0.1649E+00
     18.493  0.1055E-01  0.1660E+00
     18.594  0.1030E-01  0.1670E+00
     18.696  0.1014E-01  0.1680E+00
     18.797  0.1025E-01  0.1691E+00
     18.899  0.1050E-01  0.1702E+00
     19.001  0.1086E-01  0.1713E+00
     19.102  0.1147E-01  0.1724E+00
     19.204  0.1194E-01  0.1736E+00
     19.305  0.1163E-01  0.1748E+00
     19.407  0.1123E-01  0.1760E+00
     19.508  0.1166E-01  0.1771E+00
     19.610  0.1203E-01  0.1784E+00
     19.711  0.1149E-01  0.1795E+00
     19.813  0.1079E-01  0.1806E+00
     19.914  0.1052E-01  0.1817E+00
     20.016  0.1051E-01  0.1828E+00
     20.117  0.1082E-01  0.1839E+00
     20.219  0.1136E-01  0.1850E+00
     20.320  0.1133E-01  0.1862E+00
     20.422  0.1011E-01  0.1872E+00
     20.523  0.8756E-02  0.1881E+00
     20.625  0.8636E-02  0.1889E+00
     20.726  0.9043E-02  0.1899E+00
     20.828  0.8814E-02  0.1908E+00
     20.930  0.8277E-02  0.1916E+00
     21.031  0.7841E-02  0.1924E+00
     21.133  0.7298E-02  0.1931E+00
     21.234  0.6712E-02  0.1938E+00
     21.336  0.6358E-02  0.1945E+00
     21.437  0.6077E-02  0.1951E+00
     21.539  0.5530E-02  0.1956E+00
     21.640  0.5036E-02  0.1962E+00
     21.742  0.5174E-02  0.1967E+00
     21.843  0.5343E-02  0.1972E+00
     21.945  0.4790E-02  0.1977E+00
     22.046  0.3950E-02  0.1981E+00
     22.148  0.3279E-02  0.1984E+00
     22.249  0.2768E-02  0.1987E+00
     22.351  0.2419E-02  0.1990E+00
     22.452  0.2287E-02  0.1992E+00
     22.554  0.2198E-02  0.1994E+00
     22.656  0.1861E-02  0.1996E+00
     22.757  0.1356E-02  0.1998E+00
     22.859  0.9310E-03  0.1998E+00
     22.960  0.6019E-03  0.1999E+00
     23.062  0.3141E-03  0.1999E+00
     23.163  0.1506E-03  0.2000E+00
     23.265  0.1683E-03  0.2000E+00
     23.366  0.1861E-03  0.2000E+00
     23.468  0.9194E-04  0.2000E+00
     23.569  0.6173E-05  0.2000E+00
     23.671 -0.1070E-04  0.2000E+00
     23.772 -0.4150E-05  0.2000E+00
     23.874 -0.6800E-06  0.2000E+00
     23.975 -0.5854E-07  0.2000E+00
     24.077 -0.2821E-08  0.2000E+00
     24.178 -0.7816E-10  0.2000E+00
     24.280 -0.1263E-11  0.2000E+00
     24.382 -0.1199E-13  0.2000E+00
     24.483 -0.6719E-16  0.2000E+00
     24.585 -0.2333E-18  0.2000E+00
     24.686  0.0000E+00  0.2000E+00
     24.788  0.0000E+00  0.2000E+00
     24.889  0.0000E+00  0.2000E+00
     24.991  0.0000E+00  0.2000E+00
     25.092  0.0000E+00  0.2000E+00
     25.194  0.0000E+00  0.2000E+00
     25.295  0.0000E+00  0.2000E+00
     25.29527776     -5.16331435  301      7.94232915      1.00000000
     -5.163  0.0000E+00  0.0000E+00  0.0000E+00
     -5.062  0.0000E+00  0.0000E+00  0.0000E+00
     -4.960  0.0000E+00  0.0000E+00  0.0000E+00
     -4.859 -0.1278E-33 -0.5853E-37 -0.1989E-40
     -4.757 -0.8974E-30 -0.1576E-32 -0.1309E-35
     -4.656 -0.2252E-26 -0.4287E-29 -0.3761E-32
     -4.554 -0.3382E-23 -0.6995E-26 -0.6482E-29
     -4.453 -0.3041E-20 -0.6864E-23 -0.6752E-26
     -4.351 -0.1638E-17 -0.4055E-20 -0.4260E-23
     -4.250 -0.5113E-15 -0.1401E-17 -0.1587E-20
     -4.148 -0.9814E-13 -0.2987E-15 -0.3659E-18
     -4.046 -0.1127E-10 -0.3848E-13 -0.5156E-16
     -3.945 -0.7726E-09 -0.2995E-11 -0.4437E-14
     -3.843 -0.3158E-07 -0.1409E-09 -0.2340E-12
     -3.742 -0.7663E-06 -0.4010E-08 -0.7590E-11
     -3.640 -0.1094E-04 -0.6894E-07 -0.1520E-09
     -3.539 -0.8991E-04 -0.7123E-06 -0.1885E-08
     -3.437 -0.4026E-03 -0.4347E-05 -0.1448E-07
     -3.336 -0.7817E-03 -0.1478E-04 -0.6803E-07
     -3.234  0.6517E-03 -0.2081E-04 -0.1839E-06
     -3.133  0.6946E-02  0.3397E-04 -0.1922E-06
     -3.031  0.1768E-01  0.2345E-03  0.5233E-06
     -2.930  0.2832E-01  0.6192E-03  0.2973E-05
     -2.828  0.3605E-01  0.1157E-02  0.8167E-05
     -2.727  0.4157E-01  0.1804E-02  0.1686E-04
     -2.625  0.4607E-01  0.2534E-02  0.2958E-04
     -2.524  0.5003E-01  0.3336E-02  0.4679E-04
     -2.422  0.5358E-01  0.4202E-02  0.6889E-04
     -2.321  0.5677E-01  0.5126E-02  0.9627E-04
     -2.219  0.5967E-01  0.6104E-02  0.1292E-03
     -2.117  0.6230E-01  0.7129E-02  0.1681E-03
     -2.016  0.6474E-01  0.8202E-02  0.2132E-03
     -1.914  0.6695E-01  0.9311E-02  0.2645E-03
     -1.813  0.6904E-01  0.1047E-01  0.3229E-03
     -1.711  0.7092E-01  0.1165E-01  0.3876E-03
     -1.610  0.7266E-01  0.1287E-01  0.4598E-03
     -1.508  0.7438E-01  0.1414E-01  0.5395E-03
     -1.407  0.7574E-01  0.1539E-01  0.6250E-03
     -1.305  0.7727E-01  0.1674E-01  0.7209E-03
     -1.204  0.7860E-01  0.1807E-01  0.8223E-03
     -1.102  0.7955E-01  0.1938E-01  0.9304E-03
     -1.001  0.8100E-01  0.2086E-01  0.1053E-02
     -0.899  0.8194E-01  0.2223E-01  0.1176E-02
     -0.798  0.8254E-01  0.2358E-01  0.1307E-02
     -0.696  0.8399E-01  0.2521E-01  0.1459E-02
     -0.595  0.8463E-01  0.2660E-01  0.1605E-02
     -0.493  0.8484E-01  0.2794E-01  0.1758E-02
     -0.391  0.8619E-01  0.2969E-01  0.1940E-02
     -0.290  0.8689E-01  0.3122E-01  0.2116E-02
     -0.188  0.8661E-01  0.3245E-01  0.2284E-02
     -0.087  0.8752E-01  0.3420E-01  0.2492E-02
      0.015  0.8878E-01  0.3608E-01  0.2715E-02
      0.116  0.8813E-01  0.3719E-01  0.2895E-02
      0.218  0.8818E-01  0.3872E-01  0.3115E-02
      0.319  0.8976E-01  0.4092E-01  0.3387E-02
      0.421  0.8973E-01  0.4236E-01  0.3611E-02
      0.522  0.8884E-01  0.4347E-01  0.3824E-02
      0.624  0.8938E-01  0.4536E-01  0.4100E-02
      0.725  0.9066E-01  0.4764E-01  0.4414E-02
      0.827  0.9023E-01  0.4896E-01  0.4664E-02
      0.928  0.8876E-01  0.4982E-01  0.4879E-02
      1.030  0.8984E-01  0.5223E-01  0.5238E-02
      1.131  0.9119E-01  0.5473E-01  0.5608E-02
      1.233  0.8963E-01  0.5547E-01  0.5831E-02
      1.335  0.8861E-01  0.5666E-01  0.6115E-02
      1.436  0.8960E-01  0.5921E-01  0.6516E-02
      1.538  0.9028E-01  0.6158E-01  0.6905E-02
      1.639  0.8948E-01  0.6287E-01  0.7220E-02
      1.741  0.8785E-01  0.6362E-01  0.7479E-02
      1.842  0.8775E-01  0.6569E-01  0.7862E-02
      1.944  0.8945E-01  0.6914E-01  0.8408E-02
      2.045  0.8886E-01  0.7066E-01  0.8762E-02
      2.147  0.8603E-01  0.7048E-01  0.8935E-02
      2.248  0.8599E-01  0.7283E-01  0.9401E-02
      2.350  0.8760E-01  0.7661E-01  0.1000E-01
      2.451  0.8671E-01  0.7821E-01  0.1036E-01
      2.553  0.8497E-01  0.7899E-01  0.1068E-01
      2.654  0.8390E-01  0.8049E-01  0.1108E-01
      2.756  0.8354E-01  0.8308E-01  0.1152E-01
      2.857  0.8417E-01  0.8676E-01  0.1213E-01
      2.959  0.8359E-01  0.8897E-01  0.1262E-01
      3.061  0.8064E-01  0.8890E-01  0.1278E-01
      3.162  0.7880E-01  0.9087E-01  0.1310E-01
      3.264  0.7953E-01  0.9696E-01  0.1382E-01
      3.365  0.7852E-01  0.1020E+00  0.1425E-01
      3.467  0.7416E-01  0.1019E+00  0.1415E-01
      3.568  0.7166E-01  0.1011E+00  0.1447E-01
      3.670  0.7350E-01  0.1030E+00  0.1557E-01
      3.771  0.7551E-01  0.1049E+00  0.1662E-01
      3.873  0.7579E-01  0.1055E+00  0.1740E-01
      3.974  0.7589E-01  0.1060E+00  0.1825E-01
      4.076  0.7517E-01  0.1063E+00  0.1886E-01
      4.177  0.7420E-01  0.1080E+00  0.1933E-01
      4.279  0.7524E-01  0.1126E+00  0.2037E-01
      4.380  0.7572E-01  0.1153E+00  0.2133E-01
      4.482  0.7370E-01  0.1140E+00  0.2162E-01
      4.583  0.7211E-01  0.1150E+00  0.2202E-01
      4.685  0.7262E-01  0.1210E+00  0.2306E-01
      4.786  0.7277E-01  0.1261E+00  0.2402E-01
      4.888  0.7090E-01  0.1279E+00  0.2434E-01
      4.990  0.6910E-01  0.1326E+00  0.2474E-01
      5.091  0.6852E-01  0.1407E+00  0.2576E-01
      5.193  0.6747E-01  0.1439E+00  0.2656E-01
      5.294  0.6518E-01  0.1403E+00  0.2667E-01
      5.396  0.6340E-01  0.1380E+00  0.2718E-01
      5.497  0.6282E-01  0.1389E+00  0.2830E-01
      5.599  0.6159E-01  0.1369E+00  0.2876E-01
      5.700  0.5944E-01  0.1328E+00  0.2872E-01
      5.802  0.5804E-01  0.1321E+00  0.2938E-01
      5.903  0.5745E-01  0.1325E+00  0.3032E-01
      6.005  0.5634E-01  0.1299E+00  0.3056E-01
      6.106  0.5429E-01  0.1267E+00  0.3046E-01
      6.208  0.5266E-01  0.1264E+00  0.3103E-01
      6.309  0.5270E-01  0.1273E+00  0.3237E-01
      6.411  0.5509E-01  0.1266E+00  0.3443E-01
      6.512  0.5848E-01  0.1249E+00  0.3689E-01
      6.614  0.5980E-01  0.1247E+00  0.3893E-01
      6.716  0.5996E-01  0.1259E+00  0.4065E-01
      6.817  0.6192E-01  0.1268E+00  0.4289E-01
      6.919  0.6426E-01  0.1281E+00  0.4561E-01
      7.020  0.6345E-01  0.1291E+00  0.4752E-01
      7.122  0.6015E-01  0.1300E+00  0.4843E-01
      7.223  0.5677E-01  0.1309E+00  0.4869E-01
      7.325  0.5446E-01  0.1294E+00  0.4869E-01
      7.426  0.5421E-01  0.1279E+00  0.4941E-01
      7.528  0.5644E-01  0.1269E+00  0.5030E-01
      7.629  0.5992E-01  0.1240E+00  0.5034E-01
      7.731  0.6307E-01  0.1210E+00  0.5042E-01
      7.832  0.6642E-01  0.1213E+00  0.5209E-01
      7.934  0.6984E-01  0.1235E+00  0.5459E-01
      8.035  0.7148E-01  0.1252E+00  0.5647E-01
      8.137  0.7147E-01  0.1277E+00  0.5805E-01
      8.238  0.7075E-01  0.1288E+00  0.5926E-01
      8.340  0.6864E-01  0.1273E+00  0.5952E-01
      8.442  0.6600E-01  0.1271E+00  0.5981E-01
      8.543  0.6512E-01  0.1302E+00  0.6120E-01
      8.645  0.6570E-01  0.1309E+00  0.6234E-01
      8.746  0.6612E-01  0.1288E+00  0.6284E-01
      8.848  0.6551E-01  0.1313E+00  0.6470E-01
      8.949  0.6330E-01  0.1347E+00  0.6604E-01
      9.051  0.6055E-01  0.1296E+00  0.6369E-01
      9.152  0.6131E-01  0.1229E+00  0.6139E-01
      9.254  0.6730E-01  0.1269E+00  0.6445E-01
      9.355  0.7233E-01  0.1382E+00  0.7064E-01
      9.457  0.7181E-01  0.1414E+00  0.7266E-01
      9.558  0.6737E-01  0.1312E+00  0.6781E-01
      9.660  0.6359E-01  0.1225E+00  0.6333E-01
      9.761  0.6683E-01  0.1287E+00  0.6629E-01
      9.863  0.7371E-01  0.1400E+00  0.7266E-01
      9.964  0.7382E-01  0.1423E+00  0.7510E-01
     10.066  0.6873E-01  0.1369E+00  0.7294E-01
     10.168  0.6723E-01  0.1337E+00  0.7060E-01
     10.269  0.6977E-01  0.1365E+00  0.7140E-01
     10.371  0.7025E-01  0.1382E+00  0.7245E-01
     10.472  0.6911E-01  0.1371E+00  0.7255E-01
     10.574  0.7063E-01  0.1426E+00  0.7612E-01
     10.675  0.7084E-01  0.1476E+00  0.7906E-01
     10.777  0.6861E-01  0.1435E+00  0.7630E-01
     10.878  0.6897E-01  0.1409E+00  0.7409E-01
     10.980  0.6954E-01  0.1445E+00  0.7624E-01
     11.081  0.6808E-01  0.1470E+00  0.7820E-01
     11.183  0.6840E-01  0.1485E+00  0.7848E-01
     11.284  0.6952E-01  0.1510E+00  0.7932E-01
     11.386  0.6756E-01  0.1504E+00  0.7954E-01
     11.487  0.6609E-01  0.1508E+00  0.8012E-01
     11.589  0.6842E-01  0.1568E+00  0.8231E-01
     11.690  0.6917E-01  0.1595E+00  0.8252E-01
     11.792  0.6586E-01  0.1548E+00  0.7976E-01
     11.893  0.6350E-01  0.1528E+00  0.7902E-01
     11.995  0.6410E-01  0.1593E+00  0.8249E-01
     12.097  0.6609E-01  0.1681E+00  0.8649E-01
     12.198  0.6678E-01  0.1698E+00  0.8684E-01
     12.300  0.6480E-01  0.1664E+00  0.8430E-01
     12.401  0.6264E-01  0.1680E+00  0.8377E-01
     12.503  0.6104E-01  0.1705E+00  0.8427E-01
     12.604  0.6000E-01  0.1691E+00  0.8318E-01
     12.706  0.6123E-01  0.1753E+00  0.8534E-01
     12.807  0.6278E-01  0.1876E+00  0.9048E-01
     12.909  0.6096E-01  0.1887E+00  0.9049E-01
     13.010  0.5771E-01  0.1841E+00  0.8720E-01
     13.112  0.5642E-01  0.1889E+00  0.8696E-01
     13.213  0.5615E-01  0.1967E+00  0.8734E-01
     13.315  0.5542E-01  0.2022E+00  0.8619E-01
     13.416  0.5455E-01  0.2138E+00  0.8701E-01
     13.518  0.5331E-01  0.2298E+00  0.9089E-01
     13.619  0.5106E-01  0.2387E+00  0.9356E-01
     13.721  0.4833E-01  0.2361E+00  0.9113E-01
     13.823  0.4664E-01  0.2296E+00  0.8753E-01
     13.924  0.4630E-01  0.2294E+00  0.8914E-01
     14.026  0.4465E-01  0.2289E+00  0.9140E-01
     14.127  0.4162E-01  0.2223E+00  0.9040E-01
     14.229  0.3997E-01  0.2201E+00  0.9210E-01
     14.330  0.3910E-01  0.2219E+00  0.9671E-01
     14.432  0.3778E-01  0.2196E+00  0.9822E-01
     14.533  0.3687E-01  0.2148E+00  0.9551E-01
     14.635  0.3624E-01  0.2111E+00  0.9372E-01
     14.736  0.3456E-01  0.2087E+00  0.9695E-01
     14.838  0.3258E-01  0.2080E+00  0.1025E+00
     14.939  0.3149E-01  0.2049E+00  0.1036E+00
     15.041  0.3131E-01  0.1997E+00  0.1019E+00
     15.142  0.3167E-01  0.1987E+00  0.1047E+00
     15.244  0.3183E-01  0.1990E+00  0.1106E+00
     15.345  0.3190E-01  0.1977E+00  0.1147E+00
     15.447  0.3147E-01  0.1955E+00  0.1152E+00
     15.549  0.3035E-01  0.1876E+00  0.1135E+00
     15.650  0.3006E-01  0.1807E+00  0.1151E+00
     15.752  0.3075E-01  0.1833E+00  0.1203E+00
     15.853  0.3127E-01  0.1829E+00  0.1229E+00
     15.955  0.3159E-01  0.1786E+00  0.1247E+00
     16.056  0.3198E-01  0.1805E+00  0.1306E+00
     16.158  0.3214E-01  0.1791E+00  0.1343E+00
     16.259  0.3148E-01  0.1722E+00  0.1311E+00
     16.361  0.3096E-01  0.1686E+00  0.1279E+00
     16.462  0.3135E-01  0.1644E+00  0.1302E+00
     16.564  0.3124E-01  0.1599E+00  0.1345E+00
     16.665  0.3112E-01  0.1643E+00  0.1397E+00
     16.767  0.3226E-01  0.1705E+00  0.1448E+00
     16.868  0.3267E-01  0.1651E+00  0.1441E+00
     16.970  0.3161E-01  0.1541E+00  0.1404E+00
     17.071  0.3121E-01  0.1522E+00  0.1412E+00
     17.173  0.3156E-01  0.1550E+00  0.1434E+00
     17.275  0.3151E-01  0.1517E+00  0.1432E+00
     17.376  0.3100E-01  0.1480E+00  0.1453E+00
     17.478  0.3072E-01  0.1492E+00  0.1505E+00
     17.579  0.3126E-01  0.1476E+00  0.1513E+00
     17.681  0.3218E-01  0.1447E+00  0.1491E+00
     17.782  0.3239E-01  0.1474E+00  0.1521E+00
     17.884  0.3086E-01  0.1473E+00  0.1540E+00
     17.985  0.2978E-01  0.1392E+00  0.1502E+00
     18.087  0.3082E-01  0.1316E+00  0.1486E+00
     18.188  0.3115E-01  0.1310E+00  0.1508E+00
     18.290  0.3022E-01  0.1373E+00  0.1550E+00
     18.391  0.3011E-01  0.1419E+00  0.1583E+00
     18.493  0.3096E-01  0.1381E+00  0.1579E+00
     18.594  0.3131E-01  0.1310E+00  0.1556E+00
     18.696  0.3060E-01  0.1274E+00  0.1544E+00
     18.797  0.2968E-01  0.1292E+00  0.1569E+00
     18.899  0.2886E-01  0.1351E+00  0.1606E+00
     19.001  0.2879E-01  0.1444E+00  0.1642E+00
     19.102  0.3008E-01  0.1552E+00  0.1722E+00
     19.204  0.3054E-01  0.1615E+00  0.1800E+00
     19.305  0.2821E-01  0.1570E+00  0.1773E+00
     19.407  0.2553E-01  0.1510E+00  0.1738E+00
     19.508  0.2532E-01  0.1547E+00  0.1834E+00
     19.610  0.2563E-01  0.1572E+00  0.1917E+00
     19.711  0.2393E-01  0.1495E+00  0.1843E+00
     19.813  0.2177E-01  0.1410E+00  0.1735E+00
     19.914  0.2073E-01  0.1368E+00  0.1703E+00
     20.016  0.2020E-01  0.1357E+00  0.1716E+00
     20.117  0.1997E-01  0.1412E+00  0.1763E+00
     20.219  0.1997E-01  0.1518E+00  0.1837E+00
     20.320  0.1899E-01  0.1527E+00  0.1831E+00
     20.422  0.1621E-01  0.1338E+00  0.1649E+00
     20.523  0.1357E-01  0.1131E+00  0.1447E+00
     20.625  0.1347E-01  0.1118E+00  0.1425E+00
     20.726  0.1464E-01  0.1211E+00  0.1459E+00
     20.828  0.1434E-01  0.1241E+00  0.1375E+00
     20.930  0.1245E-01  0.1208E+00  0.1271E+00
     21.031  0.1037E-01  0.1128E+00  0.1228E+00
     21.133  0.8843E-02  0.1015E+00  0.1170E+00
     21.234  0.8242E-02  0.9350E-01  0.1069E+00
     21.336  0.8441E-02  0.9126E-01  0.9807E-01
     21.437  0.8259E-02  0.9120E-01  0.9062E-01
     21.539  0.6808E-02  0.8725E-01  0.8125E-01
     21.640  0.5029E-02  0.8196E-01  0.7512E-01
     21.742  0.4480E-02  0.8473E-01  0.7781E-01
     21.843  0.4592E-02  0.8828E-01  0.7893E-01
     21.945  0.3922E-02  0.8355E-01  0.6800E-01
     22.046  0.2839E-02  0.7641E-01  0.5202E-01
     22.148  0.2155E-02  0.6890E-01  0.4003E-01
     22.249  0.1778E-02  0.5961E-01  0.3347E-01
     22.351  0.1620E-02  0.5090E-01  0.3050E-01
     22.452  0.1740E-02  0.4548E-01  0.2959E-01
     22.554  0.1959E-02  0.4121E-01  0.2810E-01
     22.656  0.1969E-02  0.3394E-01  0.2245E-01
     22.757  0.1581E-02  0.2582E-01  0.1450E-01
     22.859  0.9424E-03  0.1898E-01  0.9254E-02
     22.960  0.3955E-03  0.1177E-01  0.6983E-02
     23.062  0.1050E-03  0.5104E-02  0.4692E-02
     23.163  0.8561E-05  0.1710E-02  0.2797E-02
     23.265  0.1361E-05  0.1656E-02  0.3192E-02
     23.366  0.1010E-04  0.1908E-02  0.3456E-02
     23.468  0.6342E-05  0.9323E-03  0.1716E-02
     23.569  0.1447E-06  0.4585E-04  0.1273E-03
     23.671 -0.1004E-05 -0.1156E-03 -0.1949E-03
     23.772 -0.3652E-06 -0.4302E-04 -0.7688E-04
     23.874 -0.5810E-07 -0.6894E-05 -0.1271E-04
     23.975 -0.4891E-08 -0.5834E-06 -0.1102E-05
     24.077 -0.2311E-09 -0.2771E-07 -0.5337E-07
     24.178 -0.6290E-11 -0.7585E-09 -0.1486E-08
     24.280 -0.9999E-13 -0.1212E-10 -0.2410E-10
     24.382 -0.9352E-15 -0.1140E-12 -0.2295E-12
     24.483 -0.5172E-17 -0.6343E-15 -0.1290E-14
     24.585 -0.1685E-19 -0.2095E-17 -0.4558E-17
     24.686  0.0000E+00  0.0000E+00  0.0000E+00
     24.788  0.0000E+00  0.0000E+00  0.0000E+00
     24.889  0.0000E+00  0.0000E+00  0.0000E+00
     24.991  0.0000E+00  0.0000E+00  0.0000E+00
     25.092  0.0000E+00  0.0000E+00  0.0000E+00
     25.194  0.0000E+00  0.0000E+00  0.0000E+00
     25.295  0.0000E+00  0.0000E+00  0.0000E+00
