    1    1   50    1
  0.1660753E+02  0.2863782E-09  0.2863782E-09  0.2863782E-09  0.5000000E-15
  1.000000000000000E-004
  CAR 
 bcc Al                                  
      3   2480      5
 
  0.1666667E-01  0.1666667E-01  0.1666667E-01  0.7407407E-04
    1       -3.163314   1.000000
    2       20.350623   0.000000
    3       20.540209   0.000000
    4       20.540209   0.000000
    5       21.986528   0.000000
 
  0.5000000E-01  0.1666667E-01  0.1666667E-01  0.2222222E-03
    1       -3.123179   1.000000
    2       19.631467   0.000000
    3       20.069552   0.000000
    4       20.579043   0.000000
    5       22.012299   0.000000
 
  0.8333333E-01  0.1666667E-01  0.1666667E-01  0.2222222E-03
    1       -3.022953   1.000000
    2       18.359662   0.000000
    3       19.709731   0.000000
    4       20.368007   0.000000
    5       22.377138   0.000000
 
  0.1166667E+00  0.1666667E-01  0.1666667E-01  0.2222222E-03
    1       -2.862698   1.000000
    2       17.018141   0.000000
    3       19.366951   0.000000
    4       20.080530   0.000000
    5       22.697151   0.000000
 
  0.1500000E+00  0.1666667E-01  0.1666667E-01  0.2222222E-03
    1       -2.642438   1.000000
    2       15.673320   0.000000
    3       19.066650   0.000000
    4       19.800930   0.000000
    5       22.630901   0.000000
 
  0.1833333E+00  0.1666667E-01  0.1666667E-01  0.2222222E-03
    1       -2.362675   1.000000
    2       14.343661   0.000000
    3       18.809075   0.000000
    4       19.549583   0.000000
    5       22.530968   0.000000
 
  0.2166667E+00  0.1666667E-01  0.1666667E-01  0.2222222E-03
    1       -2.023725   1.000000
    2       13.042935  -0.000000
    3       18.597955   0.000000
    4       19.346428   0.000000
    5       22.433109   0.000000
 
  0.2500000E+00  0.1666667E-01  0.1666667E-01  0.2222222E-03
    1       -1.625923   1.000000
    2       11.779189  -0.000000
    3       18.439672   0.000000
    4       19.189631   0.000000
    5       22.352910   0.000000
 
  0.2833333E+00  0.1666667E-01  0.1666667E-01  0.2222222E-03
    1       -1.169781   1.000000
    2       10.556421  -0.000000
    3       18.329058   0.000000
    4       19.085222   0.000000
    5       21.934731   0.000000
 
  0.3166667E+00  0.1666667E-01  0.1666667E-01  0.2222222E-03
    1       -0.655985   1.000000
    2        9.377523  -0.000000
    3       18.266626   0.000000
    4       19.024194   0.000000
    5       21.369144   0.000000
 
  0.3500000E+00  0.1666667E-01  0.1666667E-01  0.2222222E-03
    1       -0.085045   1.000000
    2        8.244737  -0.027111
    3       18.254850   0.000000
    4       19.012840   0.000000
    5       20.845678   0.000000
 
  0.3833333E+00  0.1666667E-01  0.1666667E-01  0.2222222E-03
    1        0.542408   1.000000
    2        7.159742   1.000000
    3       18.293965   0.000000
    4       19.051106   0.000000
    5       20.369443   0.000000
 
  0.4166667E+00  0.1666667E-01  0.1666667E-01  0.2222222E-03
    1        1.225519   1.000000
    2        6.123706   1.000000
    3       18.384068   0.000000
    4       19.137577   0.000000
    5       19.944357   0.000000
 
  0.4500000E+00  0.1666667E-01  0.1666667E-01  0.2222222E-03
    1        1.963435   1.000000
    2        5.138765   1.000000
    3       18.525157   0.000000
    4       19.260122   0.000000
    5       19.584142   0.000000
 
  0.4833333E+00  0.1666667E-01  0.1666667E-01  0.2222222E-03
    1        2.755143   1.000000
    2        4.208269   1.000000
    3       18.717321   0.000000
    4       19.194983   0.000000
    5       19.515712   0.000000
 
 -0.4833333E+00  0.1666667E-01  0.1666667E-01  0.2222222E-03
    1        3.293569   1.000000
    2        3.634933   1.000000
    3       18.936552   0.000000
    4       18.957097   0.000000
    5       19.573013   0.000000
 
 -0.4500000E+00  0.1666667E-01  0.1666667E-01  0.2222222E-03
    1        2.485153   1.000000
    2        4.511651   1.000000
    3       18.713664   0.000000
    4       19.209443   0.000000
    5       19.387428   0.000000
 
 -0.4166667E+00  0.1666667E-01  0.1666667E-01  0.2222222E-03
    1        1.711462   1.000000
    2        5.461343   1.000000
    3       18.539522   0.000000
    4       19.142545   0.000000
    5       19.622793   0.000000
 
 -0.3833333E+00  0.1666667E-01  0.1666667E-01  0.2222222E-03
    1        0.991671   1.000000
    2        6.463505   1.000000
    3       18.416049   0.000000
    4       19.024434   0.000000
    5       20.012356   0.000000
 
 -0.3500000E+00  0.1666667E-01  0.1666667E-01  0.2222222E-03
    1        0.327025   1.000000
    2        7.516014   1.005108
    3       18.343415   0.000000
    4       18.952217   0.000000
    5       20.456495   0.000000
 
 -0.3166667E+00  0.1666667E-01  0.1666667E-01  0.2222222E-03
    1       -0.281673   1.000000
    2        8.617122  -0.000010
    3       18.321576   0.000000
    4       18.929576   0.000000
    5       20.949599   0.000000
 
 -0.2833333E+00  0.1666667E-01  0.1666667E-01  0.2222222E-03
    1       -0.833623   1.000000
    2        9.765498  -0.000000
    3       18.350438   0.000000
    4       18.956905   0.000000
    5       21.487390   0.000000
 
 -0.2500000E+00  0.1666667E-01  0.1666667E-01  0.2222222E-03
    1       -1.328290   1.000000
    2       10.959313  -0.000000
    3       18.429398   0.000000
    4       19.030709   0.000000
    5       22.056982   0.000000
 
 -0.2166667E+00  0.1666667E-01  0.1666667E-01  0.2222222E-03
    1       -1.765067   1.000000
    2       12.196158  -0.000000
    3       18.553560   0.000000
    4       19.153355   0.000000
    5       22.380538   0.000000
 
 -0.1833333E+00  0.1666667E-01  0.1666667E-01  0.2222222E-03
    1       -2.143268   1.000000
    2       13.472763   0.000000
    3       18.731312   0.000000
    4       19.325401   0.000000
    5       22.476227   0.000000
 
 -0.1500000E+00  0.1666667E-01  0.1666667E-01  0.2222222E-03
    1       -2.462495   1.000000
    2       14.785250   0.000000
    3       18.959067   0.000000
    4       19.545752   0.000000
    5       22.579928   0.000000
 
 -0.1166667E+00  0.1666667E-01  0.1666667E-01  0.2222222E-03
    1       -2.722576   1.000000
    2       16.118477   0.000000
    3       19.230551   0.000000
    4       19.800749   0.000000
    5       22.669177   0.000000
 
 -0.8333333E-01  0.1666667E-01  0.1666667E-01  0.2222222E-03
    1       -2.922771   1.000000
    2       17.469272   0.000000
    3       19.551619   0.000000
    4       20.085120   0.000000
    5       22.641421   0.000000
 
 -0.5000000E-01  0.1666667E-01  0.1666667E-01  0.2222222E-03
    1       -3.063045   1.000000
    2       18.800746   0.000000
    3       19.899075   0.000000
    4       20.354956   0.000000
    5       22.198149   0.000000
 
 -0.1666667E-01  0.1666667E-01  0.1666667E-01  0.2222222E-03
    1       -3.143248   1.000000
    2       20.015030   0.000000
    3       20.256538   0.000000
    4       20.497420   0.000000
    5       21.924690   0.000000
 
  0.5000000E-01  0.5000000E-01  0.1666667E-01  0.2222222E-03
    1       -3.103155   1.000000
    2       19.612055   0.000000
    3       19.862426   0.000000
    4       20.270495   0.000000
    5       21.825493   0.000000
 
  0.8333333E-01  0.5000000E-01  0.1666667E-01  0.4444444E-03
    1       -3.022958   1.000000
    2       18.756916   0.000000
    3       19.304944   0.000000
    4       20.269417   0.000000
    5       21.834015   0.000000
 
  0.1166667E+00  0.5000000E-01  0.1666667E-01  0.4444444E-03
    1       -2.882703   1.000000
    2       17.470117   0.000000
    3       18.927833   0.000000
    4       20.180015   0.000000
    5       22.134766   0.000000
 
  0.1500000E+00  0.5000000E-01  0.1666667E-01  0.4444444E-03
    1       -2.682489   1.000000
    2       16.136822   0.000000
    3       18.600266   0.000000
    4       19.974781   0.000000
    5       22.579016   0.000000
 
  0.1833333E+00  0.5000000E-01  0.1666667E-01  0.4444444E-03
    1       -2.422554   1.000000
    2       14.809542   0.000000
    3       18.321697   0.000000
    4       19.755525   0.000000
    5       22.808891   0.000000
 
  0.2166667E+00  0.5000000E-01  0.1666667E-01  0.4444444E-03
    1       -2.103353   1.000000
    2       13.502092   0.000000
    3       18.092767   0.000000
    4       19.556550   0.000000
    5       22.512397   0.000000
 
  0.2500000E+00  0.5000000E-01  0.1666667E-01  0.4444444E-03
    1       -1.725195   1.000000
    2       12.228178  -0.000000
    3       17.914135   0.000000
    4       19.395640   0.000000
    5       21.929870   0.000000
 
  0.2833333E+00  0.5000000E-01  0.1666667E-01  0.4444444E-03
    1       -1.288673   1.000000
    2       10.992932  -0.000000
    3       17.781506   0.000000
    4       19.276606   0.000000
    5       21.315906   0.000000
 
  0.3166667E+00  0.5000000E-01  0.1666667E-01  0.4444444E-03
    1       -0.794174   1.000000
    2        9.800233  -0.000000
    3       17.700933   0.000000
    4       19.204328   0.000000
    5       20.728807   0.000000
 
  0.3500000E+00  0.5000000E-01  0.1666667E-01  0.4444444E-03
    1       -0.242342   1.000000
    2        8.652860  -0.000003
    3       17.671736   0.000000
    4       19.182234   0.000000
    5       20.184218   0.000000
 
  0.3833333E+00  0.5000000E-01  0.1666667E-01  0.4444444E-03
    1        0.366181   1.000000
    2        7.552483   1.009387
    3       17.693306   0.000000
    4       19.205050   0.000000
    5       19.688400   0.000000
 
  0.4166667E+00  0.5000000E-01  0.1666667E-01  0.4444444E-03
    1        1.030620   1.000000
    2        6.500576   1.000000
    3       17.766249   0.000000
    4       19.194088   0.000000
    5       19.325767   0.000000
 
  0.4500000E+00  0.5000000E-01  0.1666667E-01  0.4444444E-03
    1        1.750186   1.000000
    2        5.498864   1.000000
    3       17.890635   0.000000
    4       18.823907   0.000000
    5       19.423459   0.000000
 
  0.4833333E+00  0.5000000E-01  0.1666667E-01  0.4444444E-03
    1        2.524092   1.000000
    2        4.549846   1.000000
    3       18.066547   0.000000
    4       18.478282   0.000000
    5       19.600244   0.000000
 
 -0.4833333E+00  0.5000000E-01  0.1666667E-01  0.4444444E-03
    1        3.331263   1.000000
    2        3.673677   1.000000
    3       18.179484   0.000000
    4       18.296201   0.000000
    5       19.826897   0.000000
 
 -0.4500000E+00  0.5000000E-01  0.1666667E-01  0.4444444E-03
    1        2.793126   1.000000
    2        4.245973   1.000000
    3       17.934111   0.000000
    4       18.571967   0.000000
    5       19.961968   0.000000
 
 -0.4166667E+00  0.5000000E-01  0.1666667E-01  0.4444444E-03
    1        2.002269   1.000000
    2        5.176477   1.000000
    3       17.739231   0.000000
    4       18.897586   0.000000
    5       19.786661   0.000000
 
 -0.3833333E+00  0.5000000E-01  0.1666667E-01  0.4444444E-03
    1        1.264417   1.000000
    2        6.160989   1.000000
    3       17.596516   0.000000
    4       19.262371   0.000000
    5       19.661631   0.000000
 
 -0.3500000E+00  0.5000000E-01  0.1666667E-01  0.4444444E-03
    1        0.581479   1.000000
    2        7.196212   1.000001
    3       17.505679   0.000000
    4       19.494463   0.000000
    5       19.770147   0.000000
 
 -0.3166667E+00  0.5000000E-01  0.1666667E-01  0.4444444E-03
    1       -0.045767   1.000000
    2        8.280558  -0.018935
    3       17.466679   0.000000
    4       19.484736   0.000000
    5       20.219893   0.000000
 
 -0.2833333E+00  0.5000000E-01  0.1666667E-01  0.4444444E-03
    1       -0.616565   1.000000
    2        9.412346  -0.000000
    3       17.479370   0.000000
    4       19.497735   0.000000
    5       20.742428   0.000000
 
 -0.2500000E+00  0.5000000E-01  0.1666667E-01  0.4444444E-03
    1       -1.130259   1.000000
    2       10.590033  -0.000000
    3       17.544340   0.000000
    4       19.554941   0.000000
    5       21.311204   0.000000
 
 -0.2166667E+00  0.5000000E-01  0.1666667E-01  0.4444444E-03
    1       -1.586189   1.000000
    2       11.811133  -0.000000
    3       17.658749   0.000000
    4       19.662180   0.000000
    5       21.913853   0.000000
 
 -0.1833333E+00  0.5000000E-01  0.1666667E-01  0.4444444E-03
    1       -1.983806   1.000000
    2       13.072004  -0.000000
    3       17.824695   0.000000
    4       19.813382   0.000000
    5       22.506981   0.000000
 
 -0.1500000E+00  0.5000000E-01  0.1666667E-01  0.4444444E-03
    1       -2.322748   1.000000
    2       14.367659   0.000000
    3       18.037408   0.000000
    4       20.004784   0.000000
    5       22.832599   0.000000
 
 -0.1166667E+00  0.5000000E-01  0.1666667E-01  0.4444444E-03
    1       -2.602426   1.000000
    2       15.688090   0.000000
    3       18.303899   0.000000
    4       20.231443   0.000000
    5       22.817887   0.000000
 
 -0.8333333E-01  0.5000000E-01  0.1666667E-01  0.4444444E-03
    1       -2.822628   1.000000
    2       17.014161   0.000000
    3       18.621799   0.000000
    4       20.456482   0.000000
    5       22.394315   0.000000
 
 -0.5000000E-01  0.5000000E-01  0.1666667E-01  0.4444444E-03
    1       -2.982889   1.000000
    2       18.296272   0.000000
    3       19.012364   0.000000
    4       20.595494   0.000000
    5       22.024090   0.000000
 
 -0.1666667E-01  0.5000000E-01  0.1666667E-01  0.4444444E-03
    1       -3.083094   1.000000
    2       19.197361   0.000000
    3       19.711079   0.000000
    4       20.507917   0.000000
    5       21.961716   0.000000
 
  0.8333333E-01  0.8333333E-01  0.1666667E-01  0.2222222E-03
    1       -2.962834   1.000000
    2       18.754477   0.000000
    3       19.016418   0.000000
    4       19.555706   0.000000
    5       21.512413   0.000000
 
  0.1166667E+00  0.8333333E-01  0.1666667E-01  0.4444444E-03
    1       -2.842645   1.000000
    2       17.889860   0.000000
    3       18.486289   0.000000
    4       19.565705   0.000000
    5       21.461959   0.000000
 
  0.1500000E+00  0.8333333E-01  0.1666667E-01  0.4444444E-03
    1       -2.662457   1.000000
    2       16.617085   0.000000
    3       18.125586   0.000000
    4       19.579829   0.000000
    5       21.696655   0.000000
 
  0.1833333E+00  0.8333333E-01  0.1666667E-01  0.4444444E-03
    1       -2.422588   1.000000
    2       15.304677   0.000000
    3       17.823808   0.000000
    4       19.465663   0.000000
    5       22.017290   0.000000
 
  0.2166667E+00  0.8333333E-01  0.1666667E-01  0.4444444E-03
    1       -2.123234   1.000000
    2       14.000980   0.000000
    3       17.574759   0.000000
    4       19.309431   0.000000
    5       21.715550   0.000000
 
  0.2500000E+00  0.8333333E-01  0.1666667E-01  0.4444444E-03
    1       -1.764933   1.000000
    2       12.721985  -0.000000
    3       17.374994   0.000000
    4       19.161300   0.000000
    5       21.069510   0.000000
 
  0.2833333E+00  0.8333333E-01  0.1666667E-01  0.4444444E-03
    1       -1.348116   1.000000
    2       11.477738  -0.000000
    3       17.224200   0.000000
    4       19.041582   0.000000
    5       20.416758   0.000000
 
  0.3166667E+00  0.8333333E-01  0.1666667E-01  0.4444444E-03
    1       -0.873177   1.000000
    2       10.273803  -0.000000
    3       17.125282   0.000000
    4       18.964404   0.000000
    5       19.799868   0.000000
 
  0.3500000E+00  0.8333333E-01  0.1666667E-01  0.4444444E-03
    1       -0.340785   1.000000
    2        9.113230  -0.000000
    3       17.076026   0.000000
    4       18.931313   0.000000
    5       19.227166   0.000000
 
  0.3833333E+00  0.8333333E-01  0.1666667E-01  0.4444444E-03
    1        0.248518   1.000000
    2        7.998750   0.271471
    3       17.079900   0.000000
    4       18.703058   0.000000
    5       18.947748   0.000000
 
  0.4166667E+00  0.8333333E-01  0.1666667E-01  0.4444444E-03
    1        0.893941   1.000000
    2        6.931866   1.000000
    3       17.134940   0.000000
    4       18.228940   0.000000
    5       19.014622   0.000000
 
  0.4500000E+00  0.8333333E-01  0.1666667E-01  0.4444444E-03
    1        1.594744   1.000000
    2        5.914546   1.000000
    3       17.241035   0.000000
    4       17.806496   0.000000
    5       19.131775   0.000000
 
  0.4833333E+00  0.8333333E-01  0.1666667E-01  0.4444444E-03
    1        2.350072   1.000000
    2        4.948440   1.000000
    3       17.380563   0.000000
    4       17.453765   0.000000
    5       19.300628   0.000000
 
 -0.4833333E+00  0.8333333E-01  0.1666667E-01  0.4444444E-03
    1        3.154720   1.000000
    2        4.039312   1.000000
    3       17.110642   0.000000
    4       17.614653   0.000000
    5       19.521699   0.000000
 
 -0.4500000E+00  0.8333333E-01  0.1666667E-01  0.4444444E-03
    1        3.154888   1.000000
    2        4.039068   1.000000
    3       16.845111   0.000000
    4       17.875560   0.000000
    5       19.792340   0.000000
 
 -0.4166667E+00  0.8333333E-01  0.1666667E-01  0.4444444E-03
    1        2.350512   1.000000
    2        4.948013   1.000000
    3       16.630270   0.000000
    4       18.187111   0.000000
    5       20.110326   0.000000
 
 -0.3833333E+00  0.8333333E-01  0.1666667E-01  0.4444444E-03
    1        1.594829   1.000000
    2        5.913871   1.000000
    3       16.470767   0.000000
    4       18.549257   0.000000
    5       20.392364   0.000000
 
 -0.3500000E+00  0.8333333E-01  0.1666667E-01  0.4444444E-03
    1        0.894004   1.000000
    2        6.930996   1.000000
    3       16.362360   0.000000
    4       18.960716   0.000000
    5       20.332620   0.000000
 
 -0.3166667E+00  0.8333333E-01  0.1666667E-01  0.4444444E-03
    1        0.248533   1.000000
    2        7.997192   0.277256
    3       16.307090   0.000000
    4       19.415634   0.000000
    5       20.289806   0.000000
 
 -0.2833333E+00  0.8333333E-01  0.1666667E-01  0.4444444E-03
    1       -0.340772   1.000000
    2        9.110845  -0.000000
    3       16.305085   0.000000
    4       19.887310   0.000000
    5       20.322131   0.000000
 
 -0.2500000E+00  0.8333333E-01  0.1666667E-01  0.4444444E-03
    1       -0.873192   1.000000
    2       10.269914  -0.000000
    3       16.356003   0.000000
    4       20.198289   0.000000
    5       20.613617   0.000000
 
 -0.2166667E+00  0.8333333E-01  0.1666667E-01  0.4444444E-03
    1       -1.348138   1.000000
    2       11.471195  -0.000000
    3       16.460546   0.000000
    4       20.331966   0.000000
    5       21.164396   0.000000
 
 -0.1833333E+00  0.8333333E-01  0.1666667E-01  0.4444444E-03
    1       -1.764954   1.000000
    2       12.710440  -0.000000
    3       16.620692   0.000000
    4       20.475498   0.000000
    5       21.775569   0.000000
 
 -0.1500000E+00  0.8333333E-01  0.1666667E-01  0.4444444E-03
    1       -2.123215   1.000000
    2       13.978875   0.000000
    3       16.838779   0.000000
    4       20.642189   0.000000
    5       22.337455   0.000000
 
 -0.1166667E+00  0.8333333E-01  0.1666667E-01  0.4444444E-03
    1       -2.422534   1.000000
    2       15.255703   0.000000
    3       17.123437   0.000000
    4       20.812463   0.000000
    5       22.478529   0.000000
 
 -0.8333333E-01  0.8333333E-01  0.1666667E-01  0.4444444E-03
    1       -2.662509   1.000000
    2       16.475401   0.000000
    3       17.525979   0.000000
    4       20.898980   0.000000
    5       22.187927   0.000000
 
 -0.5000000E-01  0.8333333E-01  0.1666667E-01  0.4444444E-03
    1       -2.842655   1.000000
    2       17.380948   0.000000
    3       18.276173   0.000000
    4       20.726979   0.000000
    5       22.104411   0.000000
 
 -0.1666667E-01  0.8333333E-01  0.1666667E-01  0.4444444E-03
    1       -2.962858   1.000000
    2       17.912106   0.000000
    3       19.330751   0.000000
    4       20.347869   0.000000
    5       22.302007   0.000000
 
  0.1166667E+00  0.1166667E+00  0.1666667E-01  0.2222222E-03
    1       -2.742527   1.000000
    2       17.922818   0.000000
    3       18.201823   0.000000
    4       18.746720   0.000000
    5       21.082853   0.000000
 
  0.1500000E+00  0.1166667E+00  0.1666667E-01  0.4444444E-03
    1       -2.582465   1.000000
    2       17.067755   0.000000
    3       17.703085   0.000000
    4       18.790290   0.000000
    5       20.991427   0.000000
 
  0.1833333E+00  0.1166667E+00  0.1666667E-01  0.4444444E-03
    1       -2.362657   1.000000
    2       15.816469   0.000000
    3       17.371304   0.000000
    4       18.871926   0.000000
    5       21.143396   0.000000
 
  0.2166667E+00  0.1166667E+00  0.1666667E-01  0.4444444E-03
    1       -2.083368   1.000000
    2       14.532499   0.000000
    3       17.098659   0.000000
    4       18.826007   0.000000
    5       20.843964   0.000000
 
  0.2500000E+00  0.1166667E+00  0.1666667E-01  0.4444444E-03
    1       -1.745054   1.000000
    2       13.256527  -0.000000
    3       16.878595   0.000000
    4       18.720858   0.000000
    5       20.149902   0.000000
 
  0.2833333E+00  0.1166667E+00  0.1666667E-01  0.4444444E-03
    1       -1.348122   1.000000
    2       12.008270  -0.000000
    3       16.708968   0.000000
    4       18.614043   0.000000
    5       19.464495   0.000000
 
  0.3166667E+00  0.1166667E+00  0.1666667E-01  0.4444444E-03
    1       -0.892957   1.000000
    2       10.796012  -0.000000
    3       16.591460   0.000000
    4       18.531652   0.000000
    5       18.823714   0.000000
 
  0.3500000E+00  0.1166667E+00  0.1666667E-01  0.4444444E-03
    1       -0.380210   1.000000
    2        9.624511  -0.000000
    3       16.524709   0.000000
    4       18.211632   0.000000
    5       18.504193   0.000000
 
  0.3833333E+00  0.1166667E+00  0.1666667E-01  0.4444444E-03
    1        0.189577   1.000000
    2        8.497385  -0.000310
    3       16.509957   0.000000
    4       17.668172   0.000000
    5       18.504732   0.000000
 
  0.4166667E+00  0.1166667E+00  0.1666667E-01  0.4444444E-03
    1        0.815651   1.000000
    2        7.416652   1.000640
    3       16.545984   0.000000
    4       17.173071   0.000000
    5       18.557912   0.000000
 
  0.4500000E+00  0.1166667E+00  0.1666667E-01  0.4444444E-03
    1        1.497521   1.000000
    2        6.384750   1.000000
    3       16.617050   0.000000
    4       16.747413   0.000000
    5       18.664261   0.000000
 
  0.4833333E+00  0.1166667E+00  0.1666667E-01  0.4444444E-03
    1        2.233892   1.000000
    2        5.402849   1.000000
    3       16.328370   0.000000
    4       16.784706   0.000000
    5       18.821027   0.000000
 
 -0.4833333E+00  0.1166667E+00  0.1666667E-01  0.4444444E-03
    1        3.022700   1.000000
    2        4.474732   1.000000
    3       15.990873   0.000000
    4       16.975252   0.000000
    5       19.030769   0.000000
 
 -0.4500000E+00  0.1166667E+00  0.1666667E-01  0.4444444E-03
    1        3.557327   1.000000
    2        3.904553   1.000000
    3       15.704771   0.000000
    4       17.219438   0.000000
    5       19.291566   0.000000
 
 -0.4166667E+00  0.1166667E+00  0.1666667E-01  0.4444444E-03
    1        2.754844   1.000000
    2        4.776118   1.000000
    3       15.471581   0.000000
    4       17.515305   0.000000
    5       19.604505   0.000000
 
 -0.3833333E+00  0.1166667E+00  0.1666667E-01  0.4444444E-03
    1        1.982875   1.000000
    2        5.722461   1.000000
    3       15.292000   0.000000
    4       17.862241   0.000000
    5       19.968375   0.000000
 
 -0.3500000E+00  0.1166667E+00  0.1666667E-01  0.4444444E-03
    1        1.264193   1.000000
    2        6.720310   1.000000
    3       15.167032   0.000000
    4       18.259538   0.000000
    5       20.380523   0.000000
 
 -0.3166667E+00  0.1166667E+00  0.1666667E-01  0.4444444E-03
    1        0.600881   1.000000
    2        7.766996   1.007145
    3       15.095412   0.000000
    4       18.707848   0.000000
    5       20.827447   0.000000
 
 -0.2833333E+00  0.1166667E+00  0.1666667E-01  0.4444444E-03
    1       -0.006602   1.000000
    2        8.860408  -0.000000
    3       15.080433   0.000000
    4       19.202806   0.000000
    5       21.063405   0.000000
 
 -0.2500000E+00  0.1166667E+00  0.1666667E-01  0.4444444E-03
    1       -0.557468   1.000000
    2        9.997588  -0.000000
    3       15.121456   0.000000
    4       19.740280   0.000000
    5       21.109076   0.000000
 
 -0.2166667E+00  0.1166667E+00  0.1666667E-01  0.4444444E-03
    1       -1.051101   1.000000
    2       11.173862  -0.000000
    3       15.221711   0.000000
    4       20.309955   0.000000
    5       21.201365   0.000000
 
 -0.1833333E+00  0.1166667E+00  0.1666667E-01  0.4444444E-03
    1       -1.486927   1.000000
    2       12.379772  -0.000000
    3       15.386454   0.000000
    4       20.867304   0.000000
    5       21.365785   0.000000
 
 -0.1500000E+00  0.1166667E+00  0.1666667E-01  0.4444444E-03
    1       -1.864361   1.000000
    2       13.593122   0.000000
    3       15.632581   0.000000
    4       21.250873   0.000000
    5       21.700321   0.000000
 
 -0.1166667E+00  0.1166667E+00  0.1666667E-01  0.4444444E-03
    1       -2.183044   1.000000
    2       14.737186   0.000000
    3       16.026978   0.000000
    4       21.355186   0.000000
    5       22.050461   0.000000
 
 -0.8333333E-01  0.1166667E+00  0.1666667E-01  0.4444444E-03
    1       -2.442457   1.000000
    2       15.593931   0.000000
    3       16.775703   0.000000
    4       21.110102   0.000000
    5       22.223539   0.000000
 
 -0.5000000E-01  0.1166667E+00  0.1666667E-01  0.4444444E-03
    1       -2.642465   1.000000
    2       16.125600   0.000000
    3       17.876272   0.000000
    4       20.614391   0.000000
    5       22.476263   0.000000
 
 -0.1666667E-01  0.1166667E+00  0.1666667E-01  0.4444444E-03
    1       -2.782595   1.000000
    2       16.571853   0.000000
    3       18.996994   0.000000
    4       20.096345   0.000000
    5       22.737532   0.000000
 
  0.1500000E+00  0.1500000E+00  0.1666667E-01  0.2222222E-03
    1       -2.442483   1.000000
    2       17.140537   0.000000
    3       17.444309   0.000000
    4       17.956781   0.000000
    5       20.581988   0.000000
 
  0.1833333E+00  0.1500000E+00  0.1666667E-01  0.4444444E-03
    1       -2.242881   1.000000
    2       16.300936   0.000000
    3       16.977401   0.000000
    4       18.042284   0.000000
    5       20.439960   0.000000
 
  0.2166667E+00  0.1500000E+00  0.1666667E-01  0.4444444E-03
    1       -1.983766   1.000000
    2       15.081560   0.000000
    3       16.672468   0.000000
    4       18.174651   0.000000
    5       19.974134   0.000000
 
  0.2500000E+00  0.1500000E+00  0.1666667E-01  0.4444444E-03
    1       -1.665560   1.000000
    2       13.824569   0.000000
    3       16.431927   0.000000
    4       18.174786   0.000000
    5       19.229457   0.000000
 
  0.2833333E+00  0.1500000E+00  0.1666667E-01  0.4444444E-03
    1       -1.288661   1.000000
    2       12.580079  -0.000000
    3       16.243621   0.000000
    4       18.108224   0.000000
    5       18.520340   0.000000
 
  0.3166667E+00  0.1500000E+00  0.1666667E-01  0.4444444E-03
    1       -0.853468   1.000000
    2       11.364128  -0.000000
    3       16.106813   0.000000
    4       17.813637   0.000000
    5       18.078904   0.000000
 
  0.3500000E+00  0.1500000E+00  0.1666667E-01  0.4444444E-03
    1       -0.360595   1.000000
    2       10.184844  -0.000000
    3       16.021368   0.000000
    4       17.207024   0.000000
    5       18.022105   0.000000
 
  0.3833333E+00  0.1500000E+00  0.1666667E-01  0.4444444E-03
    1        0.189428   1.000000
    2        9.047108  -0.000000
    3       15.986925   0.000000
    4       16.640196   0.000000
    5       18.016649   0.000000
 
  0.4166667E+00  0.1500000E+00  0.1666667E-01  0.4444444E-03
    1        0.795859   1.000000
    2        7.953963   0.450865
    3       15.985611   0.000000
    4       16.141740   0.000000
    5       18.057399   0.000000
 
  0.4500000E+00  0.1500000E+00  0.1666667E-01  0.4444444E-03
    1        1.458437   1.000000
    2        6.908336   1.000000
    3       15.642218   0.000000
    4       16.091389   0.000000
    5       18.149356   0.000000
 
  0.4833333E+00  0.1500000E+00  0.1666667E-01  0.4444444E-03
    1        2.175344   1.000000
    2        5.911706   1.000000
    3       15.232069   0.000000
    4       16.211115   0.000000
    5       18.292693   0.000000
 
 -0.4833333E+00  0.1500000E+00  0.1666667E-01  0.4444444E-03
    1        2.945725   1.000000
    2        4.967079   1.000000
    3       14.872671   0.000000
    4       16.386212   0.000000
    5       18.489594   0.000000
 
 -0.4500000E+00  0.1500000E+00  0.1666667E-01  0.4444444E-03
    1        3.744045   1.000000
    2        4.098105   1.000000
    3       14.566722   0.000000
    4       16.612048   0.000000
    5       18.737129   0.000000
 
 -0.4166667E+00  0.1500000E+00  0.1666667E-01  0.4444444E-03
    1        3.214140   1.000000
    2        4.661411   1.000000
    3       14.315060   0.000000
    4       16.892226   0.000000
    5       19.038477   0.000000
 
 -0.3833333E+00  0.1500000E+00  0.1666667E-01  0.4444444E-03
    1        2.427490   1.000000
    2        5.586731   1.000000
    3       14.118184   0.000000
    4       17.222472   0.000000
    5       19.391874   0.000000
 
 -0.3500000E+00  0.1500000E+00  0.1666667E-01  0.4444444E-03
    1        1.692010   1.000000
    2        6.563899   1.000000
    3       13.977192   0.000000
    4       17.604643   0.000000
    5       19.795827   0.000000
 
 -0.3166667E+00  0.1500000E+00  0.1666667E-01  0.4444444E-03
    1        1.010821   1.000000
    2        7.589269   1.015800
    3       13.892967   0.000000