<?xml version="1.0" encoding="ISO-8859-1"?>
<modeling>
 <generator>
  <i name="program" type="string">vasp </i>
  <i name="version" type="string">5.4.4.18Apr17-6-g9f103f2a35  </i>
  <i name="subversion" type="string">(build May 20 2018 16:52:39) complex            parallel </i>
  <i name="platform" type="string">LinuxIFC </i>
  <i name="date" type="string">2022 10 20 </i>
  <i name="time" type="string">15:21:58 </i>
 </generator>
 <incar>
  <i type="string" name="SYSTEM"> bcc Al</i>
  <i type="string" name="PREC">normal</i>
  <i type="int" name="IBRION">     2</i>
  <i name="EDIFF">      0.00000100</i>
  <i type="int" name="NSW">    50</i>
  <i type="int" name="ISIF">     3</i>
  <v name="RWIGS">      1.40200000</v>
  <i type="logical" name="LWAVE"> F  </i>
  <v type="int" name="KPOINT_BSE">    -1     0     0     0</v>
 </incar>
 <structure name="primitive_cell" >
  <crystal>
   <varray name="basis" >
    <v>       2.02500000       2.02500000       0.00000000 </v>
    <v>       0.00000000       2.02500000       2.02500000 </v>
    <v>       2.02500000       0.00000000       2.02500000 </v>
   </varray>
   <i name="volume">     16.60753125 </i>
   <varray name="rec_basis" >
    <v>       0.24691358       0.24691358      -0.24691358 </v>
    <v>      -0.24691358       0.24691358       0.24691358 </v>
    <v>       0.24691358      -0.24691358       0.24691358 </v>
   </varray>
  </crystal>
  <varray name="positions" >
   <v>       0.00000000       0.00000000       0.00000000 </v>
  </varray>
 </structure>
 <varray name="primitive_index" >
  <v type="int" >        1 </v>
 </varray>
 <kpoints>
  <generation param="Monkhorst-Pack">
   <v type="int" name="divisions">      30       30       30 </v>
   <v name="usershift">      0.00000000       0.00000000       0.00000000 </v>
   <v name="genvec1">      0.03333333       0.00000000       0.00000000 </v>
   <v name="genvec2">      0.00000000       0.03333333       0.00000000 </v>
   <v name="genvec3">      0.00000000       0.00000000       0.03333333 </v>
   <v name="shift">      0.50000000       0.50000000       0.50000000 </v>
  </generation>
  <varray name="kpointlist" >
   <v>       0.01666667       0.01666667       0.01666667 </v>
   <v>       0.05000000       0.01666667       0.01666667 </v>
   <v>       0.08333333       0.01666667       0.01666667 </v>
   <v>       0.11666667       0.01666667       0.01666667 </v>
   <v>       0.15000000       0.01666667       0.01666667 </v>
   <v>       0.18333333       0.01666667       0.01666667 </v>
   <v>       0.21666667       0.01666667       0.01666667 </v>
   <v>       0.25000000       0.01666667       0.01666667 </v>
   <v>       0.28333333       0.01666667       0.01666667 </v>
   <v>       0.31666667       0.01666667       0.01666667 </v>
   <v>       0.35000000       0.01666667       0.01666667 </v>
   <v>       0.38333333       0.01666667       0.01666667 </v>
   <v>       0.41666667       0.01666667       0.01666667 </v>
   <v>       0.45000000       0.01666667       0.01666667 </v>
   <v>       0.48333333       0.01666667       0.01666667 </v>
   <v>      -0.48333333       0.01666667       0.01666667 </v>
   <v>      -0.45000000       0.01666667       0.01666667 </v>
   <v>      -0.41666667       0.01666667       0.01666667 </v>
   <v>      -0.38333333       0.01666667       0.01666667 </v>
   <v>      -0.35000000       0.01666667       0.01666667 </v>
   <v>      -0.31666667       0.01666667       0.01666667 </v>
   <v>      -0.28333333       0.01666667       0.01666667 </v>
   <v>      -0.25000000       0.01666667       0.01666667 </v>
   <v>      -0.21666667       0.01666667       0.01666667 </v>
   <v>      -0.18333333       0.01666667       0.01666667 </v>
   <v>      -0.15000000       0.01666667       0.01666667 </v>
   <v>      -0.11666667       0.01666667       0.01666667 </v>
   <v>      -0.08333333       0.01666667       0.01666667 </v>
   <v>      -0.05000000       0.01666667       0.01666667 </v>
   <v>      -0.01666667       0.01666667       0.01666667 </v>
   <v>       0.05000000       0.05000000       0.01666667 </v>
   <v>       0.08333333       0.05000000       0.01666667 </v>
   <v>       0.11666667       0.05000000       0.01666667 </v>
   <v>       0.15000000       0.05000000       0.01666667 </v>
   <v>       0.18333333       0.05000000       0.01666667 </v>
   <v>       0.21666667       0.05000000       0.01666667 </v>
   <v>       0.25000000       0.05000000       0.01666667 </v>
   <v>       0.28333333       0.05000000       0.01666667 </v>
   <v>       0.31666667       0.05000000       0.01666667 </v>
   <v>       0.35000000       0.05000000       0.01666667 </v>
   <v>       0.38333333       0.05000000       0.01666667 </v>
   <v>       0.41666667       0.05000000       0.01666667 </v>
   <v>       0.45000000       0.05000000       0.01666667 </v>
   <v>       0.48333333       0.05000000       0.01666667 </v>
   <v>      -0.48333333       0.05000000       0.01666667 </v>
   <v>      -0.45000000       0.05000000       0.01666667 </v>
   <v>      -0.41666667       0.05000000       0.01666667 </v>
   <v>      -0.38333333       0.05000000       0.01666667 </v>
   <v>      -0.35000000       0.05000000       0.01666667 </v>
   <v>      -0.31666667       0.05000000       0.01666667 </v>
   <v>      -0.28333333       0.05000000       0.01666667 </v>
   <v>      -0.25000000       0.05000000       0.01666667 </v>
   <v>      -0.21666667       0.05000000       0.01666667 </v>
   <v>      -0.18333333       0.05000000       0.01666667 </v>
   <v>      -0.15000000       0.05000000       0.01666667 </v>
   <v>      -0.11666667       0.05000000       0.01666667 </v>
   <v>      -0.08333333       0.05000000       0.01666667 </v>
   <v>      -0.05000000       0.05000000       0.01666667 </v>
   <v>      -0.01666667       0.05000000       0.01666667 </v>
   <v>       0.08333333       0.08333333       0.01666667 </v>
   <v>       0.11666667       0.08333333       0.01666667 </v>
   <v>       0.15000000       0.08333333       0.01666667 </v>
   <v>       0.18333333       0.08333333       0.01666667 </v>
   <v>       0.21666667       0.08333333       0.01666667 </v>
   <v>       0.25000000       0.08333333       0.01666667 </v>
   <v>       0.28333333       0.08333333       0.01666667 </v>
   <v>       0.31666667       0.08333333       0.01666667 </v>
   <v>       0.35000000       0.08333333       0.01666667 </v>
   <v>       0.38333333       0.08333333       0.01666667 </v>
   <v>       0.41666667       0.08333333       0.01666667 </v>
   <v>       0.45000000       0.08333333       0.01666667 </v>
   <v>       0.48333333       0.08333333       0.01666667 </v>
   <v>      -0.48333333       0.08333333       0.01666667 </v>
   <v>      -0.45000000       0.08333333       0.01666667 </v>
   <v>      -0.41666667       0.08333333       0.01666667 </v>
   <v>      -0.38333333       0.08333333       0.01666667 </v>
   <v>      -0.35000000       0.08333333       0.01666667 </v>
   <v>      -0.31666667       0.08333333       0.01666667 </v>
   <v>      -0.28333333       0.08333333       0.01666667 </v>
   <v>      -0.25000000       0.08333333       0.01666667 </v>
   <v>      -0.21666667       0.08333333       0.01666667 </v>
   <v>      -0.18333333       0.08333333       0.01666667 </v>
   <v>      -0.15000000       0.08333333       0.01666667 </v>
   <v>      -0.11666667       0.08333333       0.01666667 </v>
   <v>      -0.08333333       0.08333333       0.01666667 </v>
   <v>      -0.05000000       0.08333333       0.01666667 </v>
   <v>      -0.01666667       0.08333333       0.01666667 </v>
   <v>       0.11666667       0.11666667       0.01666667 </v>
   <v>       0.15000000       0.11666667       0.01666667 </v>
   <v>       0.18333333       0.11666667       0.01666667 </v>
   <v>       0.21666667       0.11666667       0.01666667 </v>
   <v>       0.25000000       0.11666667       0.01666667 </v>
   <v>       0.28333333       0.11666667       0.01666667 </v>
   <v>       0.31666667       0.11666667       0.01666667 </v>
   <v>       0.35000000       0.11666667       0.01666667 </v>
   <v>       0.38333333       0.11666667       0.01666667 </v>
   <v>       0.41666667       0.11666667       0.01666667 </v>
   <v>       0.45000000       0.11666667       0.01666667 </v>
   <v>       0.48333333       0.11666667       0.01666667 </v>
   <v>      -0.48333333       0.11666667       0.01666667 </v>
   <v>      -0.45000000       0.11666667       0.01666667 </v>
   <v>      -0.41666667       0.11666667       0.01666667 </v>
   <v>      -0.38333333       0.11666667       0.01666667 </v>
   <v>      -0.35000000       0.11666667       0.01666667 </v>
   <v>      -0.31666667       0.11666667       0.01666667 </v>
   <v>      -0.28333333       0.11666667       0.01666667 </v>
   <v>      -0.25000000       0.11666667       0.01666667 </v>
   <v>      -0.21666667       0.11666667       0.01666667 </v>
   <v>      -0.18333333       0.11666667       0.01666667 </v>
   <v>      -0.15000000       0.11666667       0.01666667 </v>
   <v>      -0.11666667       0.11666667       0.01666667 </v>
   <v>      -0.08333333       0.11666667       0.01666667 </v>
   <v>      -0.05000000       0.11666667       0.01666667 </v>
   <v>      -0.01666667       0.11666667       0.01666667 </v>
   <v>       0.15000000       0.15000000       0.01666667 </v>
   <v>       0.18333333       0.15000000       0.01666667 </v>
   <v>       0.21666667       0.15000000       0.01666667 </v>
   <v>       0.25000000       0.15000000       0.01666667 </v>
   <v>       0.28333333       0.15000000       0.01666667 </v>
   <v>       0.31666667       0.15000000       0.01666667 </v>
   <v>       0.35000000       0.15000000       0.01666667 </v>
   <v>       0.38333333       0.15000000       0.01666667 </v>
   <v>       0.41666667       0.15000000       0.01666667 </v>
   <v>       0.45000000       0.15000000       0.01666667 </v>
   <v>       0.48333333       0.15000000       0.01666667 </v>
   <v>      -0.48333333       0.15000000       0.01666667 </v>
   <v>      -0.45000000       0.15000000       0.01666667 </v>
   <v>      -0.41666667       0.15000000       0.01666667 </v>
   <v>      -0.38333333       0.15000000       0.01666667 </v>
   <v>      -0.35000000       0.15000000       0.01666667 </v>
   <v>      -0.31666667       0.15000000       0.01666667 </v>
   <v>      -0.28333333       0.15000000       0.01666667 </v>
   <v>      -0.25000000       0.15000000       0.01666667 </v>
   <v>      -0.21666667       0.15000000       0.01666667 </v>
   <v>      -0.18333333       0.15000000       0.01666667 </v>
   <v>      -0.15000000       0.15000000       0.01666667 </v>
   <v>      -0.11666667       0.15000000       0.01666667 </v>
   <v>      -0.08333333       0.15000000       0.01666667 </v>
   <v>      -0.05000000       0.15000000       0.01666667 </v>
   <v>      -0.01666667       0.15000000       0.01666667 </v>
   <v>       0.18333333       0.18333333       0.01666667 </v>
   <v>       0.21666667       0.18333333       0.01666667 </v>
   <v>       0.25000000       0.18333333       0.01666667 </v>
   <v>       0.28333333       0.18333333       0.01666667 </v>
   <v>       0.31666667       0.18333333       0.01666667 </v>
   <v>       0.35000000       0.18333333       0.01666667 </v>
   <v>       0.38333333       0.18333333       0.01666667 </v>
   <v>       0.41666667       0.18333333       0.01666667 </v>
   <v>       0.45000000       0.18333333       0.01666667 </v>
   <v>       0.48333333       0.18333333       0.01666667 </v>
   <v>      -0.48333333       0.18333333       0.01666667 </v>
   <v>      -0.45000000       0.18333333       0.01666667 </v>
   <v>      -0.41666667       0.18333333       0.01666667 </v>
   <v>      -0.38333333       0.18333333       0.01666667 </v>
   <v>      -0.35000000       0.18333333       0.01666667 </v>
   <v>      -0.31666667       0.18333333       0.01666667 </v>
   <v>      -0.28333333       0.18333333       0.01666667 </v>
   <v>      -0.25000000       0.18333333       0.01666667 </v>
   <v>      -0.21666667       0.18333333       0.01666667 </v>
   <v>      -0.18333333       0.18333333       0.01666667 </v>
   <v>      -0.15000000       0.18333333       0.01666667 </v>
   <v>      -0.11666667       0.18333333       0.01666667 </v>
   <v>      -0.08333333       0.18333333       0.01666667 </v>
   <v>      -0.05000000       0.18333333       0.01666667 </v>
   <v>      -0.01666667       0.18333333       0.01666667 </v>
   <v>       0.21666667       0.21666667       0.01666667 </v>
   <v>       0.25000000       0.21666667       0.01666667 </v>
   <v>       0.28333333       0.21666667       0.01666667 </v>
   <v>       0.31666667       0.21666667       0.01666667 </v>
   <v>       0.35000000       0.21666667       0.01666667 </v>
   <v>       0.38333333       0.21666667       0.01666667 </v>
   <v>       0.41666667       0.21666667       0.01666667 </v>
   <v>       0.45000000       0.21666667       0.01666667 </v>
   <v>       0.48333333       0.21666667       0.01666667 </v>
   <v>      -0.48333333       0.21666667       0.01666667 </v>
   <v>      -0.45000000       0.21666667       0.01666667 </v>
   <v>      -0.41666667       0.21666667       0.01666667 </v>
   <v>      -0.38333333       0.21666667       0.01666667 </v>
   <v>      -0.35000000       0.21666667       0.01666667 </v>
   <v>      -0.31666667       0.21666667       0.01666667 </v>
   <v>      -0.28333333       0.21666667       0.01666667 </v>
   <v>      -0.25000000       0.21666667       0.01666667 </v>
   <v>      -0.21666667       0.21666667       0.01666667 </v>
   <v>      -0.18333333       0.21666667       0.01666667 </v>
   <v>      -0.15000000       0.21666667       0.01666667 </v>
   <v>      -0.11666667       0.21666667       0.01666667 </v>
   <v>      -0.08333333       0.21666667       0.01666667 </v>
   <v>      -0.05000000       0.21666667       0.01666667 </v>
   <v>      -0.01666667       0.21666667       0.01666667 </v>
   <v>       0.25000000       0.25000000       0.01666667 </v>
   <v>       0.28333333       0.25000000       0.01666667 </v>
   <v>       0.31666667       0.25000000       0.01666667 </v>
   <v>       0.35000000       0.25000000       0.01666667 </v>
   <v>       0.38333333       0.25000000       0.01666667 </v>
   <v>       0.41666667       0.25000000       0.01666667 </v>
   <v>       0.45000000       0.25000000       0.01666667 </v>
   <v>       0.48333333       0.25000000       0.01666667 </v>
   <v>      -0.48333333       0.25000000       0.01666667 </v>
   <v>      -0.45000000       0.25000000       0.01666667 </v>
   <v>      -0.41666667       0.25000000       0.01666667 </v>
   <v>      -0.38333333       0.25000000       0.01666667 </v>
   <v>      -0.35000000       0.25000000       0.01666667 </v>
   <v>      -0.31666667       0.25000000       0.01666667 </v>
   <v>      -0.28333333       0.25000000       0.01666667 </v>
   <v>      -0.25000000       0.25000000       0.01666667 </v>
   <v>      -0.21666667       0.25000000       0.01666667 </v>
   <v>      -0.18333333       0.25000000       0.01666667 </v>
   <v>      -0.15000000       0.25000000       0.01666667 </v>
   <v>      -0.11666667       0.25000000       0.01666667 </v>
   <v>      -0.08333333       0.25000000       0.01666667 </v>
   <v>      -0.05000000       0.25000000       0.01666667 </v>
   <v>      -0.01666667       0.25000000       0.01666667 </v>
   <v>       0.28333333       0.28333333       0.01666667 </v>
   <v>       0.31666667       0.28333333       0.01666667 </v>
   <v>       0.35000000       0.28333333       0.01666667 </v>
   <v>       0.38333333       0.28333333       0.01666667 </v>
   <v>       0.41666667       0.28333333       0.01666667 </v>
   <v>       0.45000000       0.28333333       0.01666667 </v>
   <v>       0.48333333       0.28333333       0.01666667 </v>
   <v>      -0.48333333       0.28333333       0.01666667 </v>
   <v>      -0.45000000       0.28333333       0.01666667 </v>
   <v>      -0.41666667       0.28333333       0.01666667 </v>
   <v>      -0.38333333       0.28333333       0.01666667 </v>
   <v>      -0.35000000       0.28333333       0.01666667 </v>
   <v>      -0.31666667       0.28333333       0.01666667 </v>
   <v>      -0.28333333       0.28333333       0.01666667 </v>
   <v>      -0.25000000       0.28333333       0.01666667 </v>
   <v>      -0.21666667       0.28333333       0.01666667 </v>
   <v>      -0.18333333       0.28333333       0.01666667 </v>
   <v>      -0.15000000       0.28333333       0.01666667 </v>
   <v>      -0.11666667       0.28333333       0.01666667 </v>
   <v>      -0.08333333       0.28333333       0.01666667 </v>
   <v>      -0.05000000       0.28333333       0.01666667 </v>
   <v>      -0.01666667       0.28333333       0.01666667 </v>
   <v>       0.31666667       0.31666667       0.01666667 </v>
   <v>       0.35000000       0.31666667       0.01666667 </v>
   <v>       0.38333333       0.31666667       0.01666667 </v>
   <v>       0.41666667       0.31666667       0.01666667 </v>
   <v>       0.45000000       0.31666667       0.01666667 </v>
   <v>       0.48333333       0.31666667       0.01666667 </v>
   <v>      -0.48333333       0.31666667       0.01666667 </v>
   <v>      -0.45000000       0.31666667       0.01666667 </v>
   <v>      -0.41666667       0.31666667       0.01666667 </v>
   <v>      -0.38333333       0.31666667       0.01666667 </v>
   <v>      -0.35000000       0.31666667       0.01666667 </v>
   <v>      -0.31666667       0.31666667       0.01666667 </v>
   <v>      -0.28333333       0.31666667       0.01666667 </v>
   <v>      -0.25000000       0.31666667       0.01666667 </v>
   <v>      -0.21666667       0.31666667       0.01666667 </v>
   <v>      -0.18333333       0.31666667       0.01666667 </v>
   <v>      -0.15000000       0.31666667       0.01666667 </v>
   <v>      -0.11666667       0.31666667       0.01666667 </v>
   <v>      -0.08333333       0.31666667       0.01666667 </v>
   <v>      -0.05000000       0.31666667       0.01666667 </v>
   <v>      -0.01666667       0.31666667       0.01666667 </v>
   <v>       0.35000000       0.35000000       0.01666667 </v>
   <v>       0.38333333       0.35000000       0.01666667 </v>
   <v>       0.41666667       0.35000000       0.01666667 </v>
   <v>       0.45000000       0.35000000       0.01666667 </v>
   <v>       0.48333333       0.35000000       0.01666667 </v>
   <v>      -0.48333333       0.35000000       0.01666667 </v>
   <v>      -0.45000000       0.35000000       0.01666667 </v>
   <v>      -0.41666667       0.35000000       0.01666667 </v>
   <v>      -0.38333333       0.35000000       0.01666667 </v>
   <v>      -0.35000000       0.35000000       0.01666667 </v>
   <v>      -0.31666667       0.35000000       0.01666667 </v>
   <v>      -0.28333333       0.35000000       0.01666667 </v>
   <v>      -0.25000000       0.35000000       0.01666667 </v>
   <v>      -0.21666667       0.35000000       0.01666667 </v>
   <v>      -0.18333333       0.35000000       0.01666667 </v>
   <v>      -0.15000000       0.35000000       0.01666667 </v>
   <v>      -0.11666667       0.35000000       0.01666667 </v>
   <v>      -0.08333333       0.35000000       0.01666667 </v>
   <v>      -0.05000000       0.35000000       0.01666667 </v>
   <v>      -0.01666667       0.35000000       0.01666667 </v>
   <v>       0.38333333       0.38333333       0.01666667 </v>
   <v>       0.41666667       0.38333333       0.01666667 </v>
   <v>       0.45000000       0.38333333       0.01666667 </v>
   <v>       0.48333333       0.38333333       0.01666667 </v>
   <v>      -0.48333333       0.38333333       0.01666667 </v>
   <v>      -0.45000000       0.38333333       0.01666667 </v>
   <v>      -0.41666667       0.38333333       0.01666667 </v>
   <v>      -0.38333333       0.38333333       0.01666667 </v>
   <v>      -0.35000000       0.38333333       0.01666667 </v>
   <v>      -0.31666667       0.38333333       0.01666667 </v>
   <v>      -0.28333333       0.38333333       0.01666667 </v>
   <v>      -0.25000000       0.38333333       0.01666667 </v>
   <v>      -0.21666667       0.38333333       0.01666667 </v>
   <v>      -0.18333333       0.38333333       0.01666667 </v>
   <v>      -0.15000000       0.38333333       0.01666667 </v>
   <v>      -0.11666667       0.38333333       0.01666667 </v>
   <v>      -0.08333333       0.38333333       0.01666667 </v>
   <v>      -0.05000000       0.38333333       0.01666667 </v>
   <v>      -0.01666667       0.38333333       0.01666667 </v>
   <v>       0.41666667       0.41666667       0.01666667 </v>
   <v>       0.45000000       0.41666667       0.01666667 </v>
   <v>       0.48333333       0.41666667       0.01666667 </v>
   <v>      -0.48333333       0.41666667       0.01666667 </v>
   <v>      -0.45000000       0.41666667       0.01666667 </v>
   <v>      -0.41666667       0.41666667       0.01666667 </v>
   <v>      -0.38333333       0.41666667       0.01666667 </v>
   <v>      -0.35000000       0.41666667       0.01666667 </v>
   <v>      -0.31666667       0.41666667       0.01666667 </v>
   <v>      -0.28333333       0.41666667       0.01666667 </v>
   <v>      -0.25000000       0.41666667       0.01666667 </v>
   <v>      -0.21666667       0.41666667       0.01666667 </v>
   <v>      -0.18333333       0.41666667       0.01666667 </v>
   <v>      -0.15000000       0.41666667       0.01666667 </v>
   <v>      -0.11666667       0.41666667       0.01666667 </v>
   <v>      -0.08333333       0.41666667       0.01666667 </v>
   <v>      -0.05000000       0.41666667       0.01666667 </v>
   <v>      -0.01666667       0.41666667       0.01666667 </v>
   <v>       0.45000000       0.45000000       0.01666667 </v>
   <v>       0.48333333       0.45000000       0.01666667 </v>
   <v>      -0.48333333       0.45000000       0.01666667 </v>
   <v>      -0.45000000       0.45000000       0.01666667 </v>
   <v>      -0.41666667       0.45000000       0.01666667 </v>
   <v>      -0.38333333       0.45000000       0.01666667 </v>
   <v>      -0.35000000       0.45000000       0.01666667 </v>
   <v>      -0.31666667       0.45000000       0.01666667 </v>
   <v>      -0.28333333       0.45000000       0.01666667 </v>
   <v>      -0.25000000       0.45000000       0.01666667 </v>
   <v>      -0.21666667       0.45000000       0.01666667 </v>
   <v>      -0.18333333       0.45000000       0.01666667 </v>
   <v>      -0.15000000       0.45000000       0.01666667 </v>
   <v>      -0.11666667       0.45000000       0.01666667 </v>
   <v>      -0.08333333       0.45000000       0.01666667 </v>
   <v>      -0.05000000       0.45000000       0.01666667 </v>
   <v>      -0.01666667       0.45000000       0.01666667 </v>
   <v>       0.48333333       0.48333333       0.01666667 </v>
   <v>      -0.48333333       0.48333333       0.01666667 </v>
   <v>      -0.45000000       0.48333333       0.01666667 </v>
   <v>      -0.41666667       0.48333333       0.01666667 </v>
   <v>      -0.38333333       0.48333333       0.01666667 </v>
   <v>      -0.35000000       0.48333333       0.01666667 </v>
   <v>      -0.31666667       0.48333333       0.01666667 </v>
   <v>      -0.28333333       0.48333333       0.01666667 </v>
   <v>      -0.25000000       0.48333333       0.01666667 </v>
   <v>      -0.21666667       0.48333333       0.01666667 </v>
   <v>      -0.18333333       0.48333333       0.01666667 </v>
   <v>      -0.15000000       0.48333333       0.01666667 </v>
   <v>      -0.11666667       0.48333333       0.01666667 </v>
   <v>      -0.08333333       0.48333333       0.01666667 </v>
   <v>      -0.05000000       0.48333333       0.01666667 </v>
   <v>      -0.01666667       0.48333333       0.01666667 </v>
   <v>      -0.48333333      -0.48333333       0.01666667 </v>
   <v>      -0.45000000      -0.48333333       0.01666667 </v>
   <v>      -0.41666667      -0.48333333       0.01666667 </v>
   <v>      -0.38333333      -0.48333333       0.01666667 </v>
   <v>      -0.35000000      -0.48333333       0.01666667 </v>
   <v>      -0.31666667      -0.48333333       0.01666667 </v>
   <v>      -0.28333333      -0.48333333       0.01666667 </v>
   <v>      -0.25000000      -0.48333333       0.01666667 </v>
   <v>      -0.21666667      -0.48333333       0.01666667 </v>
   <v>      -0.18333333      -0.48333333       0.01666667 </v>
   <v>      -0.15000000      -0.48333333       0.01666667 </v>
   <v>      -0.11666667      -0.48333333       0.01666667 </v>
   <v>      -0.08333333      -0.48333333       0.01666667 </v>
   <v>      -0.05000000      -0.48333333       0.01666667 </v>
   <v>      -0.45000000      -0.45000000       0.01666667 </v>
   <v>      -0.41666667      -0.45000000       0.01666667 </v>
   <v>      -0.38333333      -0.45000000       0.01666667 </v>
   <v>      -0.35000000      -0.45000000       0.01666667 </v>
   <v>      -0.31666667      -0.45000000       0.01666667 </v>
   <v>      -0.28333333      -0.45000000       0.01666667 </v>
   <v>      -0.25000000      -0.45000000       0.01666667 </v>
   <v>      -0.21666667      -0.45000000       0.01666667 </v>
   <v>      -0.18333333      -0.45000000       0.01666667 </v>
   <v>      -0.15000000      -0.45000000       0.01666667 </v>
   <v>      -0.11666667      -0.45000000       0.01666667 </v>
   <v>      -0.08333333      -0.45000000       0.01666667 </v>
   <v>      -0.05000000      -0.45000000       0.01666667 </v>
   <v>      -0.41666667      -0.41666667       0.01666667 </v>
   <v>      -0.38333333      -0.41666667       0.01666667 </v>
   <v>      -0.35000000      -0.41666667       0.01666667 </v>
   <v>      -0.31666667      -0.41666667       0.01666667 </v>
   <v>      -0.28333333      -0.41666667       0.01666667 </v>
   <v>      -0.25000000      -0.41666667       0.01666667 </v>
   <v>      -0.21666667      -0.41666667       0.01666667 </v>
   <v>      -0.18333333      -0.41666667       0.01666667 </v>
   <v>      -0.15000000      -0.41666667       0.01666667 </v>
   <v>      -0.11666667      -0.41666667       0.01666667 </v>
   <v>      -0.08333333      -0.41666667       0.01666667 </v>
   <v>      -0.05000000      -0.41666667       0.01666667 </v>
   <v>      -0.38333333      -0.38333333       0.01666667 </v>
   <v>      -0.35000000      -0.38333333       0.01666667 </v>
   <v>      -0.31666667      -0.38333333       0.01666667 </v>
   <v>      -0.28333333      -0.38333333       0.01666667 </v>
   <v>      -0.25000000      -0.38333333       0.01666667 </v>
   <v>      -0.21666667      -0.38333333       0.01666667 </v>
   <v>      -0.18333333      -0.38333333       0.01666667 </v>
   <v>      -0.15000000      -0.38333333       0.01666667 </v>
   <v>      -0.11666667      -0.38333333       0.01666667 </v>
   <v>      -0.08333333      -0.38333333       0.01666667 </v>
   <v>      -0.05000000      -0.38333333       0.01666667 </v>
   <v>      -0.35000000      -0.35000000       0.01666667 </v>
   <v>      -0.31666667      -0.35000000       0.01666667 </v>
   <v>      -0.28333333      -0.35000000       0.01666667 </v>
   <v>      -0.25000000      -0.35000000       0.01666667 </v>
   <v>      -0.21666667      -0.35000000       0.01666667 </v>
   <v>      -0.18333333      -0.35000000       0.01666667 </v>
   <v>      -0.15000000      -0.35000000       0.01666667 </v>
   <v>      -0.11666667      -0.35000000       0.01666667 </v>
   <v>      -0.08333333      -0.35000000       0.01666667 </v>
   <v>      -0.05000000      -0.35000000       0.01666667 </v>
   <v>      -0.31666667      -0.31666667       0.01666667 </v>
   <v>      -0.28333333      -0.31666667       0.01666667 </v>
   <v>      -0.25000000      -0.31666667       0.01666667 </v>
   <v>      -0.21666667      -0.31666667       0.01666667 </v>
   <v>      -0.18333333      -0.31666667       0.01666667 </v>
   <v>      -0.15000000      -0.31666667       0.01666667 </v>
   <v>      -0.11666667      -0.31666667       0.01666667 </v>
   <v>      -0.08333333      -0.31666667       0.01666667 </v>
   <v>      -0.05000000      -0.31666667       0.01666667 </v>
   <v>      -0.28333333      -0.28333333       0.01666667 </v>
   <v>      -0.25000000      -0.28333333       0.01666667 </v>
   <v>      -0.21666667      -0.28333333       0.01666667 </v>
   <v>      -0.18333333      -0.28333333       0.01666667 </v>
   <v>      -0.15000000      -0.28333333       0.01666667 </v>
   <v>      -0.11666667      -0.28333333       0.01666667 </v>
   <v>      -0.08333333      -0.28333333       0.01666667 </v>
   <v>      -0.05000000      -0.28333333       0.01666667 </v>
   <v>      -0.25000000      -0.25000000       0.01666667 </v>
   <v>      -0.21666667      -0.25000000       0.01666667 </v>
   <v>      -0.18333333      -0.25000000       0.01666667 </v>
   <v>      -0.15000000      -0.25000000       0.01666667 </v>
   <v>      -0.11666667      -0.25000000       0.01666667 </v>
   <v>      -0.08333333      -0.25000000       0.01666667 </v>
   <v>      -0.05000000      -0.25000000       0.01666667 </v>
   <v>      -0.21666667      -0.21666667       0.01666667 </v>
   <v>      -0.18333333      -0.21666667       0.01666667 </v>
   <v>      -0.15000000      -0.21666667       0.01666667 </v>
   <v>      -0.11666667      -0.21666667       0.01666667 </v>
   <v>      -0.08333333      -0.21666667       0.01666667 </v>
   <v>      -0.05000000      -0.21666667       0.01666667 </v>
   <v>      -0.18333333      -0.18333333       0.01666667 </v>
   <v>      -0.15000000      -0.18333333       0.01666667 </v>
   <v>      -0.11666667      -0.18333333       0.01666667 </v>
   <v>      -0.08333333      -0.18333333       0.01666667 </v>
   <v>      -0.05000000      -0.18333333       0.01666667 </v>
   <v>      -0.15000000      -0.15000000       0.01666667 </v>
   <v>      -0.11666667      -0.15000000       0.01666667 </v>
   <v>      -0.08333333      -0.15000000       0.01666667 </v>
   <v>      -0.05000000      -0.15000000       0.01666667 </v>
   <v>      -0.11666667      -0.11666667       0.01666667 </v>
   <v>      -0.08333333      -0.11666667       0.01666667 </v>
   <v>      -0.05000000      -0.11666667       0.01666667 </v>
   <v>      -0.08333333      -0.08333333       0.01666667 </v>
   <v>      -0.05000000      -0.08333333       0.01666667 </v>
   <v>      -0.05000000      -0.05000000       0.01666667 </v>
   <v>       0.05000000       0.05000000       0.05000000 </v>
   <v>       0.08333333       0.05000000       0.05000000 </v>
   <v>       0.11666667       0.05000000       0.05000000 </v>
   <v>       0.15000000       0.05000000       0.05000000 </v>
   <v>       0.18333333       0.05000000       0.05000000 </v>
   <v>       0.21666667       0.05000000       0.05000000 </v>
   <v>       0.25000000       0.05000000       0.05000000 </v>
   <v>       0.28333333       0.05000000       0.05000000 </v>
   <v>       0.31666667       0.05000000       0.05000000 </v>
   <v>       0.35000000       0.05000000       0.05000000 </v>
   <v>       0.38333333       0.05000000       0.05000000 </v>
   <v>       0.41666667       0.05000000       0.05000000 </v>
   <v>       0.45000000       0.05000000       0.05000000 </v>
   <v>       0.48333333       0.05000000       0.05000000 </v>
   <v>      -0.48333333       0.05000000       0.05000000 </v>
   <v>      -0.45000000       0.05000000       0.05000000 </v>
   <v>      -0.41666667       0.05000000       0.05000000 </v>
   <v>      -0.38333333       0.05000000       0.05000000 </v>
   <v>      -0.35000000       0.05000000       0.05000000 </v>
   <v>      -0.31666667       0.05000000       0.05000000 </v>
   <v>      -0.28333333       0.05000000       0.05000000 </v>
   <v>      -0.25000000       0.05000000       0.05000000 </v>
   <v>      -0.21666667       0.05000000       0.05000000 </v>
   <v>      -0.18333333       0.05000000       0.05000000 </v>
   <v>      -0.15000000       0.05000000       0.05000000 </v>
   <v>      -0.11666667       0.05000000       0.05000000 </v>
   <v>      -0.08333333       0.05000000       0.05000000 </v>
   <v>      -0.05000000       0.05000000       0.05000000 </v>
   <v>       0.08333333       0.08333333       0.05000000 </v>
   <v>       0.11666667       0.08333333       0.05000000 </v>
   <v>       0.15000000       0.08333333       0.05000000 </v>
   <v>       0.18333333       0.08333333       0.05000000 </v>
   <v>       0.21666667       0.08333333       0.05000000 </v>
   <v>       0.25000000       0.08333333       0.05000000 </v>
   <v>       0.28333333       0.08333333       0.05000000 </v>
   <v>       0.31666667       0.08333333       0.05000000 </v>
   <v>       0.35000000       0.08333333       0.05000000 </v>
   <v>       0.38333333       0.08333333       0.05000000 </v>
   <v>       0.41666667       0.08333333       0.05000000 </v>
   <v>       0.45000000       0.08333333       0.05000000 </v>
   <v>       0.48333333       0.08333333       0.05000000 </v>
   <v>      -0.48333333       0.08333333       0.05000000 </v>
   <v>      -0.45000000       0.08333333       0.05000000 </v>
   <v>      -0.41666667       0.08333333       0.05000000 </v>
   <v>      -0.38333333       0.08333333       0.05000000 </v>
   <v>      -0.35000000       0.08333333       0.05000000 </v>
   <v>      -0.31666667       0.08333333       0.05000000 </v>
   <v>      -0.28333333       0.08333333       0.05000000 </v>
   <v>      -0.25000000       0.08333333       0.05000000 </v>
   <v>      -0.21666667       0.08333333       0.05000000 </v>
   <v>      -0.18333333       0.08333333       0.05000000 </v>
   <v>      -0.15000000       0.08333333       0.05000000 </v>
   <v>      -0.11666667       0.08333333       0.05000000 </v>
   <v>      -0.08333333       0.08333333       0.05000000 </v>
   <v>      -0.05000000       0.08333333       0.05000000 </v>
   <v>       0.11666667       0.11666667       0.05000000 </v>
   <v>       0.15000000       0.11666667       0.05000000 </v>
   <v>       0.18333333       0.11666667       0.05000000 </v>
   <v>       0.21666667       0.11666667       0.05000000 </v>
   <v>       0.25000000       0.11666667       0.05000000 </v>
   <v>       0.28333333       0.11666667       0.05000000 </v>
   <v>       0.31666667       0.11666667       0.05000000 </v>
   <v>       0.35000000       0.11666667       0.05000000 </v>
   <v>       0.38333333       0.11666667       0.05000000 </v>
   <v>       0.41666667       0.11666667       0.05000000 </v>
   <v>       0.45000000       0.11666667       0.05000000 </v>
   <v>       0.48333333       0.11666667       0.05000000 </v>
   <v>      -0.48333333       0.11666667       0.05000000 </v>
   <v>      -0.45000000       0.11666667       0.05000000 </v>
   <v>      -0.41666667       0.11666667       0.05000000 </v>
   <v>      -0.38333333       0.11666667       0.05000000 </v>
   <v>      -0.35000000       0.11666667       0.05000000 </v>
   <v>      -0.31666667       0.11666667       0.05000000 </v>
   <v>      -0.28333333       0.11666667       0.05000000 </v>
   <v>      -0.25000000       0.11666667       0.05000000 </v>
   <v>      -0.21666667       0.11666667       0.05000000 </v>
   <v>      -0.18333333       0.11666667       0.05000000 </v>
   <v>      -0.15000000       0.11666667       0.05000000 </v>
   <v>      -0.11666667       0.11666667       0.05000000 </v>
   <v>      -0.08333333       0.11666667       0.05000000 </v>
   <v>      -0.05000000       0.11666667       0.05000000 </v>
   <v>       0.15000000       0.15000000       0.05000000 </v>
   <v>       0.18333333       0.15000000       0.05000000 </v>
   <v>       0.21666667       0.15000000       0.05000000 </v>
   <v>       0.25000000       0.15000000       0.05000000 </v>
   <v>       0.28333333       0.15000000       0.05000000 </v>
   <v>       0.31666667       0.15000000       0.05000000 </v>
   <v>       0.35000000       0.15000000       0.05000000 </v>
   <v>       0.38333333       0.15000000       0.05000000 </v>
   <v>       0.41666667       0.15000000       0.05000000 </v>
   <v>       0.45000000       0.15000000       0.05000000 </v>
   <v>       0.48333333       0.15000000       0.05000000 </v>
   <v>      -0.48333333       0.15000000       0.05000000 </v>
   <v>      -0.45000000       0.15000000       0.05000000 </v>
   <v>      -0.41666667       0.15000000       0.05000000 </v>
   <v>      -0.38333333       0.15000000       0.05000000 </v>
   <v>      -0.35000000       0.15000000       0.05000000 </v>
   <v>      -0.31666667       0.15000000       0.05000000 </v>
   <v>      -0.28333333       0.15000000       0.05000000 </v>
   <v>      -0.25000000       0.15000000       0.05000000 </v>
   <v>      -0.21666667       0.15000000       0.05000000 </v>
   <v>      -0.18333333       0.15000000       0.05000000 </v>
   <v>      -0.15000000       0.15000000       0.05000000 </v>
   <v>      -0.11666667       0.15000000       0.05000000 </v>
   <v>      -0.08333333       0.15000000       0.05000000 </v>
   <v>      -0.05000000       0.15000000       0.05000000 </v>
   <v>       0.18333333       0.18333333       0.05000000 </v>
   <v>       0.21666667       0.18333333       0.05000000 </v>
   <v>       0.25000000       0.18333333       0.05000000 </v>
   <v>       0.28333333       0.18333333       0.05000000 </v>
   <v>       0.31666667       0.18333333       0.05000000 </v>
   <v>       0.35000000       0.18333333       0.05000000 </v>
   <v>       0.38333333       0.18333333       0.05000000 </v>
   <v>       0.41666667       0.18333333       0.05000000 </v>
   <v>       0.45000000       0.18333333       0.05000000 </v>
   <v>       0.48333333       0.18333333       0.05000000 </v>
   <v>      -0.48333333       0.18333333       0.05000000 </v>
   <v>      -0.45000000       0.18333333       0.05000000 </v>
   <v>      -0.41666667       0.18333333       0.05000000 </v>
   <v>      -0.38333333       0.18333333       0.05000000 </v>
   <v>      -0.35000000       0.18333333       0.05000000 </v>
   <v>      -0.31666667       0.18333333       0.05000000 </v>
   <v>      -0.28333333       0.18333333       0.05000000 </v>
   <v>      -0.25000000       0.18333333       0.05000000 </v>
   <v>      -0.21666667       0.18333333       0.05000000 </v>
   <v>      -0.18333333       0.18333333       0.05000000 </v>
   <v>      -0.15000000       0.18333333       0.05000000 </v>
   <v>      -0.11666667       0.18333333       0.05000000 </v>
   <v>      -0.08333333       0.18333333       0.05000000 </v>
   <v>      -0.05000000       0.18333333       0.05000000 </v>
   <v>       0.21666667       0.21666667       0.05000000 </v>
   <v>       0.25000000       0.21666667       0.05000000 </v>
   <v>       0.28333333       0.21666667       0.05000000 </v>
   <v>       0.31666667       0.21666667       0.05000000 </v>
   <v>       0.35000000       0.21666667       0.05000000 </v>
   <v>       0.38333333       0.21666667       0.05000000 </v>
   <v>       0.41666667       0.21666667       0.05000000 </v>
   <v>       0.45000000       0.21666667       0.05000000 </v>
   <v>       0.48333333       0.21666667       0.05000000 </v>
   <v>      -0.48333333       0.21666667       0.05000000 </v>
   <v>      -0.45000000       0.21666667       0.05000000 </v>
   <v>      -0.41666667       0.21666667       0.05000000 </v>
   <v>      -0.38333333       0.21666667       0.05000000 </v>
   <v>      -0.35000000       0.21666667       0.05000000 </v>
   <v>      -0.31666667       0.21666667       0.05000000 </v>
   <v>      -0.28333333       0.21666667       0.05000000 </v>
   <v>      -0.25000000       0.21666667       0.05000000 </v>
   <v>      -0.21666667       0.21666667       0.05000000 </v>
   <v>      -0.18333333       0.21666667       0.05000000 </v>
   <v>      -0.15000000       0.21666667       0.05000000 </v>
   <v>      -0.11666667       0.21666667       0.05000000 </v>
   <v>      -0.08333333       0.21666667       0.05000000 </v>
   <v>      -0.05000000       0.21666667       0.05000000 </v>
   <v>       0.25000000       0.25000000       0.05000000 </v>
   <v>       0.28333333       0.25000000       0.05000000 </v>
   <v>       0.31666667       0.25000000       0.05000000 </v>
   <v>       0.35000000       0.25000000       0.05000000 </v>
   <v>       0.38333333       0.25000000       0.05000000 </v>
   <v>       0.41666667       0.25000000       0.05000000 </v>
   <v>       0.45000000       0.25000000       0.05000000 </v>
   <v>       0.48333333       0.25000000       0.05000000 </v>
   <v>      -0.48333333       0.25000000       0.05000000 </v>
   <v>      -0.45000000       0.25000000       0.05000000 </v>
   <v>      -0.41666667       0.25000000       0.05000000 </v>
   <v>      -0.38333333       0.25000000       0.05000000 </v>
   <v>      -0.35000000       0.25000000       0.05000000 </v>
   <v>      -0.31666667       0.25000000       0.05000000 </v>
   <v>      -0.28333333       0.25000000       0.05000000 </v>
   <v>      -0.25000000       0.25000000       0.05000000 </v>
   <v>      -0.21666667       0.25000000       0.05000000 </v>
   <v>      -0.18333333       0.25000000       0.05000000 </v>
   <v>      -0.15000000       0.25000000       0.05000000 </v>
   <v>      -0.11666667       0.25000000       0.05000000 </v>
   <v>      -0.08333333       0.25000000       0.05000000 </v>
   <v>      -0.05000000       0.25000000       0.05000000 </v>
   <v>       0.28333333       0.28333333       0.05000000 </v>
   <v>       0.31666667       0.28333333       0.05000000 </v>
   <v>       0.35000000       0.28333333       0.05000000 </v>
   <v>       0.38333333       0.28333333       0.05000000 </v>
   <v>       0.41666667       0.28333333       0.05000000 </v>
   <v>       0.45000000       0.28333333       0.05000000 </v>
   <v>       0.48333333       0.28333333       0.05000000 </v>
   <v>      -0.48333333       0.28333333       0.05000000 </v>
   <v>      -0.45000000       0.28333333       0.05000000 </v>
   <v>      -0.41666667       0.28333333       0.05000000 </v>
   <v>      -0.38333333       0.28333333       0.05000000 </v>
   <v>      -0.35000000       0.28333333       0.05000000 </v>
   <v>      -0.31666667       0.28333333       0.05000000 </v>
   <v>      -0.28333333       0.28333333       0.05000000 </v>
   <v>      -0.25000000       0.28333333       0.05000000 </v>
   <v>      -0.21666667       0.28333333       0.05000000 </v>
   <v>      -0.18333333       0.28333333       0.05000000 </v>
   <v>      -0.15000000       0.28333333       0.05000000 </v>
   <v>      -0.11666667       0.28333333       0.05000000 </v>
   <v>      -0.08333333       0.28333333       0.05000000 </v>
   <v>      -0.05000000       0.28333333       0.05000000 </v>
   <v>       0.31666667       0.31666667       0.05000000 </v>
   <v>       0.35000000       0.31666667       0.05000000 </v>
   <v>       0.38333333       0.31666667       0.05000000 </v>
   <v>       0.41666667       0.31666667       0.05000000 </v>
   <v>       0.45000000       0.31666667       0.05000000 </v>
   <v>       0.48333333       0.31666667       0.05000000 </v>
   <v>      -0.48333333       0.31666667       0.05000000 </v>
   <v>      -0.45000000       0.31666667       0.05000000 </v>
   <v>      -0.41666667       0.31666667       0.05000000 </v>
   <v>      -0.38333333       0.31666667       0.05000000 </v>
   <v>      -0.35000000       0.31666667       0.05000000 </v>
   <v>      -0.31666667       0.31666667       0.05000000 </v>
   <v>      -0.28333333       0.31666667       0.05000000 </v>
   <v>      -0.25000000       0.31666667       0.05000000 </v>
   <v>      -0.21666667       0.31666667       0.05000000 </v>
   <v>      -0.18333333       0.31666667       0.05000000 </v>
   <v>      -0.15000000       0.31666667       0.05000000 </v>
   <v>      -0.11666667       0.31666667       0.05000000 </v>
   <v>      -0.08333333       0.31666667       0.05000000 </v>
   <v>      -0.05000000       0.31666667       0.05000000 </v>
   <v>       0.35000000       0.35000000       0.05000000 </v>
   <v>       0.38333333       0.35000000       0.05000000 </v>
   <v>       0.41666667       0.35000000       0.05000000 </v>
   <v>       0.45000000       0.35000000       0.05000000 </v>
   <v>       0.48333333       0.35000000       0.05000000 </v>
   <v>      -0.48333333       0.35000000       0.05000000 </v>
   <v>      -0.45000000       0.35000000       0.05000000 </v>
   <v>      -0.41666667       0.35000000       0.05000000 </v>
   <v>      -0.38333333       0.35000000       0.05000000 </v>
   <v>      -0.35000000       0.35000000       0.05000000 </v>
   <v>      -0.31666667       0.35000000       0.05000000 </v>
   <v>      -0.28333333       0.35000000       0.05000000 </v>
   <v>      -0.25000000       0.35000000       0.05000000 </v>
   <v>      -0.21666667       0.35000000       0.05000000 </v>
   <v>      -0.18333333       0.35000000       0.05000000 </v>
   <v>      -0.15000000       0.35000000       0.05000000 </v>
   <v>      -0.11666667       0.35000000       0.05000000 </v>
   <v>      -0.08333333       0.35000000       0.05000000 </v>
   <v>      -0.05000000       0.35000000       0.05000000 </v>
   <v>       0.38333333       0.38333333       0.05000000 </v>
   <v>       0.41666667       0.38333333       0.05000000 </v>
   <v>       0.45000000       0.38333333       0.05000000 </v>
   <v>       0.48333333       0.38333333       0.05000000 </v>
   <v>      -0.48333333       0.38333333       0.05000000 </v>
   <v>      -0.45000000       0.38333333       0.05000000 </v>
   <v>      -0.41666667       0.38333333       0.05000000 </v>
   <v>      -0.38333333       0.38333333       0.05000000 </v>
   <v>      -0.35000000       0.38333333       0.05000000 </v>
   <v>      -0.31666667       0.38333333       0.05000000 </v>
   <v>      -0.28333333       0.38333333       0.05000000 </v>
   <v>      -0.25000000       0.38333333       0.05000000 </v>
   <v>      -0.21666667       0.38333333       0.05000000 </v>
   <v>      -0.18333333       0.38333333       0.05000000 </v>
   <v>      -0.15000000       0.38333333       0.05000000 </v>
   <v>      -0.11666667       0.38333333       0.05000000 </v>
   <v>      -0.08333333       0.38333333       0.05000000 </v>
   <v>      -0.05000000       0.38333333       0.05000000 </v>
   <v>       0.41666667       0.41666667       0.05000000 </v>
   <v>       0.45000000       0.41666667       0.05000000 </v>
   <v>       0.48333333       0.41666667       0.05000000 </v>
   <v>      -0.48333333       0.41666667       0.05000000 </v>
   <v>      -0.45000000       0.41666667       0.05000000 </v>
   <v>      -0.41666667       0.41666667       0.05000000 </v>
   <v>      -0.38333333       0.41666667       0.05000000 </v>
   <v>      -0.35000000       0.41666667       0.05000000 </v>
   <v>      -0.31666667       0.41666667       0.05000000 </v>
   <v>      -0.28333333       0.41666667       0.05000000 </v>
   <v>      -0.25000000       0.41666667       0.05000000 </v>
   <v>      -0.21666667       0.41666667       0.05000000 </v>
   <v>      -0.18333333       0.41666667       0.05000000 </v>
   <v>      -0.15000000       0.41666667       0.05000000 </v>
   <v>      -0.11666667       0.41666667       0.05000000 </v>
   <v>      -0.08333333       0.41666667       0.05000000 </v>
   <v>      -0.05000000       0.41666667       0.05000000 </v>
   <v>       0.45000000       0.45000000       0.05000000 </v>
   <v>       0.48333333       0.45000000       0.05000000 </v>
   <v>      -0.48333333       0.45000000       0.05000000 </v>
   <v>      -0.45000000       0.45000000       0.05000000 </v>
   <v>      -0.41666667       0.45000000       0.05000000 </v>
   <v>      -0.38333333       0.45000000       0.05000000 </v>
   <v>      -0.35000000       0.45000000       0.05000000 </v>
   <v>      -0.31666667       0.45000000       0.05000000 </v>
   <v>      -0.28333333       0.45000000       0.05000000 </v>
   <v>      -0.25000000       0.45000000       0.05000000 </v>
   <v>      -0.21666667       0.45000000       0.05000000 </v>
   <v>      -0.18333333       0.45000000       0.05000000 </v>
   <v>      -0.15000000       0.45000000       0.05000000 </v>
   <v>      -0.11666667       0.45000000       0.05000000 </v>
   <v>      -0.08333333       0.45000000       0.05000000 </v>
   <v>      -0.05000000       0.45000000       0.05000000 </v>
   <v>       0.48333333       0.48333333       0.05000000 </v>
   <v>      -0.48333333       0.48333333       0.05000000 </v>
   <v>      -0.45000000       0.48333333       0.05000000 </v>
   <v>      -0.41666667       0.48333333       0.05000000 </v>
   <v>      -0.38333333       0.48333333       0.05000000 </v>
   <v>      -0.35000000       0.48333333       0.05000000 </v>
   <v>      -0.31666667       0.48333333       0.05000000 </v>
   <v>      -0.28333333       0.48333333       0.05000000 </v>
   <v>      -0.25000000       0.48333333       0.05000000 </v>
   <v>      -0.21666667       0.48333333       0.05000000 </v>
   <v>      -0.18333333       0.48333333       0.05000000 </v>
   <v>      -0.15000000       0.48333333       0.05000000 </v>
   <v>      -0.11666667       0.48333333       0.05000000 </v>
   <v>      -0.08333333       0.48333333       0.05000000 </v>
   <v>      -0.05000000       0.48333333       0.05000000 </v>
   <v>      -0.48333333      -0.48333333       0.05000000 </v>
   <v>      -0.45000000      -0.48333333       0.05000000 </v>
   <v>      -0.41666667      -0.48333333       0.05000000 </v>
   <v>      -0.38333333      -0.48333333       0.05000000 </v>
   <v>      -0.35000000      -0.48333333       0.05000000 </v>
   <v>      -0.31666667      -0.48333333       0.05000000 </v>
   <v>      -0.28333333      -0.48333333       0.05000000 </v>
   <v>      -0.25000000      -0.48333333       0.05000000 </v>
   <v>      -0.21666667      -0.48333333       0.05000000 </v>
   <v>      -0.18333333      -0.48333333       0.05000000 </v>
   <v>      -0.15000000      -0.48333333       0.05000000 </v>
   <v>      -0.11666667      -0.48333333       0.05000000 </v>
   <v>      -0.08333333      -0.48333333       0.05000000 </v>
   <v>      -0.45000000      -0.45000000       0.05000000 </v>
   <v>      -0.41666667      -0.45000000       0.05000000 </v>
   <v>      -0.38333333      -0.45000000       0.05000000 </v>
   <v>      -0.35000000      -0.45000000       0.05000000 </v>
   <v>      -0.31666667      -0.45000000       0.05000000 </v>
   <v>      -0.28333333      -0.45000000       0.05000000 </v>
   <v>      -0.25000000      -0.45000000       0.05000000 </v>
   <v>      -0.21666667      -0.45000000       0.05000000 </v>
   <v>      -0.18333333      -0.45000000       0.05000000 </v>
   <v>      -0.15000000      -0.45000000       0.05000000 </v>
   <v>      -0.11666667      -0.45000000       0.05000000 </v>
   <v>      -0.08333333      -0.45000000       0.05000000 </v>
   <v>      -0.41666667      -0.41666667       0.05000000 </v>
   <v>      -0.38333333      -0.41666667       0.05000000 </v>
   <v>      -0.35000000      -0.41666667       0.05000000 </v>
   <v>      -0.31666667      -0.41666667       0.05000000 </v>
   <v>      -0.28333333      -0.41666667       0.05000000 </v>
   <v>      -0.25000000      -0.41666667       0.05000000 </v>
   <v>      -0.21666667      -0.41666667       0.05000000 </v>
   <v>      -0.18333333      -0.41666667       0.05000000 </v>
   <v>      -0.15000000      -0.41666667       0.05000000 </v>
   <v>      -0.11666667      -0.41666667       0.05000000 </v>
   <v>      -0.08333333      -0.41666667       0.05000000 </v>
   <v>      -0.38333333      -0.38333333       0.05000000 </v>
   <v>      -0.35000000      -0.38333333       0.05000000 </v>
   <v>      -0.31666667      -0.38333333       0.05000000 </v>
   <v>      -0.28333333      -0.38333333       0.05000000 </v>
   <v>      -0.25000000      -0.38333333       0.05000000 </v>
   <v>      -0.21666667      -0.38333333       0.05000000 </v>
   <v>      -0.18333333      -0.38333333       0.05000000 </v>
   <v>      -0.15000000      -0.38333333       0.05000000 </v>
   <v>      -0.11666667      -0.38333333       0.05000000 </v>
   <v>      -0.08333333      -0.38333333       0.05000000 </v>
   <v>      -0.35000000      -0.35000000       0.05000000 </v>
   <v>      -0.31666667      -0.35000000       0.05000000 </v>
   <v>      -0.28333333      -0.35000000       0.05000000 </v>
   <v>      -0.25000000      -0.35000000       0.05000000 </v>
   <v>      -0.21666667      -0.35000000       0.05000000 </v>
   <v>      -0.18333333      -0.35000000       0.05000000 </v>
   <v>      -0.15000000      -0.35000000       0.05000000 </v>
   <v>      -0.11666667      -0.35000000       0.05000000 </v>
   <v>      -0.08333333      -0.35000000       0.05000000 </v>
   <v>      -0.31666667      -0.31666667       0.05000000 </v>
   <v>      -0.28333333      -0.31666667       0.05000000 </v>
   <v>      -0.25000000      -0.31666667       0.05000000 </v>
   <v>      -0.21666667      -0.31666667       0.05000000 </v>
   <v>      -0.18333333      -0.31666667       0.05000000 </v>
   <v>      -0.15000000      -0.31666667       0.05000000 </v>
   <v>      -0.11666667      -0.31666667       0.05000000 </v>
   <v>      -0.08333333      -0.31666667       0.05000000 </v>
   <v>      -0.28333333      -0.28333333       0.05000000 </v>
   <v>      -0.25000000      -0.28333333       0.05000000 </v>
   <v>      -0.21666667      -0.28333333       0.05000000 </v>
   <v>      -0.18333333      -0.28333333       0.05000000 </v>
   <v>      -0.15000000      -0.28333333       0.05000000 </v>
   <v>      -0.11666667      -0.28333333       0.05000000 </v>
   <v>      -0.08333333      -0.28333333       0.05000000 </v>
   <v>      -0.25000000      -0.25000000       0.05000000 </v>
   <v>      -0.21666667      -0.25000000       0.05000000 </v>
   <v>      -0.18333333      -0.25000000       0.05000000 </v>
   <v>      -0.15000000      -0.25000000       0.05000000 </v>
   <v>      -0.11666667      -0.25000000       0.05000000 </v>
   <v>      -0.08333333      -0.25000000       0.05000000 </v>
   <v>      -0.21666667      -0.21666667       0.05000000 </v>
   <v>      -0.18333333      -0.21666667       0.05000000 </v>
   <v>      -0.15000000      -0.21666667       0.05000000 </v>
   <v>      -0.11666667      -0.21666667       0.05000000 </v>
   <v>      -0.08333333      -0.21666667       0.05000000 </v>
   <v>      -0.18333333      -0.18333333       0.05000000 </v>
   <v>      -0.15000000      -0.18333333       0.05000000 </v>
   <v>      -0.11666667      -0.18333333       0.05000000 </v>
   <v>      -0.08333333      -0.18333333       0.05000000 </v>
   <v>      -0.15000000      -0.15000000       0.05000000 </v>
   <v>      -0.11666667      -0.15000000       0.05000000 </v>
   <v>      -0.08333333      -0.15000000       0.05000000 </v>
   <v>      -0.11666667      -0.11666667       0.05000000 </v>
   <v>      -0.08333333      -0.11666667       0.05000000 </v>
   <v>      -0.08333333      -0.08333333       0.05000000 </v>
   <v>       0.08333333       0.08333333       0.08333333 </v>
   <v>       0.11666667       0.08333333       0.08333333 </v>
   <v>       0.15000000       0.08333333       0.08333333 </v>
   <v>       0.18333333       0.08333333       0.08333333 </v>
   <v>       0.21666667       0.08333333       0.08333333 </v>
   <v>       0.25000000       0.08333333       0.08333333 </v>
   <v>       0.28333333       0.08333333       0.08333333 </v>
   <v>       0.31666667       0.08333333       0.08333333 </v>
   <v>       0.35000000       0.08333333       0.08333333 </v>
   <v>       0.38333333       0.08333333       0.08333333 </v>
   <v>       0.41666667       0.08333333       0.08333333 </v>
   <v>       0.45000000       0.08333333       0.08333333 </v>
   <v>       0.48333333       0.08333333       0.08333333 </v>
   <v>      -0.48333333       0.08333333       0.08333333 </v>
   <v>      -0.45000000       0.08333333       0.08333333 </v>
   <v>      -0.41666667       0.08333333       0.08333333 </v>
   <v>      -0.38333333       0.08333333       0.08333333 </v>
   <v>      -0.35000000       0.08333333       0.08333333 </v>
   <v>      -0.31666667       0.08333333       0.08333333 </v>
   <v>      -0.28333333       0.08333333       0.08333333 </v>
   <v>      -0.25000000       0.08333333       0.08333333 </v>
   <v>      -0.21666667       0.08333333       0.08333333 </v>
   <v>      -0.18333333       0.08333333       0.08333333 </v>
   <v>      -0.15000000       0.08333333       0.08333333 </v>
   <v>      -0.11666667       0.08333333       0.08333333 </v>
   <v>      -0.08333333       0.08333333       0.08333333 </v>
   <v>       0.11666667       0.11666667       0.08333333 </v>
   <v>       0.15000000       0.11666667       0.08333333 </v>
   <v>       0.18333333       0.11666667       0.08333333 </v>
   <v>       0.21666667       0.11666667       0.08333333 </v>
   <v>       0.25000000       0.11666667       0.08333333 </v>
   <v>       0.28333333       0.11666667       0.08333333 </v>
   <v>       0.31666667       0.11666667       0.08333333 </v>
   <v>       0.35000000       0.11666667       0.08333333 </v>
   <v>       0.38333333       0.11666667       0.08333333 </v>
   <v>       0.41666667       0.11666667       0.08333333 </v>
   <v>       0.45000000       0.11666667       0.08333333 </v>
   <v>       0.48333333       0.11666667       0.08333333 </v>
   <v>      -0.48333333       0.11666667       0.08333333 </v>
   <v>      -0.45000000       0.11666667       0.08333333 </v>
   <v>      -0.41666667       0.11666667       0.08333333 </v>
   <v>      -0.38333333       0.11666667       0.08333333 </v>
   <v>      -0.35000000       0.11666667       0.08333333 </v>
   <v>      -0.31666667       0.11666667       0.08333333 </v>
   <v>      -0.28333333       0.11666667       0.08333333 </v>
   <v>      -0.25000000       0.11666667       0.08333333 </v>
   <v>      -0.21666667       0.11666667       0.08333333 </v>
   <v>      -0.18333333       0.11666667       0.08333333 </v>
   <v>      -0.15000000       0.11666667       0.08333333 </v>
   <v>      -0.11666667       0.11666667       0.08333333 </v>
   <v>      -0.08333333       0.11666667       0.08333333 </v>
   <v>       0.15000000       0.15000000       0.08333333 </v>
   <v>       0.18333333       0.15000000       0.08333333 </v>
   <v>       0.21666667       0.15000000       0.08333333 </v>
   <v>       0.25000000       0.15000000       0.08333333 </v>
   <v>       0.28333333       0.15000000       0.08333333 </v>
   <v>       0.31666667       0.15000000       0.08333333 </v>
   <v>       0.35000000       0.15000000       0.08333333 </v>
   <v>       0.38333333       0.15000000       0.08333333 </v>
   <v>       0.41666667       0.15000000       0.08333333 </v>
   <v>       0.45000000       0.15000000       0.08333333 </v>
   <v>       0.48333333       0.15000000       0.08333333 </v>
   <v>      -0.48333333       0.15000000       0.08333333 </v>
   <v>      -0.45000000       0.15000000       0.08333333 </v>
   <v>      -0.41666667       0.15000000       0.08333333 </v>
   <v>      -0.38333333       0.15000000       0.08333333 </v>
   <v>      -0.35000000       0.15000000       0.08333333 </v>
   <v>      -0.31666667       0.15000000       0.08333333 </v>
   <v>      -0.28333333       0.15000000       0.08333333 </v>
   <v>      -0.25000000       0.15000000       0.08333333 </v>
   <v>      -0.21666667       0.15000000       0.08333333 </v>
   <v>      -0.18333333       0.15000000       0.08333333 </v>
   <v>      -0.15000000       0.15000000       0.08333333 </v>
   <v>      -0.11666667       0.15000000       0.08333333 </v>
   <v>      -0.08333333       0.15000000       0.08333333 </v>
   <v>       0.18333333       0.18333333       0.08333333 </v>
   <v>       0.21666667       0.18333333       0.08333333 </v>
   <v>       0.25000000       0.18333333       0.08333333 </v>
   <v>       0.28333333       0.18333333       0.08333333 </v>
   <v>       0.31666667       0.18333333       0.08333333 </v>
   <v>       0.35000000       0.18333333       0.08333333 </v>
   <v>       0.38333333       0.18333333       0.08333333 </v>
   <v>       0.41666667       0.18333333       0.08333333 </v>
   <v>       0.45000000       0.18333333       0.08333333 </v>
   <v>       0.48333333       0.18333333       0.08333333 </v>
   <v>      -0.48333333       0.18333333       0.08333333 </v>
   <v>      -0.45000000       0.18333333       0.08333333 </v>
   <v>      -0.41666667       0.18333333       0.08333333 </v>
   <v>      -0.38333333       0.18333333       0.08333333 </v>
   <v>      -0.35000000       0.18333333       0.08333333 </v>
   <v>      -0.31666667       0.18333333       0.08333333 </v>
   <v>      -0.28333333       0.18333333       0.08333333 </v>
   <v>      -0.25000000       0.18333333       0.08333333 </v>
   <v>      -0.21666667       0.18333333       0.08333333 </v>
   <v>      -0.18333333       0.18333333       0.08333333 </v>
   <v>      -0.15000000       0.18333333       0.08333333 </v>
   <v>      -0.11666667       0.18333333       0.08333333 </v>
   <v>      -0.08333333       0.18333333       0.08333333 </v>
   <v>       0.21666667       0.21666667       0.08333333 </v>
   <v>       0.25000000       0.21666667       0.08333333 </v>
   <v>       0.28333333       0.21666667       0.08333333 </v>
   <v>       0.31666667       0.21666667       0.08333333 </v>
   <v>       0.35000000       0.21666667       0.08333333 </v>
   <v>       0.38333333       0.21666667       0.08333333 </v>
   <v>       0.41666667       0.21666667       0.08333333 </v>
   <v>       0.45000000       0.21666667       0.08333333 </v>
   <v>       0.48333333       0.21666667       0.08333333 </v>
   <v>      -0.48333333       0.21666667       0.08333333 </v>
   <v>      -0.45000000       0.21666667       0.08333333 </v>
   <v>      -0.41666667       0.21666667       0.08333333 </v>
   <v>      -0.38333333       0.21666667       0.08333333 </v>
   <v>      -0.35000000       0.21666667       0.08333333 </v>
   <v>      -0.31666667       0.21666667       0.08333333 </v>
   <v>      -0.28333333       0.21666667       0.08333333 </v>
   <v>      -0.25000000       0.21666667       0.08333333 </v>
   <v>      -0.21666667       0.21666667       0.08333333 </v>
   <v>      -0.18333333       0.21666667       0.08333333 </v>
   <v>      -0.15000000       0.21666667       0.08333333 </v>
   <v>      -0.11666667       0.21666667       0.08333333 </v>
   <v>      -0.08333333       0.21666667       0.08333333 </v>
   <v>       0.25000000       0.25000000       0.08333333 </v>
   <v>       0.28333333       0.25000000       0.08333333 </v>
   <v>       0.31666667       0.25000000       0.08333333 </v>
   <v>       0.35000000       0.25000000       0.08333333 </v>
   <v>       0.38333333       0.25000000       0.08333333 </v>
   <v>       0.41666667       0.25000000       0.08333333 </v>
   <v>       0.45000000       0.25000000       0.08333333 </v>
   <v>       0.48333333       0.25000000       0.08333333 </v>
   <v>      -0.48333333       0.25000000       0.08333333 </v>
   <v>      -0.45000000       0.25000000       0.08333333 </v>
   <v>      -0.41666667       0.25000000       0.08333333 </v>
   <v>      -0.38333333       0.25000000       0.08333333 </v>
   <v>      -0.35000000       0.25000000       0.08333333 </v>
   <v>      -0.31666667       0.25000000       0.08333333 </v>
   <v>      -0.28333333       0.25000000       0.08333333 </v>
   <v>      -0.25000000       0.25000000       0.08333333 </v>
   <v>      -0.21666667       0.25000000       0.08333333 </v>
   <v>      -0.18333333       0.25000000       0.08333333 </v>
   <v>      -0.15000000       0.25000000       0.08333333 </v>
   <v>      -0.11666667       0.25000000       0.08333333 </v>
   <v>      -0.08333333       0.25000000       0.08333333 </v>
   <v>       0.28333333       0.28333333       0.08333333 </v>
   <v>       0.31666667       0.28333333       0.08333333 </v>
   <v>       0.35000000       0.28333333       0.08333333 </v>
   <v>       0.38333333       0.28333333       0.08333333 </v>
   <v>       0.41666667       0.28333333       0.08333333 </v>
   <v>       0.45000000       0.28333333       0.08333333 </v>
   <v>       0.48333333       0.28333333       0.08333333 </v>
   <v>      -0.48333333       0.28333333       0.08333333 </v>
   <v>      -0.45000000       0.28333333       0.08333333 </v>
   <v>      -0.41666667       0.28333333       0.08333333 </v>
   <v>      -0.38333333       0.28333333       0.08333333 </v>
   <v>      -0.35000000       0.28333333       0.08333333 </v>
   <v>      -0.31666667       0.28333333       0.08333333 </v>
   <v>      -0.28333333       0.28333333       0.08333333 </v>
   <v>      -0.25000000       0.28333333       0.08333333 </v>
   <v>      -0.21666667       0.28333333       0.08333333 </v>
   <v>      -0.18333333       0.28333333       0.08333333 </v>
   <v>      -0.15000000       0.28333333       0.08333333 </v>
   <v>      -0.11666667       0.28333333       0.08333333 </v>
   <v>      -0.08333333       0.28333333       0.08333333 </v>
   <v>       0.31666667       0.31666667       0.08333333 </v>
   <v>       0.35000000       0.31666667       0.08333333 </v>
   <v>       0.38333333       0.31666667       0.08333333 </v>
   <v>       0.41666667       0.31666667       0.08333333 </v>
   <v>       0.45000000       0.31666667       0.08333333 </v>
   <v>       0.48333333       0.31666667       0.08333333 </v>
   <v>      -0.48333333       0.31666667       0.08333333 </v>
   <v>      -0.45000000       0.31666667       0.08333333 </v>
   <v>      -0.41666667       0.31666667       0.08333333 </v>
   <v>      -0.38333333       0.31666667       0.08333333 </v>
   <v>      -0.35000000       0.31666667       0.08333333 </v>
   <v>      -0.31666667       0.31666667       0.08333333 </v>
   <v>      -0.28333333       0.31666667       0.08333333 </v>
   <v>      -0.25000000       0.31666667       0.08333333 </v>
   <v>      -0.21666667       0.31666667       0.08333333 </v>
   <v>      -0.18333333       0.31666667       0.08333333 </v>
   <v>      -0.15000000       0.31666667       0.08333333 </v>
   <v>      -0.11666667       0.31666667       0.08333333 </v>
   <v>      -0.08333333       0.31666667       0.08333333 </v>
   <v>       0.35000000       0.35000000       0.08333333 </v>
   <v>       0.38333333       0.35000000       0.08333333 </v>
   <v>       0.41666667       0.35000000       0.08333333 </v>
   <v>       0.45000000       0.35000000       0.08333333 </v>
   <v>       0.48333333       0.35000000       0.08333333 </v>
   <v>      -0.48333333       0.35000000       0.08333333 </v>
   <v>      -0.45000000       0.35000000       0.08333333 </v>
   <v>      -0.41666667       0.35000000       0.08333333 </v>
   <v>      -0.38333333       0.35000000       0.08333333 </v>
   <v>      -0.35000000       0.35000000       0.08333333 </v>
   <v>      -0.31666667       0.35000000       0.08333333 </v>
   <v>      -0.28333333       0.35000000       0.08333333 </v>
   <v>      -0.25000000       0.35000000       0.08333333 </v>
   <v>      -0.21666667       0.35000000       0.08333333 </v>
   <v>      -0.18333333       0.35000000       0.08333333 </v>
   <v>      -0.15000000       0.35000000       0.08333333 </v>
   <v>      -0.11666667       0.35000000       0.08333333 </v>
   <v>      -0.08333333       0.35000000       0.08333333 </v>
   <v>       0.38333333       0.38333333       0.08333333 </v>
   <v>       0.41666667       0.38333333       0.08333333 </v>
   <v>       0.45000000       0.38333333       0.08333333 </v>
   <v>       0.48333333       0.38333333       0.08333333 </v>
   <v>      -0.48333333       0.38333333       0.08333333 </v>
   <v>      -0.45000000       0.38333333       0.08333333 </v>
   <v>      -0.41666667       0.38333333       0.08333333 </v>
   <v>      -0.38333333       0.38333333       0.08333333 </v>
   <v>      -0.35000000       0.38333333       0.08333333 </v>
   <v>      -0.31666667       0.38333333       0.08333333 </v>
   <v>      -0.28333333       0.38333333       0.08333333 </v>
   <v>      -0.25000000       0.38333333       0.08333333 </v>
   <v>      -0.21666667       0.38333333       0.08333333 </v>
   <v>      -0.18333333       0.38333333       0.08333333 </v>
   <v>      -0.15000000       0.38333333       0.08333333 </v>
   <v>      -0.11666667       0.38333333       0.08333333 </v>
   <v>      -0.08333333       0.38333333       0.08333333 </v>
   <v>       0.41666667       0.41666667       0.08333333 </v>
   <v>       0.45000000       0.41666667       0.08333333 </v>
   <v>       0.48333333       0.41666667       0.08333333 </v>
   <v>      -0.48333333       0.41666667       0.08333333 </v>
   <v>      -0.45000000       0.41666667       0.08333333 </v>
   <v>      -0.41666667       0.41666667       0.08333333 </v>
   <v>      -0.38333333       0.41666667       0.08333333 </v>
   <v>      -0.35000000       0.41666667       0.08333333 </v>
   <v>      -0.31666667       0.41666667       0.08333333 </v>
   <v>      -0.28333333       0.41666667       0.08333333 </v>
   <v>      -0.25000000       0.41666667       0.08333333 </v>
   <v>      -0.21666667       0.41666667       0.08333333 </v>
   <v>      -0.18333333       0.41666667       0.08333333 </v>
   <v>      -0.15000000       0.41666667       0.08333333 </v>
   <v>      -0.11666667       0.41666667       0.08333333 </v>
   <v>      -0.08333333       0.41666667       0.08333333 </v>
   <v>       0.45000000       0.45000000       0.08333333 </v>
   <v>       0.48333333       0.45000000       0.08333333 </v>
   <v>      -0.48333333       0.45000000       0.08333333 </v>
   <v>      -0.45000000       0.45000000       0.08333333 </v>
   <v>      -0.41666667       0.45000000       0.08333333 </v>
   <v>      -0.38333333       0.45000000       0.08333333 </v>
   <v>      -0.35000000       0.45000000       0.08333333 </v>
   <v>      -0.31666667       0.45000000       0.08333333 </v>
   <v>      -0.28333333       0.45000000       0.08333333 </v>
   <v>      -0.25000000       0.45000000       0.08333333 </v>
   <v>      -0.21666667       0.45000000       0.08333333 </v>
   <v>      -0.18333333       0.45000000       0.08333333 </v>
   <v>      -0.15000000       0.45000000       0.08333333 </v>
   <v>      -0.11666667       0.45000000       0.08333333 </v>
   <v>      -0.08333333       0.45000000       0.08333333 </v>
   <v>       0.48333333       0.48333333       0.08333333 </v>
   <v>      -0.48333333       0.48333333       0.08333333 </v>
   <v>      -0.45000000       0.48333333       0.08333333 </v>
   <v>      -0.41666667       0.48333333       0.08333333 </v>
   <v>      -0.38333333       0.48333333       0.08333333 </v>
   <v>      -0.35000000       0.48333333       0.08333333 </v>
   <v>      -0.31666667       0.48333333       0.08333333 </v>
   <v>      -0.28333333       0.48333333       0.08333333 </v>
   <v>      -0.25000000       0.48333333       0.08333333 </v>
   <v>      -0.21666667       0.48333333       0.08333333 </v>
   <v>      -0.18333333       0.48333333       0.08333333 </v>
   <v>      -0.15000000       0.48333333       0.08333333 </v>
   <v>      -0.11666667       0.48333333       0.08333333 </v>
   <v>      -0.08333333       0.48333333       0.08333333 </v>
   <v>      -0.48333333      -0.48333333       0.08333333 </v>
   <v>      -0.45000000      -0.48333333       0.08333333 </v>
   <v>      -0.41666667      -0.48333333       0.08333333 </v>
   <v>      -0.38333333      -0.48333333       0.08333333 </v>
   <v>      -0.35000000      -0.48333333       0.08333333 </v>
   <v>      -0.31666667      -0.48333333       0.08333333 </v>
   <v>      -0.28333333      -0.48333333       0.08333333 </v>
   <v>      -0.25000000      -0.48333333       0.08333333 </v>
   <v>      -0.21666667      -0.48333333       0.08333333 </v>
   <v>      -0.18333333      -0.48333333       0.08333333 </v>
   <v>      -0.15000000      -0.48333333       0.08333333 </v>
   <v>      -0.11666667      -0.48333333       0.08333333 </v>
   <v>      -0.45000000      -0.45000000       0.08333333 </v>
   <v>      -0.41666667      -0.45000000       0.08333333 </v>
   <v>      -0.38333333      -0.45000000       0.08333333 </v>
   <v>      -0.35000000      -0.45000000       0.08333333 </v>
   <v>      -0.31666667      -0.45000000       0.08333333 </v>
   <v>      -0.28333333      -0.45000000       0.08333333 </v>
   <v>      -0.25000000      -0.45000000       0.08333333 </v>
   <v>      -0.21666667      -0.45000000       0.08333333 </v>
   <v>      -0.18333333      -0.45000000       0.08333333 </v>
   <v>      -0.15000000      -0.45000000       0.08333333 </v>
   <v>      -0.11666667      -0.45000000       0.08333333 </v>
   <v>      -0.41666667      -0.41666667       0.08333333 </v>
   <v>      -0.38333333      -0.41666667       0.08333333 </v>
   <v>      -0.35000000      -0.41666667       0.08333333 </v>
   <v>      -0.31666667      -0.41666667       0.08333333 </v>
   <v>      -0.28333333      -0.41666667       0.08333333 </v>
   <v>      -0.25000000      -0.41666667       0.08333333 </v>
   <v>      -0.21666667      -0.41666667       0.08333333 </v>
   <v>      -0.18333333      -0.41666667       0.08333333 </v>
   <v>      -0.15000000      -0.41666667       0.08333333 </v>
   <v>      -0.11666667      -0.41666667       0.08333333 </v>
   <v>      -0.38333333      -0.38333333       0.08333333 </v>
   <v>      -0.35000000      -0.38333333       0.08333333 </v>
   <v>      -0.31666667      -0.38333333       0.08333333 </v>
   <v>      -0.28333333      -0.38333333       0.08333333 </v>
   <v>      -0.25000000      -0.38333333       0.08333333 </v>
   <v>      -0.21666667      -0.38333333       0.08333333 </v>
   <v>      -0.18333333      -0.38333333       0.08333333 </v>
   <v>      -0.15000000      -0.38333333       0.08333333 </v>
   <v>      -0.11666667      -0.38333333       0.08333333 </v>
   <v>      -0.35000000      -0.35000000       0.08333333 </v>
   <v>      -0.31666667      -0.35000000       0.08333333 </v>
   <v>      -0.28333333      -0.35000000       0.08333333 </v>
   <v>      -0.25000000      -0.35000000       0.08333333 </v>
   <v>      -0.21666667      -0.35000000       0.08333333 </v>
   <v>      -0.18333333      -0.35000000       0.08333333 </v>
   <v>      -0.15000000      -0.35000000       0.08333333 </v>
   <v>      -0.11666667      -0.35000000       0.08333333 </v>
   <v>      -0.31666667      -0.31666667       0.08333333 </v>
   <v>      -0.28333333      -0.31666667       0.08333333 </v>
   <v>      -0.25000000      -0.31666667       0.08333333 </v>
   <v>      -0.21666667      -0.31666667       0.08333333 </v>
   <v>      -0.18333333      -0.31666667       0.08333333 </v>
   <v>      -0.15000000      -0.31666667       0.08333333 </v>
   <v>      -0.11666667      -0.31666667       0.08333333 </v>
   <v>      -0.28333333      -0.28333333       0.08333333 </v>
   <v>      -0.25000000      -0.28333333       0.08333333 </v>
   <v>      -0.21666667      -0.28333333       0.08333333 </v>
   <v>      -0.18333333      -0.28333333       0.08333333 </v>
   <v>      -0.15000000      -0.28333333       0.08333333 </v>
   <v>      -0.11666667      -0.28333333       0.08333333 </v>
   <v>      -0.25000000      -0.25000000       0.08333333 </v>
   <v>      -0.21666667      -0.25000000       0.08333333 </v>
   <v>      -0.18333333      -0.25000000       0.08333333 </v>
   <v>      -0.15000000      -0.25000000       0.08333333 </v>
   <v>      -0.11666667      -0.25000000       0.08333333 </v>
   <v>      -0.21666667      -0.21666667       0.08333333 </v>
   <v>      -0.18333333      -0.21666667       0.08333333 </v>
   <v>      -0.15000000      -0.21666667       0.08333333 </v>
   <v>      -0.11666667      -0.21666667       0.08333333 </v>
   <v>      -0.18333333      -0.18333333       0.08333333 </v>
   <v>      -0.15000000      -0.18333333       0.08333333 </v>
   <v>      -0.11666667      -0.18333333       0.08333333 </v>
   <v>      -0.15000000      -0.15000000       0.08333333 </v>
   <v>      -0.11666667      -0.15000000       0.08333333 </v>
   <v>      -0.11666667      -0.11666667       0.08333333 </v>
   <v>       0.11666667       0.11666667       0.11666667 </v>
   <v>       0.15000000       0.11666667       0.11666667 </v>
   <v>       0.18333333       0.11666667       0.11666667 </v>
   <v>       0.21666667       0.11666667       0.11666667 </v>
   <v>       0.25000000       0.11666667       0.11666667 </v>
   <v>       0.28333333       0.11666667       0.11666667 </v>
   <v>       0.31666667       0.11666667       0.11666667 </v>
   <v>       0.35000000       0.11666667       0.11666667 </v>
   <v>       0.38333333       0.11666667       0.11666667 </v>
   <v>       0.41666667       0.11666667       0.11666667 </v>
   <v>       0.45000000       0.11666667       0.11666667 </v>
   <v>       0.48333333       0.11666667       0.11666667 </v>
   <v>      -0.48333333       0.11666667       0.11666667 </v>
   <v>      -0.45000000       0.11666667       0.11666667 </v>
   <v>      -0.41666667       0.11666667       0.11666667 </v>
   <v>      -0.38333333       0.11666667       0.11666667 </v>
   <v>      -0.35000000       0.11666667       0.11666667 </v>
   <v>      -0.31666667       0.11666667       0.11666667 </v>
   <v>      -0.28333333       0.11666667       0.11666667 </v>
   <v>      -0.25000000       0.11666667       0.11666667 </v>
   <v>      -0.21666667       0.11666667       0.11666667 </v>
   <v>      -0.18333333       0.11666667       0.11666667 </v>
   <v>      -0.15000000       0.11666667       0.11666667 </v>
   <v>      -0.11666667       0.11666667       0.11666667 </v>
   <v>       0.15000000       0.15000000       0.11666667 </v>
   <v>       0.18333333       0.15000000       0.11666667 </v>
   <v>       0.21666667       0.15000000       0.11666667 </v>
   <v>       0.25000000       0.15000000       0.11666667 </v>
   <v>       0.28333333       0.15000000       0.11666667 </v>
   <v>       0.31666667       0.15000000       0.11666667 </v>
   <v>       0.35000000       0.15000000       0.11666667 </v>
   <v>       0.38333333       0.15000000       0.11666667 </v>
   <v>       0.41666667       0.15000000       0.11666667 </v>
   <v>       0.45000000       0.15000000       0.11666667 </v>
   <v>       0.48333333       0.15000000       0.11666667 </v>
   <v>      -0.48333333       0.15000000       0.11666667 </v>
   <v>      -0.45000000       0.15000000       0.11666667 </v>
   <v>      -0.41666667       0.15000000       0.11666667 </v>
   <v>      -0.38333333       0.15000000       0.11666667 </v>
   <v>      -0.35000000       0.15000000       0.11666667 </v>
   <v>      -0.31666667       0.15000000       0.11666667 </v>
   <v>      -0.28333333       0.15000000       0.11666667 </v>
   <v>      -0.25000000       0.15000000       0.11666667 </v>
   <v>      -0.21666667       0.15000000       0.11666667 </v>
   <v>      -0.18333333       0.15000000       0.11666667 </v>
   <v>      -0.15000000       0.15000000       0.11666667 </v>
   <v>      -0.11666667       0.15000000       0.11666667 </v>
   <v>       0.18333333       0.18333333       0.11666667 </v>
   <v>       0.21666667       0.18333333       0.11666667 </v>
   <v>       0.25000000       0.18333333       0.11666667 </v>
   <v>       0.28333333       0.18333333       0.11666667 </v>
   <v>       0.31666667       0.18333333       0.11666667 </v>
   <v>       0.35000000       0.18333333       0.11666667 </v>
   <v>       0.38333333       0.18333333       0.11666667 </v>
   <v>       0.41666667       0.18333333       0.11666667 </v>
[...]
       <set comment="band 2">
        <r>  0.2591  0.2795  0.0808 </r>
       </set>
       <set comment="band 3">
        <r>  0.0936  0.3216  0.1987 </r>
       </set>
       <set comment="band 4">
        <r>  0.0806  0.3876  0.1819 </r>
       </set>
       <set comment="band 5">
        <r>  0.0668  0.2561  0.2778 </r>
       </set>
      </set>
      <set comment="kpoint 2441">
       <set comment="band 1">
        <r>  0.1916  0.3478  0.0548 </r>
       </set>
       <set comment="band 2">
        <r>  0.2774  0.2666  0.0807 </r>
       </set>
       <set comment="band 3">
        <r>  0.1202  0.3096  0.1838 </r>
       </set>
       <set comment="band 4">
        <r>  0.0889  0.3889  0.1693 </r>
       </set>
       <set comment="band 5">
        <r>  0.0825  0.2273  0.2879 </r>
       </set>
      </set>
      <set comment="kpoint 2442">
       <set comment="band 1">
        <r>  0.2965  0.2687  0.0380 </r>
       </set>
       <set comment="band 2">
        <r>  0.2464  0.2859  0.0840 </r>
       </set>
       <set comment="band 3">
        <r>  0.0480  0.3333  0.2471 </r>
       </set>
       <set comment="band 4">
        <r>  0.0000  0.4743  0.2018 </r>
       </set>
       <set comment="band 5">
        <r>  0.1025  0.1982  0.2901 </r>
       </set>
      </set>
      <set comment="kpoint 2443">
       <set comment="band 1">
        <r>  0.2753  0.2853  0.0416 </r>
       </set>
       <set comment="band 2">
        <r>  0.2579  0.2784  0.0811 </r>
       </set>
       <set comment="band 3">
        <r>  0.0497  0.3204  0.2454 </r>
       </set>
       <set comment="band 4">
        <r>  0.0426  0.4402  0.1852 </r>
       </set>
       <set comment="band 5">
        <r>  0.0823  0.2319  0.2863 </r>
       </set>
      </set>
      <set comment="kpoint 2444">
       <set comment="band 1">
        <r>  0.2473  0.3072  0.0455 </r>
       </set>
       <set comment="band 2">
        <r>  0.2713  0.2688  0.0794 </r>
       </set>
       <set comment="band 3">
        <r>  0.0194  0.2873  0.2723 </r>
       </set>
       <set comment="band 4">
        <r>  0.1191  0.4341  0.1361 </r>
       </set>
       <set comment="band 5">
        <r>  0.0551  0.2781  0.2752 </r>
       </set>
      </set>
      <set comment="kpoint 2445">
       <set comment="band 1">
        <r>  0.2041  0.3415  0.0490 </r>
       </set>
       <set comment="band 2">
        <r>  0.2952  0.2501  0.0796 </r>
       </set>
       <set comment="band 3">
        <r>  0.0205  0.2943  0.2579 </r>
       </set>
       <set comment="band 4">
        <r>  0.1573  0.4051  0.1257 </r>
       </set>
       <set comment="band 5">
        <r>  0.0086  0.4263  0.1710 </r>
       </set>
      </set>
      <set comment="kpoint 2446">
       <set comment="band 1">
        <r>  0.0956  0.4306  0.0468 </r>
       </set>
       <set comment="band 2">
        <r>  0.3792  0.1796  0.0873 </r>
       </set>
       <set comment="band 3">
        <r>  0.0695  0.3086  0.2157 </r>
       </set>
       <set comment="band 4">
        <r>  0.1458  0.3745  0.1431 </r>
       </set>
       <set comment="band 5">
        <r>  0.0438  0.3007  0.2602 </r>
       </set>
      </set>
      <set comment="kpoint 2447">
       <set comment="band 1">
        <r>  0.2507  0.3049  0.0444 </r>
       </set>
       <set comment="band 2">
        <r>  0.2751  0.2656  0.0788 </r>
       </set>
       <set comment="band 3">
        <r>  0.0716  0.3262  0.2233 </r>
       </set>
       <set comment="band 4">
        <r>  0.0000  0.4904  0.1834 </r>
       </set>
       <set comment="band 5">
        <r>  0.1290  0.1528  0.2971 </r>
       </set>
      </set>
      <set comment="kpoint 2448">
       <set comment="band 1">
        <r>  0.2108  0.3377  0.0462 </r>
       </set>
       <set comment="band 2">
        <r>  0.3031  0.2428  0.0790 </r>
       </set>
       <set comment="band 3">
        <r>  0.0806  0.3218  0.2144 </r>
       </set>
       <set comment="band 4">
        <r>  0.0406  0.4377  0.1811 </r>
       </set>
       <set comment="band 5">
        <r>  0.1019  0.1996  0.2900 </r>
       </set>
      </set>
      <set comment="kpoint 2449">
       <set comment="band 1">
        <r>  0.1039  0.4288  0.0407 </r>
       </set>
       <set comment="band 2">
        <r>  0.3929  0.1650  0.0882 </r>
       </set>
       <set comment="band 3">
        <r>  0.0823  0.3161  0.2106 </r>
       </set>
       <set comment="band 4">
        <r>  0.0902  0.3947  0.1690 </r>
       </set>
       <set comment="band 5">
        <r>  0.0716  0.2464  0.2834 </r>
       </set>
      </set>
      <set comment="kpoint 2450">
       <set comment="band 1">
        <r>  0.1066  0.4282  0.0386 </r>
       </set>
       <set comment="band 2">
        <r>  0.3974  0.1602  0.0884 </r>
       </set>
       <set comment="band 3">
        <r>  0.0985  0.3190  0.2008 </r>
       </set>
       <set comment="band 4">
        <r>  0.0000  0.5048  0.1669 </r>
       </set>
       <set comment="band 5">
        <r>  0.1481  0.1189  0.3056 </r>
       </set>
      </set>
      <set comment="kpoint 2451">
       <set comment="band 1">
        <r>  0.1006  0.4290  0.0432 </r>
       </set>
       <set comment="band 2">
        <r>  0.3886  0.1707  0.0872 </r>
       </set>
       <set comment="band 3">
        <r>  0.1111  0.3143  0.1912 </r>
       </set>
       <set comment="band 4">
        <r>  0.0421  0.4415  0.1723 </r>
       </set>
       <set comment="band 5">
        <r>  0.1158  0.1768  0.2944 </r>
       </set>
      </set>
      <set comment="kpoint 2452">
       <set comment="band 1">
        <r>  0.1955  0.3451  0.0538 </r>
       </set>
       <set comment="band 2">
        <r>  0.2806  0.2644  0.0798 </r>
       </set>
       <set comment="band 3">
        <r>  0.1302  0.3078  0.1798 </r>
       </set>
       <set comment="band 4">
        <r>  0.0000  0.5174  0.1527 </r>
       </set>
       <set comment="band 5">
        <r>  0.1618  0.0941  0.3133 </r>
       </set>
      </set>
      <set comment="kpoint 2453">
       <set comment="band 1">
        <r>  0.3470  0.2285  0.0281 </r>
       </set>
       <set comment="band 2">
        <r>  0.2186  0.3011  0.0959 </r>
       </set>
       <set comment="band 3">
        <r>  0.0000  0.4482  0.2421 </r>
       </set>
       <set comment="band 4">
        <r>  0.0000  0.4481  0.2422 </r>
       </set>
       <set comment="band 5">
        <r>  0.0000  0.2990  0.3743 </r>
       </set>
      </set>
      <set comment="kpoint 2454">
       <set comment="band 1">
        <r>  0.3336  0.2392  0.0309 </r>
       </set>
       <set comment="band 2">
        <r>  0.2289  0.2957  0.0910 </r>
       </set>
       <set comment="band 3">
        <r>  0.0142  0.4070  0.2463 </r>
       </set>
       <set comment="band 4">
        <r>  0.0000  0.6127  0.1199 </r>
       </set>
       <set comment="band 5">
        <r>  0.0000  0.1339  0.4960 </r>
       </set>
      </set>
      <set comment="kpoint 2455">
       <set comment="band 1">
        <r>  0.3170  0.2524  0.0342 </r>
       </set>
       <set comment="band 2">
        <r>  0.2379  0.2910  0.0870 </r>
       </set>
       <set comment="band 3">
        <r>  0.0369  0.3721  0.2361 </r>
       </set>
       <set comment="band 4">
        <r>  0.0000  0.4526  0.2381 </r>
       </set>
       <set comment="band 5">
        <r>  0.0493  0.2560  0.3031 </r>
       </set>
      </set>
      <set comment="kpoint 2456">
       <set comment="band 1">
        <r>  0.2968  0.2681  0.0383 </r>
       </set>
       <set comment="band 2">
        <r>  0.2457  0.2870  0.0838 </r>
       </set>
       <set comment="band 3">
        <r>  0.0592  0.3500  0.2220 </r>
       </set>
       <set comment="band 4">
        <r>  0.0000  0.4586  0.2250 </r>
       </set>
       <set comment="band 5">
        <r>  0.0858  0.2045  0.2927 </r>
       </set>
      </set>
      <set comment="kpoint 2457">
       <set comment="band 1">
        <r>  0.2724  0.2869  0.0430 </r>
       </set>
       <set comment="band 2">
        <r>  0.2530  0.2830  0.0814 </r>
       </set>
       <set comment="band 3">
        <r>  0.0815  0.3341  0.2077 </r>
       </set>
       <set comment="band 4">
        <r>  0.0000  0.4760  0.2027 </r>
       </set>
       <set comment="band 5">
        <r>  0.1161  0.1618  0.2947 </r>
       </set>
      </set>
      <set comment="kpoint 2458">
       <set comment="band 1">
        <r>  0.2413  0.3104  0.0483 </r>
       </set>
       <set comment="band 2">
        <r>  0.2621  0.2776  0.0799 </r>
       </set>
       <set comment="band 3">
        <r>  0.1048  0.3210  0.1935 </r>
       </set>
       <set comment="band 4">
        <r>  0.0000  0.4966  0.1778 </r>
       </set>
       <set comment="band 5">
        <r>  0.1410  0.1256  0.3025 </r>
       </set>
      </set>
      <set comment="kpoint 2459">
       <set comment="band 1">
        <r>  0.3208  0.2494  0.0335 </r>
       </set>
       <set comment="band 2">
        <r>  0.2411  0.2886  0.0862 </r>
       </set>
       <set comment="band 3">
        <r>  0.0000  0.4434  0.2401 </r>
       </set>
       <set comment="band 4">
        <r>  0.0147  0.4756  0.2062 </r>
       </set>
       <set comment="band 5">
        <r>  0.0161  0.2259  0.3827 </r>
       </set>
      </set>
      <set comment="kpoint 2460">
       <set comment="band 1">
        <r>  0.3043  0.2624  0.0366 </r>
       </set>
       <set comment="band 2">
        <r>  0.2525  0.2817  0.0822 </r>
       </set>
       <set comment="band 3">
        <r>  0.0198  0.3954  0.2422 </r>
       </set>
       <set comment="band 4">
        <r>  0.0196  0.4026  0.2474 </r>
       </set>
       <set comment="band 5">
        <r>  0.0167  0.3255  0.3038 </r>
       </set>
      </set>
      <set comment="kpoint 2461">
       <set comment="band 1">
        <r>  0.2833  0.2790  0.0401 </r>
       </set>
       <set comment="band 2">
        <r>  0.2637  0.2743  0.0793 </r>
       </set>
       <set comment="band 3">
        <r>  0.0431  0.3592  0.2334 </r>
       </set>
       <set comment="band 4">
        <r>  0.0263  0.4099  0.2298 </r>
       </set>
       <set comment="band 5">
        <r>  0.0316  0.3479  0.2363 </r>
       </set>
      </set>
      <set comment="kpoint 2462">
       <set comment="band 1">
        <r>  0.2554  0.3009  0.0439 </r>
       </set>
       <set comment="band 2">
        <r>  0.2771  0.2647  0.0776 </r>
       </set>
       <set comment="band 3">
        <r>  0.0652  0.3395  0.2198 </r>
       </set>
       <set comment="band 4">
        <r>  0.0320  0.4202  0.2106 </r>
       </set>
       <set comment="band 5">
        <r>  0.0731  0.2435  0.2808 </r>
       </set>
      </set>
      <set comment="kpoint 2463">
       <set comment="band 1">
        <r>  0.2120  0.3357  0.0470 </r>
       </set>
       <set comment="band 2">
        <r>  0.3013  0.2454  0.0782 </r>
       </set>
       <set comment="band 3">
        <r>  0.0875  0.3261  0.2054 </r>
       </set>
       <set comment="band 4">
        <r>  0.0371  0.4314  0.1909 </r>
       </set>
       <set comment="band 5">
        <r>  0.0974  0.2040  0.2882 </r>
       </set>
      </set>
      <set comment="kpoint 2464">
       <set comment="band 1">
        <r>  0.2869  0.2762  0.0392 </r>
       </set>
       <set comment="band 2">
        <r>  0.2671  0.2716  0.0786 </r>
       </set>
       <set comment="band 3">
        <r>  0.0305  0.3561  0.2587 </r>
       </set>
       <set comment="band 4">
        <r>  0.0000  0.4549  0.2254 </r>
       </set>
       <set comment="band 5">
        <r>  0.0623  0.2553  0.2940 </r>
       </set>
      </set>
      <set comment="kpoint 2465">
       <set comment="band 1">
        <r>  0.2626  0.2959  0.0418 </r>
       </set>
       <set comment="band 2">
        <r>  0.2842  0.2587  0.0765 </r>
       </set>
       <set comment="band 3">
        <r>  0.0172  0.3079  0.2852 </r>
       </set>
       <set comment="band 4">
        <r>  0.0501  0.4596  0.1789 </r>
       </set>
       <set comment="band 5">
        <r>  0.0510  0.2833  0.2826 </r>
       </set>
      </set>
      <set comment="kpoint 2466">
       <set comment="band 1">
        <r>  0.2228  0.3291  0.0433 </r>
       </set>
       <set comment="band 2">
        <r>  0.3121  0.2356  0.0770 </r>
       </set>
       <set comment="band 3">
        <r>  0.0212  0.3133  0.2658 </r>
       </set>
       <set comment="band 4">
        <r>  0.0849  0.4238  0.1704 </r>
       </set>
       <set comment="band 5">
        <r>  0.0104  0.4221  0.1844 </r>
       </set>
      </set>
      <set comment="kpoint 2467">
       <set comment="band 1">
        <r>  0.1129  0.4250  0.0355 </r>
       </set>
       <set comment="band 2">
        <r>  0.4054  0.1527  0.0883 </r>
       </set>
       <set comment="band 3">
        <r>  0.0552  0.3210  0.2313 </r>
       </set>
       <set comment="band 4">
        <r>  0.0847  0.4001  0.1765 </r>
       </set>
       <set comment="band 5">
        <r>  0.0482  0.2997  0.2595 </r>
       </set>
      </set>
      <set comment="kpoint 2468">
       <set comment="band 1">
        <r>  0.2263  0.3268  0.0420 </r>
       </set>
       <set comment="band 2">
        <r>  0.3156  0.2324  0.0765 </r>
       </set>
       <set comment="band 3">
        <r>  0.0523  0.3401  0.2371 </r>
       </set>
       <set comment="band 4">
        <r>  0.0000  0.4695  0.2085 </r>
       </set>
       <set comment="band 5">
        <r>  0.0980  0.1993  0.2908 </r>
       </set>
      </set>
      <set comment="kpoint 2469">
       <set comment="band 1">
        <r>  0.1194  0.4225  0.0318 </r>
       </set>
       <set comment="band 2">
        <r>  0.4131  0.1444  0.0886 </r>
       </set>
       <set comment="band 3">
        <r>  0.0593  0.3327  0.2298 </r>
       </set>
       <set comment="band 4">
        <r>  0.0359  0.4279  0.1996 </r>
       </set>
       <set comment="band 5">
        <r>  0.0784  0.2364  0.2841 </r>
       </set>
      </set>
      <set comment="kpoint 2470">
       <set comment="band 1">
        <r>  0.1158  0.4237  0.0338 </r>
       </set>
       <set comment="band 2">
        <r>  0.4095  0.1487  0.0883 </r>
       </set>
       <set comment="band 3">
        <r>  0.0768  0.3306  0.2148 </r>
       </set>
       <set comment="band 4">
        <r>  0.0000  0.4837  0.1923 </r>
       </set>
       <set comment="band 5">
        <r>  0.1232  0.1565  0.2959 </r>
       </set>
      </set>
      <set comment="kpoint 2471">
       <set comment="band 1">
        <r>  0.3083  0.2593  0.0358 </r>
       </set>
       <set comment="band 2">
        <r>  0.2555  0.2794  0.0814 </r>
       </set>
       <set comment="band 3">
        <r>  0.0000  0.4754  0.2218 </r>
       </set>
       <set comment="band 4">
        <r>  0.0000  0.4753  0.2219 </r>
       </set>
       <set comment="band 5">
        <r>  0.0000  0.2787  0.3865 </r>
       </set>
      </set>
      <set comment="kpoint 2472">
       <set comment="band 1">
        <r>  0.2909  0.2731  0.0384 </r>
       </set>
       <set comment="band 2">
        <r>  0.2701  0.2694  0.0778 </r>
       </set>
       <set comment="band 3">
        <r>  0.0137  0.4062  0.2490 </r>
       </set>
       <set comment="band 4">
        <r>  0.0000  0.4825  0.2178 </r>
       </set>
       <set comment="band 5">
        <r>  0.0000  0.2713  0.3900 </r>
       </set>
      </set>
      <set comment="kpoint 2473">
       <set comment="band 1">
        <r>  0.2666  0.2928  0.0410 </r>
       </set>
       <set comment="band 2">
        <r>  0.2870  0.2566  0.0757 </r>
       </set>
       <set comment="band 3">
        <r>  0.0351  0.3678  0.2421 </r>
       </set>
       <set comment="band 4">
        <r>  0.0000  0.4506  0.2353 </r>
       </set>
       <set comment="band 5">
        <r>  0.0544  0.2560  0.2991 </r>
       </set>
      </set>
      <set comment="kpoint 2474">
       <set comment="band 1">
        <r>  0.2266  0.3263  0.0422 </r>
       </set>
       <set comment="band 2">
        <r>  0.3152  0.2331  0.0763 </r>
       </set>
       <set comment="band 3">
        <r>  0.0560  0.3456  0.2288 </r>
       </set>
       <set comment="band 4">
        <r>  0.0000  0.4641  0.2163 </r>
       </set>
       <set comment="band 5">
        <r>  0.0924  0.2017  0.2914 </r>
       </set>
      </set>
      <set comment="kpoint 2475">
       <set comment="band 1">
        <r>  0.2704  0.2900  0.0400 </r>
       </set>
       <set comment="band 2">
        <r>  0.2903  0.2540  0.0750 </r>
       </set>
       <set comment="band 3">
        <r>  0.0000  0.4456  0.2404 </r>
       </set>
       <set comment="band 4">
        <r>  0.0129  0.4173  0.2468 </r>
       </set>
       <set comment="band 5">
        <r>  0.0178  0.2901  0.3354 </r>
       </set>
      </set>
      <set comment="kpoint 2476">
       <set comment="band 1">
        <r>  0.2345  0.3209  0.0400 </r>
       </set>
       <set comment="band 2">
        <r>  0.3213  0.2277  0.0752 </r>
       </set>
       <set comment="band 3">
        <r>  0.0156  0.3796  0.2573 </r>
       </set>
       <set comment="band 4">
        <r>  0.0238  0.4160  0.2326 </r>
       </set>
       <set comment="band 5">
        <r>  0.0093  0.3776  0.2612 </r>
       </set>
      </set>
      <set comment="kpoint 2477">
       <set comment="band 1">
        <r>  0.1263  0.4191  0.0284 </r>
       </set>
       <set comment="band 2">
        <r>  0.4201  0.1371  0.0886 </r>
       </set>
       <set comment="band 3">
        <r>  0.0379  0.3480  0.2460 </r>
       </set>
       <set comment="band 4">
        <r>  0.0307  0.4205  0.2168 </r>
       </set>
       <set comment="band 5">
        <r>  0.0453  0.2990  0.2721 </r>
       </set>
      </set>
      <set comment="kpoint 2478">
       <set comment="band 1">
        <r>  0.1301  0.4173  0.0267 </r>
       </set>
       <set comment="band 2">
        <r>  0.4233  0.1336  0.0887 </r>
       </set>
       <set comment="band 3">
        <r>  0.0329  0.3624  0.2497 </r>
       </set>
       <set comment="band 4">
        <r>  0.0000  0.4521  0.2305 </r>
       </set>
       <set comment="band 5">
        <r>  0.0587  0.2560  0.2959 </r>
       </set>
      </set>
      <set comment="kpoint 2479">
       <set comment="band 1">
        <r>  0.2384  0.3181  0.0390 </r>
       </set>
       <set comment="band 2">
        <r>  0.3244  0.2251  0.0746 </r>
       </set>
       <set comment="band 3">
        <r>  0.0000  0.5977  0.1267 </r>
       </set>
       <set comment="band 4">
        <r>  0.0000  0.5976  0.1268 </r>
       </set>
       <set comment="band 5">
        <r>  0.0000  0.1601  0.4774 </r>
       </set>
      </set>
      <set comment="kpoint 2480">
       <set comment="band 1">
        <r>  0.1339  0.4152  0.0251 </r>
       </set>
       <set comment="band 2">
        <r>  0.4264  0.1303  0.0887 </r>
       </set>
       <set comment="band 3">
        <r>  0.0131  0.4076  0.2508 </r>
       </set>
       <set comment="band 4">
        <r>  0.0000  0.4540  0.2367 </r>
       </set>
       <set comment="band 5">
        <r>  0.0169  0.3036  0.3280 </r>
       </set>
      </set>
     </set>
    </set>
   </array>
  </projected>
 </calculation>
 <structure name="finalpos" >
  <crystal>
   <varray name="basis" >
    <v>       2.02341731       2.02341731      -0.00000000 </v>
    <v>       0.00000000       2.02341731       2.02341731 </v>
    <v>       2.02341731      -0.00000000       2.02341731 </v>
   </varray>
   <i name="volume">     16.56862155 </i>
   <varray name="rec_basis" >
    <v>       0.24710671       0.24710671      -0.24710671 </v>
    <v>      -0.24710671       0.24710671       0.24710671 </v>
    <v>       0.24710671      -0.24710671       0.24710671 </v>
   </varray>
  </crystal>
  <varray name="positions" >
   <v>       0.00000000      -0.00000000      -0.00000000 </v>
  </varray>
 </structure>
</modeling>
