 running on    1 total cores
 distrk:  each k-point on    1 cores,    1 groups
 distr:  one band on    1 cores,    1 groups
 using from now: INCAR     
 vasp.5.4.4.18Apr17-6-g9f103f2a35 (build May 20 2018 16:52:39) complex          
  
 POSCAR found type information on POSCAR  Al
 POSCAR found :  1 types and       1 ions
 scaLAPACK will be used
 LDA part: xc-table for Ceperly-Alder, standard interpolation
 POSCAR, INCAR and KPOINTS ok, starting setup
 FFT: planning ...
 WAVECAR not read
 entering main loop
       N       E                     dE             d eps       ncg     rms          rms(c)
DAV:   1    -0.298350484294E+01   -0.29835E+01   -0.57761E+02 30920   0.159E+02
DAV:   2    -0.370327516296E+01   -0.71977E+00   -0.67054E+00 34110   0.179E+01
DAV:   3    -0.370642893618E+01   -0.31538E-02   -0.31529E-02 30970   0.120E+00
DAV:   4    -0.370643236845E+01   -0.34323E-05   -0.34326E-05 33815   0.396E-02
DAV:   5    -0.370643237529E+01   -0.68463E-08   -0.68532E-08 31750   0.136E-03    0.906E-01
DAV:   6    -0.369496806960E+01    0.11464E-01   -0.15719E-03 28135   0.263E-01    0.565E-01
DAV:   7    -0.368738765536E+01    0.75804E-02   -0.43750E-03 27525   0.483E-01    0.269E-02
DAV:   8    -0.368739624280E+01   -0.85874E-05   -0.24903E-05 32730   0.458E-02    0.696E-03
DAV:   9    -0.368739768380E+01   -0.14410E-05   -0.20430E-07 21625   0.365E-03    0.985E-04
DAV:  10    -0.368739742722E+01    0.25657E-06   -0.89696E-09 14715   0.876E-04
   1 F= -.36873974E+01 E0= -.36873835E+01  d E =-.368740E+01
 curvature:   0.00 expect dE= 0.000E+00 dE for cont linesearch  0.000E+00
 trial: gam= 0.00000 g(F)=  0.160E-65 g(S)=  0.391E-04 ort = 0.000E+00 (trialstep = 0.100E+01)
 search vector abs. value=  0.391E-04
 bond charge predicted
       N       E                     dE             d eps       ncg     rms          rms(c)
DAV:   1    -0.368741657877E+01   -0.18895E-04   -0.28270E-04 30555   0.102E-01    0.797E-03
DAV:   2    -0.368741583639E+01    0.74237E-06   -0.19489E-06 26065   0.108E-02
   2 F= -.36874158E+01 E0= -.36874018E+01  d E =-.184092E-04
 trial-energy change:   -0.000018  1 .order   -0.000019   -0.000039    0.000001
 step:   0.9852(harm=  0.9852)  dis= 0.00000  next Energy=    -3.687417 (dE=-0.193E-04)
 bond charge predicted
       N       E                     dE             d eps       ncg     rms          rms(c)
DAV:   1    -0.368741547382E+01    0.11049E-05   -0.64232E-07 15625   0.540E-03    0.274E-04
DAV:   2    -0.368741547625E+01   -0.24257E-08   -0.18945E-08 12940   0.126E-03
   3 F= -.36874155E+01 E0= -.36874015E+01  d E =-.180490E-04
 curvature:  -0.49 expect dE=-0.144E-06 dE for cont linesearch -0.144E-06
 trial: gam= 0.00000 g(F)=  0.110E-66 g(S)=  0.293E-06 ort =-0.338E-05 (trialstep = 0.997E+00)
 search vector abs. value=  0.293E-06
 reached required accuracy - stopping structural energy minimisation
