bcc Al                                  
           1
     2.025000    2.025000    0.000000
     0.000000    2.025000    2.025000
     2.025000    0.000000    2.025000
   Al
   1
Direct configuration=     1
   0.00000000  0.00000000  0.00000000
bcc Al                                  
           1
     2.023393    2.023393   -0.000000
     0.000000    2.023393    2.023393
     2.023393   -0.000000    2.023393
   Al
   1
Direct configuration=     2
   0.00000000 -0.00000000 -0.00000000
bcc Al                                  
           1
     2.023417    2.023417   -0.000000
     0.000000    2.023417    2.023417
     2.023417   -0.000000    2.023417
   Al
   1
Direct configuration=     3
   0.00000000 -0.00000000 -0.00000000
