Ge                                      
   5.76000000000000     
     0.000000    0.500000    0.500000
     0.500000    0.000000    0.500000
     0.500000    0.500000    0.000000
   Ge
     2
Direct
  0.000000  0.000000  0.000000
  0.250000  0.250000  0.250000
 
   28   28   28
 -.62040118504E+01 -.38643810264E+01 0.21649113798E+01 0.94624731650E+01 0.15429885719E+02
 0.18436438699E+02 0.18281547935E+02 0.15950688405E+02 0.12976652158E+02 0.10561187054E+02
 0.88104174747E+01 0.75776843694E+01 0.67473822999E+01 0.62588163901E+01 0.60959530811E+01
 0.62587175316E+01 0.67472984173E+01 0.75776753006E+01 0.88104333671E+01 0.10561206640E+02
 0.12976748566E+02 0.15950863143E+02 0.18281598642E+02 0.18436154801E+02 0.15429366791E+02
 0.94620907611E+01 0.21648868686E+01 -.38642345926E+01 -.38643810264E+01 0.22461197730E+00
 0.68083479890E+01 0.13475903379E+02 0.18091762668E+02 0.19622835920E+02 0.18375991263E+02
 0.15647606742E+02 0.12975481123E+02 0.10972670164E+02 0.95314527657E+01 0.85250913193E+01
 0.78731026644E+01 0.75472162430E+01 0.75471301249E+01 0.78729325457E+01 0.85249696749E+01
 0.95313911585E+01 0.10972635555E+02 0.12975521697E+02 0.15647714482E+02 0.18375919855E+02
 0.19622360711E+02 0.18091215328E+02 0.13476131495E+02 0.68097979527E+01 0.22652524089E+00
 -.38634895509E+01 0.21649113798E+01 0.68083479890E+01 0.12621447206E+02 0.17579972825E+02
 0.20180463133E+02 0.20027066384E+02 0.17898170097E+02 0.15249660411E+02 0.13134066007E+02
 0.11583134503E+02 0.10475397396E+02 0.97164980131E+01 0.92630713691E+01 0.91105922764E+01
 0.92629509545E+01 0.97163302607E+01 0.10475232688E+02 0.11582996409E+02 0.13134026520E+02
 0.15249766211E+02 0.17898250167E+02 0.20026816141E+02 0.20179918803E+02 0.17579781049E+02
 0.12622324047E+02 0.68101362982E+01 0.21664084234E+01 0.39663869442E+00 0.94624731650E+01
 0.13475903379E+02 0.17579972825E+02 0.20305855675E+02 0.20832934332E+02 0.19377973354E+02
 0.17042635956E+02 0.15011623787E+02 0.13503602390E+02 0.12417248223E+02 0.11652750015E+02
 0.11151152957E+02 0.10897649814E+02 0.10897634863E+02 0.11151071075E+02 0.11652547985E+02
 0.12416964969E+02 0.13503393069E+02 0.15011634973E+02 0.17042837649E+02 0.19378146056E+02
 0.20832874339E+02 0.20305601499E+02 0.17579784184E+02 0.13475980921E+02 0.94627246691E+01
 0.70093836781E+01 0.70092475349E+01 0.15429885719E+02 0.18091762668E+02 0.20180463133E+02
 0.20832934332E+02 0.19890795662E+02 0.18034521777E+02 0.16299742423E+02 0.15011623787E+02
 0.14098737372E+02 0.13463614470E+02 0.13021326963E+02 0.12734601486E+02 0.12632092723E+02
 0.12734674252E+02 0.13021256895E+02 0.13463278770E+02 0.14098297009E+02 0.15011355516E+02
 0.16299767847E+02 0.18034768800E+02 0.19891134758E+02 0.20833219907E+02 0.20180480845E+02
 0.18091333122E+02 0.15429129295E+02 0.13276804718E+02 0.12459687646E+02 0.13277412894E+02
 0.18436438699E+02 0.19622835920E+02 0.20027066384E+02 0.19377973354E+02 0.18034521777E+02
 0.16759364844E+02 0.15845223421E+02 0.15249660411E+02 0.14876737511E+02 0.14581620117E+02
 0.14319218169E+02 0.14155441607E+02 0.14155600497E+02 0.14319463612E+02 0.14581554256E+02
 0.14876283612E+02 0.15249115418E+02 0.15844884335E+02 0.16759283349E+02 0.18034640646E+02
 0.19378297354E+02 0.20027557236E+02 0.19623264573E+02 0.18436552605E+02 0.17111646271E+02
 0.16273309536E+02 0.16273425420E+02 0.17111805263E+02 0.18281547935E+02 0.18375991263E+02
 0.17898170097E+02 0.17042635956E+02 0.16299742423E+02 0.15845223421E+02 0.15659813820E+02
 0.15647606742E+02 0.15599286895E+02 0.15442911171E+02 0.15270433675E+02 0.15197487300E+02
 0.15270959509E+02 0.15443421121E+02 0.15599290516E+02 0.15647134669E+02 0.15659257155E+02
 0.15844845233E+02 0.16299500295E+02 0.17042448653E+02 0.17898175642E+02 0.18376431380E+02
 0.18282446186E+02 0.17818486243E+02 0.17348526500E+02 0.17158005303E+02 0.17347841191E+02
 0.17817453326E+02 0.15950688405E+02 0.15647606742E+02 0.15249660411E+02 0.15011623787E+02
 0.15011623787E+02 0.15249660411E+02 0.15647606742E+02 0.15950688405E+02 0.16015865441E+02
 0.15924765041E+02 0.15830183137E+02 0.15830629033E+02 0.15925728803E+02 0.16016588125E+02
 0.15950730455E+02 0.15647163842E+02 0.15249214370E+02 0.15011379483E+02 0.15011379483E+02
 0.15249214370E+02 0.15647163842E+02 0.15950730455E+02 0.16016588125E+02 0.15925728803E+02
 0.15830629033E+02 0.15830183137E+02 0.15924765041E+02 0.16015865441E+02 0.12976652158E+02
 0.12975481123E+02 0.13134066007E+02 0.13503602390E+02 0.14098737372E+02 0.14876737511E+02
 0.15599286895E+02 0.16015865441E+02 0.16137458953E+02 0.16117251121E+02 0.16094043717E+02
 0.16118136257E+02 0.16138597052E+02 0.16016521807E+02 0.15599221033E+02 0.14876327660E+02
 0.14098521305E+02 0.13503704734E+02 0.13134120801E+02 0.12975118646E+02 0.12975969281E+02
 0.13052078955E+02 0.13097474295E+02 0.13100705182E+02 0.13095816151E+02 0.13100605316E+02
 0.13097605892E+02 0.13052625619E+02 0.10561187054E+02 0.10972670164E+02 0.11583134503E+02
 0.12417248223E+02 0.13463614470E+02 0.14581620117E+02 0.15442911171E+02 0.15924765041E+02
 0.16117251121E+02 0.16167805548E+02 0.16168204935E+02 0.16118200229E+02 0.15925680614E+02
 0.15443281687E+02 0.14581389066E+02 0.13463213876E+02 0.12417198598E+02 0.11583554165E+02
 0.10973177010E+02 0.10561284047E+02 0.10306163407E+02 0.10163323522E+02 0.10093363222E+02
 0.10065598003E+02 0.10065847855E+02 0.10094020053E+02 0.10164095442E+02 0.10306633795E+02
 0.88104174747E+01 0.95314527657E+01 0.10475397396E+02 0.11652750015E+02 0.13021326963E+02
 0.14319218169E+02 0.15270433675E+02 0.15830183137E+02 0.16094043717E+02 0.16168204935E+02
 0.16094476979E+02 0.15830868288E+02 0.15271034595E+02 0.14319399264E+02 0.13021012134E+02
 0.11652249998E+02 0.10475204474E+02 0.95318279997E+01 0.88111493180E+01 0.82832852760E+01
 0.79152615304E+01 0.76776455940E+01 0.75463978298E+01 0.75048565203E+01 0.75467767081E+01
 0.76780179118E+01 0.79151977888E+01 0.82827049984E+01 0.75776843694E+01 0.85250913193E+01
 0.97164980131E+01 0.11151152957E+02 0.12734601486E+02 0.14155441607E+02 0.15197487300E+02
 0.15830629033E+02 0.16118136257E+02 0.16118200229E+02 0.15830868288E+02 0.15197937013E+02
 0.14155947777E+02 0.12734835027E+02 0.11150878482E+02 0.97158469254E+01 0.85245250363E+01
 0.75776277140E+01 0.68494460720E+01 0.63094782750E+01 0.59314557396E+01 0.56939776053E+01
 0.55802096579E+01 0.55801953355E+01 0.56938227911E+01 0.59309995139E+01 0.63088149798E+01
 0.68489636958E+01 0.67473822999E+01 0.78731026644E+01 0.92630713691E+01 0.10897649814E+02
 0.12632092723E+02 0.14155600497E+02 0.15270959509E+02 0.15925728803E+02 0.16138597052E+02
 0.15925680614E+02 0.15271034595E+02 0.14155947777E+02 0.12632630924E+02 0.10898058348E+02
 0.92630250046E+01 0.78725565641E+01 0.67466393143E+01 0.58647119419E+01 0.51943346211E+01
 0.47064270235E+01 0.43779053606E+01 0.41899966765E+01 0.41289988966E+01 0.41897256564E+01
 0.43774881944E+01 0.47061123863E+01 0.51943928069E+01 0.58652280314E+01 0.62588163901E+01
 0.75472162430E+01 0.91105922764E+01 0.10897634863E+02 0.12734674252E+02 0.14319463612E+02
 0.15443421121E+02 0.16016588125E+02 0.16016521807E+02 0.15443281687E+02 0.14319399264E+02
 0.12734835027E+02 0.10898058348E+02 0.91111311275E+01 0.75475866951E+01 0.62587756720E+01
 0.52385589767E+01 0.44555864786E+01 0.38757945557E+01 0.34705655488E+01 0.32164556496E+01
 0.30948240327E+01 0.30947297569E+01 0.32163109319E+01 0.34706453959E+01 0.38762291289E+01
 0.44562087723E+01 0.52390207817E+01 0.60959530811E+01 0.75471301249E+01 0.92629509545E+01
 0.11151071075E+02 0.13021256895E+02 0.14581554256E+02 0.15599290516E+02 0.15950730455E+02
 0.15599221033E+02 0.14581389066E+02 0.13021012134E+02 0.11150878482E+02 0.92630250046E+01
 0.75475866951E+01 0.60966288881E+01 0.49306110885E+01 0.40287144661E+01 0.33558300843E+01
 0.28771295024E+01 0.25621026289E+01 0.23852307365E+01 0.23284753959E+01 0.23852561132E+01
 0.25623036664E+01 0.28775323653E+01 0.33561759804E+01 0.40286654822E+01 0.49301017659E+01
 0.62587175316E+01 0.78729325457E+01 0.97163302607E+01 0.11652547985E+02 0.13463278770E+02
 0.14876283612E+02 0.15647134669E+02 0.15647163842E+02 0.14876327660E+02 0.13463213876E+02
 0.11652249998E+02 0.97158469254E+01 0.78725565641E+01 0.62587756720E+01 0.49306110885E+01
 0.38882160012E+01 0.31035612707E+01 0.25395533912E+01 0.21589549791E+01 0.19280536186E+01
 0.18201574051E+01 0.18201908530E+01 0.19281688330E+01 0.21591043128E+01 0.25395365222E+01
 0.31031858813E+01 0.38875751345E+01 0.49300921683E+01 0.67472984173E+01 0.85249696749E+01
 0.10475232688E+02 0.12416964969E+02 0.14098297009E+02 0.15249115418E+02 0.15659257155E+02
 0.15249214370E+02 0.14098521305E+02 0.12417198598E+02 0.10475204474E+02 0.85245250363E+01
 0.67466393143E+01 0.52385589767E+01 0.40287144661E+01 0.31035612707E+01 0.24296571818E+01
 0.19664891419E+01 0.16732215591E+01 0.15140442698E+01 0.14640057877E+01 0.15140798171E+01
 0.16732072492E+01 0.19663064075E+01 0.24292909246E+01 0.31032151469E+01 0.40287055205E+01
 0.52390099541E+01 0.75776753006E+01 0.95313911585E+01 0.11582996409E+02 0.13503393069E+02
 0.15011355516E+02 0.15844884335E+02 0.15844845233E+02 0.15011379483E+02 0.13503704734E+02
 0.11583554165E+02 0.95318279997E+01 0.75776277140E+01 0.58647119419E+01 0.44555864786E+01
 0.33558300843E+01 0.25395533912E+01 0.19664891419E+01 0.15914781350E+01 0.13711441946E+01
 0.12707397155E+01 0.12707526537E+01 0.13711248421E+01 0.15913460771E+01 0.19663099700E+01
 0.25395590537E+01 0.33562101377E+01 0.44562388045E+01 0.58652445485E+01 0.88104333671E+01
 0.10972635555E+02 0.13134026520E+02 0.15011634973E+02 0.16299767847E+02 0.16759283349E+02
 0.16299500295E+02 0.15011379483E+02 0.13134120801E+02 0.10973177010E+02 0.88111493180E+01
 0.68494460720E+01 0.51943346211E+01 0.38757945557E+01 0.28771295024E+01 0.21589549791E+01
 0.16732215591E+01 0.13711441946E+01 0.12099050905E+01 0.11597431114E+01 0.12099113239E+01
 0.13711108505E+01 0.16731980033E+01 0.21591049108E+01 0.28775193227E+01 0.38762069526E+01
 0.51943998005E+01 0.68490013748E+01 0.10561206640E+02 0.12975521697E+02 0.15249766211E+02
 0.17042837649E+02 0.18034768800E+02 0.18034640646E+02 0.17042448653E+02 0.15249214370E+02
 0.12975118646E+02 0.10561284047E+02 0.82832852760E+01 0.63094782750E+01 0.47064270235E+01
 0.34705655488E+01 0.25621026289E+01 0.19280536186E+01 0.15140442698E+01 0.12707397155E+01
 0.11597431114E+01 0.11597426340E+01 0.12707365025E+01 0.15140691842E+01 0.19281723375E+01
 0.25622850722E+01 0.34705949903E+01 0.47060761229E+01 0.63088193802E+01 0.82827258903E+01
 0.12976748566E+02 0.15647714482E+02 0.17898250167E+02 0.19378146056E+02 0.19891134758E+02
 0.19378297354E+02 0.17898175642E+02 0.15647163842E+02 0.12975969281E+02 0.10306163407E+02
 0.79152615304E+01 0.59314557396E+01 0.43779053606E+01 0.32164556496E+01 0.23852307365E+01
 0.18201574051E+01 0.14640057877E+01 0.12707526537E+01 0.12099113239E+01 0.12707365025E+01
 0.14640147042E+01 0.18202128627E+01 0.23852549116E+01 0.32162878559E+01 0.43774824478E+01
 0.59309967837E+01 0.79151717837E+01 0.10306645142E+02 0.15950863143E+02 0.18375919855E+02
 0.20026816141E+02 0.20832874339E+02 0.20833219907E+02 0.20027557236E+02 0.18376431380E+02
 0.15950730455E+02 0.13052078955E+02 0.10163323522E+02 0.76776455940E+01 0.56939776053E+01
 0.41899966765E+01 0.30948240327E+01 0.23284753959E+01 0.18201908530E+01 0.15140798171E+01
 0.13711248421E+01 0.13711108505E+01 0.15140691842E+01 0.18202128627E+01 0.23284679766E+01
 0.30946870747E+01 0.41897659710E+01 0.56938953495E+01 0.76779695277E+01 0.10164020205E+02
 0.13052737954E+02 0.18281598642E+02 0.19622360711E+02 0.20179918803E+02 0.20305601499E+02
 0.20180480845E+02 0.19623264573E+02 0.18282446186E+02 0.16016588125E+02 0.13097474295E+02
 0.10093363222E+02 0.75463978298E+01 0.55802096579E+01 0.41289988966E+01 0.30947297569E+01
 0.23852561132E+01 0.19281688330E+01 0.16732072492E+01 0.15913460771E+01 0.16731980033E+01
 0.19281723375E+01 0.23852549116E+01 0.30946870747E+01 0.41289723459E+01 0.55803646466E+01
 0.75468153418E+01 0.10093847726E+02 0.13097640572E+02 0.16016188706E+02 0.18436154801E+02
 0.18091215328E+02 0.17579781049E+02 0.17579784184E+02 0.18091333122E+02 0.18436552605E+02
 0.17818486243E+02 0.15925728803E+02 0.13100705182E+02 0.10065598003E+02 0.75048565203E+01
 0.55801953355E+01 0.41897256564E+01 0.32163109319E+01 0.25623036664E+01 0.21591043128E+01
 0.19663064075E+01 0.19663099700E+01 0.21591049108E+01 0.25622850722E+01 0.32162878559E+01
 0.41897659710E+01 0.55803646466E+01 0.75051009445E+01 0.10065707322E+02 0.13100467542E+02
 0.15925158562E+02 0.17817856942E+02 0.15429366791E+02 0.13476131495E+02 0.12622324047E+02
 0.13475980921E+02 0.15429129295E+02 0.17111646271E+02 0.17348526500E+02 0.15830629033E+02
 0.13095816151E+02 0.10065847855E+02 0.75467767081E+01 0.56938227911E+01 0.43774881944E+01
 0.34706453959E+01 0.28775323653E+01 0.25395365222E+01 0.24292909246E+01 0.25395590537E+01
 0.28775193227E+01 0.34705949903E+01 0.43774824478E+01 0.56938953495E+01 0.75468153418E+01
 0.10065707322E+02 0.13095516237E+02 0.15830370288E+02 0.17348490131E+02 0.17111824199E+02
 0.94620907611E+01 0.68097979527E+01 0.68101362982E+01 0.94627246691E+01 0.13276804718E+02
 0.16273309536E+02 0.17158005303E+02 0.15830183137E+02 0.13100605316E+02 0.10094020053E+02
 0.76780179118E+01 0.59309995139E+01 0.47061123863E+01 0.38762291289E+01 0.33561759804E+01
 0.31031858813E+01 0.31032151469E+01 0.33562101377E+01 0.38762069526E+01 0.47060761229E+01
 0.59309967837E+01 0.76779695277E+01 0.10093847726E+02 0.13100467542E+02 0.15830370288E+02
 0.17158503495E+02 0.16273649952E+02 0.13276558827E+02 0.21648868686E+01 0.22652524089E+00
 0.21664084234E+01 0.70093836781E+01 0.12459687646E+02 0.16273425420E+02 0.17347841191E+02
 0.15924765041E+02 0.13097605892E+02 0.10164095442E+02 0.79151977888E+01 0.63088149798E+01
 0.51943928069E+01 0.44562087723E+01 0.40286654822E+01 0.38875751345E+01 0.40287055205E+01
 0.44562388045E+01 0.51943998005E+01 0.63088193802E+01 0.79151717837E+01 0.10164020205E+02
 0.13097640572E+02 0.15925158562E+02 0.17348490131E+02 0.16273649952E+02 0.12458787987E+02
 0.70075568547E+01 -.38642345926E+01 -.38634895509E+01 0.39663869442E+00 0.70092475349E+01
 0.13277412894E+02 0.17111805263E+02 0.17817453326E+02 0.16015865441E+02 0.13052625619E+02
 0.10306633795E+02 0.82827049984E+01 0.68489636958E+01 0.58652280314E+01 0.52390207817E+01
 0.49301017659E+01 0.49300921683E+01 0.52390099541E+01 0.58652445485E+01 0.68490013748E+01
 0.82827258903E+01 0.10306645142E+02 0.13052737954E+02 0.16016188706E+02 0.17817856942E+02
 0.17111824199E+02 0.13276558827E+02 0.70075568547E+01 0.39489367845E+00 -.38643810264E+01
 0.22461197730E+00 0.68083479890E+01 0.13475903379E+02 0.18091762668E+02 0.19622835920E+02
 0.18375991263E+02 0.15647606742E+02 0.12975481123E+02 0.10972670164E+02 0.95314527657E+01
 0.85250913193E+01 0.78731026644E+01 0.75472162430E+01 0.75471301249E+01 0.78729325457E+01
 0.85249696749E+01 0.95313911585E+01 0.10972635555E+02 0.12975521697E+02 0.15647714482E+02
 0.18375919855E+02 0.19622360711E+02 0.18091215328E+02 0.13476131495E+02 0.68097979527E+01
 0.22652524089E+00 -.38634895509E+01 0.22461197730E+00 0.53021114663E+01 0.11699665606E+02
 0.17241744616E+02 0.20298551929E+02 0.20409140470E+02 0.18357494319E+02 0.15659813820E+02
 0.13479323943E+02 0.11882836135E+02 0.10744083277E+02 0.99642175323E+01 0.94979606242E+01
 0.93410726626E+01 0.94979077838E+01 0.99641387512E+01 0.10743961112E+02 0.11882658245E+02
 0.13479192445E+02 0.15659826009E+02 0.18357473363E+02 0.20408745548E+02 0.20297892145E+02
 0.17241699405E+02 0.11701137865E+02 0.53047889119E+01 0.22678604662E+00 -.17039355926E+01
 0.68083479890E+01 0.11699665606E+02 0.16816230724E+02 0.20441029305E+02 0.21573357842E+02
 0.20372136221E+02 0.18006117304E+02 0.15845223421E+02 0.14242703855E+02 0.13091288531E+02
 0.12281462747E+02 0.11748805224E+02 0.11477549430E+02 0.11477643785E+02 0.11748997329E+02
 0.12281556045E+02 0.13091166242E+02 0.14242466485E+02 0.15845088441E+02 0.18006130586E+02
 0.20372063379E+02 0.21573009258E+02 0.20440685905E+02 0.16816532633E+02 0.11700890796E+02
 0.68098700819E+01 0.38467013554E+01 0.38460061573E+01 0.13475903379E+02 0.17241744616E+02
 0.20441029305E+02 0.21940964642E+02 0.21431746062E+02 0.19611648919E+02 0.17714500756E+02
 0.16299742423E+02 0.15300876735E+02 0.14602218506E+02 0.14087581819E+02 0.13737897786E+02
 0.13610572739E+02 0.13738252732E+02 0.14087974757E+02 0.14602336606E+02 0.15300696104E+02
 0.16299491593E+02 0.17714399007E+02 0.19611723677E+02 0.21431868261E+02 0.21940987325E+02
 0.20440876719E+02 0.17241434030E+02 0.13475543616E+02 0.10516026262E+02 0.94034646499E+01
 0.10516270374E+02 0.18091762668E+02 0.20298551929E+02 0.21573357842E+02 0.21431746062E+02
 0.20181242609E+02 0.18751746382E+02 0.17714500756E+02 0.17042635956E+02 0.16582040053E+02
 0.16139216774E+02 0.15722435648E+02 0.15461594117E+02 0.15461848599E+02 0.15722975752E+02
 0.16139607891E+02 0.16582052368E+02 0.17042372950E+02 0.17714202722E+02 0.18751600987E+02
 0.20181356022E+02 0.21432101137E+02 0.21573699888E+02 0.20298464336E+02 0.18091066077E+02
 0.15878047810E+02 0.14528076844E+02 0.14528502923E+02 0.15878965314E+02 0.19622835920E+02
 0.20409140470E+02 0.20372136221E+02 0.19611648919E+02 0.18751746382E+02 0.18219960302E+02
 0.18006117304E+02 0.17898170097E+02 0.17616106498E+02 0.17171024296E+02 0.16767580163E+02
 0.16607347610E+02 0.16768112817E+02 0.17171692014E+02 0.17616485987E+02 0.17898129473E+02
 0.18005791621E+02 0.18219554395E+02 0.18751446605E+02 0.19611627107E+02 0.20372461065E+02
 0.20409649070E+02 0.19623215687E+02 0.18427775978E+02 0.17413705210E+02 0.17023991468E+02
 0.17413777728E+02 0.18427691398E+02 0.18375991263E+02 0.18357494319E+02 0.18006117304E+02
 0.17714500756E+02 0.17714500756E+02 0.18006117304E+02 0.18357494319E+02 0.18375991263E+02
 0.18011594036E+02 0.17509083673E+02 0.17168429609E+02 0.17168788704E+02 0.17509937018E+02
 0.18012448178E+02 0.18376448781E+02 0.18357476304E+02 0.18005789027E+02 0.17714055126E+02
 0.17714055126E+02 0.18005789027E+02 0.18357476304E+02 0.18376448781E+02 0.18012448178E+02
 0.17509937018E+02 0.17168788704E+02 0.17168429609E+02 0.17509083673E+02 0.18011594036E+02
 0.15647606742E+02 0.15659813820E+02 0.15845223421E+02 0.16299742423E+02 0.17042635956E+02
 0.17898170097E+02 0.18375991263E+02 0.18281547935E+02 0.17817453326E+02 0.17347841191E+02
 0.17158005303E+02 0.17348526500E+02 0.17818486243E+02 0.18282446186E+02 0.18376431380E+02
 0.17898175642E+02 0.17042448653E+02 0.16299500295E+02 0.15844845233E+02 0.15659257155E+02
 0.15647134669E+02 0.15599290516E+02 0.15443421121E+02 0.15270959509E+02 0.15197487300E+02
 0.15270433675E+02 0.15442911171E+02 0.15599286895E+02 0.12975481123E+02 0.13479323943E+02
 0.14242703855E+02 0.15300876735E+02 0.16582040053E+02 0.17616106498E+02 0.18011594036E+02
 0.17817453326E+02 0.17375260243E+02 0.17049596148E+02 0.17049818261E+02 0.17375869497E+02
 0.17818239669E+02 0.18012226540E+02 0.17616375222E+02 0.16582064533E+02 0.15300943741E+02
 0.14242871222E+02 0.13479317051E+02 0.12975057152E+02 0.12665253796E+02 0.12478653039E+02
 0.12348424924E+02 0.12272429080E+02 0.12272484494E+02 0.12348696195E+02 0.12479240406E+02
 0.12665952967E+02 0.10972670164E+02 0.11882836135E+02 0.13091288531E+02 0.14602218506E+02
 0.16139216774E+02 0.17171024296E+02 0.17509083673E+02 0.17347841191E+02 0.17049596148E+02
 0.16913376534E+02 0.17049551305E+02 0.17347959047E+02 0.17509429222E+02 0.17171361065E+02
 0.16139309461E+02 0.14602178477E+02 0.13091452652E+02 0.11883311941E+02 0.10973144742E+02
 0.10315547658E+02 0.98574690926E+01 0.95559289400E+01 0.93838014408E+01 0.93278466861E+01
 0.93842729564E+01 0.95566043778E+01 0.98579274852E+01 0.10315491786E+02 0.95314527657E+01
 0.10744083277E+02 0.12281462747E+02 0.14087581819E+02 0.15722435648E+02 0.16767580163E+02
 0.17168429609E+02 0.17158005303E+02 0.17049818261E+02 0.17049551305E+02 0.17157505516E+02
 0.17168234057E+02 0.16767823042E+02 0.15722727034E+02 0.14087525635E+02 0.12281151511E+02
 0.10743980938E+02 0.95318473277E+01 0.86104834172E+01 0.79318656380E+01 0.74543566157E+01
 0.71493571932E+01 0.70005102360E+01 0.70006424460E+01 0.71495728034E+01 0.74542933041E+01
 0.79313626810E+01 0.86097995386E+01 0.85250913193E+01 0.99642175323E+01 0.11748805224E+02
 0.13737897786E+02 0.15461594117E+02 0.16607347610E+02 0.17168788704E+02 0.17348526500E+02
 0.17375869497E+02 0.17347959047E+02 0.17168234057E+02 0.16607339608E+02 0.15462062492E+02
 0.13738274348E+02 0.11748638870E+02 0.99636180955E+01 0.85245738682E+01 0.74068904051E+01
 0.65629421137E+01 0.59480987919E+01 0.55296739734E+01 0.52865235895E+01 0.52067304927E+01
 0.52863650561E+01 0.55292942626E+01 0.59475551370E+01 0.65625198505E+01 0.74069225920E+01
 0.78731026644E+01 0.94979606242E+01 0.11477549430E+02 0.13610572739E+02 0.15461848599E+02
 0.16768112817E+02 0.17509937018E+02 0.17818486243E+02 0.17818239669E+02 0.17509429222E+02
 0.16767823042E+02 0.15462062492E+02 0.13611130966E+02 0.11477998692E+02 0.94979386693E+01
 0.78726067570E+01 0.65953497212E+01 0.56203981267E+01 0.48979080066E+01 0.43884304461E+01
 0.40641505858E+01 0.39066910553E+01 0.39065615131E+01 0.40638538786E+01 0.43881961138E+01
 0.48979744610E+01 0.56208475993E+01 0.65960060432E+01 0.75472162430E+01 0.93410726626E+01
 0.11477643785E+02 0.13738252732E+02 0.15722975752E+02 0.17171692014E+02 0.18012448178E+02
 0.18282446186E+02 0.18012226540E+02 0.17171361065E+02 0.15722727034E+02 0.13738274348E+02
 0.11477998692E+02 0.93416119301E+01 0.75476291610E+01 0.61189072380E+01 0.50205684972E+01
 0.42007043191E+01 0.36123445948E+01 0.32192149346E+01 0.29947629906E+01 0.29219037108E+01
 0.29946848108E+01 0.32192654857E+01 0.36126862887E+01 0.42012314864E+01 0.50209574354E+01
 0.61188895313E+01 0.75471301249E+01 0.94979077838E+01 0.11748997329E+02 0.14087974757E+02
 0.16139607891E+02 0.17616485987E+02 0.18376448781E+02 0.18376431380E+02 0.17616375222E+02
 0.16139309461E+02 0.14087525635E+02 0.11748638870E+02 0.94979386693E+01 0.75476291610E+01
 0.59606072125E+01 0.47257036719E+01 0.37979356328E+01 0.31265506137E+01 0.26669317488E+01
 0.23830396040E+01 0.22483395409E+01 0.22483550538E+01 0.23831503189E+01 0.26671961262E+01
 0.31268197961E+01 0.37979086881E+01 0.47252345331E+01 0.59599112789E+01 0.78729325457E+01
 0.99641387512E+01 0.12281556045E+02 0.14602336606E+02 0.16582052368E+02 0.17898129473E+02
 0.18357476304E+02 0.17898175642E+02 0.16582064533E+02 0.14602178477E+02 0.12281151511E+02
 0.99636180955E+01 0.78726067570E+01 0.61189072380E+01 0.47257036719E+01 0.36655054565E+01
 0.28913056928E+01 0.23538125080E+01 0.20082410331E+01 0.18176960719E+01 0.17571804711E+01
 0.18177548464E+01 0.20083197072E+01 0.23537858338E+01 0.28910270800E+01 0.36649972019E+01
 0.47252364789E+01 0.61188007579E+01 0.85249696749E+01 0.10743961112E+02 0.13091166242E+02
 0.15300696104E+02 0.17042372950E+02 0.18005791621E+02 0.18005789027E+02 0.17042448653E+02
 0.15300943741E+02 0.13091452652E+02 0.10743980938E+02 0.85245738682E+01 0.65953497212E+01
 0.50205684972E+01 0.37979356328E+01 0.28913056928E+01 0.22521940763E+01 0.18304137120E+01
 0.15799682802E+01 0.14648020723E+01 0.14648241400E+01 0.15799768337E+01 0.18302956925E+01
 0.22519234635E+01 0.28910458634E+01 0.37979548027E+01 0.50209832618E+01 0.65959501567E+01
 0.95313911585E+01 0.11882658245E+02 0.14242466485E+02 0.16299491593E+02 0.17714202722E+02
 0.18219554395E+02 0.17714055126E+02 0.16299500295E+02 0.14242871222E+02 0.11883311941E+02
 0.95318473277E+01 0.74068904051E+01 0.56203981267E+01 0.42007043191E+01 0.31265506137E+01
 0.23538125080E+01 0.18304137120E+01 0.15042337157E+01 0.13297646297E+01 0.12754182072E+01
 0.13297819891E+01 0.15041829474E+01 0.18302892717E+01 0.23537884922E+01 0.31268374151E+01
 0.42012792993E+01 0.56209226715E+01 0.74069661064E+01 0.10972635555E+02 0.13479192445E+02
 0.15845088441E+02 0.17714399007E+02 0.18751600987E+02 0.18751446605E+02 0.17714055126E+02
 0.15844845233E+02 0.13479317051E+02 0.10973144742E+02 0.86104834172E+01 0.65629421137E+01
 0.48979080066E+01 0.36123445948E+01 0.26669317488E+01 0.20082410331E+01 0.15799682802E+01
 0.13297646297E+01 0.12162422033E+01 0.12162503904E+01 0.13297643892E+01 0.15799561220E+01
 0.20083106522E+01 0.26671707753E+01 0.36126487256E+01 0.48979939516E+01 0.65626172351E+01
 0.86098801760E+01 0.12975521697E+02 0.15659826009E+02 0.18006130586E+02 0.19611723677E+02
 0.20181356022E+02 0.19611627107E+02 0.18005789027E+02 0.15659257155E+02 0.12975057152E+02
 0.10315547658E+02 0.79318656380E+01 0.59480987919E+01 0.43884304461E+01 0.32192149346E+01
 0.23830396040E+01 0.18176960719E+01 0.14648020723E+01 0.12754182072E+01 0.12162503904E+01
 0.12754065418E+01 0.14648067081E+01 0.18177607225E+01 0.23831442054E+01 0.32192046589E+01
 0.43881247491E+01 0.59475431626E+01 0.79314083677E+01 0.10315550258E+02 0.15647714482E+02
 0.18357473363E+02 0.20372063379E+02 0.21431868261E+02 0.21432101137E+02 0.20372461065E+02
 0.18357476304E+02 0.15647134669E+02 0.12665253796E+02 0.98574690926E+01 0.74543566157E+01
 0.55296739734E+01 0.40641505858E+01 0.29947629906E+01 0.22483395409E+01 0.17571804711E+01
 0.14648241400E+01 0.13297819891E+01 0.13297643892E+01 0.14648067081E+01 0.17572140917E+01
 0.22483846889E+01 0.29946725816E+01 0.40638241401E+01 0.55292590903E+01 0.74542268564E+01
 0.98578866713E+01 0.12666028535E+02 0.18375919855E+02 0.20408745548E+02 0.21573009258E+02
 0.21940987325E+02 0.21573699888E+02 0.20409649070E+02 0.18376448781E+02 0.15599290516E+02
 0.12478653039E+02 0.95559289400E+01 0.71493571932E+01 0.52865235895E+01 0.39066910553E+01
 0.29219037108E+01 0.22483550538E+01 0.18177548464E+01 0.15799768337E+01 0.15041829474E+01
 0.15799561220E+01 0.18177607225E+01 0.22483846889E+01 0.29218784327E+01 0.39065814178E+01
 0.52864684423E+01 0.71495733833E+01 0.95564519340E+01 0.12479190355E+02 0.15599399241E+02
 0.19622360711E+02 0.20297892145E+02 0.20440685905E+02 0.20440876719E+02 0.20298464336E+02
 0.19623215687E+02 0.18012448178E+02 0.15443421121E+02 0.12348424924E+02 0.93838014408E+01
 0.70005102360E+01 0.52067304927E+01 0.39065615131E+01 0.29946848108E+01 0.23831503189E+01
 0.20083197072E+01 0.18302956925E+01 0.18302892717E+01 0.20083106522E+01 0.23831442054E+01
 0.29946725816E+01 0.39065814178E+01 0.52068951648E+01 0.70008768846E+01 0.93842019326E+01
 0.12348516792E+02 0.15442985360E+02 0.18011616810E+02 0.18091215328E+02 0.17241699405E+02
 0.16816532633E+02 0.17241434030E+02 0.18091066077E+02 0.18427775978E+02 0.17509937018E+02
 0.15270959509E+02 0.12272429080E+02 0.93278466861E+01 0.70006424460E+01 0.52863650561E+01
 0.40638538786E+01 0.32192654857E+01 0.26671961262E+01 0.23537858338E+01 0.22519234635E+01
 0.23537884922E+01 0.26671707753E+01 0.32192046589E+01 0.40638241401E+01 0.52864684423E+01
 0.70008768846E+01 0.93280122321E+01 0.12272256228E+02 0.15270402043E+02 0.17509305354E+02
 0.18427484995E+02 0.13476131495E+02 0.11701137865E+02 0.11700890796E+02 0.13475543616E+02
 0.15878047810E+02 0.17413705210E+02 0.17168788704E+02 0.15197487300E+02 0.12272484494E+02
 0.93842729564E+01 0.71495728034E+01 0.55292942626E+01 0.43881961138E+01 0.36126862887E+01
 0.31268197961E+01 0.28910270800E+01 0.28910458634E+01 0.31268374151E+01 0.36126487256E+01
 0.43881247491E+01 0.55292590903E+01 0.71495733833E+01 0.93842019326E+01 0.12272256228E+02
 0.15197191888E+02 0.17168672057E+02 0.17413962372E+02 0.15878623472E+02 0.68097979527E+01
 0.53047889119E+01 0.68098700819E+01 0.10516026262E+02 0.14528076844E+02 0.17023991468E+02
 0.17168429609E+02 0.15270433675E+02 0.12348696195E+02 0.95566043778E+01 0.74542933041E+01
 0.59475551370E+01 0.48979744610E+01 0.42012314864E+01 0.37979086881E+01 0.36649972019E+01
 0.37979548027E+01 0.42012792993E+01 0.48979939516E+01 0.59475431626E+01 0.74542268564E+01
 0.95564519340E+01 0.12348516792E+02 0.15270402043E+02 0.17168672057E+02 0.17024402739E+02
 0.14528386916E+02 0.10516084867E+02 0.22652524089E+00 0.22678604662E+00 0.38467013554E+01
 0.94034646499E+01 0.14528502923E+02 0.17413777728E+02 0.17509083673E+02 0.15442911171E+02
 0.12479240406E+02 0.98579274852E+01 0.79313626810E+01 0.65625198505E+01 0.56208475993E+01
 0.50209574354E+01 0.47252345331E+01 0.47252364789E+01 0.50209832618E+01 0.56209226715E+01
 0.65626172351E+01 0.79314083677E+01 0.98578866713E+01 0.12479190355E+02 0.15442985360E+02
 0.17509305354E+02 0.17413962372E+02 0.14528386916E+02 0.94029812994E+01 0.38461201001E+01
 -.38634895509E+01 -.17039355926E+01 0.38460061573E+01 0.10516270374E+02 0.15878965314E+02
 0.18427691398E+02 0.18011594036E+02 0.15599286895E+02 0.12665952967E+02 0.10315491786E+02
 0.86097995386E+01 0.74069225920E+01 0.65960060432E+01 0.61188895313E+01 0.59599112789E+01
 0.61188007579E+01 0.65959501567E+01 0.74069661064E+01 0.86098801760E+01 0.10315550258E+02
 0.12666028535E+02 0.15599399241E+02 0.18011616810E+02 0.18427484995E+02 0.15878623472E+02
 0.10516084867E+02 0.38461201001E+01 -.17037285520E+01 0.21649113798E+01 0.68083479890E+01
 0.12621447206E+02 0.17579972825E+02 0.20180463133E+02 0.20027066384E+02 0.17898170097E+02
 0.15249660411E+02 0.13134066007E+02 0.11583134503E+02 0.10475397396E+02 0.97164980131E+01
 0.92630713691E+01 0.91105922764E+01 0.92629509545E+01 0.97163302607E+01 0.10475232688E+02
 0.11582996409E+02 0.13134026520E+02 0.15249766211E+02 0.17898250167E+02 0.20026816141E+02
 0.20179918803E+02 0.17579781049E+02 0.12622324047E+02 0.68101362982E+01 0.21664084234E+01
 0.39663869442E+00 0.68083479890E+01 0.11699665606E+02 0.16816230724E+02 0.20441029305E+02
 0.21573357842E+02 0.20372136221E+02 0.18006117304E+02 0.15845223421E+02 0.14242703855E+02
 0.13091288531E+02 0.12281462747E+02 0.11748805224E+02 0.11477549430E+02 0.11477643785E+02
 0.11748997329E+02 0.12281556045E+02 0.13091166242E+02 0.14242466485E+02 0.15845088441E+02
 0.18006130586E+02 0.20372063379E+02 0.21573009258E+02 0.20440685905E+02 0.16816532633E+02
 0.11700890796E+02 0.68098700819E+01 0.38467013554E+01 0.38460061573E+01 0.12621447206E+02
 0.16816230724E+02 0.20450009790E+02 0.22287403006E+02 0.21960203500E+02 0.20171118468E+02