   2   2   1   0
  0.2402370E+02  0.4080640E-09  0.4080640E-09  0.4080640E-09  0.5000000E-15
  1.000000000000000E-004
  CAR 
 Ge                                      
     14.20279319    -11.05948672  301      3.26633118      1.00000000
    -11.059  0.0000E+00  0.0000E+00
    -10.975  0.0000E+00  0.0000E+00
    -10.891  0.0000E+00  0.0000E+00
    -10.807  0.0000E+00  0.0000E+00
    -10.723  0.0000E+00  0.0000E+00
    -10.638  0.0000E+00  0.0000E+00
    -10.554  0.0000E+00  0.0000E+00
    -10.470  0.0000E+00  0.0000E+00
    -10.386  0.0000E+00  0.0000E+00
    -10.302  0.0000E+00  0.0000E+00
    -10.217  0.0000E+00  0.0000E+00
    -10.133  0.0000E+00  0.0000E+00
    -10.049  0.0000E+00  0.0000E+00
     -9.965  0.0000E+00  0.0000E+00
     -9.881  0.0000E+00  0.0000E+00
     -9.796  0.0000E+00  0.0000E+00
     -9.712  0.0000E+00  0.0000E+00
     -9.628  0.0000E+00  0.0000E+00
     -9.544  0.0000E+00  0.0000E+00
     -9.460  0.0000E+00  0.0000E+00
     -9.375  0.0000E+00  0.0000E+00
     -9.291  0.0000E+00  0.0000E+00
     -9.207  0.0000E+00  0.0000E+00
     -9.123  0.0000E+00  0.0000E+00
     -9.039  0.6427E-01  0.1008E-02
     -8.954  0.1389E+00  0.9840E-02
     -8.870  0.1873E+00  0.2354E-01
     -8.786  0.2244E+00  0.4079E-01
     -8.702  0.2566E+00  0.6106E-01
     -8.617  0.2877E+00  0.8407E-01
     -8.533  0.3176E+00  0.1095E+00
     -8.449  0.3432E+00  0.1373E+00
     -8.365  0.3710E+00  0.1674E+00
     -8.281  0.3953E+00  0.1997E+00
     -8.196  0.4222E+00  0.2341E+00
     -8.112  0.4460E+00  0.2706E+00
     -8.028  0.4725E+00  0.3093E+00
     -7.944  0.4975E+00  0.3501E+00
     -7.860  0.5243E+00  0.3931E+00
     -7.775  0.5523E+00  0.4385E+00
     -7.691  0.5811E+00  0.4861E+00
     -7.607  0.6132E+00  0.5364E+00
     -7.523  0.6475E+00  0.5895E+00
     -7.439  0.6860E+00  0.6456E+00
     -7.354  0.7342E+00  0.7053E+00
     -7.270  0.7921E+00  0.7694E+00
     -7.186  0.8828E+00  0.8396E+00
     -7.102  0.1043E+01  0.9220E+00
     -7.018  0.1014E+01  0.1009E+01
     -6.933  0.9732E+00  0.1092E+01
     -6.849  0.9347E+00  0.1173E+01
     -6.765  0.9002E+00  0.1250E+01
     -6.681  0.8588E+00  0.1324E+01
     -6.596  0.8227E+00  0.1395E+01
     -6.512  0.7828E+00  0.1462E+01
     -6.428  0.7430E+00  0.1526E+01
     -6.344  0.7073E+00  0.1588E+01
     -6.260  0.6650E+00  0.1645E+01
     -6.175  0.6235E+00  0.1700E+01
     -6.091  0.5844E+00  0.1750E+01
     -6.007  0.5372E+00  0.1798E+01
     -5.923  0.4932E+00  0.1841E+01
     -5.839  0.4500E+00  0.1881E+01
     -5.754  0.3891E+00  0.1916E+01
     -5.670  0.3339E+00  0.1947E+01
     -5.586  0.3581E+00  0.1974E+01
     -5.502  0.1080E+00  0.1997E+01
     -5.418  0.0000E+00  0.2000E+01
     -5.333  0.0000E+00  0.2000E+01
     -5.249  0.0000E+00  0.2000E+01
     -5.165  0.2622E+00  0.2023E+01
     -5.081  0.2873E+00  0.2045E+01
     -4.997  0.3392E+00  0.2072E+01
     -4.912  0.3965E+00  0.2103E+01
     -4.828  0.4402E+00  0.2138E+01
     -4.744  0.4822E+00  0.2177E+01
     -4.660  0.5308E+00  0.2220E+01
     -4.576  0.5828E+00  0.2267E+01
     -4.491  0.6258E+00  0.2317E+01
     -4.407  0.6807E+00  0.2372E+01
     -4.323  0.7552E+00  0.2433E+01
     -4.239  0.8365E+00  0.2500E+01
     -4.154  0.9830E+00  0.2577E+01
     -4.070  0.2050E+01  0.2677E+01
     -3.986  0.1058E+01  0.2791E+01
     -3.902  0.8758E+00  0.2871E+01
     -3.818  0.7708E+00  0.2940E+01
     -3.733  0.6964E+00  0.3002E+01
     -3.649  0.6395E+00  0.3058E+01
     -3.565  0.5924E+00  0.3110E+01
     -3.481  0.5528E+00  0.3158E+01
     -3.397  0.5171E+00  0.3203E+01
     -3.312  0.4866E+00  0.3245E+01
     -3.228  0.4588E+00  0.3285E+01
     -3.144  0.4335E+00  0.3323E+01
     -3.060  0.4106E+00  0.3358E+01
     -2.976  0.3889E+00  0.3392E+01
     -2.891  0.3692E+00  0.3424E+01
     -2.807  0.3509E+00  0.3454E+01
     -2.723  0.3334E+00  0.3483E+01
     -2.639  0.3174E+00  0.3510E+01
     -2.555  0.3021E+00  0.3536E+01
     -2.470  0.2875E+00  0.3561E+01
     -2.386  0.2741E+00  0.3585E+01
     -2.302  0.2613E+00  0.3607E+01
     -2.218  0.2488E+00  0.3629E+01
     -2.133  0.2372E+00  0.3649E+01
     -2.049  0.2262E+00  0.3669E+01
     -1.965  0.2155E+00  0.3687E+01
     -1.881  0.2055E+00  0.3705E+01
     -1.797  0.1960E+00  0.3722E+01
     -1.712  0.1867E+00  0.3738E+01
     -1.628  0.1777E+00  0.3753E+01
     -1.544  0.1695E+00  0.3768E+01
     -1.460  0.1616E+00  0.3782E+01
     -1.376  0.1536E+00  0.3795E+01
     -1.291  0.1463E+00  0.3808E+01
     -1.207  0.1393E+00  0.3820E+01
     -1.123  0.1324E+00  0.3831E+01
     -1.039  0.1257E+00  0.3842E+01
     -0.955  0.1197E+00  0.3853E+01
     -0.870  0.1711E+00  0.3862E+01
     -0.786  0.7003E+00  0.3905E+01
     -0.702  0.1069E+01  0.3978E+01
     -0.618  0.1490E+01  0.4092E+01
     -0.534  0.1396E+01  0.4215E+01
     -0.449  0.1295E+01  0.4328E+01
     -0.365  0.1180E+01  0.4431E+01
     -0.281  0.1106E+01  0.4527E+01
     -0.197  0.1115E+01  0.4621E+01
     -0.112  0.1123E+01  0.4715E+01
     -0.028  0.1136E+01  0.4811E+01
      0.056  0.1166E+01  0.4907E+01
      0.140  0.1208E+01  0.5007E+01
      0.224  0.1265E+01  0.5111E+01
      0.309  0.1363E+01  0.5221E+01
      0.393  0.1619E+01  0.5343E+01
      0.477  0.1596E+01  0.5480E+01
      0.561  0.1572E+01  0.5613E+01
      0.645  0.1545E+01  0.5744E+01
      0.730  0.1507E+01  0.5873E+01
      0.814  0.1486E+01  0.5999E+01
      0.898  0.1453E+01  0.6123E+01
      0.982  0.1436E+01  0.6245E+01
      1.066  0.1400E+01  0.6364E+01
      1.151  0.1379E+01  0.6481E+01
      1.235  0.1351E+01  0.6596E+01
      1.319  0.1323E+01  0.6709E+01
      1.403  0.1302E+01  0.6819E+01
      1.487  0.1274E+01  0.6928E+01
      1.572  0.1250E+01  0.7034E+01
      1.656  0.1233E+01  0.7138E+01
      1.740  0.1201E+01  0.7241E+01
      1.824  0.1182E+01  0.7341E+01
      1.908  0.1156E+01  0.7440E+01
      1.993  0.9250E+00  0.7529E+01
      2.077  0.7812E+00  0.7601E+01
      2.161  0.6761E+00  0.7663E+01
      2.245  0.5926E+00  0.7716E+01
      2.330  0.5218E+00  0.7763E+01
      2.414  0.4529E+00  0.7804E+01
      2.498  0.4100E+00  0.7841E+01
      2.582  0.3495E+00  0.7872E+01
      2.666  0.3128E+00  0.7900E+01
      2.751  0.2646E+00  0.7925E+01
      2.835  0.2329E+00  0.7945E+01
      2.919  0.1920E+00  0.7963E+01
      3.003  0.1467E+00  0.7977E+01
      3.087  0.1254E+00  0.7988E+01
      3.172  0.6027E-01  0.7996E+01
      3.256  0.0000E+00  0.8000E+01
      3.340  0.1239E-01  0.8000E+01
      3.424  0.4125E-01  0.8003E+01
      3.508  0.6425E-01  0.8008E+01
      3.593  0.8766E-01  0.8014E+01
      3.677  0.1134E+00  0.8023E+01
      3.761  0.1335E+00  0.8033E+01
      3.845  0.1643E+00  0.8045E+01
      3.929  0.3064E+00  0.8060E+01
      4.014  0.3579E+00  0.8085E+01
      4.098  0.5111E+00  0.8121E+01
      4.182  0.6192E+00  0.8168E+01
      4.266  0.7297E+00  0.8227E+01
      4.351  0.8325E+00  0.8293E+01
      4.435  0.9466E+00  0.8369E+01
      4.519  0.1076E+01  0.8453E+01
      4.603  0.1179E+01  0.8548E+01
      4.687  0.1347E+01  0.8654E+01
      4.772  0.1593E+01  0.8776E+01
      4.856  0.1898E+01  0.8929E+01
      4.940  0.1892E+01  0.9088E+01
      5.024  0.1810E+01  0.9244E+01
      5.108  0.1655E+01  0.9393E+01
      5.193  0.1286E+01  0.9516E+01
      5.277  0.1119E+01  0.9616E+01
      5.361  0.1035E+01  0.9707E+01
      5.445  0.9848E+00  0.9792E+01
      5.529  0.9524E+00  0.9873E+01
      5.614  0.9532E+00  0.9953E+01
      5.698  0.9725E+00  0.1003E+02
      5.782  0.1041E+01  0.1012E+02
      5.866  0.1281E+01  0.1021E+02
      5.950  0.1031E+01  0.1032E+02
      6.035  0.9413E+00  0.1040E+02
      6.119  0.9147E+00  0.1048E+02
      6.203  0.9215E+00  0.1055E+02
      6.287  0.8842E+00  0.1063E+02
      6.371  0.9103E+00  0.1070E+02
      6.456  0.9607E+00  0.1078E+02
      6.540  0.1039E+01  0.1087E+02
      6.624  0.1259E+01  0.1096E+02
      6.708  0.2087E+01  0.1111E+02
      6.793  0.1966E+01  0.1128E+02
      6.877  0.1858E+01  0.1144E+02
      6.961  0.1454E+01  0.1159E+02
      7.045  0.1369E+01  0.1170E+02
      7.129  0.1321E+01  0.1181E+02
      7.214  0.1245E+01  0.1192E+02
      7.298  0.1145E+01  0.1202E+02
      7.382  0.1079E+01  0.1211E+02
      7.466  0.1008E+01  0.1220E+02
      7.550  0.9904E+00  0.1229E+02
      7.635  0.1112E+01  0.1237E+02
      7.719  0.1192E+01  0.1247E+02
      7.803  0.1336E+01  0.1258E+02
      7.887  0.1560E+01  0.1270E+02
      7.971  0.1761E+01  0.1284E+02
      8.056  0.1710E+01  0.1299E+02
      8.140  0.1647E+01  0.1313E+02
      8.224  0.1593E+01  0.1326E+02
      8.308  0.1465E+01  0.1339E+02
      8.392  0.1324E+01  0.1351E+02
      8.477  0.1283E+01  0.1362E+02
      8.561  0.1234E+01  0.1373E+02
      8.645  0.1194E+01  0.1383E+02
      8.729  0.1146E+01  0.1393E+02
      8.814  0.1126E+01  0.1402E+02
      8.898  0.1125E+01  0.1412E+02
      8.982  0.1100E+01  0.1421E+02
      9.066  0.1015E+01  0.1430E+02
      9.150  0.9589E+00  0.1438E+02
      9.235  0.9471E+00  0.1446E+02
      9.319  0.1059E+01  0.1455E+02
      9.403  0.1150E+01  0.1464E+02
      9.487  0.1166E+01  0.1474E+02
      9.571  0.1160E+01  0.1484E+02
      9.656  0.1154E+01  0.1494E+02
      9.740  0.1009E+01  0.1503E+02
      9.824  0.9246E+00  0.1511E+02
      9.908  0.8620E+00  0.1518E+02
      9.992  0.8084E+00  0.1525E+02
     10.077  0.7691E+00  0.1532E+02
     10.161  0.7339E+00  0.1538E+02
     10.245  0.7082E+00  0.1544E+02
     10.329  0.6879E+00  0.1550E+02
     10.413  0.8767E+00  0.1557E+02
     10.498  0.7366E+00  0.1563E+02
     10.582  0.6538E+00  0.1569E+02
     10.666  0.3672E+00  0.1574E+02
     10.750  0.3194E+00  0.1577E+02
     10.834  0.2972E+00  0.1579E+02
     10.919  0.2756E+00  0.1582E+02
     11.003  0.2577E+00  0.1584E+02
     11.087  0.2374E+00  0.1586E+02
     11.171  0.2170E+00  0.1588E+02
     11.256  0.1994E+00  0.1590E+02
     11.340  0.1833E+00  0.1591E+02
     11.424  0.1647E+00  0.1593E+02
     11.508  0.1484E+00  0.1594E+02
     11.592  0.1333E+00  0.1595E+02
     11.677  0.1140E+00  0.1596E+02
     11.761  0.1021E+00  0.1597E+02
     11.845  0.8943E-01  0.1598E+02
     11.929  0.6942E-01  0.1599E+02
     12.013  0.5858E-01  0.1599E+02
     12.098  0.4068E-01  0.1600E+02
     12.182  0.1804E-01  0.1600E+02
     12.266  0.0000E+00  0.1600E+02
     12.350  0.0000E+00  0.1600E+02
     12.434  0.0000E+00  0.1600E+02
     12.519  0.0000E+00  0.1600E+02
     12.603  0.0000E+00  0.1600E+02
     12.687  0.0000E+00  0.1600E+02
     12.771  0.0000E+00  0.1600E+02
     12.855  0.0000E+00  0.1600E+02
     12.940  0.0000E+00  0.1600E+02
     13.024  0.0000E+00  0.1600E+02
     13.108  0.0000E+00  0.1600E+02
     13.192  0.0000E+00  0.1600E+02
     13.277  0.0000E+00  0.1600E+02
     13.361  0.0000E+00  0.1600E+02
     13.445  0.0000E+00  0.1600E+02
     13.529  0.0000E+00  0.1600E+02
     13.613  0.0000E+00  0.1600E+02
     13.698  0.0000E+00  0.1600E+02
     13.782  0.0000E+00  0.1600E+02
     13.866  0.0000E+00  0.1600E+02
     13.950  0.0000E+00  0.1600E+02
     14.034  0.0000E+00  0.1600E+02
     14.119  0.0000E+00  0.1600E+02
     14.203  0.0000E+00  0.1600E+02
     14.20279319    -11.05948672  301      3.26633118      1.00000000
    -11.059  0.0000E+00  0.0000E+00  0.0000E+00  0.0000E+00  0.0000E+00  0.0000E+00  0.0000E+00  0.0000E+00  0.0000E+00
    -10.975  0.0000E+00  0.0000E+00  0.0000E+00  0.0000E+00  0.0000E+00  0.0000E+00  0.0000E+00  0.0000E+00  0.0000E+00
    -10.891  0.0000E+00  0.0000E+00  0.0000E+00  0.0000E+00  0.0000E+00  0.0000E+00  0.0000E+00  0.0000E+00  0.0000E+00
    -10.807  0.0000E+00  0.0000E+00  0.0000E+00  0.0000E+00  0.0000E+00  0.0000E+00  0.0000E+00  0.0000E+00  0.0000E+00
    -10.723  0.0000E+00  0.0000E+00  0.0000E+00  0.0000E+00  0.0000E+00  0.0000E+00  0.0000E+00  0.0000E+00  0.0000E+00
    -10.638  0.0000E+00  0.0000E+00  0.0000E+00  0.0000E+00  0.0000E+00  0.0000E+00  0.0000E+00  0.0000E+00  0.0000E+00
    -10.554  0.0000E+00  0.0000E+00  0.0000E+00  0.0000E+00  0.0000E+00  0.0000E+00  0.0000E+00  0.0000E+00  0.0000E+00
    -10.470  0.0000E+00  0.0000E+00  0.0000E+00  0.0000E+00  0.0000E+00  0.0000E+00  0.0000E+00  0.0000E+00  0.0000E+00
    -10.386  0.0000E+00  0.0000E+00  0.0000E+00  0.0000E+00  0.0000E+00  0.0000E+00  0.0000E+00  0.0000E+00  0.0000E+00
    -10.302  0.0000E+00  0.0000E+00  0.0000E+00  0.0000E+00  0.0000E+00  0.0000E+00  0.0000E+00  0.0000E+00  0.0000E+00
    -10.217  0.0000E+00  0.0000E+00  0.0000E+00  0.0000E+00  0.0000E+00  0.0000E+00  0.0000E+00  0.0000E+00  0.0000E+00
    -10.133  0.0000E+00  0.0000E+00  0.0000E+00  0.0000E+00  0.0000E+00  0.0000E+00  0.0000E+00  0.0000E+00  0.0000E+00
    -10.049  0.0000E+00  0.0000E+00  0.0000E+00  0.0000E+00  0.0000E+00  0.0000E+00  0.0000E+00  0.0000E+00  0.0000E+00
     -9.965  0.0000E+00  0.0000E+00  0.0000E+00  0.0000E+00  0.0000E+00  0.0000E+00  0.0000E+00  0.0000E+00  0.0000E+00
     -9.881  0.0000E+00  0.0000E+00  0.0000E+00  0.0000E+00  0.0000E+00  0.0000E+00  0.0000E+00  0.0000E+00  0.0000E+00
     -9.796  0.0000E+00  0.0000E+00  0.0000E+00  0.0000E+00  0.0000E+00  0.0000E+00  0.0000E+00  0.0000E+00  0.0000E+00
     -9.712  0.0000E+00  0.0000E+00  0.0000E+00  0.0000E+00  0.0000E+00  0.0000E+00  0.0000E+00  0.0000E+00  0.0000E+00
     -9.628  0.0000E+00  0.0000E+00  0.0000E+00  0.0000E+00  0.0000E+00  0.0000E+00  0.0000E+00  0.0000E+00  0.0000E+00
     -9.544  0.0000E+00  0.0000E+00  0.0000E+00  0.0000E+00  0.0000E+00  0.0000E+00  0.0000E+00  0.0000E+00  0.0000E+00
     -9.460  0.0000E+00  0.0000E+00  0.0000E+00  0.0000E+00  0.0000E+00  0.0000E+00  0.0000E+00  0.0000E+00  0.0000E+00
     -9.375  0.0000E+00  0.0000E+00  0.0000E+00  0.0000E+00  0.0000E+00  0.0000E+00  0.0000E+00  0.0000E+00  0.0000E+00
     -9.291  0.0000E+00  0.0000E+00  0.0000E+00  0.0000E+00  0.0000E+00  0.0000E+00  0.0000E+00  0.0000E+00  0.0000E+00
     -9.207  0.0000E+00  0.0000E+00  0.0000E+00  0.0000E+00  0.0000E+00  0.0000E+00  0.0000E+00  0.0000E+00  0.0000E+00
     -9.123  0.0000E+00  0.0000E+00  0.0000E+00  0.0000E+00  0.0000E+00  0.0000E+00  0.0000E+00  0.0000E+00  0.0000E+00
     -9.039  0.1961E-01  0.6933E-05  0.9493E-05  0.1231E-04  0.5059E-06  0.6588E-06  0.9077E-09  0.3702E-06  0.7887E-09
     -8.954  0.4232E-01  0.5209E-04  0.1087E-03  0.6079E-04  0.5923E-05  0.3413E-05  0.3503E-07  0.2845E-05  0.6943E-08
     -8.870  0.5695E-01  0.1191E-03  0.2532E-03  0.1420E-03  0.1418E-04  0.8316E-05  0.1302E-06  0.6687E-05  0.2712E-07
     -8.786  0.6811E-01  0.2026E-03  0.4425E-03  0.2305E-03  0.2543E-04  0.1415E-04  0.3128E-06  0.1166E-04  0.5823E-07
     -8.702  0.7779E-01  0.2971E-03  0.6626E-03  0.3384E-03  0.3883E-04  0.2179E-04  0.5940E-06  0.1751E-04  0.1016E-06
     -8.617  0.8708E-01  0.4038E-03  0.9303E-03  0.4407E-03  0.5577E-04  0.2971E-04  0.9844E-06  0.2437E-04  0.1453E-06
     -8.533  0.9604E-01  0.5192E-03  0.1210E-02  0.5702E-03  0.7398E-04  0.4029E-04  0.1461E-05  0.3213E-04  0.2127E-06
     -8.449  0.1037E+00  0.6417E-03  0.1536E-02  0.6898E-03  0.9572E-04  0.5150E-04  0.2094E-05  0.4081E-04  0.3013E-06
     -8.365  0.1119E+00  0.7694E-03  0.1815E-02  0.8903E-03  0.1169E-03  0.6739E-04  0.2779E-05  0.5037E-04  0.4208E-06
     -8.281  0.1191E+00  0.9048E-03  0.2189E-02  0.1028E-02  0.1431E-03  0.8266E-04  0.3665E-05  0.6100E-04  0.5432E-06
     -8.196  0.1271E+00  0.1050E-02  0.2598E-02  0.1172E-02  0.1738E-03  0.9892E-04  0.4651E-05  0.7298E-04  0.6405E-06
     -8.112  0.1342E+00  0.1196E-02  0.2948E-02  0.1406E-02  0.2038E-03  0.1209E-03  0.5808E-05  0.8584E-04  0.7943E-06
     -8.028  0.1421E+00  0.1347E-02  0.3424E-02  0.1542E-02  0.2397E-03  0.1416E-03  0.7036E-05  0.9983E-04  0.9078E-06
     -7.944  0.1496E+00  0.1510E-02  0.3894E-02  0.1736E-02  0.2796E-03  0.1664E-03  0.8469E-05  0.1158E-03  0.1072E-05
     -7.860  0.1576E+00  0.1671E-02  0.4311E-02  0.2014E-02  0.3200E-03  0.1963E-03  0.9915E-05  0.1328E-03  0.1267E-05
     -7.775  0.1660E+00  0.1843E-02  0.4806E-02  0.2262E-02  0.3648E-03  0.2302E-03  0.1148E-04  0.1520E-03  0.1482E-05
     -7.691  0.1747E+00  0.2024E-02  0.5381E-02  0.2483E-02  0.4173E-03  0.2661E-03  0.1322E-04  0.1736E-03  0.1695E-05
     -7.607  0.1844E+00  0.2203E-02  0.5926E-02  0.2781E-02  0.4751E-03  0.3058E-03  0.1500E-04  0.1974E-03  0.1863E-05
     -7.523  0.1948E+00  0.2409E-02  0.6499E-02  0.3143E-02  0.5388E-03  0.3564E-03  0.1697E-04  0.2258E-03  0.2099E-05
     -7.439  0.2066E+00  0.2620E-02  0.7190E-02  0.3455E-02  0.6105E-03  0.4131E-03  0.1900E-04  0.2584E-03  0.2324E-05
     -7.354  0.2214E+00  0.2872E-02  0.7992E-02  0.3805E-02  0.7013E-03  0.4778E-03  0.2110E-04  0.2995E-03  0.2438E-05
     -7.270  0.2394E+00  0.3169E-02  0.8776E-02  0.4360E-02  0.8083E-03  0.5627E-03  0.2338E-04  0.3530E-03  0.2695E-05
     -7.186  0.2676E+00  0.3620E-02  0.9773E-02  0.5134E-02  0.9512E-03  0.6941E-03  0.2554E-04  0.4391E-03  0.3046E-05
     -7.102  0.3176E+00  0.4397E-02  0.1139E-01  0.6209E-02  0.1185E-02  0.9080E-03  0.2782E-04  0.5947E-03  0.3307E-05
     -7.018  0.3085E+00  0.4148E-02  0.1195E-01  0.6405E-02  0.1239E-02  0.9199E-03  0.3031E-04  0.5520E-03  0.3637E-05
     -6.933  0.2956E+00  0.3839E-02  0.1222E-01  0.6652E-02  0.1259E-02  0.9290E-03  0.3241E-04  0.4985E-03  0.4140E-05
     -6.849  0.2835E+00  0.3529E-02  0.1268E-01  0.6620E-02  0.1283E-02  0.9269E-03  0.3456E-04  0.4494E-03  0.4395E-05
     -6.765  0.2726E+00  0.3260E-02  0.1309E-01  0.6666E-02  0.1321E-02  0.9205E-03  0.3672E-04  0.4067E-03  0.4756E-05
     -6.681  0.2597E+00  0.2950E-02  0.1324E-01  0.6719E-02  0.1330E-02  0.9097E-03  0.3857E-04  0.3617E-03  0.5187E-05
     -6.596  0.2484E+00  0.2680E-02  0.1350E-01  0.6707E-02  0.1344E-02  0.9034E-03  0.4051E-04  0.3225E-03  0.5456E-05
     -6.512  0.2359E+00  0.2389E-02  0.1370E-01  0.6539E-02  0.1352E-02  0.8777E-03  0.4216E-04  0.2828E-03  0.5653E-05
     -6.428  0.2236E+00  0.2119E-02  0.1382E-01  0.6367E-02  0.1365E-02  0.8395E-03  0.4391E-04  0.2477E-03  0.5878E-05
     -6.344  0.2125E+00  0.1869E-02  0.1390E-01  0.6312E-02  0.1377E-02  0.8153E-03  0.4547E-04  0.2158E-03  0.6320E-05
     -6.260  0.1995E+00  0.1601E-02  0.1376E-01  0.6083E-02  0.1348E-02  0.7828E-03  0.4640E-04  0.1834E-03  0.6491E-05
     -6.175  0.1867E+00  0.1364E-02  0.1378E-01  0.5685E-02  0.1343E-02  0.7290E-03  0.4805E-04  0.1552E-03  0.6283E-05
     -6.091  0.1746E+00  0.1139E-02  0.1388E-01  0.5255E-02  0.1363E-02  0.6577E-03  0.4994E-04  0.1292E-03  0.6015E-05
     -6.007  0.1602E+00  0.9115E-03  0.1360E-01  0.4708E-02  0.1335E-02  0.5774E-03  0.5068E-04  0.1035E-03  0.5494E-05
     -5.923  0.1468E+00  0.7192E-03  0.1321E-01  0.4236E-02  0.1286E-02  0.5147E-03  0.5127E-04  0.8208E-04  0.5118E-05
     -5.839  0.1335E+00  0.5387E-03  0.1288E-01  0.3833E-02  0.1246E-02  0.4608E-03  0.5293E-04  0.6203E-04  0.4850E-05
     -5.754  0.1151E+00  0.3623E-03  0.1178E-01  0.3259E-02  0.1122E-02  0.3894E-03  0.5117E-04  0.4255E-04  0.4302E-05
     -5.670  0.9845E-01  0.2312E-03  0.1070E-01  0.2670E-02  0.1000E-02  0.3188E-03  0.4955E-04  0.2806E-04  0.3558E-05
     -5.586  0.1048E+00  0.1613E-03  0.1282E-01  0.2240E-02  0.1144E-02  0.2718E-03  0.6977E-04  0.2104E-04  0.2786E-05
     -5.502  0.3185E-01  0.1478E-04  0.3135E-02  0.1428E-02  0.3000E-03  0.1670E-03  0.9382E-05  0.1409E-05  0.2206E-05
     -5.418  0.0000E+00  0.0000E+00  0.0000E+00  0.0000E+00  0.0000E+00  0.0000E+00  0.0000E+00  0.0000E+00  0.0000E+00
     -5.333  0.0000E+00  0.0000E+00  0.0000E+00  0.0000E+00  0.0000E+00  0.0000E+00  0.0000E+00  0.0000E+00  0.0000E+00
     -5.249  0.0000E+00  0.0000E+00  0.0000E+00  0.0000E+00  0.0000E+00  0.0000E+00  0.0000E+00  0.0000E+00  0.0000E+00
     -5.165  0.7532E-01  0.1531E-03  0.1084E-01  0.2078E-02  0.9304E-03  0.2267E-03  0.6191E-04  0.1606E-04  0.2844E-05
     -5.081  0.8231E-01  0.2592E-03  0.1165E-01  0.2724E-02  0.9940E-03  0.2904E-03  0.6274E-04  0.2643E-04  0.4062E-05
     -4.997  0.9686E-01  0.4172E-03  0.1357E-01  0.3650E-02  0.1152E-02  0.3774E-03  0.7002E-04  0.4150E-04  0.5963E-05
     -4.912  0.1128E+00  0.6439E-03  0.1574E-01  0.4723E-02  0.1329E-02  0.4736E-03  0.7804E-04  0.6232E-04  0.8098E-05
     -4.828  0.1246E+00  0.9612E-03  0.1748E-01  0.5838E-02  0.1481E-02  0.5623E-03  0.8213E-04  0.8813E-04  0.1012E-04
     -4.744  0.1358E+00  0.1325E-02  0.1899E-01  0.6928E-02  0.1603E-02  0.6443E-03  0.8565E-04  0.1160E-03  0.1220E-04
     -4.660  0.1486E+00  0.1804E-02  0.2053E-01  0.8429E-02  0.1730E-02  0.7462E-03  0.8847E-04  0.1504E-03  0.1561E-04
     -4.576  0.1620E+00  0.2468E-02  0.2181E-01  0.1054E-01  0.1850E-02  0.8675E-03  0.8901E-04  0.1943E-03  0.2122E-04
     -4.491  0.1722E+00  0.3315E-02  0.2293E-01  0.1256E-01  0.1952E-02  0.9733E-03  0.8799E-04  0.2409E-03  0.2560E-04
     -4.407  0.1854E+00  0.4381E-02  0.2480E-01  0.1438E-01  0.2062E-02  0.1080E-02  0.9106E-04  0.2966E-03  0.2766E-04
     -4.323  0.2027E+00  0.6058E-02  0.2754E-01  0.1669E-01  0.2219E-02  0.1187E-02  0.9629E-04  0.3735E-03  0.2898E-04
     -4.239  0.2201E+00  0.8397E-02  0.2996E-01  0.2007E-01  0.2354E-02  0.1299E-02  0.9711E-04  0.4591E-03  0.3290E-04
     -4.154  0.2503E+00  0.1295E-01  0.3484E-01  0.2552E-01  0.2526E-02  0.1482E-02  0.1025E-03  0.5970E-03  0.3646E-04
     -4.070  0.4587E+00  0.4854E-01  0.7221E-01  0.6237E-01  0.3398E-02  0.2259E-02  0.1311E-03  0.1319E-02  0.4251E-04
     -3.986  0.2522E+00  0.2006E-01  0.3831E-01  0.2990E-01  0.2411E-02  0.1357E-02  0.8859E-04  0.7360E-03  0.2766E-04
     -3.902  0.2114E+00  0.1582E-01  0.3223E-01  0.2438E-01  0.2181E-02  0.1170E-02  0.7729E-04  0.6513E-03  0.2310E-04
     -3.818  0.1871E+00  0.1370E-01  0.2886E-01  0.2130E-01  0.2038E-02  0.1058E-02  0.6997E-04  0.6100E-03  0.1978E-04
     -3.733  0.1695E+00  0.1230E-01  0.2656E-01  0.1912E-01  0.1937E-02  0.9733E-03  0.6476E-04  0.5848E-03  0.1704E-04
     -3.649  0.1559E+00  0.1132E-01  0.2474E-01  0.1754E-01  0.1851E-02  0.9071E-03  0.6034E-04  0.5671E-03  0.1505E-04
     -3.565  0.1445E+00  0.1055E-01  0.2326E-01  0.1623E-01  0.1791E-02  0.8398E-03  0.5659E-04  0.5538E-03  0.1328E-04
     -3.481  0.1348E+00  0.9924E-02  0.2197E-01  0.1519E-01  0.1723E-02  0.7990E-03  0.5317E-04  0.5436E-03  0.1198E-04
     -3.397  0.1260E+00  0.9386E-02  0.2083E-01  0.1427E-01  0.1653E-02  0.7710E-03  0.4997E-04  0.5335E-03  0.1082E-04
     -3.312  0.1185E+00  0.8931E-02  0.1992E-01  0.1339E-01  0.1604E-02  0.7322E-03  0.4756E-04  0.5256E-03  0.9583E-05
     -3.228  0.1116E+00  0.8522E-02  0.1904E-01  0.1263E-01  0.1559E-02  0.6944E-03  0.4521E-04  0.5177E-03  0.8581E-05
     -3.144  0.1053E+00  0.8161E-02  0.1820E-01  0.1197E-01  0.1519E-02  0.6574E-03  0.4290E-04  0.5102E-03  0.7788E-05
     -3.060  0.9967E-01  0.7835E-02  0.1742E-01  0.1141E-01  0.1475E-02  0.6313E-03  0.4068E-04  0.5037E-03  0.7177E-05
     -2.976  0.9423E-01  0.7527E-02  0.1667E-01  0.1088E-01  0.1425E-02  0.6143E-03  0.3853E-04  0.4960E-03  0.6606E-05
     -2.891  0.8932E-01  0.7243E-02  0.1596E-01  0.1040E-01  0.1367E-02  0.6073E-03  0.3661E-04  0.4888E-03  0.6151E-05
     -2.807  0.8478E-01  0.6979E-02  0.1535E-01  0.9908E-02  0.1326E-02  0.5874E-03  0.3498E-04  0.4817E-03  0.5574E-05
     -2.723  0.8041E-01  0.6727E-02  0.1480E-01  0.9396E-02  0.1299E-02  0.5547E-03  0.3347E-04  0.4740E-03  0.4945E-05
     -2.639  0.7642E-01  0.6495E-02  0.1424E-01  0.8985E-02  0.1267E-02  0.5308E-03  0.3183E-04  0.4671E-03  0.4562E-05
     -2.555  0.7262E-01  0.6271E-02  0.1365E-01  0.8637E-02  0.1226E-02  0.5185E-03  0.3013E-04  0.4597E-03  0.4327E-05
     -2.470  0.6898E-01  0.6049E-02  0.1311E-01  0.8265E-02  0.1185E-02  0.5047E-03  0.2874E-04  0.4512E-03  0.3998E-05
     -2.386  0.6566E-01  0.5845E-02  0.1266E-01  0.7873E-02  0.1152E-02  0.4868E-03  0.2757E-04  0.4437E-03  0.3553E-05
     -2.302  0.6249E-01  0.5648E-02  0.1220E-01  0.7520E-02  0.1117E-02  0.4722E-03  0.2631E-04  0.4357E-03  0.3230E-05
     -2.218  0.5940E-01  0.5453E-02  0.1175E-01  0.7172E-02  0.1086E-02  0.4542E-03  0.2504E-04  0.4269E-03  0.2942E-05
     -2.133  0.5653E-01  0.5270E-02  0.1135E-01  0.6827E-02  0.1064E-02  0.4301E-03  0.2384E-04  0.4189E-03  0.2634E-05
     -2.049  0.5384E-01  0.5090E-02  0.1091E-01  0.6541E-02  0.1031E-02  0.4161E-03  0.2274E-04  0.4105E-03  0.2447E-05
     -1.965  0.5122E-01  0.4912E-02  0.1046E-01  0.6288E-02  0.9921E-03  0.4091E-03  0.2160E-04  0.4013E-03  0.2330E-05
     -1.881  0.4876E-01  0.4743E-02  0.1004E-01  0.6039E-02  0.9539E-03  0.4031E-03  0.2049E-04  0.3925E-03  0.2194E-05
     -1.797  0.4644E-01  0.4581E-02  0.9665E-02  0.5775E-02  0.9233E-03  0.3912E-03  0.1942E-04  0.3840E-03  0.2034E-05
     -1.712  0.4416E-01  0.4417E-02  0.9314E-02  0.5497E-02  0.8973E-03  0.3747E-03  0.1836E-04  0.3746E-03  0.1869E-05
     -1.628  0.4198E-01  0.4255E-02  0.8939E-02  0.5250E-02  0.8685E-03  0.3605E-03  0.1741E-04  0.3648E-03  0.1780E-05
     -1.544  0.4000E-01  0.4107E-02  0.8587E-02  0.5030E-02  0.8413E-03  0.3471E-03  0.1651E-04  0.3562E-03  0.1677E-05
     -1.460  0.3807E-01  0.3959E-02  0.8242E-02  0.4812E-02  0.8136E-03  0.3346E-03  0.1563E-04  0.3470E-03  0.1559E-05
     -1.376  0.3616E-01  0.3807E-02  0.7863E-02  0.4635E-02  0.7776E-03  0.3307E-03  0.1468E-04  0.3369E-03  0.1505E-05
     -1.291  0.3439E-01  0.3665E-02  0.7501E-02  0.4475E-02  0.7403E-03  0.3300E-03  0.1373E-04  0.3275E-03  0.1461E-05
     -1.207  0.3271E-01  0.3524E-02  0.7171E-02  0.4294E-02  0.7078E-03  0.3243E-03  0.1294E-04  0.3179E-03  0.1403E-05
     -1.123  0.3107E-01  0.3384E-02  0.6892E-02  0.4069E-02  0.6843E-03  0.3097E-03  0.1227E-04  0.3079E-03  0.1289E-05
     -1.039  0.2948E-01  0.3248E-02  0.6667E-02  0.3802E-02  0.6705E-03  0.2858E-03  0.1165E-04  0.2979E-03  0.1109E-05
     -0.955  0.2804E-01  0.3125E-02  0.6429E-02  0.3585E-02  0.6534E-03  0.2674E-03  0.1099E-04  0.2893E-03  0.9724E-06
     -0.870  0.2676E-01  0.7100E-02  0.1030E-01  0.7646E-02  0.6436E-03  0.2728E-03  0.1058E-03  0.2817E-03  0.6850E-04
     -0.786  0.2765E-01  0.4738E-01  0.4752E-01  0.4629E-01  0.8273E-03  0.4536E-03  0.1334E-02  0.3412E-03  0.3575E-03
     -0.702  0.2917E-01  0.7750E-01  0.7256E-01  0.7306E-01  0.1023E-02  0.6832E-03  0.2153E-02  0.4404E-03  0.5998E-03
     -0.618  0.3229E-01  0.1127E+00  0.9923E-01  0.1053E+00  0.1322E-02  0.1068E-02  0.3065E-02  0.5848E-03  0.8788E-03
     -0.534  0.3277E-01  0.1050E+00  0.9067E-01  0.1023E+00  0.1425E-02  0.1246E-02  0.2828E-02  0.6152E-03  0.7519E-03
     -0.449  0.3281E-01  0.9667E-01  0.8104E-01  0.9932E-01  0.1487E-02  0.1415E-02  0.2535E-02  0.6298E-03  0.6612E-03
     -0.365  0.3273E-01  0.8643E-01  0.7243E-01  0.9384E-01  0.1560E-02  0.1548E-02  0.2191E-02  0.6075E-03  0.5705E-03
     -0.281  0.3253E-01  0.8019E-01  0.6713E-01  0.9028E-01  0.1635E-02  0.1666E-02  0.1960E-02  0.6155E-03  0.5076E-03
     -0.197  0.3212E-01  0.8258E-01  0.6654E-01  0.9267E-01  0.1687E-02  0.1790E-02  0.1951E-02  0.7142E-03  0.5093E-03
     -0.112  0.3167E-01  0.8481E-01  0.6556E-01  0.9525E-01  0.1727E-02  0.1929E-02  0.1919E-02  0.8116E-03  0.5174E-03
     -0.028  0.3107E-01  0.8832E-01  0.6489E-01  0.9809E-01  0.1770E-02  0.2048E-02  0.1902E-02  0.9423E-03  0.5225E-03
      0.056  0.3048E-01  0.9356E-01  0.6493E-01  0.1025E+00  0.1815E-02  0.2171E-02  0.1922E-02  0.1093E-02  0.5323E-03
      0.140  0.2976E-01  0.1008E+00  0.6461E-01  0.1086E+00  0.1843E-02  0.2316E-02  0.1938E-02  0.1289E-02  0.5585E-03
      0.224  0.2891E-01  0.1104E+00  0.6428E-01  0.1167E+00  0.1865E-02  0.2475E-02  0.1949E-02  0.1529E-02  0.5893E-03
      0.309  0.2816E-01  0.1255E+00  0.6471E-01  0.1294E+00  0.1900E-02  0.2666E-02  0.1978E-02  0.1860E-02  0.6355E-03
      0.393  0.2724E-01  0.1627E+00  0.6477E-01  0.1632E+00  0.1930E-02  0.3079E-02  0.1972E-02  0.2490E-02  0.7104E-03
      0.477  0.2624E-01  0.1631E+00  0.6457E-01  0.1602E+00  0.1945E-02  0.3135E-02  0.1927E-02  0.2777E-02  0.7950E-03
      0.561  0.2523E-01  0.1635E+00  0.6461E-01  0.1568E+00  0.1952E-02  0.3218E-02  0.1880E-02  0.3061E-02  0.8805E-03
      0.645  0.2421E-01  0.1632E+00  0.6470E-01  0.1530E+00  0.1970E-02  0.3287E-02  0.1833E-02  0.3308E-02  0.9547E-03
      0.730  0.2322E-01  0.1615E+00  0.6543E-01  0.1470E+00  0.2004E-02  0.3328E-02  0.1797E-02  0.3549E-02  0.1002E-02
      0.814  0.2220E-01  0.1618E+00  0.6638E-01  0.1432E+00  0.2053E-02  0.3373E-02  0.1766E-02  0.3776E-02  0.1048E-02
      0.898  0.2109E-01  0.1609E+00  0.6910E-01  0.1357E+00  0.2126E-02  0.3376E-02  0.1764E-02  0.4016E-02  0.1055E-02
      0.982  0.2008E-01  0.1620E+00  0.7238E-01  0.1301E+00  0.2212E-02  0.3412E-02  0.1757E-02  0.4265E-02  0.1081E-02
      1.066  0.1906E-01  0.1604E+00  0.7275E-01  0.1247E+00  0.2261E-02  0.3430E-02  0.1715E-02  0.4457E-02  0.1094E-02
      1.151  0.1798E-01  0.1610E+00  0.7373E-01  0.1204E+00  0.2344E-02  0.3437E-02  0.1682E-02  0.4691E-02  0.1122E-02
      1.235  0.1689E-01  0.1606E+00  0.7519E-01  0.1152E+00  0.2433E-02  0.3451E-02  0.1649E-02  0.4892E-02  0.1129E-02
      1.319  0.1586E-01  0.1602E+00  0.7452E-01  0.1116E+00  0.2475E-02  0.3485E-02  0.1588E-02  0.5094E-02  0.1150E-02
      1.403  0.1480E-01  0.1609E+00  0.7325E-01  0.1097E+00  0.2503E-02  0.3560E-02  0.1522E-02  0.5319E-02  0.1195E-02
      1.487  0.1369E-01  0.1606E+00  0.7203E-01  0.1067E+00  0.2523E-02  0.3622E-02  0.1456E-02  0.5505E-02  0.1201E-02
      1.572  0.1261E-01  0.1609E+00  0.7231E-01  0.1026E+00  0.2599E-02  0.3632E-02  0.1395E-02  0.5707E-02  0.1208E-02
      1.656  0.1157E-01  0.1625E+00  0.7267E-01  0.9917E-01  0.2698E-02  0.3647E-02  0.1327E-02  0.5957E-02  0.1239E-02
      1.740  0.1050E-01  0.1619E+00  0.7033E-01  0.9633E-01  0.2707E-02  0.3690E-02  0.1222E-02  0.6121E-02  0.1239E-02
      1.824  0.9392E-02  0.1635E+00  0.7001E-01  0.9280E-01  0.2789E-02  0.3692E-02  0.1138E-02  0.6353E-02  0.1260E-02
      1.908  0.8085E-02  0.1643E+00  0.7251E-01  0.8584E-01  0.2988E-02  0.3575E-02  0.1082E-02  0.6582E-02  0.1218E-02
      1.993  0.6928E-02  0.1300E+00  0.5865E-01  0.6907E-01  0.2612E-02  0.3112E-02  0.8454E-03  0.5602E-02  0.9052E-03
      2.077  0.5984E-02  0.1089E+00  0.5009E-01  0.5910E-01  0.2409E-02  0.2850E-02  0.6906E-03  0.5019E-02  0.7390E-03