    2    2    1    1
  0.2402370E+02  0.4080640E-09  0.4080640E-09  0.4080640E-09  0.5000000E-15
  1.000000000000000E-004
  CAR 
 Ge                                      
      8    770      8
 
  0.2500000E-01  0.2500000E-01  0.2500000E-01  0.2500000E-03
    1       -9.059487   1.000000
    2        2.538911   1.000000
    3        3.252704   1.000000
    4        3.252704   1.000000
    5        3.448733   0.000000
    6        5.805620   0.000000
    7        5.805620   0.000000
    8        5.810187   0.000000
 
  0.7500000E-01  0.2500000E-01  0.2500000E-01  0.7500000E-03
    1       -9.021110   1.000000
    2        1.936582   1.000000
    3        3.079592   1.000000
    4        3.226208   1.000000
    5        3.860619   0.000000
    6        5.848198   0.000000
    7        5.871880   0.000000
    8        6.047913   0.000000
 
  0.1250000E+00  0.2500000E-01  0.2500000E-01  0.7500000E-03
    1       -8.925687   1.000000
    2        1.082931   1.000000
    3        2.868402   1.000000
    4        3.095850   1.000000
    5        4.107209   0.000000
    6        6.027737   0.000000
    7        6.120911   0.000000
    8        6.478670   0.000000
 
  0.1750000E+00  0.2500000E-01  0.2500000E-01  0.7500000E-03
    1       -8.774628   1.000000
    2        0.189832   1.000000
    3        2.642680   1.000000
    4        2.905625   1.000000
    5        4.096143   0.000000
    6        6.281097   0.000000
    7        6.445529   0.000000
    8        7.109670   0.000000
 
  0.2250000E+00  0.2500000E-01  0.2500000E-01  0.7500000E-03
    1       -8.570719   1.000000
    2       -0.691183   1.000000
    3        2.426497   1.000000
    4        2.696679   1.000000
    5        3.966408   0.000000
    6        6.538446   0.000000
    7        6.731173   0.000000
    8        7.868264   0.000000
 
  0.2750000E+00  0.2500000E-01  0.2500000E-01  0.7500000E-03
    1       -8.318903   1.000000
    2       -1.533764   1.000000
    3        2.235504   1.000000
    4        2.494333   1.000000
    5        3.805907   0.000000
    6        6.744386   0.000000
    7        6.926989   0.000000
    8        8.687557   0.000000
 
  0.3250000E+00  0.2500000E-01  0.2500000E-01  0.7500000E-03
    1       -8.028446   1.000000
    2       -2.315909   1.000000
    3        2.077189   1.000000
    4        2.313065   1.000000
    5        3.654691   0.000000
    6        6.873170   0.000000
    7        7.021019   0.000000
    8        9.520986   0.000000
 
  0.3750000E+00  0.2500000E-01  0.2500000E-01  0.7500000E-03
    1       -7.716399   1.000000
    2       -3.011941   1.000000
    3        1.957875   1.000000
    4        2.162588   1.000000
    5        3.530034   0.000000
    6        6.935304   0.000000
    7        7.036976   0.000000
    8       10.222617   0.000000
 
  0.4250000E+00  0.2500000E-01  0.2500000E-01  0.7500000E-03
    1       -7.416319   1.000000
    2       -3.583353   1.000000
    3        1.880254   1.000000
    4        2.047807   1.000000
    5        3.440258   0.000000
    6        6.959840   0.000000
    7        7.011708   0.000000
    8       10.409785   0.000000
 
  0.4750000E+00  0.2500000E-01  0.2500000E-01  0.7500000E-03
    1       -7.191037   1.000000
    2       -3.964975   1.000000
    3        1.844815   1.000000
    4        1.971911   1.000000
    5        3.388312   0.000000
    6        6.974302   0.000000
    7        6.975562   0.000000
    8       10.384203   0.000000
 
 -0.4750000E+00  0.2500000E-01  0.2500000E-01  0.7500000E-03
    1       -7.125087   1.000000
    2       -4.070123   1.000000
    3        1.850479   1.000000
    4        1.937100   1.000000
    5        3.376325   0.000000
    6        6.946502   0.000000
    7        6.995713   0.000000
    8       10.370626   0.000000
 
 -0.4250000E+00  0.2500000E-01  0.2500000E-01  0.7500000E-03
    1       -7.252539   1.000000
    2       -3.864361   1.000000
    3        1.899843   1.000000
    4        1.941965   1.000000
    5        3.404481   0.000000
    6        6.929496   0.000000
    7        7.027706   0.000000
    8       10.392063   0.000000
 
 -0.3750000E+00  0.2500000E-01  0.2500000E-01  0.7500000E-03
    1       -7.511818   1.000000
    2       -3.410167   1.000000
    3        1.988109   1.000000
    4        1.989233   1.000000
    5        3.471903   0.000000
    6        6.915279   0.000000
    7        7.061866   0.000000
    8       10.387585   0.000000
 
 -0.3250000E+00  0.2500000E-01  0.2500000E-01  0.7500000E-03
    1       -7.821155   1.000000
    2       -2.791512   1.000000
    3        2.078261   1.000000
    4        2.115827   1.000000
    5        3.576478   0.000000
    6        6.882515   0.000000
    7        7.076628   0.000000
    8       10.015222   0.000000
 
 -0.2750000E+00  0.2500000E-01  0.2500000E-01  0.7500000E-03
    1       -8.128710   1.000000
    2       -2.063258   1.000000
    3        2.207263   1.000000
    4        2.278927   1.000000
    5        3.713501   0.000000
    6        6.799283   0.000000
    7        7.040099   0.000000
    8        9.239290   0.000000
 
 -0.2250000E+00  0.2500000E-01  0.2500000E-01  0.7500000E-03
    1       -8.407684   1.000000
    2       -1.258578   1.000000
    3        2.372390   1.000000
    4        2.471434   1.000000
    5        3.872617   0.000000
    6        6.637665   0.000000
    7        6.920917   0.000000
    8        8.407522   0.000000
 
 -0.1750000E+00  0.2500000E-01  0.2500000E-01  0.7500000E-03
    1       -8.644274   1.000000
    2       -0.399921   1.000000
    3        2.566528   1.000000
    4        2.682334   1.000000
    5        4.031904   0.000000
    6        6.395811   0.000000
    7        6.710821   0.000000
    8        7.599500   0.000000
 
 -0.1250000E+00  0.2500000E-01  0.2500000E-01  0.7500000E-03
    1       -8.831005   1.000000
    2        0.489196   1.000000
    3        2.779128   1.000000
    4        2.894311   1.000000
    5        4.139225   0.000000
    6        6.112881   0.000000
    7        6.436188   0.000000
    8        6.859910   0.000000
 
 -0.7500000E-01  0.2500000E-01  0.2500000E-01  0.7500000E-03
    1       -8.963747   1.000000
    2        1.379625   1.000000
    3        2.989488   1.000000
    4        3.075765   1.000000
    5        4.086119   0.000000
    6        5.862140   0.000000
    7        6.151273   0.000000
    8        6.271106   0.000000
 
 -0.2500000E-01  0.2500000E-01  0.2500000E-01  0.7500000E-03
    1       -9.040281   1.000000
    2        2.198974   1.000000
    3        3.162813   1.000000
    4        3.185269   1.000000
    5        3.755605   0.000000
    6        5.743152   0.000000
    7        5.919512   0.000000
    8        5.927034   0.000000
 
  0.7500000E-01  0.7500000E-01  0.2500000E-01  0.7500000E-03
    1       -9.001887   1.000000
    2        1.781054   1.000000
    3        3.003775   1.000000
    4        3.024092   1.000000
    5        4.154009   0.000000
    6        5.626054   0.000000
    7        6.126331   0.000000
    8        6.140196   0.000000
 
  0.1250000E+00  0.7500000E-01  0.2500000E-01  0.1500000E-02
    1       -8.925404   1.000000
    2        1.170820   1.000000
    3        2.716105   1.000000
    4        2.930143   1.000000
    5        4.482134   0.000000
    6        5.592846   0.000000
    7        6.349295   0.000000
    8        6.552151   0.000000
 
  0.1750000E+00  0.7500000E-01  0.2500000E-01  0.1500000E-02
    1       -8.792718   1.000000
    2        0.376047   1.000000
    3        2.446302   1.000000
    4        2.779161   1.000000
    5        4.563748   0.000000
    6        5.770938   0.000000
    7        6.658375   0.000000
    8        7.099953   0.000000
 
  0.2250000E+00  0.7500000E-01  0.2500000E-01  0.1500000E-02
    1       -8.606097   1.000000
    2       -0.464898   1.000000
    3        2.201960   1.000000
    4        2.580982   1.000000
    5        4.471008   0.000000
    6        6.069576   0.000000
    7        6.959208   0.000000
    8        7.720765   0.000000
 
  0.2750000E+00  0.7500000E-01  0.2500000E-01  0.1500000E-02
    1       -8.369625   1.000000
    2       -1.295864   1.000000
    3        1.987758   1.000000
    4        2.374271   1.000000
    5        4.318683   0.000000
    6        6.367880   0.000000
    7        7.177235   0.000000
    8        8.363192   0.000000
 
  0.3250000E+00  0.7500000E-01  0.2500000E-01  0.1500000E-02
    1       -8.090696   1.000000
    2       -2.083687   1.000000
    3        1.807353   1.000000
    4        2.185349   1.000000
    5        4.162326   0.000000
    6        6.591625   0.000000
    7        7.284495   0.000000
    8        9.014099   0.000000
 
  0.3750000E+00  0.7500000E-01  0.2500000E-01  0.1500000E-02
    1       -7.783016   1.000000
    2       -2.801421   1.000000
    3        1.660156   1.000000
    4        2.031362   1.000000
    5        4.025200   0.000000
    6        6.724124   0.000000
    7        7.297324   0.000000
    8        9.664342   0.000000
 
  0.4250000E+00  0.7500000E-01  0.2500000E-01  0.1500000E-02
    1       -7.473296   1.000000
    2       -3.413846   1.000000
    3        1.545358   1.000000
    4        1.924073   1.000000
    5        3.918628   0.000000
    6        6.792255   0.000000
    7        7.256191   0.000000
    8       10.211068   0.000000
 
  0.4750000E+00  0.7500000E-01  0.2500000E-01  0.1500000E-02
    1       -7.213402   1.000000
    2       -3.864925   1.000000
    3        1.462459   1.000000
    4        1.867919   1.000000
    5        3.847561   0.000000
    6        6.831944   0.000000
    7        7.197502   0.000000
    8       10.460357   0.000000
 
 -0.4750000E+00  0.7500000E-01  0.2500000E-01  0.1500000E-02
    1       -7.085543   1.000000
    2       -4.069626   1.000000
    3        1.413512   1.000000
    4        1.863760   1.000000
    5        3.815164   0.000000
    6        6.865046   0.000000
    7        7.148006   0.000000
    8       10.516302   0.000000
 
 -0.4250000E+00  0.7500000E-01  0.2500000E-01  0.1500000E-02
    1       -7.151908   1.000000
    2       -3.964632   1.000000
    3        1.401795   1.000000
    4        1.910539   1.000000
    5        3.822461   0.000000
    6        6.892774   0.000000
    7        7.126018   0.000000
    8       10.515145   0.000000
 
 -0.3750000E+00  0.7500000E-01  0.2500000E-01  0.1500000E-02
    1       -7.377969   1.000000
    2       -3.584969   1.000000
    3        1.430582   1.000000
    4        2.002819   1.000000
    5        3.869018   0.000000
    6        6.897579   0.000000
    7        7.140300   0.000000
    8       10.403201   0.000000
 
 -0.3250000E+00  0.7500000E-01  0.2500000E-01  0.1500000E-02
    1       -7.678515   1.000000
    2       -3.018454   1.000000
    3        1.503094   1.000000
    4        2.136671   1.000000
    5        3.952684   0.000000
    6        6.860858   0.000000
    7        7.172057   0.000000
    8        9.965241   0.000000
 
 -0.2750000E+00  0.7500000E-01  0.2500000E-01  0.1500000E-02
    1       -7.990763   1.000000
    2       -2.331537   1.000000
    3        1.619842   1.000000
    4        2.305619   1.000000
    5        4.069054   0.000000
    6        6.764963   0.000000
    7        7.172378   0.000000
    8        9.295078   0.000000
 
 -0.2250000E+00  0.7500000E-01  0.2500000E-01  0.1500000E-02
    1       -8.281218   1.000000
    2       -1.564812   1.000000
    3        1.782230   1.000000
    4        2.501248   1.000000
    5        4.208625   0.000000
    6        6.589359   0.000000
    7        7.081942   0.000000
    8        8.608049   0.000000
 
 -0.1750000E+00  0.7500000E-01  0.2500000E-01  0.1500000E-02
    1       -8.532815   1.000000
    2       -0.747685   1.000000
    3        1.991436   1.000000
    4        2.709538   1.000000
    5        4.351154   0.000000
    6        6.334227   0.000000
    7        6.861691   0.000000
    8        7.964229   0.000000
 
 -0.1250000E+00  0.7500000E-01  0.2500000E-01  0.1500000E-02
    1       -8.736560   1.000000
    2        0.087991   1.000000
    3        2.247822   1.000000
    4        2.908082   1.000000
    5        4.449480   0.000000
    6        6.043175   0.000000
    7        6.545865   0.000000
    8        7.359406   0.000000
 
 -0.7500000E-01  0.7500000E-01  0.2500000E-01  0.1500000E-02
    1       -8.887486   1.000000
    2        0.893640   1.000000
    3        2.555506   1.000000
    4        3.061409   1.000000
    5        4.405489   0.000000
    6        5.810730   0.000000
    7        6.246545   0.000000
    8        6.784412   0.000000
 
 -0.2500000E-01  0.7500000E-01  0.2500000E-01  0.1500000E-02
    1       -8.982791   1.000000
    2        1.571027   1.000000
    3        2.919714   1.000000
    4        3.126885   1.000000
    5        4.132677   0.000000
    6        5.744211   0.000000
    7        6.071995   0.000000
    8        6.268543   0.000000
 
  0.1250000E+00  0.1250000E+00  0.2500000E-01  0.7500000E-03
    1       -8.867801   1.000000
    2        0.904458   1.000000
    3        2.577495   1.000000
    4        2.585694   1.000000
    5        4.949209   0.000000
    6        5.296153   0.000000
    7        6.718660   0.000000
    8        6.742613   0.000000
 
  0.1750000E+00  0.1250000E+00  0.2500000E-01  0.1500000E-02
    1       -8.753638   1.000000
    2        0.338104   1.000000
    3        2.255677   1.000000
    4        2.447388   1.000000
    5        5.165326   0.000000
    6        5.265278   0.000000
    7        7.026131   0.000000
    8        7.204693   0.000000
 
  0.2250000E+00  0.1250000E+00  0.2500000E-01  0.1500000E-02
    1       -8.584714   1.000000
    2       -0.377675   1.000000
    3        1.964954   1.000000
    4        2.270651   1.000000
    5        5.099180   0.000000
    6        5.522564   0.000000
    7        7.348851   0.000000
    8        7.691601   0.000000
 
  0.2750000E+00  0.1250000E+00  0.2500000E-01  0.1500000E-02
    1       -8.364351   1.000000
    2       -1.142994   1.000000
    3        1.703588   1.000000
    4        2.075457   1.000000
    5        4.966341   0.000000
    6        5.866880   0.000000
    7        7.599550   0.000000
    8        8.083385   0.000000
 
  0.3250000E+00  0.1250000E+00  0.2500000E-01  0.1500000E-02
    1       -8.098502   1.000000
    2       -1.900971   1.000000
    3        1.468400   1.000000
    4        1.900895   1.000000
    5        4.811307   0.000000
    6        6.211315   0.000000
    7        7.730922   0.000000
    8        8.417287   0.000000
 
  0.3750000E+00  0.1250000E+00  0.2500000E-01  0.1500000E-02
    1       -7.798078   1.000000
    2       -2.614655   1.000000
    3        1.259239   1.000000
    4        1.768693   1.000000
    5        4.663785   0.000000
    6        6.467291   0.000000
    7        7.750700   0.000000
    8        8.830353   0.000000
 
  0.4250000E+00  0.1250000E+00  0.2500000E-01  0.1500000E-02
    1       -7.484162   1.000000
    2       -3.247634   1.000000
    3        1.080217   1.000000
    4        1.688524   1.000000
    5        4.540523   0.000000
    6        6.615411   0.000000
    7        7.698231   0.000000
    8        9.379310   0.000000
 
  0.4750000E+00  0.1250000E+00  0.2500000E-01  0.1500000E-02
    1       -7.198641   1.000000
    2       -3.749511   1.000000
    3        0.936333   1.000000
    4        1.662178   1.000000
    5        4.450093   0.000000
    6        6.698319   0.000000
    7        7.611913   0.000000
    8        9.995112   0.000000
 
 -0.4750000E+00  0.1250000E+00  0.2500000E-01  0.1500000E-02
    1       -7.015915   1.000000
    2       -4.040804   1.000000
    3        0.833294   1.000000
    4        1.688327   1.000000
    5        4.397064   0.000000
    6        6.762136   0.000000
    7        7.519297   0.000000
    8       10.498557   0.000000
 
 -0.4250000E+00  0.1250000E+00  0.2500000E-01  0.1500000E-02
    1       -7.017220   1.000000
    2       -4.038473   1.000000
    3        0.775348   1.000000
    4        1.762810   1.000000
    5        4.382803   0.000000
    6        6.828930   0.000000
    7        7.435348   0.000000
    8       10.675895   0.000000
 
 -0.3750000E+00  0.1250000E+00  0.2500000E-01  0.1500000E-02
    1       -7.201719   1.000000
    2       -3.743453   1.000000
    3        0.766736   1.000000
    4        1.882377   1.000000
    5        4.406952   0.000000
    6        6.896438   0.000000
    7        7.367506   0.000000
    8       10.428355   0.000000
 
 -0.3250000E+00  0.1250000E+00  0.2500000E-01  0.1500000E-02
    1       -7.487909   1.000000
    2       -3.240304   1.000000
    3        0.811621   1.000000
    4        2.040969   1.000000
    5        4.466525   0.000000
    6        6.929647   0.000000
    7        7.322475   0.000000
    8        9.832477   0.000000
 
 -0.2750000E+00  0.1250000E+00  0.2500000E-01  0.1500000E-02
    1       -7.801603   1.000000
    2       -2.608855   1.000000
    3        0.914863   1.000000
    4        2.231712   1.000000
    5        4.555516   0.000000
    6        6.866678   0.000000
    7        7.297961   0.000000
    8        9.166482   0.000000
 
 -0.2250000E+00  0.1250000E+00  0.2500000E-01  0.1500000E-02
    1       -8.101656   1.000000
    2       -1.902272   1.000000
    3        1.083654   1.000000
    4        2.442798   1.000000
    5        4.660579   0.000000
    6        6.682165   0.000000
    7        7.216479   0.000000
    8        8.602445   0.000000
 
 -0.1750000E+00  0.1250000E+00  0.2500000E-01  0.1500000E-02
    1       -8.366964   1.000000
    2       -1.161675   1.000000
    3        1.328951   1.000000
    4        2.656687   1.000000
    5        4.752628   0.000000
    6        6.405573   0.000000
    7        6.984941   0.000000
    8        8.199487   0.000000
 
 -0.1250000E+00  0.1250000E+00  0.2500000E-01  0.1500000E-02
    1       -8.586726   1.000000
    2       -0.434450   1.000000
    3        1.669848   1.000000
    4        2.845825   1.000000
    5        4.766314   0.000000
    6        6.115481   0.000000
    7        6.677112   0.000000
    8        7.833032   0.000000
 
 -0.7500000E-01  0.1250000E+00  0.2500000E-01  0.1500000E-02
    1       -8.755065   1.000000
    2        0.219024   1.000000
    3        2.126244   1.000000
    4        2.969264   1.000000
    5        4.603900   0.000000
    6        5.936722   0.000000
    7        6.446920   0.000000
    8        7.351885   0.000000
 
 -0.2500000E-01  0.1250000E+00  0.2500000E-01  0.1500000E-02
    1       -8.868648   1.000000
    2        0.739995   1.000000
    3        2.671491   1.000000
    4        2.989528   1.000000
    5        4.284737   0.000000
    6        5.926877   0.000000
    7        6.352271   0.000000
    8        6.776079   0.000000
 
  0.1750000E+00  0.1750000E+00  0.2500000E-01  0.7500000E-03
    1       -8.657854   1.000000
    2        0.023105   1.000000
    3        2.110256   1.000000
    4        2.113514   1.000000
    5        4.924984   0.000000
    6        5.600674   0.000000
    7        7.441044   0.000000
    8        7.459286   0.000000
 
  0.2250000E+00  0.1750000E+00  0.2500000E-01  0.1500000E-02
    1       -8.506750   1.000000
    2       -0.504074   1.000000
    3        1.794609   1.000000
    4        1.958893   1.000000
    5        4.870333   0.000000
    6        5.742646   0.000000
    7        7.792581   0.000000
    8        7.846697   0.000000
 
  0.2750000E+00  0.1750000E+00  0.2500000E-01  0.1500000E-02
    1       -8.302992   1.000000
    2       -1.144148   1.000000
    3        1.488542   1.000000
    4        1.780653   1.000000
    5        4.976301   0.000000
    6        5.809460   0.000000
    7        8.048554   0.000000
    8        8.096140   0.000000
 
  0.3250000E+00  0.1750000E+00  0.2500000E-01  0.1500000E-02
    1       -8.051394   1.000000
    2       -1.825270   1.000000
    3        1.190521   1.000000
    4        1.617024   1.000000
    5        5.033106   0.000000
    6        6.019732   0.000000
    7        8.087646   0.000000
    8        8.289263   0.000000
 
  0.3750000E+00  0.1750000E+00  0.2500000E-01  0.1500000E-02
    1       -7.760556   1.000000
    2       -2.498173   1.000000
    3        0.911467   1.000000
    4        1.496623   1.000000
    5        4.980768   0.000000
    6        6.363138   0.000000
    7        8.149052   0.000000
    8        8.373124   0.000000
 
  0.4250000E+00  0.1750000E+00  0.2500000E-01  0.1500000E-02
    1       -7.446977   1.000000
    2       -3.122191   1.000000
    3        0.664531   1.000000
    4        1.429134   1.000000
    5        4.896368   0.000000
    6        6.654515   0.000000
    7        8.235290   0.000000
    8        8.541526   0.000000
 
  0.4750000E+00  0.1750000E+00  0.2500000E-01  0.1500000E-02
    1       -7.143877   1.000000
    2       -3.649294   1.000000
    3        0.459316   1.000000
    4        1.415616   1.000000
    5        4.825196   0.000000
    6        6.810508   0.000000
    7        8.168816   0.000000
    8        9.060987   0.000000
 
 -0.4750000E+00  0.1750000E+00  0.2500000E-01  0.1500000E-02
    1       -6.915320   1.000000
    2       -4.007045   1.000000
    3        0.302424   1.000000
    4        1.455037   1.000000
    5        4.784251   0.000000
    6        6.887675   0.000000
    7        8.055319   0.000000
    8        9.756755   0.000000
 
 -0.4250000E+00  0.1750000E+00  0.2500000E-01  0.1500000E-02
    1       -6.851369   1.000000
    2       -4.100905   1.000000
    3        0.199716   1.000000
    4        1.543846   1.000000
    5        4.778749   0.000000
    6        6.949065   0.000000
    7        7.932774   0.000000
    8       10.410624   0.000000
 
 -0.3750000E+00  0.1750000E+00  0.2500000E-01  0.1500000E-02
    1       -6.987069   1.000000
    2       -3.896025   1.000000
    3        0.156462   1.000000
    4        1.678613   1.000000
    5        4.807941   0.000000
    6        7.018628   0.000000
    7        7.809941   0.000000
    8       10.390246   0.000000
 
 -0.3250000E+00  0.1750000E+00  0.2500000E-01  0.1500000E-02
    1       -7.253317   1.000000
    2       -3.465547   1.000000
    3        0.179461   1.000000
    4        1.853070   1.000000
    5        4.866303   0.000000
    6        7.084752   0.000000
    7        7.687405   0.000000
    8        9.715957   0.000000
 
 -0.2750000E+00  0.1750000E+00  0.2500000E-01  0.1500000E-02
    1       -7.565284   1.000000
    2       -2.903721   1.000000
    3        0.278210   1.000000
    4        2.058869   1.000000
    5        4.942771   0.000000
    6        7.080084   0.000000
    7        7.581649   0.000000
    8        9.004489   0.000000
 
 -0.2250000E+00  0.1750000E+00  0.2500000E-01  0.1500000E-02
    1       -7.872551   1.000000
    2       -2.279372   1.000000
    3        0.467995   1.000000
    4        2.282245   1.000000
    5        5.014309   0.000000
    6        6.908358   0.000000
    7        7.480249   0.000000
    8        8.460570   0.000000
 
 -0.1750000E+00  0.1750000E+00  0.2500000E-01  0.1500000E-02
    1       -8.149849   1.000000
    2       -1.646891   1.000000
    3        0.770990   1.000000
    4        2.503249   1.000000
    5        5.031913   0.000000
    6        6.613488   0.000000
    7        7.236893   0.000000
    8        8.226583   0.000000
 
 -0.1250000E+00  0.1750000E+00  0.2500000E-01  0.1500000E-02
    1       -8.384192   1.000000
    2       -1.058330   1.000000
    3        1.211729   1.000000
    4        2.689546   1.000000
    5        4.909380   0.000000
    6        6.342092   0.000000
    7        6.939906   0.000000
    8        8.122333   0.000000
 
 -0.7500000E-01  0.1750000E+00  0.2500000E-01  0.1500000E-02
    1       -8.568741   1.000000
    2       -0.549924   1.000000
    3        1.790257   1.000000
    4        2.798825   1.000000
    5        4.602567   0.000000
    6        6.204348   0.000000
    7        6.756052   0.000000
    8        7.868434   0.000000
 
 -0.2500000E-01  0.1750000E+00  0.2500000E-01  0.1500000E-02
    1       -8.699611   1.000000
    2       -0.132217   1.000000
    3        2.433553   1.000000
    4        2.796043   1.000000
    5        4.227105   0.000000
    6        6.206670   0.000000
    7        6.666646   0.000000
    8        7.421278   0.000000
 
  0.2250000E+00  0.2250000E+00  0.2500000E-01  0.7500000E-03
    1       -8.373261   1.000000
    2       -0.848920   1.000000
    3        1.660389   1.000000
    4        1.672585   1.000000
    5        4.580509   0.000000
    6        5.909874   0.000000
    7        8.213647   0.000000
    8        8.226300   0.000000
 
  0.2750000E+00  0.2250000E+00  0.2500000E-01  0.1500000E-02
    1       -8.186302   1.000000
    2       -1.342995   1.000000
    3        1.372762   1.000000
    4        1.513995   1.000000
    5        4.552418   0.000000
    6        5.896575   0.000000
    7        8.440966   0.000000
    8        8.602887   0.000000
 
  0.3250000E+00  0.2250000E+00  0.2500000E-01  0.1500000E-02
    1       -7.949657   1.000000
    2       -1.913620   1.000000
    3        1.049855   1.000000
    4        1.356753   1.000000
    5        4.698078   0.000000
    6        5.916777   0.000000
    7        8.392868   0.000000
    8        8.867469   0.000000
 
  0.3750000E+00  0.2250000E+00  0.2500000E-01  0.1500000E-02
    1       -7.670141   1.000000
    2       -2.509767   1.000000
    3        0.711606   1.000000
    4        1.238817   1.000000
    5        4.822425   0.000000
    6        6.147804   0.000000
    7        8.267493   0.000000
    8        8.986394   0.000000
 
  0.4250000E+00  0.2250000E+00  0.2500000E-01  0.1500000E-02
    1       -7.360521   1.000000
    2       -3.090314   1.000000
    3        0.393098   1.000000
    4        1.173554   1.000000
    5        4.845894   0.000000
    6        6.601392   0.000000
    7        8.190237   0.000000
    8        8.979552   0.000000
 
  0.4750000E+00  0.2250000E+00  0.2500000E-01  0.1500000E-02
    1       -7.046829   1.000000
    2       -3.611165   1.000000
    3        0.117161   1.000000
    4        1.161602   1.000000
    5        4.831460   0.000000
    6        7.079696   0.000000
    7        8.289543   0.000000
    8        8.896925   0.000000
 
 -0.4750000E+00  0.2250000E+00  0.2500000E-01  0.1500000E-02
    1       -6.781922   1.000000
    2       -4.006919   1.000000
    3       -0.101619   1.000000
    4        1.204116   1.000000
    5        4.829903   0.000000
    6        7.338044   0.000000
    7        8.621455   0.000000
    8        8.904742   0.000000
 
 -0.4250000E+00  0.2250000E+00  0.2500000E-01  0.1500000E-02
    1       -6.656556   1.000000
    2       -4.181042   1.000000
    3       -0.255340   1.000000
    4        1.296780   1.000000
    5        4.858999   0.000000
    6        7.418280   0.000000
    7        8.553141   0.000000
    8        9.557238   0.000000
 
 -0.3750000E+00  0.2250000E+00  0.2500000E-01  0.1500000E-02
    1       -6.738890   1.000000
    2       -4.064643   1.000000
    3       -0.335649   1.000000
    4        1.437459   1.000000
    5        4.920931   0.000000
    6        7.460441   0.000000
    7        8.390549   0.000000
    8       10.141373   0.000000
 
 -0.3250000E+00  0.2250000E+00  0.2500000E-01  0.1500000E-02
    1       -6.980911   1.000000
    2       -3.711906   1.000000
    3       -0.332432   1.000000
    4        1.619043   1.000000
    5        5.007650   0.000000
    6        7.502386   0.000000
    7        8.202601   0.000000
    8        9.630925   0.000000
 
 -0.2750000E+00  0.2250000E+00  0.2500000E-01  0.1500000E-02
    1       -7.288178   1.000000
    2       -3.231044   1.000000
    3       -0.230097   1.000000
    4        1.832951   1.000000
    5        5.100639   0.000000
    6        7.492704   0.000000
    7        8.021739   0.000000
    8        8.881854   0.000000
 
 -0.2250000E+00  0.2250000E+00  0.2500000E-01  0.1500000E-02
    1       -7.600138   1.000000
    2       -2.706248   1.000000
    3       -0.006788   1.000000
    4        2.064657   1.000000
    5        5.162430   0.000000
    6        7.278851   0.000000
    7        7.911036   0.000000
    8        8.306549   0.000000
 
 -0.1750000E+00  0.2250000E+00  0.2500000E-01  0.1500000E-02
    1       -7.886935   1.000000
    2       -2.197106   1.000000
    3        0.361287   1.000000
    4        2.292091   1.000000
    5        5.121948   0.000000
    6        6.926872   0.000000
    7        7.565566   0.000000
    8        8.249368   0.000000
 
 -0.1250000E+00  0.2250000E+00  0.2500000E-01  0.1500000E-02
    1       -8.133748   1.000000
    2       -1.739652   1.000000
    3        0.883429   1.000000
    4        2.483091   1.000000
    5        4.895056   0.000000
    6        6.642531   0.000000
    7        7.229369   0.000000
    8        8.359184   0.000000
 
 -0.7500000E-01  0.2250000E+00  0.2500000E-01  0.1500000E-02
    1       -8.332569   1.000000
    2       -1.341096   1.000000
    3        1.532417   1.000000
    4        2.592931   1.000000
    5        4.499543   0.000000
    6        6.494270   0.000000
    7        7.045130   0.000000
    8        8.362012   0.000000
 
 -0.2500000E-01  0.2250000E+00  0.2500000E-01  0.1500000E-02
    1       -8.479065   1.000000
    2       -0.992133   1.000000
    3        2.218770   1.000000
    4        2.586564   1.000000
    5        4.084625   0.000000
    6        6.481823   0.000000
    7        6.923781   0.000000
    8        8.148113   0.000000
 
  0.2750000E+00  0.2750000E+00  0.2500000E-01  0.7500000E-03
    1       -8.015768   1.000000
    2       -1.707460   1.000000
    3        1.262794   1.000000
    4        1.281895   1.000000
    5        4.293786   0.000000
    6        5.784013   0.000000
    7        8.990553   0.000000
    8        9.043415   0.000000
 