       N       E                     dE             d eps       ncg     rms          rms(c)
DAV:   1     0.152662865030E+01    0.15266E+01   -0.17775E+03 12576   0.341E+02
DAV:   2    -0.890900348975E+01   -0.10436E+02   -0.10230E+02 19184   0.558E+01
DAV:   3    -0.903336328858E+01   -0.12436E+00   -0.12456E+00 14168   0.769E+00
DAV:   4    -0.903350547262E+01   -0.14218E-03   -0.14218E-03 18480   0.269E-01
DAV:   5    -0.903350552056E+01   -0.47935E-07   -0.47935E-07 14072   0.350E-03
DAV:   6    -0.903350552072E+01   -0.16519E-09   -0.16519E-09 17928   0.130E-04
   1 F= -.90335055E+01 E0= -.90335055E+01  d E =0.000000E+00
