 vasp.5.4.4.18Apr17-6-g9f103f2a35 (build May 20 2018 16:52:39) complex          
  
 executed on             LinuxIFC date 2022.11.06  14:55:35
 running on    1 total cores
 distrk:  each k-point on    1 cores,    1 groups
 distr:  one band on NCORES_PER_BAND=   1 cores,    1 groups


--------------------------------------------------------------------------------------------------------


 INCAR:
 POTCAR:    PAW Ge                                
 POTCAR:    PAW Ge                                
   VRHFIN =Ge: s2p2                                                             
   LEXCH  = 91                                                                  
   EATOM  =   105.2738 eV,    7.7374 Ry                                         
                                                                                
   TITEL  = PAW Ge                                                              
   LULTRA =        F    use ultrasoft PP ?                                      
   IUNSCR =        1    unscreen: 0-lin 1-nonlin 2-no                           
   RPACOR =    2.170    partial core radius                                     
   POMASS =   72.610; ZVAL   =    4.000    mass and valenz                      
   RCORE  =    2.300    outmost cutoff radius                                   
   RWIGS  =    2.300; RWIGS  =    1.217    wigner-seitz radius (au A)           
   ENMAX  =  173.845; ENMIN  =  130.384 eV                                      
   ICORE  =        3    local potential                                         
   LCOR   =        T    correct aug charges                                     
   LPAW   =        T    paw PP                                                  
   EAUG   =  385.843                                                            
   DEXC   =    -.102                                                            
   RMAX   =    3.497    core radius for proj-oper                               
   RAUG   =    1.300    factor for augmentation sphere                          
   RDEP   =    2.318    core radius for depl-charge                             
   QCUT   =   -3.575; QGAM   =    7.149    optimization parameters              
                                                                                
   Description                                                                  
     l     E      TYP  RCUT    TYP  RCUT                                        
     0   .000     23  2.300                                                     
     0   .000     23  2.300                                                     
     1   .000     23  2.300                                                     
     1   .000     23  2.300                                                     
     2   .000     23  2.300                                                     
     3  -.100      7  2.300                                                     
  local pseudopotential read in
  partial core-charges read in
  atomic valenz-charges read in
  non local Contribution for L=           0  read in
    real space projection operators read in
  non local Contribution for L=           0  read in
    real space projection operators read in
  non local Contribution for L=           1  read in
    real space projection operators read in
  non local Contribution for L=           1  read in
    real space projection operators read in
  non local Contribution for L=           2  read in
    real space projection operators read in
    PAW grid and wavefunctions read in
 
   number of l-projection  operators is LMAX  =           5
   number of lm-projection operators is LMMAX =          13
 
  PAW Ge                                :
 energy of atom  1       EATOM= -105.2738
 kinetic energy error for atom=    0.0055 (will be added to EATOM!!)
 
 
 POSCAR: Ge                                      
  positions in direct lattice
  velocities in cartesian coordinates
 exchange correlation table for  LEXCH =        7
   RHO(1)=    0.500       N(1)  =     2000
   RHO(2)=  100.500       N(2)  =     4000
 


--------------------------------------------------------------------------------------------------------


 ion  position               nearest neighbor table
   1  0.000  0.000  0.000-   2 2.50   2 2.50   2 2.50   2 2.50
   2  0.250  0.250  0.250-   1 2.50   1 2.50   1 2.50   1 2.50
 
  LATTYP: Found a face centered cubic cell.
 ALAT       =     5.7708962577
  
  Lattice vectors:
  
 A1 = (   0.0000000000,   2.8854481288,   2.8854481288)
 A2 = (   2.8854481288,   0.0000000000,   2.8854481288)
 A3 = (   2.8854481288,   2.8854481288,   0.0000000000)


Analysis of symmetry for initial positions (statically):
=====================================================================
 Subroutine PRICEL returns:
 Original cell was already a primitive cell.
 

 Routine SETGRP: Setting up the symmetry group for a 
 face centered cubic supercell.


 Subroutine GETGRP returns: Found 48 space group operations
 (whereof 24 operations were pure point group operations)
 out of a pool of 48 trial point group operations.


The static configuration has the point symmetry T_d .
 The point group associated with its full space group is O_h .


Analysis of symmetry for dynamics (positions and initial velocities):
=====================================================================
 Subroutine PRICEL returns:
 Original cell was already a primitive cell.
 

 Routine SETGRP: Setting up the symmetry group for a 
 face centered cubic supercell.


 Subroutine GETGRP returns: Found 48 space group operations
 (whereof 24 operations were pure point group operations)
 out of a pool of 48 trial point group operations.


The dynamic configuration has the point symmetry T_d .
 The point group associated with its full space group is O_h .


 Subroutine INISYM returns: Found 48 space group operations
 (whereof 24 operations are pure point group operations),
 and found     1 'primitive' translations

 
 
 KPOINTS: 20x20x20                                

Automatic generation of k-mesh.
Space group operators:
 irot       det(A)        alpha          n_x          n_y          n_z        tau_x        tau_y        tau_z
    1     1.000000     0.000001     1.000000     0.000000     0.000000     0.000000     0.000000     0.000000
    2     1.000000   120.000000    -0.577350    -0.577350    -0.577350     0.000000     0.000000     0.000000
    3     1.000000   120.000000     0.577350     0.577350     0.577350     0.000000     0.000000     0.000000
    4    -1.000000    90.000000     0.000000     0.000000    -1.000000     0.000000     0.000000     0.000000
    5    -1.000000   180.000000     0.000000     0.707107     0.707107     0.000000     0.000000     0.000000
    6    -1.000000    90.000000     0.000000     1.000000     0.000000     0.000000     0.000000     0.000000
    7     1.000000   180.000000     0.000000     0.000000     1.000000     0.000000     0.000000     0.000000
    8     1.000000   120.000000    -0.577350     0.577350     0.577350     0.000000     0.000000     0.000000
    9     1.000000   120.000000    -0.577350     0.577350    -0.577350     0.000000     0.000000     0.000000
   10    -1.000000    90.000000     0.000000     0.000000     1.000000     0.000000     0.000000     0.000000
   11    -1.000000    90.000000    -1.000000     0.000000     0.000000     0.000000     0.000000     0.000000
   12    -1.000000   180.000000     0.707107     0.000000     0.707107     0.000000     0.000000     0.000000
   13     1.000000   120.000000     0.577350    -0.577350     0.577350     0.000000     0.000000     0.000000
   14     1.000000   120.000000    -0.577350    -0.577350     0.577350     0.000000     0.000000     0.000000
   15     1.000000   180.000000     1.000000     0.000000     0.000000     0.000000     0.000000     0.000000
   16    -1.000000    90.000000     0.000000    -1.000000     0.000000     0.000000     0.000000     0.000000
   17    -1.000000   180.000000     0.707107     0.707107     0.000000     0.000000     0.000000     0.000000
   18    -1.000000    90.000000     1.000000     0.000000     0.000000     0.000000     0.000000     0.000000
   19     1.000000   120.000000     0.577350    -0.577350    -0.577350     0.000000     0.000000     0.000000
   20     1.000000   180.000000     0.000000     1.000000     0.000000     0.000000     0.000000     0.000000
   21     1.000000   120.000000     0.577350     0.577350    -0.577350     0.000000     0.000000     0.000000
   22    -1.000000   180.000000     0.000000    -0.707107     0.707107     0.000000     0.000000     0.000000
   23    -1.000000   180.000000     0.707107    -0.707107     0.000000     0.000000     0.000000     0.000000
   24    -1.000000   180.000000     0.707107     0.000000    -0.707107     0.000000     0.000000     0.000000
   25    -1.000000     0.000001     1.000000     0.000000     0.000000     0.250000     0.250000     0.250000
   26    -1.000000   120.000000    -0.577350    -0.577350    -0.577350     0.250000     0.250000     0.250000
   27    -1.000000   120.000000     0.577350     0.577350     0.577350     0.250000     0.250000     0.250000
   28     1.000000    90.000000     0.000000     0.000000    -1.000000     0.250000     0.250000     0.250000
   29     1.000000   180.000000     0.000000     0.707107     0.707107     0.250000     0.250000     0.250000
   30     1.000000    90.000000     0.000000     1.000000     0.000000     0.250000     0.250000     0.250000
   31    -1.000000   180.000000     0.000000     0.000000     1.000000     0.250000     0.250000     0.250000
   32    -1.000000   120.000000    -0.577350     0.577350     0.577350     0.250000     0.250000     0.250000
   33    -1.000000   120.000000    -0.577350     0.577350    -0.577350     0.250000     0.250000     0.250000
   34     1.000000    90.000000     0.000000     0.000000     1.000000     0.250000     0.250000     0.250000
   35     1.000000    90.000000    -1.000000     0.000000     0.000000     0.250000     0.250000     0.250000
   36     1.000000   180.000000     0.707107     0.000000     0.707107     0.250000     0.250000     0.250000
   37    -1.000000   120.000000     0.577350    -0.577350     0.577350     0.250000     0.250000     0.250000
   38    -1.000000   120.000000    -0.577350    -0.577350     0.577350     0.250000     0.250000     0.250000
   39    -1.000000   180.000000     1.000000     0.000000     0.000000     0.250000     0.250000     0.250000
   40     1.000000    90.000000     0.000000    -1.000000     0.000000     0.250000     0.250000     0.250000
   41     1.000000   180.000000     0.707107     0.707107     0.000000     0.250000     0.250000     0.250000
   42     1.000000    90.000000     1.000000     0.000000     0.000000     0.250000     0.250000     0.250000
   43    -1.000000   120.000000     0.577350    -0.577350    -0.577350     0.250000     0.250000     0.250000
   44    -1.000000   180.000000     0.000000     1.000000     0.000000     0.250000     0.250000     0.250000
   45    -1.000000   120.000000     0.577350     0.577350    -0.577350     0.250000     0.250000     0.250000
   46     1.000000   180.000000     0.000000    -0.707107     0.707107     0.250000     0.250000     0.250000
   47     1.000000   180.000000     0.707107    -0.707107     0.000000     0.250000     0.250000     0.250000
   48     1.000000   180.000000     0.707107     0.000000    -0.707107     0.250000     0.250000     0.250000
 
 Subroutine IBZKPT returns following result:
 ===========================================
 
 Found    770 irreducible k-points:
 
 Following reciprocal coordinates:
            Coordinates               Weight
  0.025000  0.025000  0.025000     96.000000
  0.075000  0.025000  0.025000    288.000000
  0.125000  0.025000  0.025000    288.000000
  0.175000  0.025000  0.025000    288.000000
  0.225000  0.025000  0.025000    288.000000
  0.275000  0.025000  0.025000    288.000000
  0.325000  0.025000  0.025000    288.000000
  0.375000  0.025000  0.025000    288.000000
  0.425000  0.025000  0.025000    288.000000
  0.475000  0.025000  0.025000    288.000000
 -0.475000  0.025000  0.025000    288.000000
 -0.425000  0.025000  0.025000    288.000000
 -0.375000  0.025000  0.025000    288.000000
 -0.325000  0.025000  0.025000    288.000000
 -0.275000  0.025000  0.025000    288.000000
 -0.225000  0.025000  0.025000    288.000000
 -0.175000  0.025000  0.025000    288.000000
 -0.125000  0.025000  0.025000    288.000000
 -0.075000  0.025000  0.025000    288.000000
 -0.025000  0.025000  0.025000    288.000000
  0.075000  0.075000  0.025000    288.000000
  0.125000  0.075000  0.025000    576.000000
  0.175000  0.075000  0.025000    576.000000
  0.225000  0.075000  0.025000    576.000000
  0.275000  0.075000  0.025000    576.000000
  0.325000  0.075000  0.025000    576.000000
  0.375000  0.075000  0.025000    576.000000
  0.425000  0.075000  0.025000    576.000000
  0.475000  0.075000  0.025000    576.000000
 -0.475000  0.075000  0.025000    576.000000
 -0.425000  0.075000  0.025000    576.000000
 -0.375000  0.075000  0.025000    576.000000
 -0.325000  0.075000  0.025000    576.000000
 -0.275000  0.075000  0.025000    576.000000
 -0.225000  0.075000  0.025000    576.000000
 -0.175000  0.075000  0.025000    576.000000
 -0.125000  0.075000  0.025000    576.000000
 -0.075000  0.075000  0.025000    576.000000
 -0.025000  0.075000  0.025000    576.000000
  0.125000  0.125000  0.025000    288.000000
  0.175000  0.125000  0.025000    576.000000
  0.225000  0.125000  0.025000    576.000000
  0.275000  0.125000  0.025000    576.000000
  0.325000  0.125000  0.025000    576.000000
  0.375000  0.125000  0.025000    576.000000
  0.425000  0.125000  0.025000    576.000000
  0.475000  0.125000  0.025000    576.000000
 -0.475000  0.125000  0.025000    576.000000
 -0.425000  0.125000  0.025000    576.000000
 -0.375000  0.125000  0.025000    576.000000
 -0.325000  0.125000  0.025000    576.000000
 -0.275000  0.125000  0.025000    576.000000
 -0.225000  0.125000  0.025000    576.000000
 -0.175000  0.125000  0.025000    576.000000
 -0.125000  0.125000  0.025000    576.000000
 -0.075000  0.125000  0.025000    576.000000
 -0.025000  0.125000  0.025000    576.000000
  0.175000  0.175000  0.025000    288.000000
  0.225000  0.175000  0.025000    576.000000
  0.275000  0.175000  0.025000    576.000000
  0.325000  0.175000  0.025000    576.000000
  0.375000  0.175000  0.025000    576.000000
  0.425000  0.175000  0.025000    576.000000
  0.475000  0.175000  0.025000    576.000000
 -0.475000  0.175000  0.025000    576.000000
 -0.425000  0.175000  0.025000    576.000000
 -0.375000  0.175000  0.025000    576.000000
 -0.325000  0.175000  0.025000    576.000000
 -0.275000  0.175000  0.025000    576.000000
 -0.225000  0.175000  0.025000    576.000000
 -0.175000  0.175000  0.025000    576.000000
 -0.125000  0.175000  0.025000    576.000000
 -0.075000  0.175000  0.025000    576.000000
 -0.025000  0.175000  0.025000    576.000000
  0.225000  0.225000  0.025000    288.000000
  0.275000  0.225000  0.025000    576.000000
  0.325000  0.225000  0.025000    576.000000
  0.375000  0.225000  0.025000    576.000000
  0.425000  0.225000  0.025000    576.000000
  0.475000  0.225000  0.025000    576.000000
 -0.475000  0.225000  0.025000    576.000000
 -0.425000  0.225000  0.025000    576.000000
 -0.375000  0.225000  0.025000    576.000000
 -0.325000  0.225000  0.025000    576.000000
 -0.275000  0.225000  0.025000    576.000000
 -0.225000  0.225000  0.025000    576.000000
 -0.175000  0.225000  0.025000    576.000000
 -0.125000  0.225000  0.025000    576.000000
 -0.075000  0.225000  0.025000    576.000000
 -0.025000  0.225000  0.025000    576.000000
  0.275000  0.275000  0.025000    288.000000
  0.325000  0.275000  0.025000    576.000000
  0.375000  0.275000  0.025000    576.000000
  0.425000  0.275000  0.025000    576.000000
  0.475000  0.275000  0.025000    576.000000
 -0.475000  0.275000  0.025000    576.000000
 -0.425000  0.275000  0.025000    576.000000
 -0.375000  0.275000  0.025000    576.000000
 -0.325000  0.275000  0.025000    576.000000
 -0.275000  0.275000  0.025000    576.000000
 -0.225000  0.275000  0.025000    576.000000
 -0.175000  0.275000  0.025000    576.000000
 -0.125000  0.275000  0.025000    576.000000
 -0.075000  0.275000  0.025000    576.000000
 -0.025000  0.275000  0.025000    576.000000
  0.325000  0.325000  0.025000    288.000000
  0.375000  0.325000  0.025000    576.000000
  0.425000  0.325000  0.025000    576.000000
  0.475000  0.325000  0.025000    576.000000
 -0.475000  0.325000  0.025000    576.000000
 -0.425000  0.325000  0.025000    576.000000
 -0.375000  0.325000  0.025000    576.000000
 -0.325000  0.325000  0.025000    576.000000
 -0.275000  0.325000  0.025000    576.000000
 -0.225000  0.325000  0.025000    576.000000
 -0.175000  0.325000  0.025000    576.000000
 -0.125000  0.325000  0.025000    576.000000
 -0.075000  0.325000  0.025000    576.000000
 -0.025000  0.325000  0.025000    576.000000
  0.375000  0.375000  0.025000    288.000000
  0.425000  0.375000  0.025000    576.000000
  0.475000  0.375000  0.025000    576.000000
 -0.475000  0.375000  0.025000    576.000000
 -0.425000  0.375000  0.025000    576.000000
 -0.375000  0.375000  0.025000    576.000000
 -0.325000  0.375000  0.025000    576.000000
 -0.275000  0.375000  0.025000    576.000000
 -0.225000  0.375000  0.025000    576.000000
 -0.175000  0.375000  0.025000    576.000000
 -0.125000  0.375000  0.025000    576.000000
 -0.075000  0.375000  0.025000    576.000000
 -0.025000  0.375000  0.025000    576.000000
  0.425000  0.425000  0.025000    288.000000
  0.475000  0.425000  0.025000    576.000000
 -0.475000  0.425000  0.025000    576.000000
 -0.425000  0.425000  0.025000    576.000000
 -0.375000  0.425000  0.025000    576.000000
 -0.325000  0.425000  0.025000    576.000000
 -0.275000  0.425000  0.025000    576.000000
 -0.225000  0.425000  0.025000    576.000000
 -0.175000  0.425000  0.025000    576.000000
 -0.125000  0.425000  0.025000    576.000000
 -0.075000  0.425000  0.025000    576.000000
 -0.025000  0.425000  0.025000    576.000000
  0.475000  0.475000  0.025000    288.000000
 -0.475000  0.475000  0.025000    576.000000
 -0.425000  0.475000  0.025000    576.000000
 -0.375000  0.475000  0.025000    576.000000
 -0.325000  0.475000  0.025000    576.000000
 -0.275000  0.475000  0.025000    576.000000
 -0.225000  0.475000  0.025000    576.000000
 -0.175000  0.475000  0.025000    576.000000
 -0.125000  0.475000  0.025000    576.000000
 -0.075000  0.475000  0.025000    576.000000
 -0.025000  0.475000  0.025000    576.000000
 -0.475000 -0.475000  0.025000    288.000000
 -0.425000 -0.475000  0.025000    576.000000
 -0.375000 -0.475000  0.025000    576.000000
 -0.325000 -0.475000  0.025000    576.000000
 -0.275000 -0.475000  0.025000    576.000000
 -0.225000 -0.475000  0.025000    576.000000
 -0.175000 -0.475000  0.025000    576.000000
 -0.125000 -0.475000  0.025000    576.000000
 -0.075000 -0.475000  0.025000    576.000000
 -0.425000 -0.425000  0.025000    288.000000
 -0.375000 -0.425000  0.025000    576.000000
 -0.325000 -0.425000  0.025000    576.000000
 -0.275000 -0.425000  0.025000    576.000000
 -0.225000 -0.425000  0.025000    576.000000
 -0.175000 -0.425000  0.025000    576.000000
 -0.125000 -0.425000  0.025000    576.000000
 -0.075000 -0.425000  0.025000    576.000000
 -0.375000 -0.375000  0.025000    288.000000
 -0.325000 -0.375000  0.025000    576.000000
 -0.275000 -0.375000  0.025000    576.000000
 -0.225000 -0.375000  0.025000    576.000000
 -0.175000 -0.375000  0.025000    576.000000
 -0.125000 -0.375000  0.025000    576.000000
 -0.075000 -0.375000  0.025000    576.000000
 -0.325000 -0.325000  0.025000    288.000000
 -0.275000 -0.325000  0.025000    576.000000
 -0.225000 -0.325000  0.025000    576.000000
 -0.175000 -0.325000  0.025000    576.000000
 -0.125000 -0.325000  0.025000    576.000000
 -0.075000 -0.325000  0.025000    576.000000
 -0.275000 -0.275000  0.025000    288.000000
 -0.225000 -0.275000  0.025000    576.000000
 -0.175000 -0.275000  0.025000    576.000000
 -0.125000 -0.275000  0.025000    576.000000
 -0.075000 -0.275000  0.025000    576.000000
 -0.225000 -0.225000  0.025000    288.000000
 -0.175000 -0.225000  0.025000    576.000000
 -0.125000 -0.225000  0.025000    576.000000
 -0.075000 -0.225000  0.025000    576.000000
 -0.175000 -0.175000  0.025000    288.000000
 -0.125000 -0.175000  0.025000    576.000000
 -0.075000 -0.175000  0.025000    576.000000
 -0.125000 -0.125000  0.025000    288.000000
 -0.075000 -0.125000  0.025000    576.000000
 -0.075000 -0.075000  0.025000    288.000000
  0.075000  0.075000  0.075000     96.000000
  0.125000  0.075000  0.075000    288.000000
  0.175000  0.075000  0.075000    288.000000
  0.225000  0.075000  0.075000    288.000000
  0.275000  0.075000  0.075000    288.000000
  0.325000  0.075000  0.075000    288.000000
  0.375000  0.075000  0.075000    288.000000
  0.425000  0.075000  0.075000    288.000000
  0.475000  0.075000  0.075000    288.000000
 -0.475000  0.075000  0.075000    288.000000
 -0.425000  0.075000  0.075000    288.000000
 -0.375000  0.075000  0.075000    288.000000
 -0.325000  0.075000  0.075000    288.000000
 -0.275000  0.075000  0.075000    288.000000
 -0.225000  0.075000  0.075000    288.000000
 -0.175000  0.075000  0.075000    288.000000
 -0.125000  0.075000  0.075000    288.000000
 -0.075000  0.075000  0.075000    288.000000
  0.125000  0.125000  0.075000    288.000000
  0.175000  0.125000  0.075000    576.000000
  0.225000  0.125000  0.075000    576.000000
  0.275000  0.125000  0.075000    576.000000
  0.325000  0.125000  0.075000    576.000000
  0.375000  0.125000  0.075000    576.000000
  0.425000  0.125000  0.075000    576.000000
  0.475000  0.125000  0.075000    576.000000
 -0.475000  0.125000  0.075000    576.000000
 -0.425000  0.125000  0.075000    576.000000
 -0.375000  0.125000  0.075000    576.000000
 -0.325000  0.125000  0.075000    576.000000
 -0.275000  0.125000  0.075000    576.000000
 -0.225000  0.125000  0.075000    576.000000
 -0.175000  0.125000  0.075000    576.000000
 -0.125000  0.125000  0.075000    576.000000
 -0.075000  0.125000  0.075000    576.000000
  0.175000  0.175000  0.075000    288.000000
  0.225000  0.175000  0.075000    576.000000
  0.275000  0.175000  0.075000    576.000000
  0.325000  0.175000  0.075000    576.000000
  0.375000  0.175000  0.075000    576.000000
  0.425000  0.175000  0.075000    576.000000
  0.475000  0.175000  0.075000    576.000000
 -0.475000  0.175000  0.075000    576.000000
 -0.425000  0.175000  0.075000    576.000000
 -0.375000  0.175000  0.075000    576.000000
 -0.325000  0.175000  0.075000    576.000000
 -0.275000  0.175000  0.075000    576.000000
 -0.225000  0.175000  0.075000    576.000000
 -0.175000  0.175000  0.075000    576.000000
 -0.125000  0.175000  0.075000    576.000000
 -0.075000  0.175000  0.075000    576.000000
  0.225000  0.225000  0.075000    288.000000
  0.275000  0.225000  0.075000    576.000000
  0.325000  0.225000  0.075000    576.000000
  0.375000  0.225000  0.075000    576.000000
  0.425000  0.225000  0.075000    576.000000
  0.475000  0.225000  0.075000    576.000000
 -0.475000  0.225000  0.075000    576.000000
 -0.425000  0.225000  0.075000    576.000000
 -0.375000  0.225000  0.075000    576.000000
 -0.325000  0.225000  0.075000    576.000000
 -0.275000  0.225000  0.075000    576.000000
 -0.225000  0.225000  0.075000    576.000000
 -0.175000  0.225000  0.075000    576.000000
 -0.125000  0.225000  0.075000    576.000000
 -0.075000  0.225000  0.075000    576.000000
  0.275000  0.275000  0.075000    288.000000
  0.325000  0.275000  0.075000    576.000000
  0.375000  0.275000  0.075000    576.000000
  0.425000  0.275000  0.075000    576.000000
  0.475000  0.275000  0.075000    576.000000
 -0.475000  0.275000  0.075000    576.000000
 -0.425000  0.275000  0.075000    576.000000
 -0.375000  0.275000  0.075000    576.000000
 -0.325000  0.275000  0.075000    576.000000
 -0.275000  0.275000  0.075000    576.000000
 -0.225000  0.275000  0.075000    576.000000
 -0.175000  0.275000  0.075000    576.000000
 -0.125000  0.275000  0.075000    576.000000
 -0.075000  0.275000  0.075000    576.000000
  0.325000  0.325000  0.075000    288.000000
  0.375000  0.325000  0.075000    576.000000
  0.425000  0.325000  0.075000    576.000000
  0.475000  0.325000  0.075000    576.000000
 -0.475000  0.325000  0.075000    576.000000
 -0.425000  0.325000  0.075000    576.000000
 -0.375000  0.325000  0.075000    576.000000
 -0.325000  0.325000  0.075000    576.000000
 -0.275000  0.325000  0.075000    576.000000
 -0.225000  0.325000  0.075000    576.000000
 -0.175000  0.325000  0.075000    576.000000
 -0.125000  0.325000  0.075000    576.000000
 -0.075000  0.325000  0.075000    576.000000
  0.375000  0.375000  0.075000    288.000000
  0.425000  0.375000  0.075000    576.000000
  0.475000  0.375000  0.075000    576.000000
 -0.475000  0.375000  0.075000    576.000000
 -0.425000  0.375000  0.075000    576.000000
 -0.375000  0.375000  0.075000    576.000000
 -0.325000  0.375000  0.075000    576.000000
 -0.275000  0.375000  0.075000    576.000000
 -0.225000  0.375000  0.075000    576.000000
 -0.175000  0.375000  0.075000    576.000000
 -0.125000  0.375000  0.075000    576.000000
 -0.075000  0.375000  0.075000    576.000000
  0.425000  0.425000  0.075000    288.000000
  0.475000  0.425000  0.075000    576.000000
 -0.475000  0.425000  0.075000    576.000000
 -0.425000  0.425000  0.075000    576.000000
 -0.375000  0.425000  0.075000    576.000000
 -0.325000  0.425000  0.075000    576.000000
 -0.275000  0.425000  0.075000    576.000000
 -0.225000  0.425000  0.075000    576.000000
 -0.175000  0.425000  0.075000    576.000000
 -0.125000  0.425000  0.075000    576.000000
 -0.075000  0.425000  0.075000    576.000000
  0.475000  0.475000  0.075000    288.000000
 -0.475000  0.475000  0.075000    576.000000
 -0.425000  0.475000  0.075000    576.000000
 -0.375000  0.475000  0.075000    576.000000
 -0.325000  0.475000  0.075000    576.000000
 -0.275000  0.475000  0.075000    576.000000
 -0.225000  0.475000  0.075000    576.000000
 -0.175000  0.475000  0.075000    576.000000
 -0.125000  0.475000  0.075000    576.000000
 -0.075000  0.475000  0.075000    576.000000
 -0.475000 -0.475000  0.075000    288.000000
 -0.425000 -0.475000  0.075000    576.000000
 -0.375000 -0.475000  0.075000    576.000000
 -0.325000 -0.475000  0.075000    576.000000
 -0.275000 -0.475000  0.075000    576.000000
 -0.225000 -0.475000  0.075000    576.000000
 -0.175000 -0.475000  0.075000    576.000000
 -0.125000 -0.475000  0.075000    576.000000
 -0.425000 -0.425000  0.075000    288.000000
 -0.375000 -0.425000  0.075000    576.000000
 -0.325000 -0.425000  0.075000    576.000000
 -0.275000 -0.425000  0.075000    576.000000
 -0.225000 -0.425000  0.075000    576.000000
 -0.175000 -0.425000  0.075000    576.000000
 -0.125000 -0.425000  0.075000    576.000000
 -0.375000 -0.375000  0.075000    288.000000
 -0.325000 -0.375000  0.075000    576.000000
 -0.275000 -0.375000  0.075000    576.000000
 -0.225000 -0.375000  0.075000    576.000000
 -0.175000 -0.375000  0.075000    576.000000
 -0.125000 -0.375000  0.075000    576.000000
 -0.325000 -0.325000  0.075000    288.000000
 -0.275000 -0.325000  0.075000    576.000000
 -0.225000 -0.325000  0.075000    576.000000
 -0.175000 -0.325000  0.075000    576.000000
 -0.125000 -0.325000  0.075000    576.000000
 -0.275000 -0.275000  0.075000    288.000000
 -0.225000 -0.275000  0.075000    576.000000
 -0.175000 -0.275000  0.075000    576.000000
 -0.125000 -0.275000  0.075000    576.000000
 -0.225000 -0.225000  0.075000    288.000000
 -0.175000 -0.225000  0.075000    576.000000
 -0.125000 -0.225000  0.075000    576.000000
 -0.175000 -0.175000  0.075000    288.000000
 -0.125000 -0.175000  0.075000    576.000000
 -0.125000 -0.125000  0.075000    288.000000
  0.125000  0.125000  0.125000     96.000000
  0.175000  0.125000  0.125000    288.000000
  0.225000  0.125000  0.125000    288.000000
  0.275000  0.125000  0.125000    288.000000
  0.325000  0.125000  0.125000    288.000000
  0.375000  0.125000  0.125000    288.000000
  0.425000  0.125000  0.125000    288.000000
  0.475000  0.125000  0.125000    288.000000
 -0.475000  0.125000  0.125000    288.000000
 -0.425000  0.125000  0.125000    288.000000
 -0.375000  0.125000  0.125000    288.000000
 -0.325000  0.125000  0.125000    288.000000
 -0.275000  0.125000  0.125000    288.000000
 -0.225000  0.125000  0.125000    288.000000
 -0.175000  0.125000  0.125000    288.000000
 -0.125000  0.125000  0.125000    288.000000
  0.175000  0.175000  0.125000    288.000000
  0.225000  0.175000  0.125000    576.000000
  0.275000  0.175000  0.125000    576.000000
  0.325000  0.175000  0.125000    576.000000
  0.375000  0.175000  0.125000    576.000000
  0.425000  0.175000  0.125000    576.000000
  0.475000  0.175000  0.125000    576.000000
 -0.475000  0.175000  0.125000    576.000000
 -0.425000  0.175000  0.125000    576.000000
 -0.375000  0.175000  0.125000    576.000000
 -0.325000  0.175000  0.125000    576.000000
 -0.275000  0.175000  0.125000    576.000000
 -0.225000  0.175000  0.125000    576.000000
 -0.175000  0.175000  0.125000    576.000000
 -0.125000  0.175000  0.125000    576.000000
  0.225000  0.225000  0.125000    288.000000
  0.275000  0.225000  0.125000    576.000000
  0.325000  0.225000  0.125000    576.000000
  0.375000  0.225000  0.125000    576.000000
  0.425000  0.225000  0.125000    576.000000
  0.475000  0.225000  0.125000    576.000000
 -0.475000  0.225000  0.125000    576.000000
 -0.425000  0.225000  0.125000    576.000000
 -0.375000  0.225000  0.125000    576.000000
 -0.325000  0.225000  0.125000    576.000000
 -0.275000  0.225000  0.125000    576.000000
 -0.225000  0.225000  0.125000    576.000000
 -0.175000  0.225000  0.125000    576.000000
 -0.125000  0.225000  0.125000    576.000000
  0.275000  0.275000  0.125000    288.000000
  0.325000  0.275000  0.125000    576.000000
  0.375000  0.275000  0.125000    576.000000
  0.425000  0.275000  0.125000    576.000000
  0.475000  0.275000  0.125000    576.000000
 -0.475000  0.275000  0.125000    576.000000
 -0.425000  0.275000  0.125000    576.000000
 -0.375000  0.275000  0.125000    576.000000
 -0.325000  0.275000  0.125000    576.000000
 -0.275000  0.275000  0.125000    576.000000
 -0.225000  0.275000  0.125000    576.000000
 -0.175000  0.275000  0.125000    576.000000
 -0.125000  0.275000  0.125000    576.000000
  0.325000  0.325000  0.125000    288.000000
  0.375000  0.325000  0.125000    576.000000
  0.425000  0.325000  0.125000    576.000000
  0.475000  0.325000  0.125000    576.000000
 -0.475000  0.325000  0.125000    576.000000
 -0.425000  0.325000  0.125000    576.000000
 -0.375000  0.325000  0.125000    576.000000
 -0.325000  0.325000  0.125000    576.000000
 -0.275000  0.325000  0.125000    576.000000
 -0.225000  0.325000  0.125000    576.000000
 -0.175000  0.325000  0.125000    576.000000
 -0.125000  0.325000  0.125000    576.000000
  0.375000  0.375000  0.125000    288.000000
  0.425000  0.375000  0.125000    576.000000
  0.475000  0.375000  0.125000    576.000000
 -0.475000  0.375000  0.125000    576.000000
 -0.425000  0.375000  0.125000    576.000000
 -0.375000  0.375000  0.125000    576.000000
 -0.325000  0.375000  0.125000    576.000000
 -0.275000  0.375000  0.125000    576.000000
 -0.225000  0.375000  0.125000    576.000000
 -0.175000  0.375000  0.125000    576.000000
 -0.125000  0.375000  0.125000    576.000000
  0.425000  0.425000  0.125000    288.000000
  0.475000  0.425000  0.125000    576.000000
 -0.475000  0.425000  0.125000    576.000000
 -0.425000  0.425000  0.125000    576.000000
 -0.375000  0.425000  0.125000    576.000000
 -0.325000  0.425000  0.125000    576.000000
 -0.275000  0.425000  0.125000    576.000000
 -0.225000  0.425000  0.125000    576.000000
 -0.175000  0.425000  0.125000    576.000000
 -0.125000  0.425000  0.125000    576.000000
  0.475000  0.475000  0.125000    288.000000
 -0.475000  0.475000  0.125000    576.000000
 -0.425000  0.475000  0.125000    576.000000
 -0.375000  0.475000  0.125000    576.000000
 -0.325000  0.475000  0.125000    576.000000
 -0.275000  0.475000  0.125000    576.000000
 -0.225000  0.475000  0.125000    576.000000
 -0.175000  0.475000  0.125000    576.000000
 -0.125000  0.475000  0.125000    576.000000
 -0.475000 -0.475000  0.125000    288.000000
 -0.425000 -0.475000  0.125000    576.000000
 -0.375000 -0.475000  0.125000    576.000000
 -0.325000 -0.475000  0.125000    576.000000
 -0.275000 -0.475000  0.125000    576.000000
 -0.225000 -0.475000  0.125000    576.000000
 -0.175000 -0.475000  0.125000    576.000000
 -0.425000 -0.425000  0.125000    288.000000
 -0.375000 -0.425000  0.125000    576.000000
 -0.325000 -0.425000  0.125000    576.000000
 -0.275000 -0.425000  0.125000    576.000000
 -0.225000 -0.425000  0.125000    576.000000
 -0.175000 -0.425000  0.125000    576.000000
 -0.375000 -0.375000  0.125000    288.000000
 -0.325000 -0.375000  0.125000    576.000000
 -0.275000 -0.375000  0.125000    576.000000
 -0.225000 -0.375000  0.125000    576.000000
 -0.175000 -0.375000  0.125000    576.000000
 -0.325000 -0.325000  0.125000    288.000000
 -0.275000 -0.325000  0.125000    576.000000
 -0.225000 -0.325000  0.125000    576.000000
 -0.175000 -0.325000  0.125000    576.000000
 -0.275000 -0.275000  0.125000    288.000000
 -0.225000 -0.275000  0.125000    576.000000
 -0.175000 -0.275000  0.125000    576.000000
 -0.225000 -0.225000  0.125000    288.000000
 -0.175000 -0.225000  0.125000    576.000000
 -0.175000 -0.175000  0.125000    288.000000
  0.175000  0.175000  0.175000     96.000000
  0.225000  0.175000  0.175000    288.000000
  0.275000  0.175000  0.175000    288.000000
  0.325000  0.175000  0.175000    288.000000
  0.375000  0.175000  0.175000    288.000000
  0.425000  0.175000  0.175000    288.000000
  0.475000  0.175000  0.175000    288.000000
 -0.475000  0.175000  0.175000    288.000000
 -0.425000  0.175000  0.175000    288.000000
 -0.375000  0.175000  0.175000    288.000000
 -0.325000  0.175000  0.175000    288.000000
 -0.275000  0.175000  0.175000    288.000000
 -0.225000  0.175000  0.175000    288.000000
 -0.175000  0.175000  0.175000    288.000000
  0.225000  0.225000  0.175000    288.000000
  0.275000  0.225000  0.175000    576.000000
  0.325000  0.225000  0.175000    576.000000
  0.375000  0.225000  0.175000    576.000000
  0.425000  0.225000  0.175000    576.000000
  0.475000  0.225000  0.175000    576.000000
 -0.475000  0.225000  0.175000    576.000000
 -0.425000  0.225000  0.175000    576.000000
 -0.375000  0.225000  0.175000    576.000000
 -0.325000  0.225000  0.175000    576.000000
 -0.275000  0.225000  0.175000    576.000000
 -0.225000  0.225000  0.175000    576.000000
 -0.175000  0.225000  0.175000    576.000000
  0.275000  0.275000  0.175000    288.000000
  0.325000  0.275000  0.175000    576.000000
  0.375000  0.275000  0.175000    576.000000
  0.425000  0.275000  0.175000    576.000000
  0.475000  0.275000  0.175000    576.000000
 -0.475000  0.275000  0.175000    576.000000
 -0.425000  0.275000  0.175000    576.000000
 -0.375000  0.275000  0.175000    576.000000
 -0.325000  0.275000  0.175000    576.000000
 -0.275000  0.275000  0.175000    576.000000
 -0.225000  0.275000  0.175000    576.000000
 -0.175000  0.275000  0.175000    576.000000
  0.325000  0.325000  0.175000    288.000000
  0.375000  0.325000  0.175000    576.000000
  0.425000  0.325000  0.175000    576.000000
  0.475000  0.325000  0.175000    576.000000
 -0.475000  0.325000  0.175000    576.000000
 -0.425000  0.325000  0.175000    576.000000
 -0.375000  0.325000  0.175000    576.000000
 -0.325000  0.325000  0.175000    576.000000
 -0.275000  0.325000  0.175000    576.000000
 -0.225000  0.325000  0.175000    576.000000
 -0.175000  0.325000  0.175000    576.000000
  0.375000  0.375000  0.175000    288.000000
  0.425000  0.375000  0.175000    576.000000
  0.475000  0.375000  0.175000    576.000000
 -0.475000  0.375000  0.175000    576.000000
 -0.425000  0.375000  0.175000    576.000000
 -0.375000  0.375000  0.175000    576.000000
 -0.325000  0.375000  0.175000    576.000000
 -0.275000  0.375000  0.175000    576.000000
 -0.225000  0.375000  0.175000    576.000000
 -0.175000  0.375000  0.175000    576.000000
  0.425000  0.425000  0.175000    288.000000
  0.475000  0.425000  0.175000    576.000000
 -0.475000  0.425000  0.175000    576.000000
 -0.425000  0.425000  0.175000    576.000000
 -0.375000  0.425000  0.175000    576.000000
 -0.325000  0.425000  0.175000    576.000000
 -0.275000  0.425000  0.175000    576.000000
 -0.225000  0.425000  0.175000    576.000000
 -0.175000  0.425000  0.175000    576.000000
  0.475000  0.475000  0.175000    288.000000
 -0.475000  0.475000  0.175000    576.000000
 -0.425000  0.475000  0.175000    576.000000
 -0.375000  0.475000  0.175000    576.000000
 -0.325000  0.475000  0.175000    576.000000
 -0.275000  0.475000  0.175000    576.000000
 -0.225000  0.475000  0.175000    576.000000
 -0.175000  0.475000  0.175000    576.000000
 -0.475000 -0.475000  0.175000    288.000000
 -0.425000 -0.475000  0.175000    576.000000
 -0.375000 -0.475000  0.175000    576.000000
 -0.325000 -0.475000  0.175000    576.000000
 -0.275000 -0.475000  0.175000    576.000000
 -0.225000 -0.475000  0.175000    576.000000
 -0.425000 -0.425000  0.175000    288.000000
 -0.375000 -0.425000  0.175000    576.000000
 -0.325000 -0.425000  0.175000    576.000000
 -0.275000 -0.425000  0.175000    576.000000
 -0.225000 -0.425000  0.175000    576.000000
 -0.375000 -0.375000  0.175000    288.000000
 -0.325000 -0.375000  0.175000    576.000000
 -0.275000 -0.375000  0.175000    576.000000
 -0.225000 -0.375000  0.175000    576.000000
 -0.325000 -0.325000  0.175000    288.000000
 -0.275000 -0.325000  0.175000    576.000000
 -0.225000 -0.325000  0.175000    576.000000
 -0.275000 -0.275000  0.175000    288.000000
 -0.225000 -0.275000  0.175000    576.000000
 -0.225000 -0.225000  0.175000    288.000000
  0.225000  0.225000  0.225000     96.000000
  0.275000  0.225000  0.225000    288.000000
  0.325000  0.225000  0.225000    288.000000
  0.375000  0.225000  0.225000    288.000000
  0.425000  0.225000  0.225000    288.000000
  0.475000  0.225000  0.225000    288.000000
 -0.475000  0.225000  0.225000    288.000000
 -0.425000  0.225000  0.225000    288.000000
 -0.375000  0.225000  0.225000    288.000000
 -0.325000  0.225000  0.225000    288.000000
 -0.275000  0.225000  0.225000    288.000000
 -0.225000  0.225000  0.225000    288.000000
  0.275000  0.275000  0.225000    288.000000
  0.325000  0.275000  0.225000    576.000000
  0.375000  0.275000  0.225000    576.000000
  0.425000  0.275000  0.225000    576.000000
  0.475000  0.275000  0.225000    576.000000
 -0.475000  0.275000  0.225000    576.000000
 -0.425000  0.275000  0.225000    576.000000
 -0.375000  0.275000  0.225000    576.000000
 -0.325000  0.275000  0.225000    576.000000
 -0.275000  0.275000  0.225000    576.000000
 -0.225000  0.275000  0.225000    576.000000
  0.325000  0.325000  0.225000    288.000000
  0.375000  0.325000  0.225000    576.000000
  0.425000  0.325000  0.225000    576.000000
  0.475000  0.325000  0.225000    576.000000
 -0.475000  0.325000  0.225000    576.000000
 -0.425000  0.325000  0.225000    576.000000
 -0.375000  0.325000  0.225000    576.000000
 -0.325000  0.325000  0.225000    576.000000
 -0.275000  0.325000  0.225000    576.000000
 -0.225000  0.325000  0.225000    576.000000
  0.375000  0.375000  0.225000    288.000000
  0.425000  0.375000  0.225000    576.000000
  0.475000  0.375000  0.225000    576.000000
 -0.475000  0.375000  0.225000    576.000000
 -0.425000  0.375000  0.225000    576.000000
 -0.375000  0.375000  0.225000    576.000000
 -0.325000  0.375000  0.225000    576.000000
 -0.275000  0.375000  0.225000    576.000000
 -0.225000  0.375000  0.225000    576.000000
  0.425000  0.425000  0.225000    288.000000
  0.475000  0.425000  0.225000    576.000000
 -0.475000  0.425000  0.225000    576.000000
 -0.425000  0.425000  0.225000    576.000000
 -0.375000  0.425000  0.225000    576.000000
 -0.325000  0.425000  0.225000    576.000000
 -0.275000  0.425000  0.225000    576.000000
 -0.225000  0.425000  0.225000    576.000000
  0.475000  0.475000  0.225000    288.000000
 -0.475000  0.475000  0.225000    576.000000
 -0.425000  0.475000  0.225000    576.000000
 -0.375000  0.475000  0.225000    576.000000
 -0.325000  0.475000  0.225000    576.000000
 -0.275000  0.475000  0.225000    576.000000
 -0.225000  0.475000  0.225000    576.000000
 -0.475000 -0.475000  0.225000    288.000000
 -0.425000 -0.475000  0.225000    576.000000
 -0.375000 -0.475000  0.225000    576.000000
 -0.325000 -0.475000  0.225000    576.000000
 -0.275000 -0.475000  0.225000    576.000000
 -0.425000 -0.425000  0.225000    288.000000
 -0.375000 -0.425000  0.225000    576.000000
 -0.325000 -0.425000  0.225000    576.000000
 -0.275000 -0.425000  0.225000    576.000000
 -0.375000 -0.375000  0.225000    288.000000
 -0.325000 -0.375000  0.225000    576.000000
 -0.275000 -0.375000  0.225000    576.000000
 -0.325000 -0.325000  0.225000    288.000000
 -0.275000 -0.325000  0.225000    576.000000
 -0.275000 -0.275000  0.225000    288.000000
  0.275000  0.275000  0.275000     96.000000
  0.325000  0.275000  0.275000    288.000000
  0.375000  0.275000  0.275000    288.000000
  0.425000  0.275000  0.275000    288.000000
  0.475000  0.275000  0.275000    288.000000
 -0.475000  0.275000  0.275000    288.000000
 -0.425000  0.275000  0.275000    288.000000
 -0.375000  0.275000  0.275000    288.000000
 -0.325000  0.275000  0.275000    288.000000
 -0.275000  0.275000  0.275000    288.000000
  0.325000  0.325000  0.275000    288.000000
  0.375000  0.325000  0.275000    576.000000
  0.425000  0.325000  0.275000    576.000000
  0.475000  0.325000  0.275000    576.000000
 -0.475000  0.325000  0.275000    576.000000
 -0.425000  0.325000  0.275000    576.000000
 -0.375000  0.325000  0.275000    576.000000
 -0.325000  0.325000  0.275000    576.000000
 -0.275000  0.325000  0.275000    576.000000
  0.375000  0.375000  0.275000    288.000000
  0.425000  0.375000  0.275000    576.000000
  0.475000  0.375000  0.275000    576.000000
 -0.475000  0.375000  0.275000    576.000000
 -0.425000  0.375000  0.275000    576.000000
 -0.375000  0.375000  0.275000    576.000000
 -0.325000  0.375000  0.275000    576.000000
 -0.275000  0.375000  0.275000    576.000000
  0.425000  0.425000  0.275000    288.000000
  0.475000  0.425000  0.275000    576.000000
 -0.475000  0.425000  0.275000    576.000000
 -0.425000  0.425000  0.275000    576.000000
 -0.375000  0.425000  0.275000    576.000000
 -0.325000  0.425000  0.275000    576.000000
 -0.275000  0.425000  0.275000    576.000000
  0.475000  0.475000  0.275000    288.000000
 -0.475000  0.475000  0.275000    576.000000
 -0.425000  0.475000  0.275000    576.000000
 -0.375000  0.475000  0.275000    576.000000
 -0.325000  0.475000  0.275000    576.000000
 -0.275000  0.475000  0.275000    576.000000
 -0.475000 -0.475000  0.275000    288.000000
 -0.425000 -0.475000  0.275000    576.000000
 -0.375000 -0.475000  0.275000    576.000000
 -0.325000 -0.475000  0.275000    576.000000
 -0.425000 -0.425000  0.275000    288.000000
 -0.375000 -0.425000  0.275000    576.000000
 -0.325000 -0.425000  0.275000    576.000000
 -0.375000 -0.375000  0.275000    288.000000
 -0.325000 -0.375000  0.275000    576.000000
 -0.325000 -0.325000  0.275000    288.000000
  0.325000  0.325000  0.325000     96.000000
  0.375000  0.325000  0.325000    288.000000
  0.425000  0.325000  0.325000    288.000000
  0.475000  0.325000  0.325000    288.000000
 -0.475000  0.325000  0.325000    288.000000
 -0.425000  0.325000  0.325000    288.000000
 -0.375000  0.325000  0.325000    288.000000
 -0.325000  0.325000  0.325000    288.000000
  0.375000  0.375000  0.325000    288.000000
  0.425000  0.375000  0.325000    576.000000
  0.475000  0.375000  0.325000    576.000000
 -0.475000  0.375000  0.325000    576.000000
 -0.425000  0.375000  0.325000    576.000000
 -0.375000  0.375000  0.325000    576.000000
 -0.325000  0.375000  0.325000    576.000000
  0.425000  0.425000  0.325000    288.000000
  0.475000  0.425000  0.325000    576.000000
 -0.475000  0.425000  0.325000    576.000000
 -0.425000  0.425000  0.325000    576.000000
 -0.375000  0.425000  0.325000    576.000000
 -0.325000  0.425000  0.325000    576.000000
  0.475000  0.475000  0.325000    288.000000
 -0.475000  0.475000  0.325000    576.000000
 -0.425000  0.475000  0.325000    576.000000
 -0.375000  0.475000  0.325000    576.000000
 -0.325000  0.475000  0.325000    576.000000
 -0.475000 -0.475000  0.325000    288.000000
 -0.425000 -0.475000  0.325000    576.000000
 -0.375000 -0.475000  0.325000    576.000000
 -0.425000 -0.425000  0.325000    288.000000
 -0.375000 -0.425000  0.325000    576.000000
 -0.375000 -0.375000  0.325000    288.000000
  0.375000  0.375000  0.375000     96.000000
  0.425000  0.375000  0.375000    288.000000
  0.475000  0.375000  0.375000    288.000000
 -0.475000  0.375000  0.375000    288.000000
 -0.425000  0.375000  0.375000    288.000000
 -0.375000  0.375000  0.375000    288.000000
  0.425000  0.425000  0.375000    288.000000
  0.475000  0.425000  0.375000    576.000000
 -0.475000  0.425000  0.375000    576.000000
 -0.425000  0.425000  0.375000    576.000000
 -0.375000  0.425000  0.375000    576.000000
  0.475000  0.475000  0.375000    288.000000
 -0.475000  0.475000  0.375000    576.000000
 -0.425000  0.475000  0.375000    576.000000
 -0.375000  0.475000  0.375000    576.000000
 -0.475000 -0.475000  0.375000    288.000000
 -0.425000 -0.475000  0.375000    576.000000
 -0.425000 -0.425000  0.375000    288.000000
  0.425000  0.425000  0.425000     96.000000
  0.475000  0.425000  0.425000    288.000000
 -0.475000  0.425000  0.425000    288.000000
 -0.425000  0.425000  0.425000    288.000000
  0.475000  0.475000  0.425000    288.000000
 -0.475000  0.475000  0.425000    576.000000
 -0.425000  0.475000  0.425000    576.000000
 -0.475000 -0.475000  0.425000    288.000000
  0.475000  0.475000  0.475000     96.000000
 -0.475000  0.475000  0.475000    288.000000
 
 Following cartesian coordinates:
            Coordinates               Weight
  0.024996  0.024996  0.024996     96.000000
 -0.024996  0.074988  0.074988    288.000000
 -0.074988  0.124981  0.124981    288.000000
 -0.124981  0.174973  0.174973    288.000000
 -0.174973  0.224965  0.224965    288.000000
 -0.224965  0.274957  0.274957    288.000000
 -0.274957  0.324950  0.324950    288.000000
 -0.324950  0.374942  0.374942    288.000000
 -0.374942  0.424934  0.424934    288.000000
 -0.424934  0.474926  0.474926    288.000000
  0.524918 -0.474926 -0.474926    288.000000
  0.474926 -0.424934 -0.424934    288.000000
  0.424934 -0.374942 -0.374942    288.000000
  0.374942 -0.324950 -0.324950    288.000000
  0.324950 -0.274957 -0.274957    288.000000
  0.274957 -0.224965 -0.224965    288.000000
  0.224965 -0.174973 -0.174973    288.000000
  0.174973 -0.124981 -0.124981    288.000000
  0.124981 -0.074988 -0.074988    288.000000
  0.074988 -0.024996 -0.024996    288.000000
  0.024996  0.024996  0.124981    288.000000
 -0.024996  0.074988  0.174973    576.000000
 -0.074988  0.124981  0.224965    576.000000
 -0.124981  0.174973  0.274957    576.000000
 -0.174973  0.224965  0.324950    576.000000
 -0.224965  0.274957  0.374942    576.000000
 -0.274957  0.324950  0.424934    576.000000
 -0.324950  0.374942  0.474926    576.000000
 -0.374942  0.424934  0.524918    576.000000
  0.574911 -0.524918 -0.424934    576.000000
  0.524918 -0.474926 -0.374942    576.000000
  0.474926 -0.424934 -0.324950    576.000000
  0.424934 -0.374942 -0.274957    576.000000
  0.374942 -0.324950 -0.224965    576.000000
  0.324950 -0.274957 -0.174973    576.000000
  0.274957 -0.224965 -0.124981    576.000000
  0.224965 -0.174973 -0.074988    576.000000
  0.174973 -0.124981 -0.024996    576.000000
  0.124981 -0.074988  0.024996    576.000000
  0.024996  0.024996  0.224965    288.000000
 -0.024996  0.074988  0.274957    576.000000
 -0.074988  0.124981  0.324950    576.000000
 -0.124981  0.174973  0.374942    576.000000
 -0.174973  0.224965  0.424934    576.000000
 -0.224965  0.274957  0.474926    576.000000
 -0.274957  0.324950  0.524918    576.000000
 -0.324950  0.374942  0.574911    576.000000
  0.624903 -0.574911 -0.374942    576.000000
  0.574911 -0.524918 -0.324950    576.000000
  0.524918 -0.474926 -0.274957    576.000000
  0.474926 -0.424934 -0.224965    576.000000
  0.424934 -0.374942 -0.174973    576.000000
  0.374942 -0.324950 -0.124981    576.000000
  0.324950 -0.274957 -0.074988    576.000000
  0.274957 -0.224965 -0.024996    576.000000
  0.224965 -0.174973  0.024996    576.000000
  0.174973 -0.124981  0.074988    576.000000
  0.024996  0.024996  0.324950    288.000000
 -0.024996  0.074988  0.374942    576.000000
 -0.074988  0.124981  0.424934    576.000000
 -0.124981  0.174973  0.474926    576.000000
 -0.174973  0.224965  0.524918    576.000000
 -0.224965  0.274957  0.574911    576.000000
 -0.274957  0.324950  0.624903    576.000000
  0.674895 -0.624903 -0.324950    576.000000
  0.624903 -0.574911 -0.274957    576.000000
  0.574911 -0.524918 -0.224965    576.000000
  0.524918 -0.474926 -0.174973    576.000000
  0.474926 -0.424934 -0.124981    576.000000
  0.424934 -0.374942 -0.074988    576.000000
  0.374942 -0.324950 -0.024996    576.000000
  0.324950 -0.274957  0.024996    576.000000
  0.274957 -0.224965  0.074988    576.000000
  0.224965 -0.174973  0.124981    576.000000
  0.024996  0.024996  0.424934    288.000000
 -0.024996  0.074988  0.474926    576.000000
 -0.074988  0.124981  0.524918    576.000000
 -0.124981  0.174973  0.574911    576.000000
 -0.174973  0.224965  0.624903    576.000000
 -0.224965  0.274957  0.674895    576.000000
  0.724887 -0.674895 -0.274957    576.000000
  0.674895 -0.624903 -0.224965    576.000000
  0.624903 -0.574911 -0.174973    576.000000
  0.574911 -0.524918 -0.124981    576.000000
  0.524918 -0.474926 -0.074988    576.000000
  0.474926 -0.424934 -0.024996    576.000000
  0.424934 -0.374942  0.024996    576.000000
  0.374942 -0.324950  0.074988    576.000000
  0.324950 -0.274957  0.124981    576.000000
  0.274957 -0.224965  0.174973    576.000000
  0.024996  0.024996  0.524918    288.000000
 -0.024996  0.074988  0.574911    576.000000
 -0.074988  0.124981  0.624903    576.000000
 -0.124981  0.174973  0.674895    576.000000
 -0.174973  0.224965  0.724887    576.000000
  0.774880 -0.724887 -0.224965    576.000000
  0.724887 -0.674895 -0.174973    576.000000
  0.674895 -0.624903 -0.124981    576.000000
  0.624903 -0.574911 -0.074988    576.000000
  0.574911 -0.524918 -0.024996    576.000000
  0.524918 -0.474926  0.024996    576.000000
  0.474926 -0.424934  0.074988    576.000000
  0.424934 -0.374942  0.124981    576.000000
  0.374942 -0.324950  0.174973    576.000000
  0.324950 -0.274957  0.224965    576.000000
  0.024996  0.024996  0.624903    288.000000
 -0.024996  0.074988  0.674895    576.000000
 -0.074988  0.124981  0.724887    576.000000
 -0.124981  0.174973  0.774880    576.000000
  0.824872 -0.774880 -0.174973    576.000000
  0.774880 -0.724887 -0.124981    576.000000
  0.724887 -0.674895 -0.074988    576.000000
  0.674895 -0.624903 -0.024996    576.000000
  0.624903 -0.574911  0.024996    576.000000
  0.574911 -0.524918  0.074988    576.000000
  0.524918 -0.474926  0.124981    576.000000
  0.474926 -0.424934  0.174973    576.000000
  0.424934 -0.374942  0.224965    576.000000
  0.374942 -0.324950  0.274957    576.000000
  0.024996  0.024996  0.724887    288.000000
 -0.024996  0.074988  0.774880    576.000000
 -0.074988  0.124981  0.824872    576.000000
  0.874864 -0.824872 -0.124981    576.000000
  0.824872 -0.774880 -0.074988    576.000000
  0.774880 -0.724887 -0.024996    576.000000
  0.724887 -0.674895  0.024996    576.000000
  0.674895 -0.624903  0.074988    576.000000
  0.624903 -0.574911  0.124981    576.000000
  0.574911 -0.524918  0.174973    576.000000
  0.524918 -0.474926  0.224965    576.000000
  0.474926 -0.424934  0.274957    576.000000
  0.424934 -0.374942  0.324950    576.000000
  0.024996  0.024996  0.824872    288.000000
 -0.024996  0.074988  0.874864    576.000000
  0.924856 -0.874864 -0.074988    576.000000
  0.874864 -0.824872 -0.024996    576.000000
  0.824872 -0.774880  0.024996    576.000000
  0.774880 -0.724887  0.074988    576.000000
  0.724887 -0.674895  0.124981    576.000000
  0.674895 -0.624903  0.174973    576.000000
  0.624903 -0.574911  0.224965    576.000000
  0.574911 -0.524918  0.274957    576.000000
  0.524918 -0.474926  0.324950    576.000000
  0.474926 -0.424934  0.374942    576.000000
  0.024996  0.024996  0.924856    288.000000
  0.974849 -0.924856 -0.024996    576.000000
  0.924856 -0.874864  0.024996    576.000000
  0.874864 -0.824872  0.074988    576.000000
  0.824872 -0.774880  0.124981    576.000000
  0.774880 -0.724887  0.174973    576.000000
  0.724887 -0.674895  0.224965    576.000000
  0.674895 -0.624903  0.274957    576.000000
  0.624903 -0.574911  0.324950    576.000000
  0.574911 -0.524918  0.374942    576.000000
  0.524918 -0.474926  0.424934    576.000000
  0.024996  0.024996 -0.974849    288.000000
 -0.024996  0.074988 -0.924856    576.000000
 -0.074988  0.124981 -0.874864    576.000000
 -0.124981  0.174973 -0.824872    576.000000
 -0.174973  0.224965 -0.774880    576.000000
 -0.224965  0.274957 -0.724887    576.000000
 -0.274957  0.324950 -0.674895    576.000000
 -0.324950  0.374942 -0.624903    576.000000
 -0.374942  0.424934 -0.574911    576.000000
  0.024996  0.024996 -0.874864    288.000000
 -0.024996  0.074988 -0.824872    576.000000
 -0.074988  0.124981 -0.774880    576.000000
 -0.124981  0.174973 -0.724887    576.000000
 -0.174973  0.224965 -0.674895    576.000000
 -0.224965  0.274957 -0.624903    576.000000
 -0.274957  0.324950 -0.574911    576.000000
 -0.324950  0.374942 -0.524918    576.000000
  0.024996  0.024996 -0.774880    288.000000
 -0.024996  0.074988 -0.724887    576.000000
 -0.074988  0.124981 -0.674895    576.000000
 -0.124981  0.174973 -0.624903    576.000000
 -0.174973  0.224965 -0.574911    576.000000
 -0.224965  0.274957 -0.524918    576.000000
 -0.274957  0.324950 -0.474926    576.000000
  0.024996  0.024996 -0.674895    288.000000
 -0.024996  0.074988 -0.624903    576.000000
 -0.074988  0.124981 -0.574911    576.000000
 -0.124981  0.174973 -0.524918    576.000000
 -0.174973  0.224965 -0.474926    576.000000
 -0.224965  0.274957 -0.424934    576.000000
  0.024996  0.024996 -0.574911    288.000000
 -0.024996  0.074988 -0.524918    576.000000
 -0.074988  0.124981 -0.474926    576.000000
 -0.124981  0.174973 -0.424934    576.000000
 -0.174973  0.224965 -0.374942    576.000000
  0.024996  0.024996 -0.474926    288.000000
 -0.024996  0.074988 -0.424934    576.000000
 -0.074988  0.124981 -0.374942    576.000000
 -0.124981  0.174973 -0.324950    576.000000
  0.024996  0.024996 -0.374942    288.000000
 -0.024996  0.074988 -0.324950    576.000000
 -0.074988  0.124981 -0.274957    576.000000
  0.024996  0.024996 -0.274957    288.000000
 -0.024996  0.074988 -0.224965    576.000000
  0.024996  0.024996 -0.174973    288.000000
  0.074988  0.074988  0.074988     96.000000
  0.024996  0.124981  0.124981    288.000000
 -0.024996  0.174973  0.174973    288.000000
 -0.074988  0.224965  0.224965    288.000000
 -0.124981  0.274957  0.274957    288.000000
 -0.174973  0.324950  0.324950    288.000000
 -0.224965  0.374942  0.374942    288.000000
 -0.274957  0.424934  0.424934    288.000000
 -0.324950  0.474926  0.474926    288.000000
  0.624903 -0.474926 -0.474926    288.000000
  0.574911 -0.424934 -0.424934    288.000000
  0.524918 -0.374942 -0.374942    288.000000
  0.474926 -0.324950 -0.324950    288.000000
  0.424934 -0.274957 -0.274957    288.000000
  0.374942 -0.224965 -0.224965    288.000000
  0.324950 -0.174973 -0.174973    288.000000
  0.274957 -0.124981 -0.124981    288.000000
  0.224965 -0.074988 -0.074988    288.000000
  0.074988  0.074988  0.174973    288.000000
  0.024996  0.124981  0.224965    576.000000
 -0.024996  0.174973  0.274957    576.000000
 -0.074988  0.224965  0.324950    576.000000
 -0.124981  0.274957  0.374942    576.000000
 -0.174973  0.324950  0.424934    576.000000
 -0.224965  0.374942  0.474926    576.000000
 -0.274957  0.424934  0.524918    576.000000
  0.674895 -0.524918 -0.424934    576.000000
  0.624903 -0.474926 -0.374942    576.000000
  0.574911 -0.424934 -0.324950    576.000000
  0.524918 -0.374942 -0.274957    576.000000
  0.474926 -0.324950 -0.224965    576.000000
  0.424934 -0.274957 -0.174973    576.000000
  0.374942 -0.224965 -0.124981    576.000000
  0.324950 -0.174973 -0.074988    576.000000
  0.274957 -0.124981 -0.024996    576.000000
  0.074988  0.074988  0.274957    288.000000
  0.024996  0.124981  0.324950    576.000000
 -0.024996  0.174973  0.374942    576.000000
 -0.074988  0.224965  0.424934    576.000000
 -0.124981  0.274957  0.474926    576.000000
 -0.174973  0.324950  0.524918    576.000000
 -0.224965  0.374942  0.574911    576.000000
  0.724887 -0.574911 -0.374942    576.000000
  0.674895 -0.524918 -0.324950    576.000000
  0.624903 -0.474926 -0.274957    576.000000
  0.574911 -0.424934 -0.224965    576.000000
  0.524918 -0.374942 -0.174973    576.000000
  0.474926 -0.324950 -0.124981    576.000000
  0.424934 -0.274957 -0.074988    576.000000
  0.374942 -0.224965 -0.024996    576.000000
  0.324950 -0.174973  0.024996    576.000000
  0.074988  0.074988  0.374942    288.000000
  0.024996  0.124981  0.424934    576.000000
 -0.024996  0.174973  0.474926    576.000000
 -0.074988  0.224965  0.524918    576.000000
 -0.124981  0.274957  0.574911    576.000000
 -0.174973  0.324950  0.624903    576.000000
  0.774880 -0.624903 -0.324950    576.000000
  0.724887 -0.574911 -0.274957    576.000000
  0.674895 -0.524918 -0.224965    576.000000
  0.624903 -0.474926 -0.174973    576.000000
  0.574911 -0.424934 -0.124981    576.000000
  0.524918 -0.374942 -0.074988    576.000000
  0.474926 -0.324950 -0.024996    576.000000
  0.424934 -0.274957  0.024996    576.000000
  0.374942 -0.224965  0.074988    576.000000
  0.074988  0.074988  0.474926    288.000000
  0.024996  0.124981  0.524918    576.000000
 -0.024996  0.174973  0.574911    576.000000
 -0.074988  0.224965  0.624903    576.000000
 -0.124981  0.274957  0.674895    576.000000
  0.824872 -0.674895 -0.274957    576.000000
  0.774880 -0.624903 -0.224965    576.000000
  0.724887 -0.574911 -0.174973    576.000000
  0.674895 -0.524918 -0.124981    576.000000
  0.624903 -0.474926 -0.074988    576.000000
  0.574911 -0.424934 -0.024996    576.000000
  0.524918 -0.374942  0.024996    576.000000
  0.474926 -0.324950  0.074988    576.000000
  0.424934 -0.274957  0.124981    576.000000
  0.074988  0.074988  0.574911    288.000000
  0.024996  0.124981  0.624903    576.000000
 -0.024996  0.174973  0.674895    576.000000
 -0.074988  0.224965  0.724887    576.000000
  0.874864 -0.724887 -0.224965    576.000000
  0.824872 -0.674895 -0.174973    576.000000
  0.774880 -0.624903 -0.124981    576.000000
  0.724887 -0.574911 -0.074988    576.000000
  0.674895 -0.524918 -0.024996    576.000000
  0.624903 -0.474926  0.024996    576.000000
  0.574911 -0.424934  0.074988    576.000000
  0.524918 -0.374942  0.124981    576.000000
  0.474926 -0.324950  0.174973    576.000000
  0.074988  0.074988  0.674895    288.000000
  0.024996  0.124981  0.724887    576.000000
 -0.024996  0.174973  0.774880    576.000000
  0.924856 -0.774880 -0.174973    576.000000
  0.874864 -0.724887 -0.124981    576.000000
  0.824872 -0.674895 -0.074988    576.000000
  0.774880 -0.624903 -0.024996    576.000000
  0.724887 -0.574911  0.024996    576.000000
  0.674895 -0.524918  0.074988    576.000000
  0.624903 -0.474926  0.124981    576.000000
  0.574911 -0.424934  0.174973    576.000000
  0.524918 -0.374942  0.224965    576.000000
  0.074988  0.074988  0.774880    288.000000
  0.024996  0.124981  0.824872    576.000000
  0.974849 -0.824872 -0.124981    576.000000
  0.924856 -0.774880 -0.074988    576.000000
  0.874864 -0.724887 -0.024996    576.000000
  0.824872 -0.674895  0.024996    576.000000
  0.774880 -0.624903  0.074988    576.000000
  0.724887 -0.574911  0.124981    576.000000
  0.674895 -0.524918  0.174973    576.000000
  0.624903 -0.474926  0.224965    576.000000
  0.574911 -0.424934  0.274957    576.000000
  0.074988  0.074988  0.874864    288.000000
  1.024841 -0.874864 -0.074988    576.000000
  0.974849 -0.824872 -0.024996    576.000000
  0.924856 -0.774880  0.024996    576.000000
  0.874864 -0.724887  0.074988    576.000000
  0.824872 -0.674895  0.124981    576.000000
  0.774880 -0.624903  0.174973    576.000000
  0.724887 -0.574911  0.224965    576.000000
  0.674895 -0.524918  0.274957    576.000000
  0.624903 -0.474926  0.324950    576.000000
  0.074988  0.074988 -1.024841    288.000000
  0.024996  0.124981 -0.974849    576.000000
 -0.024996  0.174973 -0.924856    576.000000
 -0.074988  0.224965 -0.874864    576.000000
 -0.124981  0.274957 -0.824872    576.000000
 -0.174973  0.324950 -0.774880    576.000000
 -0.224965  0.374942 -0.724887    576.000000
 -0.274957  0.424934 -0.674895    576.000000
  0.074988  0.074988 -0.924856    288.000000
  0.024996  0.124981 -0.874864    576.000000
 -0.024996  0.174973 -0.824872    576.000000
 -0.074988  0.224965 -0.774880    576.000000
 -0.124981  0.274957 -0.724887    576.000000
 -0.174973  0.324950 -0.674895    576.000000
 -0.224965  0.374942 -0.624903    576.000000
  0.074988  0.074988 -0.824872    288.000000
  0.024996  0.124981 -0.774880    576.000000
 -0.024996  0.174973 -0.724887    576.000000
 -0.074988  0.224965 -0.674895    576.000000
 -0.124981  0.274957 -0.624903    576.000000
 -0.174973  0.324950 -0.574911    576.000000
  0.074988  0.074988 -0.724887    288.000000
  0.024996  0.124981 -0.674895    576.000000
 -0.024996  0.174973 -0.624903    576.000000
 -0.074988  0.224965 -0.574911    576.000000
 -0.124981  0.274957 -0.524918    576.000000
  0.074988  0.074988 -0.624903    288.000000
  0.024996  0.124981 -0.574911    576.000000
 -0.024996  0.174973 -0.524918    576.000000
 -0.074988  0.224965 -0.474926    576.000000
  0.074988  0.074988 -0.524918    288.000000
  0.024996  0.124981 -0.474926    576.000000
 -0.024996  0.174973 -0.424934    576.000000
  0.074988  0.074988 -0.424934    288.000000
  0.024996  0.124981 -0.374942    576.000000
  0.074988  0.074988 -0.324950    288.000000
  0.124981  0.124981  0.124981     96.000000
  0.074988  0.174973  0.174973    288.000000
  0.024996  0.224965  0.224965    288.000000
 -0.024996  0.274957  0.274957    288.000000
 -0.074988  0.324950  0.324950    288.000000
 -0.124981  0.374942  0.374942    288.000000
 -0.174973  0.424934  0.424934    288.000000
 -0.224965  0.474926  0.474926    288.000000
  0.724887 -0.474926 -0.474926    288.000000
  0.674895 -0.424934 -0.424934    288.000000
  0.624903 -0.374942 -0.374942    288.000000
  0.574911 -0.324950 -0.324950    288.000000
  0.524918 -0.274957 -0.274957    288.000000
  0.474926 -0.224965 -0.224965    288.000000
  0.424934 -0.174973 -0.174973    288.000000
  0.374942 -0.124981 -0.124981    288.000000
  0.124981  0.124981  0.224965    288.000000
  0.074988  0.174973  0.274957    576.000000
  0.024996  0.224965  0.324950    576.000000
 -0.024996  0.274957  0.374942    576.000000
 -0.074988  0.324950  0.424934    576.000000
 -0.124981  0.374942  0.474926    576.000000
 -0.174973  0.424934  0.524918    576.000000
  0.774880 -0.524918 -0.424934    576.000000
  0.724887 -0.474926 -0.374942    576.000000
  0.674895 -0.424934 -0.324950    576.000000
  0.624903 -0.374942 -0.274957    576.000000
  0.574911 -0.324950 -0.224965    576.000000
  0.524918 -0.274957 -0.174973    576.000000
  0.474926 -0.224965 -0.124981    576.000000
  0.424934 -0.174973 -0.074988    576.000000
  0.124981  0.124981  0.324950    288.000000
  0.074988  0.174973  0.374942    576.000000
  0.024996  0.224965  0.424934    576.000000
 -0.024996  0.274957  0.474926    576.000000
 -0.074988  0.324950  0.524918    576.000000
 -0.124981  0.374942  0.574911    576.000000
  0.824872 -0.574911 -0.374942    576.000000
  0.774880 -0.524918 -0.324950    576.000000
  0.724887 -0.474926 -0.274957    576.000000
  0.674895 -0.424934 -0.224965    576.000000
  0.624903 -0.374942 -0.174973    576.000000
  0.574911 -0.324950 -0.124981    576.000000
  0.524918 -0.274957 -0.074988    576.000000
  0.474926 -0.224965 -0.024996    576.000000
  0.124981  0.124981  0.424934    288.000000
  0.074988  0.174973  0.474926    576.000000
  0.024996  0.224965  0.524918    576.000000
 -0.024996  0.274957  0.574911    576.000000
 -0.074988  0.324950  0.624903    576.000000
  0.874864 -0.624903 -0.324950    576.000000
  0.824872 -0.574911 -0.274957    576.000000
  0.774880 -0.524918 -0.224965    576.000000
  0.724887 -0.474926 -0.174973    576.000000
  0.674895 -0.424934 -0.124981    576.000000
  0.624903 -0.374942 -0.074988    576.000000
  0.574911 -0.324950 -0.024996    576.000000
  0.524918 -0.274957  0.024996    576.000000
  0.124981  0.124981  0.524918    288.000000
  0.074988  0.174973  0.574911    576.000000
  0.024996  0.224965  0.624903    576.000000
 -0.024996  0.274957  0.674895    576.000000
  0.924856 -0.674895 -0.274957    576.000000
  0.874864 -0.624903 -0.224965    576.000000
  0.824872 -0.574911 -0.174973    576.000000
  0.774880 -0.524918 -0.124981    576.000000
  0.724887 -0.474926 -0.074988    576.000000
  0.674895 -0.424934 -0.024996    576.000000
  0.624903 -0.374942  0.024996    576.000000
  0.574911 -0.324950  0.074988    576.000000
  0.124981  0.124981  0.624903    288.000000
  0.074988  0.174973  0.674895    576.000000
  0.024996  0.224965  0.724887    576.000000
  0.974849 -0.724887 -0.224965    576.000000
  0.924856 -0.674895 -0.174973    576.000000
  0.874864 -0.624903 -0.124981    576.000000
  0.824872 -0.574911 -0.074988    576.000000
  0.774880 -0.524918 -0.024996    576.000000
  0.724887 -0.474926  0.024996    576.000000
  0.674895 -0.424934  0.074988    576.000000
  0.624903 -0.374942  0.124981    576.000000
  0.124981  0.124981  0.724887    288.000000
  0.074988  0.174973  0.774880    576.000000
  1.024841 -0.774880 -0.174973    576.000000
  0.974849 -0.724887 -0.124981    576.000000
  0.924856 -0.674895 -0.074988    576.000000
  0.874864 -0.624903 -0.024996    576.000000
  0.824872 -0.574911  0.024996    576.000000
  0.774880 -0.524918  0.074988    576.000000
  0.724887 -0.474926  0.124981    576.000000
  0.674895 -0.424934  0.174973    576.000000
  0.124981  0.124981  0.824872    288.000000
  1.074833 -0.824872 -0.124981    576.000000
  1.024841 -0.774880 -0.074988    576.000000
  0.974849 -0.724887 -0.024996    576.000000
  0.924856 -0.674895  0.024996    576.000000
  0.874864 -0.624903  0.074988    576.000000
  0.824872 -0.574911  0.124981    576.000000
  0.774880 -0.524918  0.174973    576.000000
  0.724887 -0.474926  0.224965    576.000000
  0.124981  0.124981 -1.074833    288.000000
  0.074988  0.174973 -1.024841    576.000000
  0.024996  0.224965 -0.974849    576.000000
 -0.024996  0.274957 -0.924856    576.000000
 -0.074988  0.324950 -0.874864    576.000000
 -0.124981  0.374942 -0.824872    576.000000
 -0.174973  0.424934 -0.774880    576.000000
  0.124981  0.124981 -0.974849    288.000000
  0.074988  0.174973 -0.924856    576.000000
  0.024996  0.224965 -0.874864    576.000000
 -0.024996  0.274957 -0.824872    576.000000
 -0.074988  0.324950 -0.774880    576.000000
 -0.124981  0.374942 -0.724887    576.000000
  0.124981  0.124981 -0.874864    288.000000
  0.074988  0.174973 -0.824872    576.000000
  0.024996  0.224965 -0.774880    576.000000
 -0.024996  0.274957 -0.724887    576.000000
 -0.074988  0.324950 -0.674895    576.000000
  0.124981  0.124981 -0.774880    288.000000
  0.074988  0.174973 -0.724887    576.000000
  0.024996  0.224965 -0.674895    576.000000
 -0.024996  0.274957 -0.624903    576.000000
  0.124981  0.124981 -0.674895    288.000000
  0.074988  0.174973 -0.624903    576.000000
  0.024996  0.224965 -0.574911    576.000000
  0.124981  0.124981 -0.574911    288.000000
  0.074988  0.174973 -0.524918    576.000000
  0.124981  0.124981 -0.474926    288.000000
  0.174973  0.174973  0.174973     96.000000
  0.124981  0.224965  0.224965    288.000000
  0.074988  0.274957  0.274957    288.000000
  0.024996  0.324950  0.324950    288.000000
 -0.024996  0.374942  0.374942    288.000000
 -0.074988  0.424934  0.424934    288.000000
 -0.124981  0.474926  0.474926    288.000000
  0.824872 -0.474926 -0.474926    288.000000
  0.774880 -0.424934 -0.424934    288.000000
  0.724887 -0.374942 -0.374942    288.000000
  0.674895 -0.324950 -0.324950    288.000000
  0.624903 -0.274957 -0.274957    288.000000
  0.574911 -0.224965 -0.224965    288.000000
  0.524918 -0.174973 -0.174973    288.000000
  0.174973  0.174973  0.274957    288.000000
  0.124981  0.224965  0.324950    576.000000
  0.074988  0.274957  0.374942    576.000000
  0.024996  0.324950  0.424934    576.000000
 -0.024996  0.374942  0.474926    576.000000
 -0.074988  0.424934  0.524918    576.000000
  0.874864 -0.524918 -0.424934    576.000000
  0.824872 -0.474926 -0.374942    576.000000
  0.774880 -0.424934 -0.324950    576.000000
  0.724887 -0.374942 -0.274957    576.000000
  0.674895 -0.324950 -0.224965    576.000000
  0.624903 -0.274957 -0.174973    576.000000
  0.574911 -0.224965 -0.124981    576.000000
  0.174973  0.174973  0.374942    288.000000
  0.124981  0.224965  0.424934    576.000000
  0.074988  0.274957  0.474926    576.000000
  0.024996  0.324950  0.524918    576.000000
 -0.024996  0.374942  0.574911    576.000000
  0.924856 -0.574911 -0.374942    576.000000
  0.874864 -0.524918 -0.324950    576.000000
  0.824872 -0.474926 -0.274957    576.000000
  0.774880 -0.424934 -0.224965    576.000000
  0.724887 -0.374942 -0.174973    576.000000
  0.674895 -0.324950 -0.124981    576.000000
  0.624903 -0.274957 -0.074988    576.000000
  0.174973  0.174973  0.474926    288.000000
  0.124981  0.224965  0.524918    576.000000
  0.074988  0.274957  0.574911    576.000000
  0.024996  0.324950  0.624903    576.000000
  0.974849 -0.624903 -0.324950    576.000000
  0.924856 -0.574911 -0.274957    576.000000
  0.874864 -0.524918 -0.224965    576.000000
  0.824872 -0.474926 -0.174973    576.000000
  0.774880 -0.424934 -0.124981    576.000000
  0.724887 -0.374942 -0.074988    576.000000
  0.674895 -0.324950 -0.024996    576.000000
  0.174973  0.174973  0.574911    288.000000
  0.124981  0.224965  0.624903    576.000000
  0.074988  0.274957  0.674895    576.000000
  1.024841 -0.674895 -0.274957    576.000000
  0.974849 -0.624903 -0.224965    576.000000
  0.924856 -0.574911 -0.174973    576.000000
  0.874864 -0.524918 -0.124981    576.000000
  0.824872 -0.474926 -0.074988    576.000000
  0.774880 -0.424934 -0.024996    576.000000
  0.724887 -0.374942  0.024996    576.000000
  0.174973  0.174973  0.674895    288.000000
  0.124981  0.224965  0.724887    576.000000
  1.074833 -0.724887 -0.224965    576.000000
  1.024841 -0.674895 -0.174973    576.000000
  0.974849 -0.624903 -0.124981    576.000000
  0.924856 -0.574911 -0.074988    576.000000
  0.874864 -0.524918 -0.024996    576.000000
  0.824872 -0.474926  0.024996    576.000000
  0.774880 -0.424934  0.074988    576.000000
  0.174973  0.174973  0.774880    288.000000
  1.124825 -0.774880 -0.174973    576.000000
  1.074833 -0.724887 -0.124981    576.000000
  1.024841 -0.674895 -0.074988    576.000000
  0.974849 -0.624903 -0.024996    576.000000
  0.924856 -0.574911  0.024996    576.000000
  0.874864 -0.524918  0.074988    576.000000
  0.824872 -0.474926  0.124981    576.000000
  0.174973  0.174973 -1.124825    288.000000
  0.124981  0.224965 -1.074833    576.000000
  0.074988  0.274957 -1.024841    576.000000
  0.024996  0.324950 -0.974849    576.000000
 -0.024996  0.374942 -0.924856    576.000000
 -0.074988  0.424934 -0.874864    576.000000
  0.174973  0.174973 -1.024841    288.000000
  0.124981  0.224965 -0.974849    576.000000
  0.074988  0.274957 -0.924856    576.000000
  0.024996  0.324950 -0.874864    576.000000
 -0.024996  0.374942 -0.824872    576.000000
  0.174973  0.174973 -0.924856    288.000000
  0.124981  0.224965 -0.874864    576.000000
  0.074988  0.274957 -0.824872    576.000000
  0.024996  0.324950 -0.774880    576.000000
  0.174973  0.174973 -0.824872    288.000000
  0.124981  0.224965 -0.774880    576.000000
  0.074988  0.274957 -0.724887    576.000000
  0.174973  0.174973 -0.724887    288.000000
  0.124981  0.224965 -0.674895    576.000000
  0.174973  0.174973 -0.624903    288.000000
  0.224965  0.224965  0.224965     96.000000
  0.174973  0.274957  0.274957    288.000000
  0.124981  0.324950  0.324950    288.000000
  0.074988  0.374942  0.374942    288.000000
  0.024996  0.424934  0.424934    288.000000
 -0.024996  0.474926  0.474926    288.000000
  0.924856 -0.474926 -0.474926    288.000000
  0.874864 -0.424934 -0.424934    288.000000
  0.824872 -0.374942 -0.374942    288.000000
  0.774880 -0.324950 -0.324950    288.000000
  0.724887 -0.274957 -0.274957    288.000000
  0.674895 -0.224965 -0.224965    288.000000
  0.224965  0.224965  0.324950    288.000000
  0.174973  0.274957  0.374942    576.000000
  0.124981  0.324950  0.424934    576.000000
  0.074988  0.374942  0.474926    576.000000
  0.024996  0.424934  0.524918    576.000000
  0.974849 -0.524918 -0.424934    576.000000
  0.924856 -0.474926 -0.374942    576.000000
  0.874864 -0.424934 -0.324950    576.000000
  0.824872 -0.374942 -0.274957    576.000000
  0.774880 -0.324950 -0.224965    576.000000
  0.724887 -0.274957 -0.174973    576.000000
  0.224965  0.224965  0.424934    288.000000
  0.174973  0.274957  0.474926    576.000000
  0.124981  0.324950  0.524918    576.000000
  0.074988  0.374942  0.574911    576.000000
  1.024841 -0.574911 -0.374942    576.000000
  0.974849 -0.524918 -0.324950    576.000000
  0.924856 -0.474926 -0.274957    576.000000
  0.874864 -0.424934 -0.224965    576.000000
  0.824872 -0.374942 -0.174973    576.000000
  0.774880 -0.324950 -0.124981    576.000000
  0.224965  0.224965  0.524918    288.000000
  0.174973  0.274957  0.574911    576.000000
  0.124981  0.324950  0.624903    576.000000
  1.074833 -0.624903 -0.324950    576.000000
  1.024841 -0.574911 -0.274957    576.000000
  0.974849 -0.524918 -0.224965    576.000000
  0.924856 -0.474926 -0.174973    576.000000
  0.874864 -0.424934 -0.124981    576.000000
  0.824872 -0.374942 -0.074988    576.000000
  0.224965  0.224965  0.624903    288.000000
  0.174973  0.274957  0.674895    576.000000
  1.124825 -0.674895 -0.274957    576.000000
  1.074833 -0.624903 -0.224965    576.000000
  1.024841 -0.574911 -0.174973    576.000000
  0.974849 -0.524918 -0.124981    576.000000
  0.924856 -0.474926 -0.074988    576.000000
  0.874864 -0.424934 -0.024996    576.000000
  0.224965  0.224965  0.724887    288.000000
  1.174818 -0.724887 -0.224965    576.000000
  1.124825 -0.674895 -0.174973    576.000000
  1.074833 -0.624903 -0.124981    576.000000
  1.024841 -0.574911 -0.074988    576.000000
  0.974849 -0.524918 -0.024996    576.000000
  0.924856 -0.474926  0.024996    576.000000
  0.224965  0.224965 -1.174818    288.000000
  0.174973  0.274957 -1.124825    576.000000
  0.124981  0.324950 -1.074833    576.000000
  0.074988  0.374942 -1.024841    576.000000
  0.024996  0.424934 -0.974849    576.000000
  0.224965  0.224965 -1.074833    288.000000
  0.174973  0.274957 -1.024841    576.000000
  0.124981  0.324950 -0.974849    576.000000
  0.074988  0.374942 -0.924856    576.000000
  0.224965  0.224965 -0.974849    288.000000
  0.174973  0.274957 -0.924856    576.000000
  0.124981  0.324950 -0.874864    576.000000
  0.224965  0.224965 -0.874864    288.000000
  0.174973  0.274957 -0.824872    576.000000
  0.224965  0.224965 -0.774880    288.000000
  0.274957  0.274957  0.274957     96.000000
  0.224965  0.324950  0.324950    288.000000
  0.174973  0.374942  0.374942    288.000000
  0.124981  0.424934  0.424934    288.000000
  0.074988  0.474926  0.474926    288.000000
  1.024841 -0.474926 -0.474926    288.000000
  0.974849 -0.424934 -0.424934    288.000000
  0.924856 -0.374942 -0.374942    288.000000
  0.874864 -0.324950 -0.324950    288.000000
  0.824872 -0.274957 -0.274957    288.000000
  0.274957  0.274957  0.374942    288.000000
  0.224965  0.324950  0.424934    576.000000
  0.174973  0.374942  0.474926    576.000000
  0.124981  0.424934  0.524918    576.000000
  1.074833 -0.524918 -0.424934    576.000000
  1.024841 -0.474926 -0.374942    576.000000
  0.974849 -0.424934 -0.324950    576.000000
  0.924856 -0.374942 -0.274957    576.000000
  0.874864 -0.324950 -0.224965    576.000000
  0.274957  0.274957  0.474926    288.000000
  0.224965  0.324950  0.524918    576.000000
  0.174973  0.374942  0.574911    576.000000
  1.124825 -0.574911 -0.374942    576.000000
  1.074833 -0.524918 -0.324950    576.000000
  1.024841 -0.474926 -0.274957    576.000000
  0.974849 -0.424934 -0.224965    576.000000
  0.924856 -0.374942 -0.174973    576.000000
  0.274957  0.274957  0.574911    288.000000
  0.224965  0.324950  0.624903    576.000000
  1.174818 -0.624903 -0.324950    576.000000
  1.124825 -0.574911 -0.274957    576.000000
  1.074833 -0.524918 -0.224965    576.000000
  1.024841 -0.474926 -0.174973    576.000000
  0.974849 -0.424934 -0.124981    576.000000
  0.274957  0.274957  0.674895    288.000000
  1.224810 -0.674895 -0.274957    576.000000
  1.174818 -0.624903 -0.224965    576.000000
  1.124825 -0.574911 -0.174973    576.000000
  1.074833 -0.524918 -0.124981    576.000000
  1.024841 -0.474926 -0.074988    576.000000
  0.274957  0.274957 -1.224810    288.000000
  0.224965  0.324950 -1.174818    576.000000
  0.174973  0.374942 -1.124825    576.000000
  0.124981  0.424934 -1.074833    576.000000
  0.274957  0.274957 -1.124825    288.000000
  0.224965  0.324950 -1.074833    576.000000
  0.174973  0.374942 -1.024841    576.000000
  0.274957  0.274957 -1.024841    288.000000
  0.224965  0.324950 -0.974849    576.000000
  0.274957  0.274957 -0.924856    288.000000
  0.324950  0.324950  0.324950     96.000000
  0.274957  0.374942  0.374942    288.000000
  0.224965  0.424934  0.424934    288.000000
  0.174973  0.474926  0.474926    288.000000
  1.124825 -0.474926 -0.474926    288.000000
  1.074833 -0.424934 -0.424934    288.000000
  1.024841 -0.374942 -0.374942    288.000000
  0.974849 -0.324950 -0.324950    288.000000
  0.324950  0.324950  0.424934    288.000000
  0.274957  0.374942  0.474926    576.000000
  0.224965  0.424934  0.524918    576.000000
  1.174818 -0.524918 -0.424934    576.000000
  1.124825 -0.474926 -0.374942    576.000000
  1.074833 -0.424934 -0.324950    576.000000
  1.024841 -0.374942 -0.274957    576.000000
  0.324950  0.324950  0.524918    288.000000
  0.274957  0.374942  0.574911    576.000000
  1.224810 -0.574911 -0.374942    576.000000
  1.174818 -0.524918 -0.324950    576.000000
  1.124825 -0.474926 -0.274957    576.000000
  1.074833 -0.424934 -0.224965    576.000000
  0.324950  0.324950  0.624903    288.000000
  1.274802 -0.624903 -0.324950    576.000000
  1.224810 -0.574911 -0.274957    576.000000
  1.174818 -0.524918 -0.224965    576.000000
  1.124825 -0.474926 -0.174973    576.000000
  0.324950  0.324950 -1.274802    288.000000
  0.274957  0.374942 -1.224810    576.000000
  0.224965  0.424934 -1.174818    576.000000
  0.324950  0.324950 -1.174818    288.000000
  0.274957  0.374942 -1.124825    576.000000
  0.324950  0.324950 -1.074833    288.000000
  0.374942  0.374942  0.374942     96.000000
  0.324950  0.424934  0.424934    288.000000
  0.274957  0.474926  0.474926    288.000000
  1.224810 -0.474926 -0.474926    288.000000
[...]
  band No.  band energies     occupation 
      1      -6.2852      2.00000
      2      -4.4239      2.00000
      3      -0.8134      2.00000
      4       1.0928      2.00000
      5       4.6861      0.00000
      6       8.5144      0.00000
      7       9.1870      0.00000
      8       9.4094      0.00000

 k-point   743 :       0.3750    0.3750    0.3750
  band No.  band energies     occupation 
      1      -7.6190      2.00000
      2      -3.2183      2.00000
      3       2.0787      2.00000
      4       2.0787      2.00000
      5       3.3957      0.00000
      6       6.9846      0.00000
      7       6.9846      0.00000
      8      10.3679      0.00000

 k-point   744 :       0.4250    0.3750    0.3750
  band No.  band energies     occupation 
      1      -7.4928      2.00000
      2      -3.4112      2.00000
      3       1.6260      2.00000
      4       2.0925      2.00000
      5       3.6999      0.00000
      6       6.9725      0.00000
      7       7.0329      0.00000
      8      10.3765      0.00000

 k-point   745 :       0.4750    0.3750    0.3750
  band No.  band energies     occupation 
      1      -7.3216      2.00000
      2      -3.5893      2.00000
      3       0.9509      2.00000
      4       1.9905      2.00000
      5       4.2493      0.00000
      6       6.9911      0.00000
      7       7.1807      0.00000
      8      10.3727      0.00000

 k-point   746 :      -0.4750    0.3750    0.3750
  band No.  band energies     occupation 
      1      -7.1092      2.00000
      2      -3.7601      2.00000
      3       0.3071      2.00000
      4       1.8022      2.00000
      5       4.7061      0.00000
      6       7.0522      0.00000
      7       7.5778      0.00000
      8      10.3316      0.00000

 k-point   747 :      -0.4250    0.3750    0.3750
  band No.  band energies     occupation 
      1      -6.8605      2.00000
      2      -3.9415      2.00000
      3      -0.2301      2.00000
      4       1.5681      2.00000
      5       4.8930      0.00000
      6       7.4175      0.00000
      7       8.1159      0.00000
      8      10.2149      0.00000

 k-point   748 :      -0.3750    0.3750    0.3750
  band No.  band energies     occupation 
      1      -6.5823      2.00000
      2      -4.1580      2.00000
      3      -0.6143      2.00000
      4       1.3234      2.00000
      5       4.8384      0.00000
      6       8.0633      0.00000
      7       8.7445      0.00000
      8       9.7538      0.00000

 k-point   749 :       0.4250    0.4250    0.3750
  band No.  band energies     occupation 
      1      -7.3969      2.00000
      2      -3.5845      2.00000
      3       1.7398      2.00000
      4       1.8970      2.00000
      5       3.7009      0.00000
      6       6.8388      0.00000
      7       7.1675      0.00000
      8      10.3756      0.00000

 k-point   750 :       0.4750    0.4250    0.3750
  band No.  band energies     occupation 
      1      -7.2579      2.00000
      2      -3.7392      2.00000
      3       1.1956      2.00000
      4       1.8683      2.00000
      5       4.1127      0.00000
      6       6.8008      0.00000
      7       7.3078      0.00000
      8      10.3856      0.00000

 k-point   751 :      -0.4750    0.4250    0.3750
  band No.  band energies     occupation 
      1      -7.0794      2.00000
      2      -3.8771      2.00000
      3       0.5702      2.00000
      4       1.7316      2.00000
      5       4.6149      0.00000
      6       6.7838      0.00000
      7       7.6216      0.00000
      8      10.3987      0.00000

 k-point   752 :      -0.4250    0.4250    0.3750
  band No.  band energies     occupation 
      1      -6.8655      2.00000
      2      -4.0127      2.00000
      3       0.0099      2.00000
      4       1.5127      2.00000
      5       4.9629      0.00000
      6       6.9368      0.00000
      7       8.1287      0.00000
      8      10.3232      0.00000

 k-point   753 :      -0.3750    0.4250    0.3750
  band No.  band energies     occupation 
      1      -6.6207      2.00000
      2      -4.1711      2.00000
      3      -0.4238      2.00000
      4       1.2641      2.00000
      5       5.0197      0.00000
      6       7.4248      0.00000
      7       8.7422      0.00000
      8       9.8510      0.00000

 k-point   754 :       0.4750    0.4750    0.3750
  band No.  band energies     occupation 
      1      -7.1543      2.00000
      2      -3.8704      2.00000
      3       1.0837      2.00000
      4       1.7132      2.00000
      5       4.2625      0.00000
      6       6.7362      0.00000
      7       7.4599      0.00000
      8      10.2998      0.00000

 k-point   755 :      -0.4750    0.4750    0.3750
  band No.  band energies     occupation 
      1      -7.0143      2.00000
      2      -3.9797      2.00000
      3       0.6390      2.00000
      4       1.6065      2.00000
      5       4.6158      0.00000
      6       6.7106      0.00000
      7       7.7245      0.00000
      8      10.2610      0.00000

 k-point   756 :      -0.4250    0.4750    0.3750
  band No.  band energies     occupation 
      1      -6.8416      2.00000
      2      -4.0769      2.00000
      3       0.1511      2.00000
      4       1.4043      2.00000
      5       5.0662      0.00000
      6       6.6494      0.00000
      7       8.2110      0.00000
      8      10.2145      0.00000

 k-point   757 :      -0.3750    0.4750    0.3750
  band No.  band energies     occupation 
      1      -6.6394      2.00000
      2      -4.1838      2.00000
      3      -0.2630      2.00000
      4       1.1377      2.00000
      5       5.3882      0.00000
      6       6.7818      0.00000
      7       8.8107      0.00000
      8       9.9053      0.00000

 k-point   758 :      -0.4750   -0.4750    0.3750
  band No.  band energies     occupation 
      1      -6.9173      2.00000
      2      -4.0595      2.00000
      3       0.4149      2.00000
      4       1.5469      2.00000
      5       4.6792      0.00000
      6       6.8680      0.00000
      7       7.8469      0.00000
      8      10.1489      0.00000

 k-point   759 :      -0.4250   -0.4750    0.3750
  band No.  band energies     occupation 
      1      -6.7916      2.00000
      2      -4.1215      2.00000
      3       0.0651      2.00000
      4       1.4051      2.00000
      5       4.9327      0.00000
      6       6.9074      0.00000
      7       8.2243      0.00000
      8      10.0774      0.00000

 k-point   760 :      -0.4250   -0.4250    0.3750
  band No.  band energies     occupation 
      1      -6.7176      2.00000
      2      -4.1480      2.00000
      3      -0.1750      2.00000
      4       1.4133      2.00000
      5       4.8333      0.00000
      6       7.3465      0.00000
      7       8.2978      0.00000
      8       9.9721      0.00000

 k-point   761 :       0.4250    0.4250    0.4250
  band No.  band energies     occupation 
      1      -7.3353      2.00000
      2      -3.7360      2.00000
      3       1.9972      2.00000
      4       1.9972      2.00000
      5       3.3160      0.00000
      6       6.9777      0.00000
      7       6.9777      0.00000
      8      10.3861      0.00000

 k-point   762 :       0.4750    0.4250    0.4250
  band No.  band energies     occupation 
      1      -7.2332      2.00000
      2      -3.8640      2.00000
      3       1.5876      2.00000
      4       1.9825      2.00000
      5       3.6412      0.00000
      6       6.9732      0.00000
      7       7.0140      0.00000
      8      10.4619      0.00000

 k-point   763 :      -0.4750    0.4250    0.4250
  band No.  band energies     occupation 
      1      -7.0939      2.00000
      2      -3.9663      2.00000
      3       0.9451      2.00000
      4       1.8564      2.00000
      5       4.2151      0.00000
      6       6.8936      0.00000
      7       7.2714      0.00000
      8      10.6457      0.00000

 k-point   764 :      -0.4250    0.4250    0.4250
  band No.  band energies     occupation 
      1      -6.9210      2.00000
      2      -4.0531      2.00000
      3       0.3311      2.00000
      4       1.6537      2.00000
      5       4.6752      0.00000
      6       6.9511      0.00000
      7       7.7148      0.00000
      8      10.6185      0.00000

 k-point   765 :       0.4750    0.4750    0.4250
  band No.  band energies     occupation 
      1      -7.1713      2.00000
      2      -3.9649      2.00000
      3       1.6455      2.00000
      4       1.8833      2.00000
      5       3.6416      0.00000
      6       6.8739      0.00000
      7       7.1096      0.00000
      8      10.4431      0.00000

 k-point   766 :      -0.4750    0.4750    0.4250
  band No.  band energies     occupation 
      1      -7.0754      2.00000
      2      -4.0350      2.00000
      3       1.1593      2.00000
      4       1.8145      2.00000
      5       4.0731      0.00000
      6       6.8131      0.00000
      7       7.2777      0.00000
      8      10.5811      0.00000

 k-point   767 :      -0.4250    0.4750    0.4250
  band No.  band energies     occupation 
      1      -6.9482      2.00000
      2      -4.0805      2.00000
      3       0.5820      2.00000
      4       1.6428      2.00000
      5       4.5962      0.00000
      6       6.7483      0.00000
      7       7.6648      0.00000
      8      10.6298      0.00000

 k-point   768 :      -0.4750   -0.4750    0.4250
  band No.  band energies     occupation 
      1      -7.0262      2.00000
      2      -4.0721      2.00000
      3       0.9903      2.00000
      4       1.7633      2.00000
      5       4.2193      0.00000
      6       6.8079      0.00000
      7       7.3631      0.00000
      8      10.6044      0.00000

 k-point   769 :       0.4750    0.4750    0.4750
  band No.  band energies     occupation 
      1      -7.1541      2.00000
      2      -4.0347      2.00000
      3       1.9581      2.00000
      4       1.9581      2.00000
      5       3.2757      0.00000
      6       6.9682      0.00000
      7       6.9682      0.00000
      8      10.3461      0.00000

 k-point   770 :      -0.4750    0.4750    0.4750
  band No.  band energies     occupation 
      1      -7.1053      2.00000
      2      -4.0696      2.00000
      3       1.5945      2.00000
      4       1.9123      2.00000
      5       3.6215      0.00000
      6       6.9171      0.00000
      7       7.0570      0.00000
      8      10.4536      0.00000


--------------------------------------------------------------------------------------------------------


 soft charge-density along one line, spin component           1
         0         1         2         3         4         5         6         7         8         9
 total charge-density along one line
 
 pseudopotential strength for first ion, spin component:           1
 15.011   0.000   0.064   0.000  -0.000   0.000  -0.000   0.000  -0.000   0.000  -0.000   0.000  -0.000   0.000  -0.000   0.000
  0.064   0.000   0.039   0.000  -0.000   0.000  -0.000   0.000  -0.000   0.000  -0.000   0.000  -0.000   0.000  -0.000   0.000
 -0.000   0.000  -0.000   0.000   3.325   0.000   0.000   0.000   0.000   0.000  -0.009   0.000   0.000   0.000   0.000   0.000
 -0.000   0.000  -0.000   0.000   0.000   0.000   3.325   0.000   0.000   0.000   0.000   0.000  -0.009   0.000   0.000   0.000
 -0.000   0.000  -0.000   0.000   0.000   0.000   0.000   0.000   3.325   0.000   0.000   0.000   0.000   0.000  -0.009   0.000
 -0.000   0.000  -0.000   0.000  -0.009   0.000   0.000   0.000   0.000   0.000   0.036   0.000   0.000   0.000   0.000   0.000
 -0.000   0.000  -0.000   0.000   0.000   0.000  -0.009   0.000   0.000   0.000   0.000   0.000   0.036   0.000   0.000   0.000
 -0.000   0.000  -0.000   0.000   0.000   0.000   0.000   0.000  -0.009   0.000   0.000   0.000   0.000   0.000   0.036   0.000
  0.000   0.000  -0.000   0.000   0.000   0.000   0.001   0.000   0.000   0.000  -0.000   0.000  -0.000   0.000  -0.000   0.000
  0.000   0.000  -0.000   0.000   0.000   0.000   0.000   0.000   0.001   0.000  -0.000   0.000  -0.000   0.000  -0.000   0.000
 -0.000   0.000   0.000   0.000   0.000   0.000  -0.000   0.000   0.000   0.000   0.000   0.000  -0.000   0.000   0.000   0.000
  0.000   0.000  -0.000   0.000   0.001   0.000   0.000   0.000   0.000   0.000  -0.000   0.000  -0.000   0.000  -0.000   0.000
  0.000   0.000  -0.000   0.000   0.000   0.000  -0.000   0.000  -0.000   0.000   0.000   0.000   0.000   0.000  -0.000   0.000
 total augmentation occupancy for first ion, spin component:           1
  2.000   0.000   0.000   0.000   0.000   0.000   0.000   0.000   0.000   0.000   0.000   0.000   0.000
  0.000   0.000   0.000   0.000   0.000   0.000   0.000   0.000   0.000   0.000   0.000   0.000   0.000
  0.000   0.000   0.667   0.000   0.000   0.000   0.000   0.000   0.000   0.000   0.000   0.000   0.000
  0.000   0.000   0.000   0.667   0.000   0.000   0.000   0.000   0.000   0.000   0.000   0.000   0.000
  0.000   0.000   0.000   0.000   0.667   0.000   0.000   0.000   0.000   0.000   0.000   0.000   0.000
  0.000   0.000   0.000   0.000   0.000   0.000   0.000   0.000   0.000   0.000   0.000   0.000   0.000
  0.000   0.000   0.000   0.000   0.000   0.000   0.000   0.000   0.000   0.000   0.000   0.000   0.000
  0.000   0.000   0.000   0.000   0.000   0.000   0.000   0.000   0.000   0.000   0.000   0.000   0.000
  0.000   0.000   0.000   0.000   0.000   0.000   0.000   0.000   0.000   0.000   0.000   0.000   0.000
  0.000   0.000   0.000   0.000   0.000   0.000   0.000   0.000   0.000   0.000   0.000   0.000   0.000
  0.000   0.000   0.000   0.000   0.000   0.000   0.000   0.000   0.000   0.000   0.000   0.000   0.000
  0.000   0.000   0.000   0.000   0.000   0.000   0.000   0.000   0.000   0.000   0.000   0.000   0.000
  0.000   0.000   0.000   0.000   0.000   0.000   0.000   0.000   0.000   0.000   0.000   0.000   0.000


------------------------ aborting loop because EDIFF is reached ----------------------------------------


 


 total charge     
 
# of ion       s       p       d       tot
------------------------------------------
    1        1.140   1.219   0.054   2.413
    2        1.140   1.219   0.054   2.413
--------------------------------------------------
tot          2.280   2.438   0.108   4.826
 
    CHARGE:  cpu time    0.0590: real time    0.0592
    FORLOC:  cpu time    0.0010: real time    0.0010
    FORNL :  cpu time    0.3393: real time    0.3401
    STRESS:  cpu time    0.7842: real time    0.7861
    FORCOR:  cpu time    0.0144: real time    0.0144
    FORHAR:  cpu time    0.0034: real time    0.0034
    OFIELD:  cpu time    0.0001: real time    0.0001

  FORCE on cell =-STRESS in cart. coord.  units (eV):
  Direction    XX          YY          ZZ          XY          YZ          ZX
  --------------------------------------------------------------------------------------
  Alpha Z    15.39049    15.39049    15.39049
  Ewald     -71.68733   -71.68733   -71.68733     0.00000     0.00000     0.00000
  Hartree     5.50259     5.50259     5.50259     0.00000     0.00000     0.00000
  E(xc)     -27.36786   -27.36786   -27.36786     0.00001     0.00001     0.00001
  Local     -23.84199   -23.84199   -23.84199     0.00024     0.00024     0.00024
  n-local    40.34582    41.82344    38.76229     0.55511    -0.56264     0.00396
  augment     1.83164     1.83164     1.83164    -0.00017    -0.00017    -0.00017
  Kinetic    61.31919    61.59127    57.03776     1.25281    -1.26662     0.00985
  Fock        0.00000     0.00000     0.00000     0.00000     0.00000     0.00000
  -------------------------------------------------------------------------------------
  Total       0.12078     0.12078     0.12078     0.00000     0.00000     0.00000
  in kB       4.02761     4.02761     4.02761     0.00000     0.00000     0.00000
  external pressure =        4.03 kB  Pullay stress =        0.00 kB


 VOLUME and BASIS-vectors are now :
 -----------------------------------------------------------------------------
  energy-cutoff  :      173.84
  volume of cell :       48.05
      direct lattice vectors                 reciprocal lattice vectors
     0.000000000  2.885448129  2.885448129    -0.173283309  0.173283309  0.173283309
     2.885448129  0.000000000  2.885448129     0.173283309 -0.173283309  0.173283309
     2.885448129  2.885448129  0.000000000     0.173283309  0.173283309 -0.173283309

  length of vectors
     4.080639877  4.080639877  4.080639877     0.300135495  0.300135495  0.300135495


 FORCES acting on ions
    electron-ion (+dipol)            ewald-force                    non-local-force                 convergence-correction
 -----------------------------------------------------------------------------------------------
   -.498E-06 -.498E-06 -.498E-06   0.366E-15 -.691E-15 -.266E-15   -.243E-16 -.260E-16 -.259E-16   0.311E-08 0.311E-08 0.311E-08
   0.498E-06 0.498E-06 0.498E-06   -.348E-15 0.589E-15 0.119E-15   0.260E-16 0.260E-16 0.266E-16   -.311E-08 -.311E-08 -.311E-08
 -----------------------------------------------------------------------------------------------
   -.331E-14 0.814E-14 0.125E-13   0.181E-16 -.102E-15 -.147E-15   0.173E-17 0.000E+00 0.718E-18   -.201E-15 -.160E-15 -.151E-15
 
 
 POSITION                                       TOTAL-FORCE (eV/Angst)
 -----------------------------------------------------------------------------------
      0.00000      0.00000      0.00000         0.000000      0.000000      0.000000
      1.44272      1.44272      1.44272        -0.000000     -0.000000     -0.000000
 -----------------------------------------------------------------------------------
    total drift:                               -0.000000      0.000000      0.000000


--------------------------------------------------------------------------------------------------------



  FREE ENERGIE OF THE ION-ELECTRON SYSTEM (eV)
  ---------------------------------------------------
  free  energy   TOTEN  =        -9.03350552 eV

  energy  without entropy=       -9.03350552  energy(sigma->0) =       -9.03350552
 


--------------------------------------------------------------------------------------------------------


    POTLOK:  cpu time    0.0175: real time    0.0175


--------------------------------------------------------------------------------------------------------


     LOOP+:  cpu time   10.3636: real time   10.6658
    4ORBIT:  cpu time    0.0000: real time    0.0000
 


 total charge     
 
# of ion       s       p       d       tot
------------------------------------------
    1        1.140   1.219   0.054   2.413
    2        1.140   1.219   0.054   2.413
--------------------------------------------------
tot          2.280   2.438   0.108   4.826
 
 BZINTS: Fermi energy:  3.266331;  8.000000 electrons
         Band energy: -17.505194;  BLOECHL correction:  0.000000

 total amount of memory used by VASP MPI-rank0    83256. kBytes
=======================================================================

   base      :      30000. kBytes
   nonl-proj :      21229. kBytes
   fftplans  :       1488. kBytes
   grid      :       1843. kBytes
   one-center:         16. kBytes
   wavefun   :      28680. kBytes
 
  
  
 General timing and accounting informations for this job:
 ========================================================
  
                  Total CPU time used (sec):       27.812
                            User time (sec):       26.374
                          System time (sec):        1.438
                         Elapsed time (sec):       28.364
  
                   Maximum memory used (kb):      112996.
                   Average memory used (kb):           0.
  
                          Minor page faults:        11799
                          Major page faults:            0
                 Voluntary context switches:          477
