   1   1   1   0
  0.1181995E+02  0.2485493E-09  0.2485493E-09  0.2485493E-09  0.5000000E-15
  1.000000000000000E-004
  CAR 
 bcc Fe                                  
     43.95286472     -4.94018788  301      5.36594045      1.00000000
     -4.940  0.0000E+00  0.0000E+00  0.0000E+00  0.0000E+00
     -4.777  0.0000E+00  0.0000E+00  0.0000E+00  0.0000E+00
     -4.614  0.0000E+00  0.0000E+00  0.0000E+00  0.0000E+00
     -4.451  0.0000E+00  0.0000E+00  0.0000E+00  0.0000E+00
     -4.288  0.0000E+00  0.0000E+00  0.0000E+00  0.0000E+00
     -4.125  0.0000E+00  0.0000E+00  0.0000E+00  0.0000E+00
     -3.962  0.0000E+00  0.0000E+00  0.0000E+00  0.0000E+00
     -3.799  0.0000E+00  0.0000E+00  0.0000E+00  0.0000E+00
     -3.636  0.0000E+00  0.0000E+00  0.0000E+00  0.0000E+00
     -3.473  0.0000E+00  0.0000E+00  0.0000E+00  0.0000E+00
     -3.310  0.0000E+00  0.0000E+00  0.0000E+00  0.0000E+00
     -3.147  0.0000E+00  0.0000E+00  0.0000E+00  0.0000E+00
     -2.984  0.0000E+00  0.0000E+00  0.0000E+00  0.0000E+00
     -2.821  0.0000E+00  0.0000E+00  0.0000E+00  0.0000E+00
     -2.659  0.8631E-02  0.0000E+00  0.4184E-03  0.0000E+00
     -2.496  0.1630E-01  0.4099E-02  0.2639E-02  0.5663E-04
     -2.333  0.2344E-01  0.1585E-01  0.5858E-02  0.1721E-02
     -2.170  0.2704E-01  0.2056E-01  0.1000E-01  0.4585E-02
     -2.007  0.3216E-01  0.2586E-01  0.1479E-01  0.8428E-02
     -1.844  0.3597E-01  0.2948E-01  0.2040E-01  0.1288E-01
     -1.681  0.3992E-01  0.3423E-01  0.2658E-01  0.1813E-01
     -1.518  0.4458E-01  0.3731E-01  0.3346E-01  0.2394E-01
     -1.355  0.4859E-01  0.4119E-01  0.4107E-01  0.3033E-01
     -1.192  0.5252E-01  0.4528E-01  0.4930E-01  0.3739E-01
     -1.029  0.5755E-01  0.4835E-01  0.5827E-01  0.4502E-01
     -0.866  0.6253E-01  0.5209E-01  0.6806E-01  0.5318E-01
     -0.703  0.6799E-01  0.5604E-01  0.7868E-01  0.6199E-01
     -0.540  0.7376E-01  0.5974E-01  0.9023E-01  0.7143E-01
     -0.377  0.8120E-01  0.6370E-01  0.1028E+00  0.8149E-01
     -0.214  0.8929E-01  0.6765E-01  0.1167E+00  0.9219E-01
     -0.051  0.9978E-01  0.7240E-01  0.1321E+00  0.1036E+00
      0.112  0.1124E+00  0.7711E-01  0.1494E+00  0.1158E+00
      0.275  0.1307E+00  0.8212E-01  0.1691E+00  0.1287E+00
      0.438  0.1559E+00  0.8788E-01  0.1923E+00  0.1426E+00
      0.601  0.2104E+00  0.9386E-01  0.2214E+00  0.1574E+00
      0.764  0.4527E+00  0.1013E+00  0.2707E+00  0.1733E+00
      0.927  0.4813E+00  0.1092E+00  0.3473E+00  0.1905E+00
      1.090  0.6214E+00  0.1191E+00  0.4390E+00  0.2090E+00
      1.253  0.7217E+00  0.1305E+00  0.5485E+00  0.2293E+00
      1.416  0.9325E+00  0.1450E+00  0.6801E+00  0.2517E+00
      1.579  0.9041E+00  0.1625E+00  0.8606E+00  0.2767E+00
      1.742  0.7257E+00  0.1907E+00  0.9850E+00  0.3054E+00
      1.905  0.4062E+00  0.2340E+00  0.1071E+01  0.3397E+00
      2.068  0.7377E+00  0.3583E+00  0.1132E+01  0.3849E+00
      2.231  0.2023E+01  0.3640E+00  0.1383E+01  0.4440E+00
      2.394  0.1168E+01  0.3719E+00  0.1636E+01  0.5045E+00
      2.557  0.1135E+01  0.3818E+00  0.1820E+01  0.5658E+00
      2.720  0.1048E+01  0.4896E+00  0.1998E+01  0.6355E+00
      2.883  0.1441E+01  0.6762E+00  0.2196E+01  0.7290E+00
      3.046  0.1708E+01  0.6941E+00  0.2489E+01  0.8414E+00
      3.209  0.6217E+00  0.4915E+00  0.2666E+01  0.9404E+00
      3.372  0.4848E+00  0.4173E+00  0.2754E+01  0.1013E+01
      3.535  0.4396E+00  0.2942E+00  0.2828E+01  0.1071E+01
      3.698  0.4731E+00  0.2341E+00  0.2902E+01  0.1114E+01
      3.861  0.5947E+00  0.1091E+01  0.2987E+01  0.1215E+01
      4.024  0.9078E+00  0.1410E+01  0.3106E+01  0.1432E+01
      4.187  0.1466E+01  0.1319E+01  0.3308E+01  0.1654E+01
      4.349  0.2076E+01  0.1246E+01  0.3606E+01  0.1863E+01
      4.512  0.2287E+01  0.1057E+01  0.3940E+01  0.2050E+01
      4.675  0.2661E+01  0.1399E+01  0.4308E+01  0.2239E+01
      4.838  0.1289E+01  0.1298E+01  0.4634E+01  0.2466E+01
      5.001  0.9689E+00  0.9231E+00  0.4809E+01  0.2637E+01
      5.164  0.9235E+00  0.8025E+00  0.4960E+01  0.2777E+01
      5.327  0.9152E+00  0.2999E+00  0.5108E+01  0.2846E+01
      5.490  0.4482E+00  0.2470E+00  0.5227E+01  0.2890E+01
      5.653  0.1592E+00  0.2761E+00  0.5271E+01  0.2929E+01
      5.816  0.1546E+00  0.2975E+00  0.5296E+01  0.2974E+01
      5.979  0.1526E+00  0.3367E+00  0.5321E+01  0.3025E+01
      6.142  0.1547E+00  0.4938E+00  0.5347E+01  0.3091E+01
      6.305  0.1546E+00  0.8073E+00  0.5372E+01  0.3200E+01
      6.468  0.1534E+00  0.9844E+00  0.5397E+01  0.3343E+01
      6.631  0.1531E+00  0.1264E+01  0.5422E+01  0.3524E+01
      6.794  0.1512E+00  0.1546E+01  0.5447E+01  0.3759E+01
      6.957  0.1470E+00  0.1260E+01  0.5471E+01  0.4005E+01
      7.120  0.1455E+00  0.1568E+01  0.5495E+01  0.4249E+01
      7.283  0.1438E+00  0.2291E+01  0.5518E+01  0.4679E+01
      7.446  0.1419E+00  0.1110E+01  0.5542E+01  0.4918E+01
      7.609  0.1403E+00  0.8609E+00  0.5565E+01  0.5077E+01
      7.772  0.1378E+00  0.7338E+00  0.5587E+01  0.5215E+01
      7.935  0.1338E+00  0.3436E+00  0.5609E+01  0.5299E+01
      8.098  0.1308E+00  0.2508E+00  0.5631E+01  0.5342E+01
      8.261  0.1280E+00  0.2288E+00  0.5652E+01  0.5381E+01
      8.424  0.1254E+00  0.2131E+00  0.5673E+01  0.5417E+01
      8.587  0.1226E+00  0.2044E+00  0.5693E+01  0.5451E+01
      8.750  0.1194E+00  0.1957E+00  0.5713E+01  0.5484E+01
      8.913  0.1167E+00  0.1855E+00  0.5732E+01  0.5515E+01
      9.076  0.1124E+00  0.1795E+00  0.5750E+01  0.5544E+01
      9.239  0.1080E+00  0.1738E+00  0.5768E+01  0.5573E+01
      9.402  0.1042E+00  0.1682E+00  0.5786E+01  0.5601E+01
      9.565  0.1014E+00  0.1606E+00  0.5802E+01  0.5628E+01
      9.728  0.9750E-01  0.1543E+00  0.5819E+01  0.5653E+01
      9.891  0.9385E-01  0.1485E+00  0.5834E+01  0.5678E+01
     10.054  0.9078E-01  0.1433E+00  0.5849E+01  0.5702E+01
     10.217  0.8543E-01  0.1382E+00  0.5864E+01  0.5725E+01
     10.380  0.8122E-01  0.1331E+00  0.5877E+01  0.5747E+01
     10.543  0.7654E-01  0.1257E+00  0.5890E+01  0.5768E+01
     10.706  0.7282E-01  0.1203E+00  0.5902E+01  0.5788E+01
     10.869  0.6867E-01  0.1151E+00  0.5914E+01  0.5807E+01
     11.032  0.6408E-01  0.1097E+00  0.5925E+01  0.5825E+01
     11.195  0.5891E-01  0.1046E+00  0.5935E+01  0.5843E+01
     11.357  0.5062E-01  0.9908E-01  0.5944E+01  0.5860E+01
     11.520  0.4767E-01  0.9294E-01  0.5952E+01  0.5875E+01
     11.683  0.3795E-01  0.8747E-01  0.5959E+01  0.5890E+01
     11.846  0.3239E-01  0.8201E-01  0.5965E+01  0.5904E+01
     12.009  0.2779E-01  0.7629E-01  0.5970E+01  0.5917E+01
     12.172  0.2525E-01  0.7026E-01  0.5974E+01  0.5929E+01
     12.335  0.2190E-01  0.6512E-01  0.5978E+01  0.5940E+01
     12.498  0.5548E-01  0.5446E-01  0.5983E+01  0.5949E+01
     12.661  0.1669E+00  0.5068E-01  0.6003E+01  0.5958E+01
     12.824  0.2394E+00  0.3815E-01  0.6037E+01  0.5966E+01
     12.987  0.2445E+00  0.3276E-01  0.6077E+01  0.5971E+01
     13.150  0.2372E+00  0.2735E-01  0.6118E+01  0.5976E+01
     13.313  0.2215E+00  0.2256E-01  0.6155E+01  0.5980E+01
     13.476  0.2088E+00  0.2288E-01  0.6190E+01  0.5984E+01
     13.639  0.1948E+00  0.2501E-01  0.6223E+01  0.5988E+01
     13.802  0.1801E+00  0.3619E-01  0.6254E+01  0.5993E+01
     13.965  0.1737E+00  0.2361E+00  0.6284E+01  0.6008E+01
     14.128  0.1644E+00  0.3308E+00  0.6311E+01  0.6060E+01
     14.291  0.1575E+00  0.3037E+00  0.6337E+01  0.6112E+01
     14.454  0.1582E+00  0.2657E+00  0.6363E+01  0.6159E+01
     14.617  0.1535E+00  0.2367E+00  0.6388E+01  0.6200E+01
     14.780  0.2192E+00  0.2161E+00  0.6415E+01  0.6238E+01
     14.943  0.1901E+00  0.2013E+00  0.6446E+01  0.6272E+01
     15.106  0.1985E+00  0.1951E+00  0.6478E+01  0.6304E+01
     15.269  0.1972E+00  0.1795E+00  0.6510E+01  0.6335E+01
     15.432  0.2065E+00  0.1727E+00  0.6543E+01  0.6364E+01
     15.595  0.2013E+00  0.1698E+00  0.6576E+01  0.6392E+01
     15.758  0.1967E+00  0.2061E+00  0.6608E+01  0.6424E+01
     15.921  0.1929E+00  0.2222E+00  0.6640E+01  0.6459E+01
     16.084  0.1930E+00  0.2171E+00  0.6672E+01  0.6495E+01
     16.247  0.1932E+00  0.2136E+00  0.6703E+01  0.6530E+01
     16.410  0.1899E+00  0.2112E+00  0.6734E+01  0.6565E+01
     16.573  0.1897E+00  0.2078E+00  0.6765E+01  0.6599E+01
     16.736  0.1891E+00  0.2047E+00  0.6796E+01  0.6632E+01
     16.899  0.1882E+00  0.2048E+00  0.6827E+01  0.6666E+01
     17.062  0.1870E+00  0.2024E+00  0.6857E+01  0.6699E+01
     17.225  0.1878E+00  0.1991E+00  0.6888E+01  0.6732E+01
     17.388  0.1879E+00  0.1984E+00  0.6919E+01  0.6764E+01
     17.551  0.1861E+00  0.1976E+00  0.6949E+01  0.6796E+01
     17.714  0.1848E+00  0.1969E+00  0.6979E+01  0.6829E+01
     17.877  0.1827E+00  0.1961E+00  0.7009E+01  0.6861E+01
     18.040  0.1810E+00  0.1958E+00  0.7039E+01  0.6893E+01
     18.203  0.1798E+00  0.1955E+00  0.7068E+01  0.6925E+01
     18.366  0.1792E+00  0.1939E+00  0.7098E+01  0.6956E+01
     18.528  0.1782E+00  0.1924E+00  0.7127E+01  0.6988E+01
     18.691  0.1769E+00  0.1903E+00  0.7156E+01  0.7019E+01
     18.854  0.1747E+00  0.1883E+00  0.7185E+01  0.7050E+01
     19.017  0.1739E+00  0.1879E+00  0.7213E+01  0.7081E+01
     19.180  0.1732E+00  0.1864E+00  0.7241E+01  0.7111E+01
     19.343  0.1739E+00  0.1855E+00  0.7270E+01  0.7141E+01
     19.506  0.1742E+00  0.1840E+00  0.7298E+01  0.7172E+01
     19.669  0.1728E+00  0.1823E+00  0.7326E+01  0.7201E+01
     19.832  0.1711E+00  0.1818E+00  0.7354E+01  0.7231E+01
     19.995  0.1701E+00  0.1818E+00  0.7382E+01  0.7261E+01
     20.158  0.1689E+00  0.1833E+00  0.7410E+01  0.7290E+01
     20.321  0.1680E+00  0.1813E+00  0.7437E+01  0.7320E+01
     20.484  0.1669E+00  0.1792E+00  0.7465E+01  0.7349E+01
     20.647  0.1671E+00  0.1784E+00  0.7492E+01  0.7379E+01
     20.810  0.1648E+00  0.1772E+00  0.7519E+01  0.7408E+01
     20.973  0.1699E+00  0.1762E+00  0.7546E+01  0.7436E+01
     21.136  0.1788E+00  0.1753E+00  0.7574E+01  0.7465E+01
     21.299  0.1869E+00  0.1758E+00  0.7604E+01  0.7494E+01
     21.462  0.1912E+00  0.1737E+00  0.7635E+01  0.7522E+01
     21.625  0.1954E+00  0.1723E+00  0.7666E+01  0.7550E+01
     21.788  0.2025E+00  0.1752E+00  0.7699E+01  0.7578E+01
     21.951  0.2084E+00  0.1899E+00  0.7732E+01  0.7608E+01
     22.114  0.2137E+00  0.2008E+00  0.7767E+01  0.7640E+01
     22.277  0.2199E+00  0.2080E+00  0.7802E+01  0.7673E+01
     22.440  0.2300E+00  0.2180E+00  0.7839E+01  0.7708E+01
     22.603  0.2309E+00  0.2252E+00  0.7877E+01  0.7744E+01
     22.766  0.2387E+00  0.2353E+00  0.7915E+01  0.7782E+01
     22.929  0.2473E+00  0.2501E+00  0.7955E+01  0.7821E+01
     23.092  0.2537E+00  0.2629E+00  0.7996E+01  0.7863E+01
     23.255  0.2638E+00  0.2700E+00  0.8038E+01  0.7906E+01
     23.418  0.2612E+00  0.2787E+00  0.8081E+01  0.7951E+01
     23.581  0.2562E+00  0.2729E+00  0.8123E+01  0.7996E+01
     23.744  0.2551E+00  0.2631E+00  0.8165E+01  0.8039E+01
     23.907  0.2588E+00  0.2576E+00  0.8207E+01  0.8082E+01
     24.070  0.2640E+00  0.2600E+00  0.8249E+01  0.8124E+01
     24.233  0.2727E+00  0.2574E+00  0.8293E+01  0.8166E+01
     24.396  0.2827E+00  0.2579E+00  0.8338E+01  0.8208E+01
     24.559  0.2954E+00  0.2647E+00  0.8385E+01  0.8251E+01
     24.722  0.3023E+00  0.2762E+00  0.8434E+01  0.8295E+01
     24.885  0.2792E+00  0.2852E+00  0.8481E+01  0.8341E+01
     25.048  0.2754E+00  0.2958E+00  0.8526E+01  0.8388E+01
     25.211  0.2613E+00  0.2947E+00  0.8570E+01  0.8436E+01
     25.374  0.2537E+00  0.2926E+00  0.8612E+01  0.8484E+01
     25.536  0.2456E+00  0.2773E+00  0.8653E+01  0.8531E+01
     25.699  0.2371E+00  0.2667E+00  0.8692E+01  0.8575E+01
     25.862  0.2286E+00  0.2570E+00  0.8730E+01  0.8618E+01
     26.025  0.2197E+00  0.2451E+00  0.8766E+01  0.8659E+01
     26.188  0.2135E+00  0.2375E+00  0.8802E+01  0.8698E+01
     26.351  0.2077E+00  0.2300E+00  0.8836E+01  0.8736E+01
     26.514  0.2007E+00  0.2228E+00  0.8869E+01  0.8773E+01
     26.677  0.1952E+00  0.2157E+00  0.8902E+01  0.8809E+01
     26.840  0.1845E+00  0.2078E+00  0.8933E+01  0.8843E+01
     27.003  0.1714E+00  0.2022E+00  0.8962E+01  0.8877E+01
     27.166  0.1574E+00  0.1941E+00  0.8989E+01  0.8909E+01
     27.329  0.1469E+00  0.1836E+00  0.9013E+01  0.8940E+01
     27.492  0.1371E+00  0.1723E+00  0.9037E+01  0.8969E+01
     27.655  0.1267E+00  0.1620E+00  0.9058E+01  0.8996E+01
     27.818  0.1222E+00  0.1494E+00  0.9078E+01  0.9021E+01
     27.981  0.1204E+00  0.1337E+00  0.9098E+01  0.9044E+01
     28.144  0.1201E+00  0.1286E+00  0.9117E+01  0.9065E+01
     28.307  0.1186E+00  0.1243E+00  0.9137E+01  0.9086E+01
     28.470  0.1208E+00  0.1256E+00  0.9156E+01  0.9106E+01
     28.633  0.1290E+00  0.1264E+00  0.9176E+01  0.9127E+01
     28.796  0.1525E+00  0.1300E+00  0.9199E+01  0.9148E+01
     28.959  0.1642E+00  0.1292E+00  0.9225E+01  0.9169E+01
     29.122  0.1789E+00  0.1291E+00  0.9253E+01  0.9190E+01
     29.285  0.1957E+00  0.1421E+00  0.9283E+01  0.9211E+01
     29.448  0.2247E+00  0.1743E+00  0.9317E+01  0.9238E+01
     29.611  0.2667E+00  0.1993E+00  0.9357E+01  0.9268E+01
     29.774  0.3311E+00  0.2280E+00  0.9406E+01  0.9303E+01
     29.937  0.3620E+00  0.2520E+00  0.9463E+01  0.9343E+01
     30.100  0.3185E+00  0.2807E+00  0.9520E+01  0.9386E+01
     30.263  0.2625E+00  0.3298E+00  0.9567E+01  0.9437E+01
     30.426  0.2252E+00  0.3324E+00  0.9607E+01  0.9491E+01
     30.589  0.1876E+00  0.2999E+00  0.9640E+01  0.9543E+01
     30.752  0.1773E+00  0.2674E+00  0.9670E+01  0.9589E+01
     30.915  0.1557E+00  0.2435E+00  0.9697E+01  0.9630E+01
     31.078  0.1375E+00  0.1909E+00  0.9721E+01  0.9664E+01
     31.241  0.1219E+00  0.1647E+00  0.9742E+01  0.9693E+01
     31.404  0.1084E+00  0.1451E+00  0.9761E+01  0.9718E+01
     31.567  0.9034E-01  0.1272E+00  0.9777E+01  0.9740E+01
     31.730  0.7566E-01  0.1136E+00  0.9790E+01  0.9760E+01
     31.893  0.7024E-01  0.1026E+00  0.9802E+01  0.9778E+01
     32.056  0.6649E-01  0.9112E-01  0.9813E+01  0.9793E+01
     32.219  0.6301E-01  0.7774E-01  0.9824E+01  0.9807E+01
     32.382  0.5988E-01  0.6812E-01  0.9834E+01  0.9819E+01
     32.544  0.5781E-01  0.6418E-01  0.9843E+01  0.9830E+01
     32.707  0.5605E-01  0.6031E-01  0.9853E+01  0.9840E+01
     32.870  0.5200E-01  0.5741E-01  0.9862E+01  0.9850E+01
     33.033  0.4879E-01  0.5446E-01  0.9870E+01  0.9859E+01
     33.196  0.4577E-01  0.5183E-01  0.9877E+01  0.9867E+01
     33.359  0.4295E-01  0.5039E-01  0.9885E+01  0.9876E+01
     33.522  0.4063E-01  0.4961E-01  0.9891E+01  0.9884E+01
     33.685  0.3909E-01  0.4731E-01  0.9898E+01  0.9892E+01
     33.848  0.3716E-01  0.4132E-01  0.9904E+01  0.9899E+01
     34.011  0.3515E-01  0.3811E-01  0.9910E+01  0.9905E+01
     34.174  0.3318E-01  0.3613E-01  0.9916E+01  0.9911E+01
     34.337  0.3134E-01  0.3409E-01  0.9921E+01  0.9917E+01
     34.500  0.2795E-01  0.3217E-01  0.9926E+01  0.9923E+01
     34.663  0.2667E-01  0.3035E-01  0.9930E+01  0.9928E+01
     34.826  0.2539E-01  0.2815E-01  0.9935E+01  0.9932E+01
     34.989  0.2419E-01  0.2602E-01  0.9939E+01  0.9937E+01
     35.152  0.2304E-01  0.2433E-01  0.9943E+01  0.9941E+01
     35.315  0.2217E-01  0.2313E-01  0.9946E+01  0.9945E+01
     35.478  0.2108E-01  0.2197E-01  0.9950E+01  0.9949E+01
     35.641  0.2003E-01  0.2085E-01  0.9953E+01  0.9952E+01
     35.804  0.1877E-01  0.1967E-01  0.9956E+01  0.9955E+01
     35.967  0.1779E-01  0.1855E-01  0.9959E+01  0.9958E+01
     36.130  0.1684E-01  0.1752E-01  0.9962E+01  0.9961E+01
     36.293  0.1593E-01  0.1652E-01  0.9965E+01  0.9964E+01
     36.456  0.1504E-01  0.1556E-01  0.9967E+01  0.9967E+01
     36.619  0.1419E-01  0.1468E-01  0.9970E+01  0.9969E+01
     36.782  0.1354E-01  0.1402E-01  0.9972E+01  0.9972E+01
     36.945  0.1298E-01  0.1338E-01  0.9974E+01  0.9974E+01
     37.108  0.1225E-01  0.1264E-01  0.9976E+01  0.9976E+01
     37.271  0.1147E-01  0.1178E-01  0.9978E+01  0.9978E+01
     37.434  0.1068E-01  0.1093E-01  0.9980E+01  0.9980E+01
     37.597  0.9966E-02  0.1027E-01  0.9982E+01  0.9981E+01
     37.760  0.9342E-02  0.9618E-02  0.9983E+01  0.9983E+01
     37.923  0.8734E-02  0.8967E-02  0.9985E+01  0.9985E+01
     38.086  0.8219E-02  0.8409E-02  0.9986E+01  0.9986E+01
     38.249  0.7677E-02  0.7826E-02  0.9987E+01  0.9987E+01
     38.412  0.7161E-02  0.7274E-02  0.9988E+01  0.9989E+01
     38.575  0.6669E-02  0.6753E-02  0.9990E+01  0.9990E+01
     38.738  0.6204E-02  0.6262E-02  0.9991E+01  0.9991E+01
     38.901  0.5764E-02  0.6050E-02  0.9992E+01  0.9992E+01
     39.064  0.5645E-02  0.5561E-02  0.9993E+01  0.9993E+01
     39.227  0.5166E-02  0.5096E-02  0.9993E+01  0.9994E+01
     39.390  0.4711E-02  0.4654E-02  0.9994E+01  0.9994E+01
     39.552  0.3923E-02  0.3961E-02  0.9995E+01  0.9995E+01
     39.715  0.3649E-02  0.3678E-02  0.9996E+01  0.9996E+01
     39.878  0.3378E-02  0.3398E-02  0.9996E+01  0.9996E+01
     40.041  0.3109E-02  0.3120E-02  0.9997E+01  0.9997E+01
     40.204  0.2843E-02  0.2844E-02  0.9997E+01  0.9997E+01
     40.367  0.2579E-02  0.2570E-02  0.9998E+01  0.9998E+01
     40.530  0.2318E-02  0.2298E-02  0.9998E+01  0.9998E+01
     40.693  0.2062E-02  0.2030E-02  0.9998E+01  0.9998E+01
     40.856  0.1855E-02  0.1836E-02  0.9999E+01  0.9999E+01
     41.019  0.1715E-02  0.1741E-02  0.9999E+01  0.9999E+01
     41.182  0.1622E-02  0.1612E-02  0.9999E+01  0.9999E+01
     41.345  0.1473E-02  0.1412E-02  0.9999E+01  0.1000E+02
     41.508  0.1255E-02  0.1143E-02  0.1000E+02  0.1000E+02
     41.671  0.9655E-03  0.0000E+00  0.1000E+02  0.1000E+02
     41.834  0.0000E+00  0.0000E+00  0.1000E+02  0.1000E+02
     41.997  0.0000E+00  0.0000E+00  0.1000E+02  0.1000E+02
     42.160  0.0000E+00  0.0000E+00  0.1000E+02  0.1000E+02
     42.323  0.0000E+00  0.0000E+00  0.1000E+02  0.1000E+02
     42.486  0.0000E+00  0.0000E+00  0.1000E+02  0.1000E+02
     42.649  0.0000E+00  0.0000E+00  0.1000E+02  0.1000E+02
     42.812  0.0000E+00  0.0000E+00  0.1000E+02  0.1000E+02
     42.975  0.0000E+00  0.0000E+00  0.1000E+02  0.1000E+02
     43.138  0.0000E+00  0.0000E+00  0.1000E+02  0.1000E+02
     43.301  0.0000E+00  0.0000E+00  0.1000E+02  0.1000E+02
     43.464  0.0000E+00  0.0000E+00  0.1000E+02  0.1000E+02
     43.627  0.0000E+00  0.0000E+00  0.1000E+02  0.1000E+02
     43.790  0.0000E+00  0.0000E+00  0.1000E+02  0.1000E+02
     43.953  0.0000E+00  0.0000E+00  0.1000E+02  0.1000E+02
     43.95286472     -4.94018788  301      5.36594045      1.00000000
     -4.940  0.0000E+00  0.0000E+00  0.0000E+00  0.0000E+00  0.0000E+00  0.0000E+00
     -4.777  0.0000E+00  0.0000E+00  0.0000E+00  0.0000E+00  0.0000E+00  0.0000E+00
     -4.614  0.0000E+00  0.0000E+00  0.0000E+00  0.0000E+00  0.0000E+00  0.0000E+00
     -4.451  0.0000E+00  0.0000E+00  0.0000E+00  0.0000E+00  0.0000E+00  0.0000E+00
     -4.288  0.0000E+00  0.0000E+00  0.0000E+00  0.0000E+00  0.0000E+00  0.0000E+00
     -4.125  0.0000E+00  0.0000E+00  0.0000E+00  0.0000E+00  0.0000E+00  0.0000E+00
     -3.962  0.0000E+00  0.0000E+00  0.0000E+00  0.0000E+00  0.0000E+00  0.0000E+00
     -3.799  0.0000E+00  0.0000E+00  0.0000E+00  0.0000E+00  0.0000E+00  0.0000E+00
     -3.636  0.0000E+00  0.0000E+00  0.0000E+00  0.0000E+00  0.0000E+00  0.0000E+00
     -3.473  0.0000E+00  0.0000E+00  0.0000E+00  0.0000E+00  0.0000E+00  0.0000E+00
     -3.310  0.0000E+00  0.0000E+00  0.0000E+00  0.0000E+00  0.0000E+00  0.0000E+00
     -3.147  0.0000E+00  0.0000E+00  0.0000E+00  0.0000E+00  0.0000E+00  0.0000E+00
     -2.984  0.0000E+00  0.0000E+00  0.0000E+00  0.0000E+00  0.0000E+00  0.0000E+00
     -2.821  0.0000E+00  0.0000E+00  0.0000E+00  0.0000E+00  0.0000E+00  0.0000E+00
     -2.659  0.5970E-02  0.0000E+00  0.8012E-04  0.0000E+00  0.1667E-05  0.0000E+00
     -2.496  0.1108E-01  0.2840E-02  0.3414E-03  0.2495E-04  0.1434E-04  0.2430E-06
     -2.333  0.1572E-01  0.1083E-01  0.6913E-03  0.2450E-03  0.4036E-04  0.5293E-05
     -2.170  0.1776E-01  0.1381E-01  0.1136E-02  0.5523E-03  0.9833E-04  0.1984E-04
     -2.007  0.2078E-01  0.1706E-01  0.1643E-02  0.9798E-03  0.1799E-03  0.4952E-04
     -1.844  0.2278E-01  0.1911E-01  0.2224E-02  0.1426E-02  0.3095E-03  0.9420E-04
     -1.681  0.2474E-01  0.2182E-01  0.2887E-02  0.1983E-02  0.5020E-03  0.1603E-03
     -1.518  0.2712E-01  0.2327E-01  0.3593E-02  0.2599E-02  0.7388E-03  0.2628E-03
     -1.355  0.2882E-01  0.2525E-01  0.4420E-02  0.3229E-02  0.1107E-02  0.3826E-03
     -1.192  0.3037E-01  0.2723E-01  0.5261E-02  0.3976E-02  0.1576E-02  0.5495E-03
     -1.029  0.3248E-01  0.2842E-01  0.6211E-02  0.4749E-02  0.2189E-02  0.7745E-03
     -0.866  0.3433E-01  0.2996E-01  0.7232E-02  0.5592E-02  0.2981E-02  0.1051E-02
     -0.703  0.3607E-01  0.3156E-01  0.8407E-02  0.6478E-02  0.4155E-02  0.1383E-02
     -0.540  0.3785E-01  0.3283E-01  0.9577E-02  0.7442E-02  0.5565E-02  0.1816E-02
     -0.377  0.4007E-01  0.3410E-01  0.1098E-01  0.8484E-02  0.7602E-02  0.2370E-02
     -0.214  0.4228E-01  0.3532E-01  0.1246E-01  0.9517E-02  0.1017E-01  0.2996E-02
     -0.051  0.4479E-01  0.3676E-01  0.1422E-01  0.1071E-01  0.1413E-01  0.3832E-02
      0.112  0.4751E-01  0.3804E-01  0.1612E-01  0.1193E-01  0.1953E-01  0.4812E-02
      0.275  0.5143E-01  0.3920E-01  0.1846E-01  0.1324E-01  0.2806E-01  0.6076E-02
      0.438  0.5636E-01  0.4053E-01  0.2116E-01  0.1466E-01  0.4105E-01  0.7654E-02
      0.601  0.6561E-01  0.4175E-01  0.2537E-01  0.1609E-01  0.7308E-01  0.9537E-02
      0.764  0.9783E-01  0.4344E-01  0.3105E-01  0.1769E-01  0.2436E+00  0.1194E-01
      0.927  0.9224E-01  0.4480E-01  0.3375E-01  0.1939E-01  0.2734E+00  0.1497E-01
      1.090  0.8465E-01  0.4644E-01  0.3895E-01  0.2131E-01  0.3999E+00  0.1917E-01
      1.253  0.7597E-01  0.4820E-01  0.4414E-01  0.2329E-01  0.4941E+00  0.2446E-01
      1.416  0.7384E-01  0.5056E-01  0.5779E-01  0.2540E-01  0.6683E+00  0.3154E-01
      1.579  0.5307E-01  0.5312E-01  0.5391E-01  0.2769E-01  0.6779E+00  0.4091E-01
      1.742  0.3083E-01  0.5686E-01  0.3432E-01  0.3072E-01  0.5796E+00  0.5728E-01
      1.905  0.9321E-02  0.6256E-01  0.2295E-01  0.3360E-01  0.3279E+00  0.8477E-01
      2.068  0.1508E-02  0.8074E-01  0.3330E-01  0.3666E-01  0.6399E+00  0.1683E+00
      2.231  0.2949E-02  0.7470E-01  0.8825E-01  0.3882E-01  0.1770E+01  0.1782E+00
      2.394  0.4208E-02  0.6824E-01  0.3663E-01  0.4098E-01  0.1041E+01  0.1907E+00
      2.557  0.9182E-02  0.6248E-01  0.5476E-01  0.4252E-01  0.9832E+00  0.2047E+00
      2.720  0.1178E-01  0.5591E-01  0.6971E-01  0.4661E-01  0.8820E+00  0.2993E+00
      2.883  0.1797E-01  0.5216E-01  0.1027E+00  0.6228E-01  0.1204E+01  0.4438E+00
      3.046  0.2031E-01  0.4138E-01  0.9757E-01  0.5759E-01  0.1469E+01  0.4796E+00
      3.209  0.1130E-01  0.2530E-01  0.5880E-01  0.3924E-01  0.4956E+00  0.3505E+00
      3.372  0.8765E-02  0.1642E-01  0.4668E-01  0.3119E-01  0.3866E+00  0.3097E+00
      3.535  0.6681E-02  0.5431E-02  0.3790E-01  0.2416E-01  0.3600E+00  0.2214E+00
      3.698  0.5200E-02  0.5618E-03  0.3203E-01  0.2091E-01  0.4035E+00  0.1767E+00
      3.861  0.4154E-02  0.6456E-03  0.2799E-01  0.9340E-01  0.5290E+00  0.8741E+00
      4.024  0.4595E-02  0.3155E-02  0.2664E-01  0.9124E-01  0.8349E+00  0.1180E+01
      4.187  0.8528E-02  0.4512E-02  0.2631E-01  0.1056E+00  0.1375E+01  0.1076E+01
      4.349  0.7343E-02  0.5475E-02  0.2377E-01  0.1125E+00  0.1981E+01  0.9997E+00
      4.512  0.5721E-02  0.6023E-02  0.1669E-01  0.9985E-01  0.2208E+01  0.8442E+00
      4.675  0.9000E-02  0.9817E-02  0.1300E-01  0.1434E+00  0.2589E+01  0.1102E+01
      4.838  0.1303E-01  0.1042E-01  0.2376E-01  0.1215E+00  0.1220E+01  0.1043E+01
      5.001  0.1254E-01  0.5319E-02  0.2406E-01  0.7472E-01  0.9059E+00  0.7678E+00
      5.164  0.1174E-01  0.3775E-02  0.2481E-01  0.5731E-01  0.8619E+00  0.6857E+00
      5.327  0.1117E-01  0.2749E-02  0.2277E-01  0.4179E-01  0.8583E+00  0.2237E+00
      5.490  0.1068E-01  0.2000E-02  0.1816E-01  0.3244E-01  0.4049E+00  0.1883E+00
      5.653  0.1122E-01  0.1503E-02  0.1663E-01  0.2615E-01  0.1202E+00  0.2264E+00
      5.816  0.1168E-01  0.1144E-02  0.1940E-01  0.1819E-01  0.1111E+00  0.2590E+00
      5.979  0.1218E-01  0.7716E-03  0.2251E-01  0.9050E-02  0.1042E+00  0.3110E+00
      6.142  0.1274E-01  0.1349E-02  0.2833E-01  0.9582E-02  0.9728E-01  0.4609E+00
      6.305  0.1302E-01  0.5906E-02  0.3135E-01  0.1335E-01  0.9257E-01  0.7522E+00
      6.468  0.1316E-01  0.4946E-02  0.3348E-01  0.1355E-01  0.8827E-01  0.9263E+00
      6.631  0.1329E-01  0.4596E-02  0.3545E-01  0.1315E-01  0.8515E-01  0.1201E+01
      6.794  0.1335E-01  0.4595E-02  0.3683E-01  0.1210E-01  0.8127E-01  0.1482E+01
      6.957  0.1321E-01  0.3332E-02  0.3821E-01  0.9718E-02  0.7543E-01  0.1216E+01
      7.120  0.1308E-01  0.2853E-02  0.3943E-01  0.6874E-02  0.7243E-01  0.1524E+01
      7.283  0.1291E-01  0.1336E-01  0.4036E-01  0.2099E-01  0.6972E-01  0.2213E+01
      7.446  0.1273E-01  0.1056E-01  0.4104E-01  0.2151E-01  0.6721E-01  0.1053E+01
      7.609  0.1251E-01  0.9685E-02  0.4186E-01  0.2020E-01  0.6484E-01  0.8112E+00
      7.772  0.1221E-01  0.8870E-02  0.4236E-01  0.1819E-01  0.6204E-01  0.6903E+00
      7.935  0.1179E-01  0.8806E-02  0.4275E-01  0.1711E-01  0.5819E-01  0.3061E+00
      8.098  0.1139E-01  0.9239E-02  0.4286E-01  0.1856E-01  0.5555E-01  0.2117E+00
      8.261  0.1104E-01  0.9574E-02  0.4281E-01  0.2210E-01  0.5335E-01  0.1846E+00
      8.424  0.1067E-01  0.9667E-02  0.4275E-01  0.2459E-01  0.5132E-01  0.1655E+00
      8.587  0.1028E-01  0.9819E-02  0.4262E-01  0.2729E-01  0.4925E-01  0.1529E+00
      8.750  0.9836E-02  0.9884E-02  0.4233E-01  0.2966E-01  0.4711E-01  0.1410E+00
      8.913  0.9414E-02  0.9841E-02  0.4217E-01  0.3153E-01  0.4516E-01  0.1283E+00
      9.076  0.8869E-02  0.9743E-02  0.4159E-01  0.3302E-01  0.4247E-01  0.1204E+00
      9.239  0.8369E-02  0.9620E-02  0.4059E-01  0.3434E-01  0.4011E-01  0.1132E+00
      9.402  0.7906E-02  0.9452E-02  0.3974E-01  0.3535E-01  0.3814E-01  0.1064E+00
      9.565  0.7482E-02  0.9192E-02  0.3929E-01  0.3601E-01  0.3655E-01  0.9823E-01
      9.728  0.7010E-02  0.8908E-02  0.3832E-01  0.3670E-01  0.3464E-01  0.9132E-01
      9.891  0.6591E-02  0.8610E-02  0.3734E-01  0.3698E-01  0.3293E-01  0.8556E-01
     10.054  0.6227E-02  0.8301E-02  0.3653E-01  0.3721E-01  0.3146E-01  0.8045E-01
     10.217  0.5657E-02  0.7991E-02  0.3494E-01  0.3723E-01  0.2910E-01  0.7574E-01
     10.380  0.5162E-02  0.7643E-02  0.3371E-01  0.3719E-01  0.2725E-01  0.7113E-01
     10.543  0.4704E-02  0.7170E-02  0.3220E-01  0.3673E-01  0.2531E-01  0.6498E-01
     10.706  0.4279E-02  0.6757E-02  0.3110E-01  0.3644E-01  0.2370E-01  0.6051E-01
     10.869  0.3911E-02  0.6354E-02  0.2968E-01  0.3588E-01  0.2205E-01  0.5667E-01
     11.032  0.3571E-02  0.5987E-02  0.2799E-01  0.3505E-01  0.2029E-01  0.5282E-01
     11.195  0.3192E-02  0.5631E-02  0.2599E-01  0.3425E-01  0.1842E-01  0.4935E-01
     11.357  0.2831E-02  0.5214E-02  0.2256E-01  0.3326E-01  0.1542E-01  0.4571E-01
     11.520  0.2552E-02  0.4752E-02  0.2144E-01  0.3208E-01  0.1435E-01  0.4181E-01
     11.683  0.2118E-02  0.4271E-02  0.1787E-01  0.3118E-01  0.1045E-01  0.3819E-01
     11.846  0.1801E-02  0.3880E-02  0.1552E-01  0.2994E-01  0.8586E-02  0.3499E-01
     12.009  0.1544E-02  0.3534E-02  0.1353E-01  0.2840E-01  0.7093E-02  0.3188E-01
     12.172  0.1384E-02  0.3210E-02  0.1246E-01  0.2667E-01  0.6254E-02  0.2870E-01
     12.335  0.1263E-02  0.2866E-02  0.1075E-01  0.2521E-01  0.5374E-02  0.2605E-01
     12.498  0.1472E-01  0.2473E-02  0.1199E-01  0.2167E-01  0.2032E-01  0.2088E-01
     12.661  0.5499E-01  0.2204E-02  0.2218E-01  0.2069E-01  0.6636E-01  0.1879E-01
     12.824  0.7072E-01  0.1760E-02  0.4080E-01  0.1660E-01  0.9182E-01  0.1280E-01
     12.987  0.6668E-01  0.1538E-02  0.4799E-01  0.1470E-01  0.9143E-01  0.1038E-01
     13.150  0.6018E-01  0.1297E-02  0.5172E-01  0.1260E-01  0.8665E-01  0.8207E-02
     13.313  0.5233E-01  0.1127E-02  0.5276E-01  0.1054E-01  0.7948E-01  0.6451E-02
     13.476  0.4757E-01  0.1109E-02  0.5236E-01  0.1078E-01  0.7345E-01  0.6429E-02
     13.639  0.4245E-01  0.1176E-02  0.5094E-01  0.1155E-01  0.6779E-01  0.7340E-02
     13.802  0.3810E-01  0.1800E-02  0.4873E-01  0.1518E-01  0.6184E-01  0.1249E-01
     13.965  0.3516E-01  0.7075E-01  0.4926E-01  0.2693E-01  0.5851E-01  0.1093E+00
     14.128  0.3195E-01  0.9117E-01  0.4813E-01  0.4794E-01  0.5485E-01  0.1470E+00
     14.291  0.2954E-01  0.7591E-01  0.4737E-01  0.5423E-01  0.5212E-01  0.1299E+00
     14.454  0.2775E-01  0.6151E-01  0.5068E-01  0.5479E-01  0.5054E-01  0.1092E+00
     14.617  0.2829E-01  0.5231E-01  0.4799E-01  0.5167E-01  0.4860E-01  0.9596E-01
     14.780  0.5900E-01  0.4591E-01  0.5448E-01  0.5032E-01  0.6350E-01  0.8543E-01
     14.943  0.4184E-01  0.4078E-01  0.5571E-01  0.4973E-01  0.5562E-01  0.7796E-01
     15.106  0.4222E-01  0.3679E-01  0.6114E-01  0.5295E-01  0.5579E-01  0.7238E-01
     15.269  0.4065E-01  0.3301E-01  0.6197E-01  0.4942E-01  0.5518E-01  0.6638E-01
     15.432  0.4044E-01  0.2997E-01  0.6831E-01  0.5029E-01  0.5575E-01  0.6210E-01
     15.595  0.3901E-01  0.3177E-01  0.6614E-01  0.4756E-01  0.5521E-01  0.6031E-01
     15.758  0.3725E-01  0.4555E-01  0.6469E-01  0.5417E-01  0.5467E-01  0.6831E-01
     15.921  0.3530E-01  0.4772E-01  0.6420E-01  0.6234E-01  0.5390E-01  0.6980E-01
     16.084  0.3522E-01  0.4533E-01  0.6429E-01  0.6165E-01  0.5374E-01  0.6841E-01
     16.247  0.3411E-01  0.4384E-01  0.6532E-01  0.6106E-01  0.5372E-01  0.6723E-01
     16.410  0.3246E-01  0.4250E-01  0.6474E-01  0.6104E-01  0.5315E-01  0.6631E-01
     16.573  0.3167E-01  0.4032E-01  0.6511E-01  0.6121E-01  0.5323E-01  0.6515E-01
     16.736  0.3096E-01  0.3801E-01  0.6507E-01  0.6178E-01  0.5325E-01  0.6395E-01
     16.899  0.3023E-01  0.3768E-01  0.6491E-01  0.6227E-01  0.5321E-01  0.6345E-01
     17.062  0.2941E-01  0.3636E-01  0.6469E-01  0.6203E-01  0.5306E-01  0.6271E-01
     17.225  0.2885E-01  0.3455E-01  0.6542E-01  0.6191E-01  0.5334E-01  0.6170E-01
     17.388  0.2824E-01  0.3360E-01  0.6550E-01  0.6219E-01  0.5366E-01  0.6139E-01