    1    1    1    2
  0.1181995E+02  0.2485493E-09  0.2485493E-09  0.2485493E-09  0.5000000E-15
  1.000000000000000E-004
  CAR 
 bcc Fe                                  
      8    250     10
 
  0.2500000E-01  0.2500000E-01  0.2500000E-01  0.1000000E-02
    1       -2.617494     -2.398599   1.000000   1.000000
    2        3.090224      5.180394   1.000000   1.000000
    3        3.090224      5.180394   1.000000   1.000000
    4        3.210288      5.317552   1.000000   0.762615
    5        4.466372      6.961988   1.000000   0.000000
    6        4.466372      6.961988   1.000000   0.000000
    7       29.289697     29.247917   0.000000   0.000000
    8       29.289698     29.247918   0.000000   0.000000
    9       30.200498     30.042309   0.000000   0.000000
   10       34.429802     35.117207   0.000000   0.000000
 
  0.7500000E-01  0.2500000E-01  0.2500000E-01  0.3000000E-02
    1       -2.321366     -2.100225   1.000000   1.000000
    2        3.012051      5.084300   1.000000   1.000000
    3        3.072100      5.146313   1.000000   1.000000
    4        3.381504      5.502529   1.000000  -0.046806
    5        4.400159      6.876210   1.000000   0.000000
    6        4.479381      6.977509   1.000000   0.000000
    7       27.628443     27.771329   0.000000   0.000000
    8       28.571422     28.638913   0.000000   0.000000
    9       30.274312     30.157596   0.000000   0.000000
   10       32.501202     33.440600   0.000000   0.000000
 
  0.1250000E+00  0.2500000E-01  0.2500000E-01  0.3000000E-02
    1       -1.845216     -1.616795   1.000000   1.000000
    2        2.893521      4.938681   1.000000   1.000000
    3        3.039548      5.081350   1.000000   1.000000
    4        3.634930      5.779726   1.000000  -0.000270
    5        4.324921      6.777591   1.000000   0.000000
    6        4.499401      7.002029   1.000000   0.000000
    7       25.508527     25.854765   0.000000   0.000000
    8       27.686864     27.831251   0.000000   0.000000
    9       30.117525     30.119199   0.000000   0.000000
   10       30.895152     31.791041   0.000000   0.000000
 
  0.1750000E+00  0.2500000E-01  0.2500000E-01  0.3000000E-02
    1       -1.222686     -0.972496   1.000000   1.000000
    2        2.749137      4.761695   1.000000   1.000000
    3        2.994806      4.973059   1.000000   1.000000
    4        3.967193      6.143111   1.000000   0.000000
    5        4.281584      6.715235   1.000000   0.000000
    6        4.521269      7.031553   1.000000   0.000000
    7       23.201366     23.725792   0.000000   0.000000
    8       26.712241     26.889799   0.000000   0.000000
    9       29.461750     29.980123   0.000000   0.000000
   10       29.831385     30.322927   0.000000   0.000000
 
  0.2250000E+00  0.2500000E-01  0.2500000E-01  0.3000000E-02
    1       -0.522716     -0.210445   1.000000   1.000000
    2        2.590536      4.569906   1.000000   1.000000
    3        2.992335      4.848282   1.000000   1.000000
    4        4.284929      6.564217   1.000000   0.000000
    5        4.356778      6.713426   1.000000   0.000000
    6        4.550200      7.070543   1.000000   0.000000
    7       20.857200     21.532198   0.000000   0.000000
    8       25.747510     25.927080   0.000000   0.000000
    9       28.145422     28.977299   0.000000   0.000000
   10       29.517500     29.804529   0.000000   0.000000
 
  0.2750000E+00  0.2500000E-01  0.2500000E-01  0.3000000E-02
    1        0.120527      0.592168   1.000000   1.000000
    2        2.436268      4.384413   1.000000   1.000000
    3        3.161801      4.783497   1.000000   1.000000
    4        4.335537      6.754251   1.000000   0.000000
    5        4.583700      7.022871   1.000000   0.000000
    6        4.774476      7.116201   1.009928   0.000000
    7       18.569073     19.382445   0.000000   0.000000
    8       24.868819     25.034343   0.000000   0.000000
    9       26.973309     27.770142   0.000000   0.000000
   10       29.250614     29.648572   0.000000   0.000000
 
  0.3250000E+00  0.2500000E-01  0.2500000E-01  0.3000000E-02
    1        0.537225      1.306526   1.000000   1.000000
    2        2.300032      4.221714   1.000000   1.000000
    3        3.649238      4.897481   1.000000   1.002709
    4        4.405906      6.818958   1.000000   0.000000
    5        4.613765      7.159723   1.000000   0.000000
    6        5.200677      7.465307   0.801208   0.000000
    7       16.417811     17.375841   0.000000   0.000000
    8       24.133454     24.278422   0.000000   0.000000
    9       25.981933     26.738563   0.000000   0.000000
   10       29.040216     29.522429   0.000000   0.000000
 
  0.3750000E+00  0.2500000E-01  0.2500000E-01  0.3000000E-02
    1        0.703584      1.790672   1.000000   1.000000
    2        2.195411      4.096605   1.000000   1.000000
    3        4.297327      5.267119   1.000000   0.867498
    4        4.554986      6.877595   1.000000   0.000000
    5        4.638871      7.197114   1.014764   0.000000
    6        5.644094      7.852724  -0.012279   0.000000
    7       14.503175     15.632590   0.000000   0.000000
    8       23.584463     23.709039   0.000000   0.000000
    9       25.220701     25.938434   0.000000   0.000000
   10       28.909929     29.447572   0.000000   0.000000
 
  0.4250000E+00  0.2500000E-01  0.2500000E-01  0.3000000E-02
    1        0.741686      2.020673   1.000000   1.000000
    2        2.128148      4.016840   1.000000   1.000000
    3        4.456399      5.753814   1.000000  -0.075619
    4        4.657846      6.908750   1.000000   0.000000
    5        5.034182      7.224650   1.048141   0.000000
    6        6.149759      8.134118  -0.003343   0.000000
    7       13.033994     14.359370   0.000000   0.000000
    8       23.244924     23.355226   0.000000   0.000000
    9       24.740871     25.429521   0.000000   0.000000
   10       28.822386     29.394408   0.000000   0.000000
 
  0.4750000E+00  0.2500000E-01  0.2500000E-01  0.1500000E-02
    1        0.744326      2.081641   1.000000   1.000000
    2        2.105140      3.989591   1.000000   1.000000
    3        4.478799      5.992407   1.000000  -0.020352
    4        4.663128      6.912473   1.000000   0.000000
    5        5.219564      7.233102   0.893195   0.000000
    6        6.446415      8.243627   0.000000   0.000000
    7       12.429604     13.865390   0.000000   0.000000
    8       23.130018     23.235169   0.000000   0.000000
    9       24.576203     25.254090   0.000000   0.000000
   10       28.793464     29.376820   0.000000   0.000000
 
 -0.2500000E-01  0.2500000E-01  0.2500000E-01  0.7500000E-03
    1       -2.717776     -2.499360   1.000000   1.000000
    2        3.117707      5.214168   1.000000   1.000000
    3        3.117785      5.214372   1.000000   1.000000
    4        3.131489      5.231546   1.000000   1.032747
    5        4.462427      6.957189   1.000000   0.000000
    6        4.493199      6.996227   1.000000   0.000000
    7       29.693050     29.566916   0.000000   0.000000
    8       30.012586     29.880327   0.000000   0.000000
    9       30.012638     29.880337   0.000000   0.000000
   10       34.399468     34.597049   0.000000   0.000000
 
  0.7500000E-01  0.7500000E-01  0.2500000E-01  0.3000000E-02
    1       -1.937854     -1.711643   1.000000   1.000000
    2        2.941650      4.990298   1.000000   1.000000
    3        2.988955      5.038587   1.000000   1.000000
    4        3.617903      5.757631   1.000000  -0.000934
    5        4.354677      6.817221   1.000000   0.000000
    6        4.482906      6.980036   1.000000   0.000000
    7       26.346261     26.593421   0.000000   0.000000
    8       27.086120     27.320673   0.000000   0.000000
    9       30.604098     30.527985   0.000000   0.000000
   10       30.645462     31.512421   0.000000   0.000000
 
  0.1250000E+00  0.7500000E-01  0.2500000E-01  0.6000000E-02
    1       -1.389935     -1.149929   1.000000   1.000000
    2        2.811816      4.829172   1.000000   1.000000
    3        2.914889      4.924957   1.000000   1.000000
    4        3.935270      6.097544   1.000000   0.000000
    5        4.296177      6.739178   1.000000   0.000000
    6        4.511220      7.016076   1.000000   0.000000
    7       24.375510     24.793489   0.000000   0.000000
    8       25.905987     26.223488   0.000000   0.000000
    9       29.010157     29.852470   0.000000   0.000000
   10       30.749752     30.717097   0.000000   0.000000
 
  0.1750000E+00  0.7500000E-01  0.2500000E-01  0.6000000E-02
    1       -0.724062     -0.446518   1.000000   1.000000
    2        2.656603      4.639798   1.000000   1.000000
    3        2.856643      4.792870   1.000000   1.000000
    4        4.270419      6.509429   1.000000   0.000000
    5        4.327567      6.703398   1.000000   0.000000
    6        4.550396      7.064135   1.000000   0.000000
    7       22.105494     22.691162   0.000000   0.000000
    8       24.917106     25.265286   0.000000   0.000000
    9       27.668004     28.454587   0.000000   0.000000
   10       30.616425     30.711844   0.000000   0.000000
 
  0.2250000E+00  0.7500000E-01  0.2500000E-01  0.6000000E-02
    1       -0.035862      0.342308   1.000000   1.000000
    2        2.498875      4.448683   1.000000   1.000000
    3        2.882945      4.676863   1.000000   1.000000
    4        4.295379      6.717058   1.000000   0.000000
    5        4.583959      6.972954   1.000000   0.000000
    6        4.781984      7.119151   1.015697   0.000000
    7       19.802090     20.531225   0.000000   0.000000
    8       24.041412     24.397140   0.000000   0.000000
    9       26.508411     27.250966   0.000000   0.000000
   10       30.373867     30.594315   0.000000   0.000000
 
  0.2750000E+00  0.7500000E-01  0.2500000E-01  0.6000000E-02
    1        0.506127      1.115929   1.000000   1.000000
    2        2.355576      4.275416   1.000000   1.000000
    3        3.130401      4.662719   1.000000   1.000000
    4        4.352913      6.775129   1.000000   0.000000
    5        4.625651      7.158568   1.000000   0.000000
    6        5.277002      7.464915   0.675073   0.000000
    7       17.571189     18.437644   0.000000   0.000000
    8       23.292869     23.642890   0.000000   0.000000
    9       25.521047     26.223146   0.000000   0.000000
   10       30.139879     30.459132   0.000000   0.000000
 
  0.3250000E+00  0.7500000E-01  0.2500000E-01  0.6000000E-02
    1        0.775909      1.724793   1.000000   1.000000
    2        2.237491      4.133858   1.000000   1.000000
    3        3.641999      4.858323   1.000000   1.006057
    4        4.422073      6.842969   1.000000   0.000000
    5        4.670621      7.203898   1.000000   0.000000
    6        5.838413      7.937366  -0.054665   0.000000
    7       15.514181     16.531901   0.000000   0.000000
    8       22.695898     23.035538   0.000000   0.000000
    9       24.731787     25.394056   0.000000   0.000000
   10       29.944810     30.336820   0.000000   0.000000
 
  0.3750000E+00  0.7500000E-01  0.2500000E-01  0.6000000E-02
    1        0.850749      2.067269   1.000000   1.000000
    2        2.154979      4.034885   1.000000   1.000000
    3        4.149921      5.249622   1.000000   0.878799
    4        4.479086      6.896585   1.000000   0.000000
    5        4.760651      7.248200   1.006536   0.000000
    6        6.486714      8.363349  -0.002364   0.000000
    7       13.762458     14.963934   0.000000   0.000000
    8       22.280472     22.609964   0.000000   0.000000
    9       24.176424     24.804398   0.000000   0.000000
   10       29.823737     30.261154   0.000000   0.000000
 
  0.4250000E+00  0.7500000E-01  0.2500000E-01  0.6000000E-02
    1        0.857928      2.195446   1.000000   1.000000
    2        2.111857      3.983487   1.000000   1.000000
    3        4.391475      5.584480   1.000000   0.118954
    4        4.489335      6.918330   1.000000   0.000000
    5        4.889166      7.281887   1.030860   0.000000
    6        7.055505      8.657350   0.000000   0.000000
    7       12.625729     14.006350   0.000000   0.000000
    8       22.065729     22.389585   0.000000   0.000000
    9       23.888870     24.496344   0.000000   0.000000
   10       29.757086     30.217892   0.000000   0.000000
 
 -0.7500000E-01  0.7500000E-01  0.2500000E-01  0.3000000E-02
    1       -2.517901     -2.298428   1.000000   1.000000
    2        3.070836      5.156288   1.000000   1.000000
    3        3.119231      5.205974   1.000000   1.000000
    4        3.234398      5.343129   1.000000   0.498970
    5        4.401514      6.878781   1.000000   0.000000
    6        4.509522      7.015644   1.000000   0.000000
    7       28.520456     28.534005   0.000000   0.000000
    8       29.685776     29.615503   0.000000   0.000000
    9       29.811471     29.776764   0.000000   0.000000
   10       33.583124     33.876229   0.000000   0.000000
 
  0.1250000E+00  0.1250000E+00  0.2500000E-01  0.3000000E-02
    1       -0.792990     -0.526463   1.000000   1.000000
    2        2.720469      4.696205   1.000000   1.000000
    3        2.766139      4.737726   1.000000   1.000000
    4        4.260483      6.499095   1.000000   0.000000
    5        4.321064      6.689640   1.000000   0.000000
    6        4.561820      7.073077   1.000004   0.000000
    7       23.069889     23.553342   0.000000   0.000000
    8       24.024819     24.515182   0.000000   0.000000
    9       27.524771     28.287446   0.000000   0.000000
   10       31.112388     31.108303   0.000000   0.000000
 
  0.1750000E+00  0.1250000E+00  0.2500000E-01  0.6000000E-02
    1       -0.117053      0.213503   1.000000   1.000000
    2        2.575773      4.513479   1.000000   1.000000
    3        2.688441      4.583873   1.000000   1.000000
    4        4.257287      6.677412   1.000000   0.000000
    5        4.593757      6.958867   1.000000   0.000000
    6        4.809038      7.144062   1.040751   0.000000
    7       21.088260     21.718095   0.000000   0.000000
    8       22.778814     23.312398   0.000000   0.000000
    9       26.332298     27.027394   0.000000   0.000000
   10       31.195003     31.276969   0.000000   0.000000
 
  0.2250000E+00  0.1250000E+00  0.2500000E-01  0.6000000E-02
    1        0.510277      0.997692   1.000000   1.000000
    2        2.420594      4.323097   1.000000   1.000000
    3        2.747397      4.491419   1.000000   1.000000
    4        4.295218      6.713685   1.000000   0.000000
    5        4.644554      7.168027   1.000000   0.000000
    6        5.350639      7.505491   0.530422   0.000000
    7       18.858164     19.628407   0.000000   0.000000
    8       21.915097     22.459093   0.000000   0.000000
    9       25.345426     25.991250   0.000000   0.000000
   10       31.096835     31.277931   0.000000   0.000000
 
  0.2750000E+00  0.1250000E+00  0.2500000E-01  0.6000000E-02
    1        0.907244      1.700575   1.000000   1.000000
    2        2.293827      4.169455   1.000000   1.000000
    3        3.036598      4.522022   1.000000   1.000000
    4        4.362802      6.783696   1.000000   0.000000
    5        4.692346      7.219165   1.000000   0.000000
    6        5.993145      8.051041  -0.056445   0.000000
    7       16.704334     17.610520   0.000000   0.000000
    8       21.236747     21.783063   0.000000   0.000000
    9       24.549465     25.154110   0.000000   0.000000
   10       30.955451     31.218407   0.000000   0.000000
 
  0.3250000E+00  0.1250000E+00  0.2500000E-01  0.6000000E-02
    1        1.042322      2.170880   1.000000   1.000000
    2        2.200447      4.059658   1.000000   1.000000
    3        3.473974      4.746084   1.000000   1.002726
    4        4.431697      6.856658   1.000000   0.000000
    5        4.749399      7.259645   1.000000   0.000000
    6        6.752483      8.612765  -0.000482   0.000000
    7       14.752280     15.815773   0.000000   0.000000
    8       20.728498     21.271728   0.000000   0.000000
    9       23.954962     24.525549   0.000000   0.000000
   10       30.826844     31.149115   0.000000   0.000000
 
  0.3750000E+00  0.1250000E+00  0.2500000E-01  0.6000000E-02
    1        1.057580      2.380993   1.000000   1.000000
    2        2.143292      3.993081   1.000000   1.000000
    3        3.806287      5.056307   1.000000   1.019249
    4        4.473315      6.905772   1.000000   0.000000
    5        4.830337      7.302437   1.001143   0.000000
    6        7.554957      9.129265   0.000000   0.000000
    7       13.194590     14.447725   0.000000   0.000000
    8       20.411194     20.949733   0.000000   0.000000
    9       23.585717     24.132855   0.000000   0.000000
   10       30.748345     31.105143   0.000000   0.000000
 
  0.4250000E+00  0.1250000E+00  0.2500000E-01  0.3000000E-02
    1        1.053538      2.432987   1.000000   1.000000
    2        2.124218      3.970733   1.000000   1.000000
    3        3.920952      5.200710   1.000000   0.957770
    4        4.484724      6.921860   1.000000   0.000000
    5        4.874139      7.324720   1.004280   0.000000
    6        7.975384      9.377103   0.000000   0.000000
    7       12.520584     13.893062   0.000000   0.000000
    8       20.303414     20.839736   0.000000   0.000000
    9       23.460519     23.999117   0.000000   0.000000
   10       30.723420     31.091396   0.000000   0.000000
 
 -0.1250000E+00  0.1250000E+00  0.2500000E-01  0.3000000E-02
    1       -2.128096     -1.904664   1.000000   1.000000
    2        2.975041      5.038159   1.000000   1.000000
    3        3.103610      5.167728   1.000000   1.000000
    4        3.442917      5.570750   1.000000  -0.022267
    5        4.318589      6.771363   1.000000   0.000000
    6        4.526099      7.034666   1.000000   0.000000
    7       26.615024     26.852881   0.000000   0.000000
    8       28.907339     28.916676   0.000000   0.000000
    9       29.483123     29.599951   0.000000   0.000000
   10       32.812841     33.703566   0.000000   0.000000
 
 -0.7500000E-01  0.1250000E+00  0.2500000E-01  0.3000000E-02
    1       -2.223835     -2.001816   1.000000   1.000000
    2        3.037579      5.108870   1.000000   1.000000
    3        3.088850      5.161065   1.000000   1.000000
    4        3.376684      5.497036   1.000000  -0.034054
    5        4.309190      6.760569   1.000000   0.000000
    6        4.541763      7.054279   1.000000   0.000000
    7       27.324822     27.442864   0.000000   0.000000
    8       28.561898     28.734616   0.000000   0.000000
    9       29.882377     29.880108   0.000000   0.000000
   10       32.781732     33.173991   0.000000   0.000000
 
  0.1750000E+00  0.1750000E+00  0.2500000E-01  0.3000000E-02
    1        0.517681      0.957598   1.000000   1.000000
    2        2.479106      4.341785   1.000000   1.000000
    3        2.578235      4.431603   1.000000   1.000000
    4        4.269813      6.685752   1.000000   0.000000
    5        4.651952      7.172255   1.000000   0.000000
    6        5.379443      7.526369   0.441249   0.000000
    7       19.954814     20.630379   0.000000   0.000000
    8       20.750824     21.413870   0.000000   0.000000
    9       25.310872     25.946881   0.000000   0.000000
   10       31.543925     31.648407   0.000000   0.000000
 
  0.2250000E+00  0.1750000E+00  0.2500000E-01  0.6000000E-02
    1        1.029751      1.697189   1.000000   1.000000
    2        2.340858      4.161547   1.000000   1.000000
    3        2.660016      4.366544   1.000000   1.000000
    4        4.317214      6.734719   1.000000   0.000000
    5        4.700343      7.224992   1.000000   0.000000
    6        6.074931      8.123030  -0.031265   0.000000
    7       18.021576     18.820534   0.000000   0.000000
    8       19.699779     20.380042   0.000000   0.000000
    9       24.504334     25.105441   0.000000   0.000000
   10       31.679980     31.836296   0.000000   0.000000
 
  0.2750000E+00  0.1750000E+00  0.2500000E-01  0.6000000E-02
    1        1.272678      2.289299   1.000000   1.000000
    2        2.241969      4.045803   1.000000   1.000000
    3        2.932561      4.409211   1.000000   1.000000
    4        4.389370      6.812105   1.000000   0.000000
    5        4.742388      7.257544   1.000000   0.000000
    6        6.914506      8.787400  -0.000004   0.000000
    7       15.961445     16.893673   0.000000   0.000000
    8       19.075086     19.755875   0.000000   0.000000
    9       23.888786     24.465359   0.000000   0.000000
   10       31.693917     31.909164   0.000000   0.000000
 
  0.3250000E+00  0.1750000E+00  0.2500000E-01  0.6000000E-02
    1        1.316831      2.612177   1.000000   1.000000
    2        2.182841      3.987448   1.000000   1.000000
    3        3.247221      4.592154   1.000000   1.000000
    4        4.456639      6.887061   1.000000   0.000000
    5        4.792290      7.286359   1.000000   0.000000
    6        7.881017      9.498533   0.000000   0.000000
    7       14.124888     15.218442   0.000000   0.000000
    8       18.655601     19.331397   0.000000   0.000000
    9       23.468520     24.027855   0.000000   0.000000
   10       31.671506     31.932710   0.000000   0.000000
 
  0.3750000E+00  0.1750000E+00  0.2500000E-01  0.6000000E-02
    1        1.306808      2.719212   1.000000   1.000000
    2        2.155098      3.961795   1.000000   1.000000
    3        3.428601      4.771195   1.000000   1.001548
    4        4.491144      6.928862   1.000000   0.000000
    5        4.834358      7.308236   1.000000   0.000000
    6        8.733498     10.090666   0.000000   0.000000
    7       12.819665     14.093667   0.000000   0.000000
    8       18.441341     19.112063   0.000000   0.000000
    9       23.253114     23.803368   0.000000   0.000000
   10       31.652526     31.938200   0.000000   0.000000
 
 -0.1750000E+00  0.1750000E+00  0.2500000E-01  0.3000000E-02
    1       -1.572123     -1.336082   1.000000   1.000000
    2        2.841865      4.876256   1.000000   1.000000
    3        3.067076      5.084158   1.000000   1.000000
    4        3.728529      5.887427   1.000000   0.000000
    5        4.250375      6.679830   1.000000   0.000000
    6        4.541879      7.055092   1.000000   0.000000
    7       24.367156     24.809294   0.000000   0.000000
    8       27.859275     27.926065   0.000000   0.000000
    9       29.047887     29.347500   0.000000   0.000000
   10       31.319867     32.153043   0.000000   0.000000
 
 -0.1250000E+00  0.1750000E+00  0.2500000E-01  0.6000000E-02
    1       -1.751316     -1.521406   1.000000   1.000000
    2        2.936713      4.982425   1.000000   1.000000
    3        3.051686      5.094940   1.000000   1.000000
    4        3.625067      5.767989   1.000000  -0.000209
    5        4.215404      6.638679   1.000000   0.000000
    6        4.571056      7.088959   1.000000   0.000000
    7       25.495399     25.815286   0.000000   0.000000
    8       27.308410     27.589418   0.000000   0.000000
    9       29.623591     29.750551   0.000000   0.000000
   10       31.442422     32.199127   0.000000   0.000000
 
  0.2250000E+00  0.2250000E+00  0.2500000E-01  0.3000000E-02
    1        1.399709      2.345824   1.000000   1.000000
    2        2.261734      4.004283   1.000000   1.000000
    3        2.699222      4.318306   1.000000   1.000000
    4        4.368617      6.790487   1.000000   0.000000
    5        4.742953      7.258243   1.000000   0.000000
    6        6.969903      8.850266   0.000000   0.000000
    7       17.074352     17.914049   0.000000   0.000000
    8       17.807667     18.576880   0.000000   0.000000
    9       23.874094     24.459110   0.000000   0.000000
   10       32.120406     32.272353   0.000000   0.000000
 
  0.2750000E+00  0.2250000E+00  0.2500000E-01  0.6000000E-02
    1        1.549705      2.810239   1.000000   1.000000
    2        2.214413      3.923920   1.000000   1.000000
    3        2.850251      4.336671   1.000000   1.000000
    4        4.438542      6.868819   1.000000   0.000000
    5        4.767629      7.267091   1.000000   0.000000
    6        8.032560      9.687542   0.000000   0.000000
    7       15.310608     16.259958   0.000000   0.000000
    8       17.045212     17.833713   0.000000   0.000000
    9       23.425597     24.004456   0.000000   0.000000
   10       32.388519     32.565242   0.000000   0.000000
 
  0.3250000E+00  0.2250000E+00  0.2500000E-01  0.6000000E-02
    1        1.568267      3.016170   1.000000   1.000000
    2        2.200012      3.924746   1.000000   1.000000
    3        2.998511      4.412549   1.000000   1.000000
    4        4.503012      6.942286   1.000000   0.000000
    5        4.787338      7.269509   1.000000   0.000000
    6        9.180594     10.581923   0.000000   0.000000
    7       13.606919     14.713161   0.000000   0.000000
    8       16.702605     17.489010   0.000000   0.000000
    9       23.154407     23.730948   0.000000   0.000000
   10       32.524514     32.733581   0.000000   0.000000
 
  0.3750000E+00  0.2250000E+00  0.2500000E-01  0.3000000E-02
    1        1.563525      3.060106   1.000000   1.000000
    2        2.197788      3.935061   1.000000   1.000000
    3        3.057412      4.460808   1.000000   1.000000
    4        4.528322      6.972356   1.000000   0.000000
    5        4.796000      7.270571   1.000000   0.000000
    6        9.872998     11.105742   0.000000   0.000000
    7       12.723388     13.959539   0.000000   0.000000
    8       16.592073     17.375998   0.000000   0.000000
    9       23.065245     23.640514   0.000000   0.000000
   10       32.571878     32.793791   0.000000   0.000000
 
 -0.2250000E+00  0.2250000E+00  0.2500000E-01  0.3000000E-02
    1       -0.898663     -0.625301   1.000000   1.000000
    2        2.692203      4.693319   1.000000   1.000000
    3        3.036295      4.960896   1.000000   1.000000
    4        4.081559      6.280415   1.000000   0.000000
    5        4.233285      6.647247   1.000000   0.000000
    6        4.568164      7.087120   1.000000   0.000000
    7       22.022116     22.628466   0.000000   0.000000
    8       26.767117     26.858018   0.000000   0.000000
    9       28.478171     28.996524   0.000000   0.000000
   10       30.131409     30.831357   0.000000   0.000000
 
 -0.1750000E+00  0.2250000E+00  0.2500000E-01  0.6000000E-02
    1       -1.134225     -0.881439   1.000000   1.000000
    2        2.795997      4.810825   1.000000   1.000000
    3        3.003492      4.988099   1.000000   1.000000
    4        3.953864      6.128225   1.000000   0.000000
    5        4.162645      6.563426   1.000000   0.000000
    6        4.605726      7.127412   1.000000   0.000000
    7       23.258361     23.775479   0.000000   0.000000
    8       26.227846     26.532169   0.000000   0.000000
    9       28.896047     29.265869   0.000000   0.000000
   10       30.502366     31.104367   0.000000   0.000000
 
 -0.1250000E+00  0.2250000E+00  0.2500000E-01  0.3000000E-02
    1       -1.214316     -0.967980   1.000000   1.000000
    2        2.874870      4.888935   1.000000   1.000000
    3        2.943945      4.957373   1.000000   1.000000
    4        3.923942      6.086610   1.000000   0.000000
    5        4.129768      6.524908   1.000000   0.000000
    6        4.622150      7.145602   1.000000   0.000000
    7       24.165786     24.571627   0.000000   0.000000
    8       25.351383     25.826796   0.000000   0.000000
    9       29.771401     29.912505   0.000000   0.000000
   10       29.969268     30.676786   0.000000   0.000000
 
  0.2750000E+00  0.2750000E+00  0.2500000E-01  0.3000000E-02
    1        1.698706      3.180203   1.000000   1.000000
    2        2.242092      3.866519   1.000000   1.000000
    3        2.787609      4.274770   1.000000   1.000000
    4        4.512265      6.952203   1.000000   0.000000
    5        4.764266      7.248209   1.000000   0.000000
    6        9.317081     10.747861   0.000000   0.000000
    7       14.439545     15.419682   0.000000   0.000000
    8       15.570400     16.449393   0.000000   0.000000
    9       23.129864     23.716710   0.000000   0.000000
   10       33.009578     33.167599   0.000000   0.000000
 
  0.3250000E+00  0.2750000E+00  0.2500000E-01  0.6000000E-02
    1        1.741560      3.337122   1.000000   1.000000
    2        2.296606      3.907429   1.000000   1.000000
    3        2.743138      4.209317   1.000000   1.000000
    4        4.578382      7.028113   1.000000   0.000000
    5        4.740934      7.212957   1.000000   0.000000
    6       10.607859     11.832600   0.000000   0.000000
    7       13.059236     14.153570   0.000000   0.000000
    8       15.112409     16.019747   0.000000   0.000000
    9       22.980531     23.573806   0.000000   0.000000
   10       33.419560     33.586501   0.000000   0.000000
 
 -0.2750000E+00  0.2750000E+00  0.2500000E-01  0.3000000E-02
    1       -0.206287      0.169598   1.000000   1.000000
    2        2.533854      4.503107   1.000000   1.000000
    3        3.101975      4.850097   1.000000   1.000000
    4        4.269873      6.676232   1.000000   0.000000
    5        4.471404      6.717972   1.000000   0.000000
    6        4.600022      7.125232   1.000000   0.000000
    7       19.691798     20.440394   0.000000   0.000000
    8       25.752238     25.845050   0.000000   0.000000
    9       27.602952     28.316361   0.000000   0.000000
   10       29.399614     29.970316   0.000000   0.000000
 
 -0.2250000E+00  0.2750000E+00  0.2500000E-01  0.6000000E-02
    1       -0.441395     -0.125017   1.000000   1.000000
    2        2.640119      4.622722   1.000000   1.000000