       N       E                     dE             d eps       ncg     rms          rms(c)
DAV:   1     0.939825712261E+01    0.93983E+01   -0.27831E+03 10858   0.563E+02
DAV:   2    -0.790703395216E+01   -0.17305E+02   -0.16110E+02 10216   0.972E+01
DAV:   3    -0.813603254898E+01   -0.22900E+00   -0.22863E+00 11190   0.138E+01
DAV:   4    -0.813683596296E+01   -0.80341E-03   -0.80076E-03 10656   0.781E-01
DAV:   5    -0.813684160908E+01   -0.56461E-05   -0.56251E-05  8792   0.645E-02
DAV:   6    -0.813684181675E+01   -0.20767E-06   -0.20676E-06  6886   0.133E-02
   1 F= -.81368418E+01 E0= -.81368418E+01  d E =0.000000E+00  mag=     2.3385
