 vasp.5.4.4.18Apr17-6-g9f103f2a35 (build May 20 2018 16:52:39) complex          
  
 executed on             LinuxIFC date 2022.09.19  17:23:48
 running on    1 total cores
 distrk:  each k-point on    1 cores,    1 groups
 distr:  one band on NCORES_PER_BAND=   1 cores,    1 groups


--------------------------------------------------------------------------------------------------------


 INCAR:
 POTCAR:   PAW_GGA Fe 03Mar1998                   
 POTCAR:   PAW_GGA Fe 03Mar1998                   
   VRHFIN =Fe:  d7 s1                                                           
   LEXCH  = 91                                                                  
   EATOM  =   595.5622 eV,   43.7726 Ry                                         
                                                                                
   TITEL  = PAW_GGA Fe 03Mar1998                                                
   LULTRA =        F    use ultrasoft PP ?                                      
   IUNSCR =        1    unscreen: 0-lin 1-nonlin 2-no                           
   RPACOR =    2.000    partial core radius                                     
   POMASS =   55.847; ZVAL   =    8.000    mass and valenz                      
   RCORE  =    2.300    outmost cutoff radius                                   
   RWIGS  =    2.460; RWIGS  =    1.302    wigner-seitz radius (au A)           
   ENMAX  =  267.907; ENMIN  =  200.930 eV                                      
   RCLOC  =    1.701    cutoff for local pot                                    
   LCOR   =        T    correct aug charges                                     
   LPAW   =        T    paw PP                                                  
   EAUG   =  511.368                                                            
   DEXC   =    -.007                                                            
   RMAX   =    2.817    core radius for proj-oper                               
   RAUG   =    1.300    factor for augmentation sphere                          
   RDEP   =    2.442    core radius for depl-charge                             
   QCUT   =   -4.437; QGAM   =    8.875    optimization parameters              
                                                                                
   Description                                                                  
     l     E      TYP  RCUT    TYP  RCUT                                        
     2   .000     23  2.300                                                     
     2   .000     23  2.300                                                     
     0   .000     23  2.300                                                     
     0   .000     23  2.300                                                     
     1  -.200     23  2.300                                                     
     1   .000     23  2.300                                                     
     3   .000      7   .000                                                     
  local pseudopotential read in
  partial core-charges read in
  atomic valenz-charges read in
  non local Contribution for L=           2  read in
    real space projection operators read in
  non local Contribution for L=           2  read in
    real space projection operators read in
  non local Contribution for L=           0  read in
    real space projection operators read in
  non local Contribution for L=           0  read in
    real space projection operators read in
  non local Contribution for L=           1  read in
    real space projection operators read in
  non local Contribution for L=           1  read in
    real space projection operators read in
    PAW grid and wavefunctions read in
 
   number of l-projection  operators is LMAX  =           6
   number of lm-projection operators is LMMAX =          18
 
 PAW_GGA Fe 03Mar1998                   :
 energy of atom  1       EATOM= -595.5622
 kinetic energy error for atom=    0.0345 (will be added to EATOM!!)
 
 
 POSCAR: Fe bulk bcc                             
  positions in direct lattice
  No initial velocities read in
 exchange correlation table for  LEXCH =        7
   RHO(1)=    0.500       N(1)  =     2000
   RHO(2)=  100.500       N(2)  =     4000
 


--------------------------------------------------------------------------------------------------------


 ion  position               nearest neighbor table
   1  0.000  0.000  0.000-
 
  LATTYP: Found a body centered cubic cell.
 ALAT       =     2.8700000000
  
  Lattice vectors:
  
 A1 = (  -1.4350000000,   1.4350000000,   1.4350000000)
 A2 = (   1.4350000000,  -1.4350000000,   1.4350000000)
 A3 = (   1.4350000000,   1.4350000000,  -1.4350000000)


Analysis of symmetry for initial positions (statically):
=====================================================================
 Subroutine PRICEL returns:
 Original cell was already a primitive cell.
 

 Routine SETGRP: Setting up the symmetry group for a 
 body centered cubic supercell.


 Subroutine GETGRP returns: Found 48 space group operations
 (whereof 48 operations were pure point group operations)
 out of a pool of 48 trial point group operations.


The static configuration has the point symmetry O_h .


Analysis of symmetry for dynamics (positions and initial velocities):
=====================================================================
 Subroutine PRICEL returns:
 Original cell was already a primitive cell.
 

 Routine SETGRP: Setting up the symmetry group for a 
 body centered cubic supercell.


 Subroutine GETGRP returns: Found 48 space group operations
 (whereof 48 operations were pure point group operations)
 out of a pool of 48 trial point group operations.


The dynamic configuration has the point symmetry O_h .


Analysis of structural, dynamic, and magnetic symmetry:
=====================================================================
 Subroutine PRICEL returns:
 Original cell was already a primitive cell.
 

 Routine SETGRP: Setting up the symmetry group for a 
 body centered cubic supercell.


 Subroutine GETGRP returns: Found 48 space group operations
 (whereof 48 operations were pure point group operations)
 out of a pool of 48 trial point group operations.


The magnetic configuration has the point symmetry O_h .


 Subroutine INISYM returns: Found 48 space group operations
 (whereof 48 operations are pure point group operations),
 and found     1 'primitive' translations

 
 
 KPOINTS: 20x20x20                                

Automatic generation of k-mesh.
Space group operators:
 irot       det(A)        alpha          n_x          n_y          n_z        tau_x        tau_y        tau_z
    1     1.000000     0.000000     1.000000     0.000000     0.000000     0.000000     0.000000     0.000000
    2    -1.000000     0.000000     1.000000     0.000000     0.000000     0.000000     0.000000     0.000000
    3     1.000000   120.000000    -0.577350    -0.577350    -0.577350     0.000000     0.000000     0.000000
    4    -1.000000   120.000000    -0.577350    -0.577350    -0.577350     0.000000     0.000000     0.000000
    5     1.000000   120.000000     0.577350     0.577350     0.577350     0.000000     0.000000     0.000000
    6    -1.000000   120.000000     0.577350     0.577350     0.577350     0.000000     0.000000     0.000000
    7     1.000000    90.000000     0.000000     0.000000    -1.000000     0.000000     0.000000     0.000000
    8    -1.000000    90.000000     0.000000     0.000000    -1.000000     0.000000     0.000000     0.000000
    9     1.000000   180.000000     0.000000     0.707107     0.707107     0.000000     0.000000     0.000000
   10    -1.000000   180.000000     0.000000     0.707107     0.707107     0.000000     0.000000     0.000000
   11     1.000000    90.000000     0.000000     1.000000     0.000000     0.000000     0.000000     0.000000
   12    -1.000000    90.000000     0.000000     1.000000     0.000000     0.000000     0.000000     0.000000
   13     1.000000   180.000000     0.000000     0.000000     1.000000     0.000000     0.000000     0.000000
   14    -1.000000   180.000000     0.000000     0.000000     1.000000     0.000000     0.000000     0.000000
   15     1.000000   120.000000    -0.577350     0.577350     0.577350     0.000000     0.000000     0.000000
   16    -1.000000   120.000000    -0.577350     0.577350     0.577350     0.000000     0.000000     0.000000
   17     1.000000   120.000000    -0.577350     0.577350    -0.577350     0.000000     0.000000     0.000000
   18    -1.000000   120.000000    -0.577350     0.577350    -0.577350     0.000000     0.000000     0.000000
   19     1.000000    90.000000     0.000000     0.000000     1.000000     0.000000     0.000000     0.000000
   20    -1.000000    90.000000     0.000000     0.000000     1.000000     0.000000     0.000000     0.000000
   21     1.000000    90.000000    -1.000000     0.000000     0.000000     0.000000     0.000000     0.000000
   22    -1.000000    90.000000    -1.000000     0.000000     0.000000     0.000000     0.000000     0.000000
   23     1.000000   180.000000     0.707107     0.000000     0.707107     0.000000     0.000000     0.000000
   24    -1.000000   180.000000     0.707107     0.000000     0.707107     0.000000     0.000000     0.000000
   25     1.000000   120.000000     0.577350    -0.577350     0.577350     0.000000     0.000000     0.000000
   26    -1.000000   120.000000     0.577350    -0.577350     0.577350     0.000000     0.000000     0.000000
   27     1.000000   120.000000    -0.577350    -0.577350     0.577350     0.000000     0.000000     0.000000
   28    -1.000000   120.000000    -0.577350    -0.577350     0.577350     0.000000     0.000000     0.000000
   29     1.000000   180.000000     1.000000     0.000000     0.000000     0.000000     0.000000     0.000000
   30    -1.000000   180.000000     1.000000     0.000000     0.000000     0.000000     0.000000     0.000000
   31     1.000000    90.000000     0.000000    -1.000000     0.000000     0.000000     0.000000     0.000000
   32    -1.000000    90.000000     0.000000    -1.000000     0.000000     0.000000     0.000000     0.000000
   33     1.000000   180.000000     0.707107     0.707107     0.000000     0.000000     0.000000     0.000000
   34    -1.000000   180.000000     0.707107     0.707107     0.000000     0.000000     0.000000     0.000000
   35     1.000000    90.000000     1.000000     0.000000     0.000000     0.000000     0.000000     0.000000
   36    -1.000000    90.000000     1.000000     0.000000     0.000000     0.000000     0.000000     0.000000
   37     1.000000   120.000000     0.577350    -0.577350    -0.577350     0.000000     0.000000     0.000000
   38    -1.000000   120.000000     0.577350    -0.577350    -0.577350     0.000000     0.000000     0.000000
   39     1.000000   180.000000     0.000000     1.000000     0.000000     0.000000     0.000000     0.000000
   40    -1.000000   180.000000     0.000000     1.000000     0.000000     0.000000     0.000000     0.000000
   41     1.000000   120.000000     0.577350     0.577350    -0.577350     0.000000     0.000000     0.000000
   42    -1.000000   120.000000     0.577350     0.577350    -0.577350     0.000000     0.000000     0.000000
   43     1.000000   180.000000     0.000000    -0.707107     0.707107     0.000000     0.000000     0.000000
   44    -1.000000   180.000000     0.000000    -0.707107     0.707107     0.000000     0.000000     0.000000
   45     1.000000   180.000000     0.707107    -0.707107     0.000000     0.000000     0.000000     0.000000
   46    -1.000000   180.000000     0.707107    -0.707107     0.000000     0.000000     0.000000     0.000000
   47     1.000000   180.000000     0.707107     0.000000    -0.707107     0.000000     0.000000     0.000000
   48    -1.000000   180.000000     0.707107     0.000000    -0.707107     0.000000     0.000000     0.000000
 
 Subroutine IBZKPT returns following result:
 ===========================================
 
 Found    250 irreducible k-points:
 
 Following reciprocal coordinates:
            Coordinates               Weight
  0.025000  0.025000  0.025000      8.000000
  0.075000  0.025000  0.025000     24.000000
  0.125000  0.025000  0.025000     24.000000
  0.175000  0.025000  0.025000     24.000000
  0.225000  0.025000  0.025000     24.000000
  0.275000  0.025000  0.025000     24.000000
  0.325000  0.025000  0.025000     24.000000
  0.375000  0.025000  0.025000     24.000000
  0.425000  0.025000  0.025000     24.000000
  0.475000  0.025000  0.025000     12.000000
 -0.025000  0.025000  0.025000      6.000000
  0.075000  0.075000  0.025000     24.000000
  0.125000  0.075000  0.025000     48.000000
  0.175000  0.075000  0.025000     48.000000
  0.225000  0.075000  0.025000     48.000000
  0.275000  0.075000  0.025000     48.000000
  0.325000  0.075000  0.025000     48.000000
  0.375000  0.075000  0.025000     48.000000
  0.425000  0.075000  0.025000     48.000000
 -0.075000  0.075000  0.025000     24.000000
  0.125000  0.125000  0.025000     24.000000
  0.175000  0.125000  0.025000     48.000000
  0.225000  0.125000  0.025000     48.000000
  0.275000  0.125000  0.025000     48.000000
  0.325000  0.125000  0.025000     48.000000
  0.375000  0.125000  0.025000     48.000000
  0.425000  0.125000  0.025000     24.000000
 -0.125000  0.125000  0.025000     24.000000
 -0.075000  0.125000  0.025000     24.000000
  0.175000  0.175000  0.025000     24.000000
  0.225000  0.175000  0.025000     48.000000
  0.275000  0.175000  0.025000     48.000000
  0.325000  0.175000  0.025000     48.000000
  0.375000  0.175000  0.025000     48.000000
 -0.175000  0.175000  0.025000     24.000000
 -0.125000  0.175000  0.025000     48.000000
  0.225000  0.225000  0.025000     24.000000
  0.275000  0.225000  0.025000     48.000000
  0.325000  0.225000  0.025000     48.000000
  0.375000  0.225000  0.025000     24.000000
 -0.225000  0.225000  0.025000     24.000000
 -0.175000  0.225000  0.025000     48.000000
 -0.125000  0.225000  0.025000     24.000000
  0.275000  0.275000  0.025000     24.000000
  0.325000  0.275000  0.025000     48.000000
 -0.275000  0.275000  0.025000     24.000000
 -0.225000  0.275000  0.025000     48.000000
 -0.175000  0.275000  0.025000     48.000000
  0.325000  0.325000  0.025000      8.000000
 -0.325000  0.325000  0.025000     24.000000
 -0.275000  0.325000  0.025000     48.000000
 -0.225000  0.325000  0.025000     48.000000
 -0.175000  0.325000  0.025000     24.000000
 -0.375000  0.375000  0.025000     24.000000
 -0.325000  0.375000  0.025000     48.000000
 -0.275000  0.375000  0.025000     48.000000
 -0.225000  0.375000  0.025000     48.000000
 -0.425000  0.425000  0.025000     24.000000
 -0.375000  0.425000  0.025000     48.000000
 -0.325000  0.425000  0.025000     48.000000
 -0.275000  0.425000  0.025000     48.000000
 -0.225000  0.425000  0.025000     24.000000
 -0.475000  0.475000  0.025000     24.000000
 -0.425000  0.475000  0.025000     48.000000
 -0.375000  0.475000  0.025000     48.000000
 -0.325000  0.475000  0.025000     48.000000
 -0.275000  0.475000  0.025000     48.000000
 -0.475000 -0.475000  0.025000     24.000000
 -0.425000 -0.475000  0.025000     48.000000
 -0.375000 -0.475000  0.025000     48.000000
 -0.325000 -0.475000  0.025000     48.000000
 -0.275000 -0.475000  0.025000     24.000000
 -0.425000 -0.425000  0.025000     24.000000
 -0.375000 -0.425000  0.025000     48.000000
 -0.325000 -0.425000  0.025000     48.000000
 -0.375000 -0.375000  0.025000     24.000000
 -0.325000 -0.375000  0.025000     24.000000
  0.075000  0.075000  0.075000      8.000000
  0.125000  0.075000  0.075000     24.000000
  0.175000  0.075000  0.075000     24.000000
  0.225000  0.075000  0.075000     24.000000
  0.275000  0.075000  0.075000     24.000000
  0.325000  0.075000  0.075000     24.000000
  0.375000  0.075000  0.075000     24.000000
  0.425000  0.075000  0.075000     12.000000
 -0.075000  0.075000  0.075000      6.000000
  0.125000  0.125000  0.075000     24.000000
  0.175000  0.125000  0.075000     48.000000
  0.225000  0.125000  0.075000     48.000000
  0.275000  0.125000  0.075000     48.000000
  0.325000  0.125000  0.075000     48.000000
  0.375000  0.125000  0.075000     48.000000
 -0.125000  0.125000  0.075000     24.000000
  0.175000  0.175000  0.075000     24.000000
  0.225000  0.175000  0.075000     48.000000
  0.275000  0.175000  0.075000     48.000000
  0.325000  0.175000  0.075000     48.000000
  0.375000  0.175000  0.075000     24.000000
 -0.175000  0.175000  0.075000     24.000000
 -0.125000  0.175000  0.075000     24.000000
  0.225000  0.225000  0.075000     24.000000
  0.275000  0.225000  0.075000     48.000000
  0.325000  0.225000  0.075000     48.000000
 -0.225000  0.225000  0.075000     24.000000
 -0.175000  0.225000  0.075000     48.000000
  0.275000  0.275000  0.075000     24.000000
  0.325000  0.275000  0.075000     24.000000
 -0.275000  0.275000  0.075000     24.000000
 -0.225000  0.275000  0.075000     48.000000
 -0.175000  0.275000  0.075000     24.000000
 -0.325000  0.325000  0.075000     24.000000
 -0.275000  0.325000  0.075000     48.000000
 -0.225000  0.325000  0.075000     48.000000
 -0.375000  0.375000  0.075000     24.000000
 -0.325000  0.375000  0.075000     48.000000
 -0.275000  0.375000  0.075000     48.000000
 -0.225000  0.375000  0.075000     24.000000
 -0.425000  0.425000  0.075000     24.000000
 -0.375000  0.425000  0.075000     48.000000
 -0.325000  0.425000  0.075000     48.000000
 -0.275000  0.425000  0.075000     48.000000
 -0.475000  0.475000  0.075000     24.000000
 -0.425000  0.475000  0.075000     48.000000
 -0.375000  0.475000  0.075000     48.000000
 -0.325000  0.475000  0.075000     48.000000
 -0.275000  0.475000  0.075000     24.000000
 -0.475000 -0.475000  0.075000     24.000000
 -0.425000 -0.475000  0.075000     48.000000
 -0.375000 -0.475000  0.075000     48.000000
 -0.325000 -0.475000  0.075000     48.000000
 -0.425000 -0.425000  0.075000     24.000000
 -0.375000 -0.425000  0.075000     48.000000
 -0.325000 -0.425000  0.075000     24.000000
 -0.375000 -0.375000  0.075000     24.000000
  0.125000  0.125000  0.125000      8.000000
  0.175000  0.125000  0.125000     24.000000
  0.225000  0.125000  0.125000     24.000000
  0.275000  0.125000  0.125000     24.000000
  0.325000  0.125000  0.125000     24.000000
  0.375000  0.125000  0.125000     12.000000
 -0.125000  0.125000  0.125000      6.000000
  0.175000  0.175000  0.125000     24.000000
  0.225000  0.175000  0.125000     48.000000
  0.275000  0.175000  0.125000     48.000000
  0.325000  0.175000  0.125000     48.000000
 -0.175000  0.175000  0.125000     24.000000
  0.225000  0.225000  0.125000     24.000000
  0.275000  0.225000  0.125000     48.000000
  0.325000  0.225000  0.125000     24.000000
 -0.225000  0.225000  0.125000     24.000000
 -0.175000  0.225000  0.125000     24.000000
  0.275000  0.275000  0.125000     24.000000
 -0.275000  0.275000  0.125000     24.000000
 -0.225000  0.275000  0.125000     48.000000
 -0.325000  0.325000  0.125000     24.000000
 -0.275000  0.325000  0.125000     48.000000
 -0.225000  0.325000  0.125000     24.000000
 -0.375000  0.375000  0.125000     24.000000
 -0.325000  0.375000  0.125000     48.000000
 -0.275000  0.375000  0.125000     48.000000
 -0.425000  0.425000  0.125000     24.000000
 -0.375000  0.425000  0.125000     48.000000
 -0.325000  0.425000  0.125000     48.000000
 -0.275000  0.425000  0.125000     24.000000
 -0.475000  0.475000  0.125000     24.000000
 -0.425000  0.475000  0.125000     48.000000
 -0.375000  0.475000  0.125000     48.000000
 -0.325000  0.475000  0.125000     48.000000
 -0.475000 -0.475000  0.125000     24.000000
 -0.425000 -0.475000  0.125000     48.000000
 -0.375000 -0.475000  0.125000     48.000000
 -0.325000 -0.475000  0.125000     24.000000
 -0.425000 -0.425000  0.125000     24.000000
 -0.375000 -0.425000  0.125000     48.000000
 -0.375000 -0.375000  0.125000      8.000000
  0.175000  0.175000  0.175000      8.000000
  0.225000  0.175000  0.175000     24.000000
  0.275000  0.175000  0.175000     24.000000
  0.325000  0.175000  0.175000     12.000000
 -0.175000  0.175000  0.175000      6.000000
  0.225000  0.225000  0.175000     24.000000
  0.275000  0.225000  0.175000     48.000000
 -0.225000  0.225000  0.175000     24.000000
  0.275000  0.275000  0.175000      8.000000
 -0.275000  0.275000  0.175000     24.000000
 -0.225000  0.275000  0.175000     24.000000
 -0.325000  0.325000  0.175000     24.000000
 -0.275000  0.325000  0.175000     48.000000
 -0.375000  0.375000  0.175000     24.000000
 -0.325000  0.375000  0.175000     48.000000
 -0.275000  0.375000  0.175000     24.000000
 -0.425000  0.425000  0.175000     24.000000
 -0.375000  0.425000  0.175000     48.000000
 -0.325000  0.425000  0.175000     48.000000
 -0.475000  0.475000  0.175000     24.000000
 -0.425000  0.475000  0.175000     48.000000
 -0.375000  0.475000  0.175000     48.000000
 -0.325000  0.475000  0.175000     24.000000
 -0.475000 -0.475000  0.175000     24.000000
 -0.425000 -0.475000  0.175000     48.000000
 -0.375000 -0.475000  0.175000     48.000000
 -0.425000 -0.425000  0.175000     24.000000
 -0.375000 -0.425000  0.175000     24.000000
  0.225000  0.225000  0.225000      8.000000
  0.275000  0.225000  0.225000     12.000000
 -0.225000  0.225000  0.225000      6.000000
 -0.275000  0.275000  0.225000     24.000000
 -0.325000  0.325000  0.225000     24.000000
 -0.275000  0.325000  0.225000     24.000000
 -0.375000  0.375000  0.225000     24.000000
 -0.325000  0.375000  0.225000     48.000000
 -0.425000  0.425000  0.225000     24.000000
 -0.375000  0.425000  0.225000     48.000000
 -0.325000  0.425000  0.225000     24.000000
 -0.475000  0.475000  0.225000     24.000000
 -0.425000  0.475000  0.225000     48.000000
 -0.375000  0.475000  0.225000     48.000000
 -0.475000 -0.475000  0.225000     24.000000
 -0.425000 -0.475000  0.225000     48.000000
 -0.375000 -0.475000  0.225000     24.000000
 -0.425000 -0.425000  0.225000     24.000000
 -0.275000  0.275000  0.275000      6.000000
 -0.325000  0.325000  0.275000     24.000000
 -0.375000  0.375000  0.275000     24.000000
 -0.325000  0.375000  0.275000     24.000000
 -0.425000  0.425000  0.275000     24.000000
 -0.375000  0.425000  0.275000     48.000000
 -0.475000  0.475000  0.275000     24.000000
 -0.425000  0.475000  0.275000     48.000000
 -0.375000  0.475000  0.275000     24.000000
 -0.475000 -0.475000  0.275000     24.000000
 -0.425000 -0.475000  0.275000     48.000000
 -0.425000 -0.425000  0.275000      8.000000
 -0.325000  0.325000  0.325000      6.000000
 -0.375000  0.375000  0.325000     24.000000
 -0.425000  0.425000  0.325000     24.000000
 -0.375000  0.425000  0.325000     24.000000
 -0.475000  0.475000  0.325000     24.000000
 -0.425000  0.475000  0.325000     48.000000
 -0.475000 -0.475000  0.325000     24.000000
 -0.425000 -0.475000  0.325000     24.000000
 -0.375000  0.375000  0.375000      6.000000
 -0.425000  0.425000  0.375000     24.000000
 -0.475000  0.475000  0.375000     24.000000
 -0.425000  0.475000  0.375000     24.000000
 -0.475000 -0.475000  0.375000     24.000000
 -0.425000  0.425000  0.425000      6.000000
 -0.475000  0.475000  0.425000     24.000000
 -0.475000 -0.475000  0.425000      8.000000
 -0.475000  0.475000  0.475000      6.000000
 
 Following cartesian coordinates:
            Coordinates               Weight
  0.050000  0.050000  0.050000      8.000000
  0.050000  0.100000  0.100000     24.000000
  0.050000  0.150000  0.150000     24.000000
  0.050000  0.200000  0.200000     24.000000
  0.050000  0.250000  0.250000     24.000000
  0.050000  0.300000  0.300000     24.000000
  0.050000  0.350000  0.350000     24.000000
  0.050000  0.400000  0.400000     24.000000
  0.050000  0.450000  0.450000     24.000000
  0.050000  0.500000  0.500000     12.000000
  0.050000  0.000000  0.000000      6.000000
  0.100000  0.100000  0.150000     24.000000
  0.100000  0.150000  0.200000     48.000000
  0.100000  0.200000  0.250000     48.000000
  0.100000  0.250000  0.300000     48.000000
  0.100000  0.300000  0.350000     48.000000
  0.100000  0.350000  0.400000     48.000000
  0.100000  0.400000  0.450000     48.000000
  0.100000  0.450000  0.500000     48.000000
  0.100000 -0.050000  0.000000     24.000000
  0.150000  0.150000  0.250000     24.000000
  0.150000  0.200000  0.300000     48.000000
  0.150000  0.250000  0.350000     48.000000
  0.150000  0.300000  0.400000     48.000000
  0.150000  0.350000  0.450000     48.000000
  0.150000  0.400000  0.500000     48.000000
  0.150000  0.450000  0.550000     24.000000
  0.150000 -0.100000  0.000000     24.000000
  0.150000 -0.050000  0.050000     24.000000
  0.200000  0.200000  0.350000     24.000000
  0.200000  0.250000  0.400000     48.000000
  0.200000  0.300000  0.450000     48.000000
  0.200000  0.350000  0.500000     48.000000
  0.200000  0.400000  0.550000     48.000000
  0.200000 -0.150000  0.000000     24.000000
  0.200000 -0.100000  0.050000     48.000000
  0.250000  0.250000  0.450000     24.000000
  0.250000  0.300000  0.500000     48.000000
  0.250000  0.350000  0.550000     48.000000
  0.250000  0.400000  0.600000     24.000000
  0.250000 -0.200000  0.000000     24.000000
  0.250000 -0.150000  0.050000     48.000000
  0.250000 -0.100000  0.100000     24.000000
  0.300000  0.300000  0.550000     24.000000
  0.300000  0.350000  0.600000     48.000000
  0.300000 -0.250000  0.000000     24.000000
  0.300000 -0.200000  0.050000     48.000000
  0.300000 -0.150000  0.100000     48.000000
  0.350000  0.350000  0.650000      8.000000
  0.350000 -0.300000  0.000000     24.000000
  0.350000 -0.250000  0.050000     48.000000
  0.350000 -0.200000  0.100000     48.000000
  0.350000 -0.150000  0.150000     24.000000
  0.400000 -0.350000  0.000000     24.000000
  0.400000 -0.300000  0.050000     48.000000
  0.400000 -0.250000  0.100000     48.000000
  0.400000 -0.200000  0.150000     48.000000
  0.450000 -0.400000  0.000000     24.000000
  0.450000 -0.350000  0.050000     48.000000
  0.450000 -0.300000  0.100000     48.000000
  0.450000 -0.250000  0.150000     48.000000
  0.450000 -0.200000  0.200000     24.000000
  0.500000 -0.450000  0.000000     24.000000
  0.500000 -0.400000  0.050000     48.000000
  0.500000 -0.350000  0.100000     48.000000
  0.500000 -0.300000  0.150000     48.000000
  0.500000 -0.250000  0.200000     48.000000
 -0.450000 -0.450000 -0.950000     24.000000
 -0.450000 -0.400000 -0.900000     48.000000
 -0.450000 -0.350000 -0.850000     48.000000
 -0.450000 -0.300000 -0.800000     48.000000
 -0.450000 -0.250000 -0.750000     24.000000
 -0.400000 -0.400000 -0.850000     24.000000
 -0.400000 -0.350000 -0.800000     48.000000
 -0.400000 -0.300000 -0.750000     48.000000
 -0.350000 -0.350000 -0.750000     24.000000
 -0.350000 -0.300000 -0.700000     24.000000
  0.150000  0.150000  0.150000      8.000000
  0.150000  0.200000  0.200000     24.000000
  0.150000  0.250000  0.250000     24.000000
  0.150000  0.300000  0.300000     24.000000
  0.150000  0.350000  0.350000     24.000000
  0.150000  0.400000  0.400000     24.000000
  0.150000  0.450000  0.450000     24.000000
  0.150000  0.500000  0.500000     12.000000
  0.150000  0.000000  0.000000      6.000000
  0.200000  0.200000  0.250000     24.000000
  0.200000  0.250000  0.300000     48.000000
  0.200000  0.300000  0.350000     48.000000
  0.200000  0.350000  0.400000     48.000000
  0.200000  0.400000  0.450000     48.000000
  0.200000  0.450000  0.500000     48.000000
  0.200000 -0.050000  0.000000     24.000000
  0.250000  0.250000  0.350000     24.000000
  0.250000  0.300000  0.400000     48.000000
  0.250000  0.350000  0.450000     48.000000
  0.250000  0.400000  0.500000     48.000000
  0.250000  0.450000  0.550000     24.000000
  0.250000 -0.100000  0.000000     24.000000
  0.250000 -0.050000  0.050000     24.000000
  0.300000  0.300000  0.450000     24.000000
  0.300000  0.350000  0.500000     48.000000
  0.300000  0.400000  0.550000     48.000000
  0.300000 -0.150000  0.000000     24.000000
  0.300000 -0.100000  0.050000     48.000000
  0.350000  0.350000  0.550000     24.000000
  0.350000  0.400000  0.600000     24.000000
  0.350000 -0.200000  0.000000     24.000000
  0.350000 -0.150000  0.050000     48.000000
  0.350000 -0.100000  0.100000     24.000000
  0.400000 -0.250000  0.000000     24.000000
  0.400000 -0.200000  0.050000     48.000000
  0.400000 -0.150000  0.100000     48.000000
  0.450000 -0.300000  0.000000     24.000000
  0.450000 -0.250000  0.050000     48.000000
  0.450000 -0.200000  0.100000     48.000000
  0.450000 -0.150000  0.150000     24.000000
  0.500000 -0.350000  0.000000     24.000000
  0.500000 -0.300000  0.050000     48.000000
  0.500000 -0.250000  0.100000     48.000000
  0.500000 -0.200000  0.150000     48.000000
  0.550000 -0.400000  0.000000     24.000000
  0.550000 -0.350000  0.050000     48.000000
  0.550000 -0.300000  0.100000     48.000000
  0.550000 -0.250000  0.150000     48.000000
  0.550000 -0.200000  0.200000     24.000000
 -0.400000 -0.400000 -0.950000     24.000000
 -0.400000 -0.350000 -0.900000     48.000000
 -0.400000 -0.300000 -0.850000     48.000000
 -0.400000 -0.250000 -0.800000     48.000000
 -0.350000 -0.350000 -0.850000     24.000000
 -0.350000 -0.300000 -0.800000     48.000000
 -0.350000 -0.250000 -0.750000     24.000000
 -0.300000 -0.300000 -0.750000     24.000000
  0.250000  0.250000  0.250000      8.000000
  0.250000  0.300000  0.300000     24.000000
  0.250000  0.350000  0.350000     24.000000
  0.250000  0.400000  0.400000     24.000000
  0.250000  0.450000  0.450000     24.000000
  0.250000  0.500000  0.500000     12.000000
  0.250000  0.000000  0.000000      6.000000
  0.300000  0.300000  0.350000     24.000000
  0.300000  0.350000  0.400000     48.000000
  0.300000  0.400000  0.450000     48.000000
  0.300000  0.450000  0.500000     48.000000
  0.300000 -0.050000  0.000000     24.000000
  0.350000  0.350000  0.450000     24.000000
  0.350000  0.400000  0.500000     48.000000
  0.350000  0.450000  0.550000     24.000000
  0.350000 -0.100000  0.000000     24.000000
  0.350000 -0.050000  0.050000     24.000000
  0.400000  0.400000  0.550000     24.000000
  0.400000 -0.150000  0.000000     24.000000
  0.400000 -0.100000  0.050000     48.000000
  0.450000 -0.200000  0.000000     24.000000
  0.450000 -0.150000  0.050000     48.000000
  0.450000 -0.100000  0.100000     24.000000
  0.500000 -0.250000  0.000000     24.000000
  0.500000 -0.200000  0.050000     48.000000
  0.500000 -0.150000  0.100000     48.000000
  0.550000 -0.300000  0.000000     24.000000
  0.550000 -0.250000  0.050000     48.000000
  0.550000 -0.200000  0.100000     48.000000
  0.550000 -0.150000  0.150000     24.000000
  0.600000 -0.350000  0.000000     24.000000
  0.600000 -0.300000  0.050000     48.000000
  0.600000 -0.250000  0.100000     48.000000
  0.600000 -0.200000  0.150000     48.000000
 -0.350000 -0.350000 -0.950000     24.000000
 -0.350000 -0.300000 -0.900000     48.000000
 -0.350000 -0.250000 -0.850000     48.000000
 -0.350000 -0.200000 -0.800000     24.000000
 -0.300000 -0.300000 -0.850000     24.000000
 -0.300000 -0.250000 -0.800000     48.000000
 -0.250000 -0.250000 -0.750000      8.000000
  0.350000  0.350000  0.350000      8.000000
  0.350000  0.400000  0.400000     24.000000
  0.350000  0.450000  0.450000     24.000000
  0.350000  0.500000  0.500000     12.000000
  0.350000  0.000000  0.000000      6.000000
  0.400000  0.400000  0.450000     24.000000
  0.400000  0.450000  0.500000     48.000000
  0.400000 -0.050000  0.000000     24.000000
  0.450000  0.450000  0.550000      8.000000
  0.450000 -0.100000  0.000000     24.000000
  0.450000 -0.050000  0.050000     24.000000
  0.500000 -0.150000  0.000000     24.000000
  0.500000 -0.100000  0.050000     48.000000
  0.550000 -0.200000  0.000000     24.000000
  0.550000 -0.150000  0.050000     48.000000
  0.550000 -0.100000  0.100000     24.000000
  0.600000 -0.250000  0.000000     24.000000
  0.600000 -0.200000  0.050000     48.000000
  0.600000 -0.150000  0.100000     48.000000
  0.650000 -0.300000  0.000000     24.000000
  0.650000 -0.250000  0.050000     48.000000
  0.650000 -0.200000  0.100000     48.000000
  0.650000 -0.150000  0.150000     24.000000
 -0.300000 -0.300000 -0.950000     24.000000
 -0.300000 -0.250000 -0.900000     48.000000
 -0.300000 -0.200000 -0.850000     48.000000
 -0.250000 -0.250000 -0.850000     24.000000
 -0.250000 -0.200000 -0.800000     24.000000
  0.450000  0.450000  0.450000      8.000000
  0.450000  0.500000  0.500000     12.000000
  0.450000  0.000000  0.000000      6.000000
  0.500000 -0.050000  0.000000     24.000000
  0.550000 -0.100000  0.000000     24.000000
  0.550000 -0.050000  0.050000     24.000000
  0.600000 -0.150000  0.000000     24.000000
  0.600000 -0.100000  0.050000     48.000000
  0.650000 -0.200000  0.000000     24.000000
  0.650000 -0.150000  0.050000     48.000000
  0.650000 -0.100000  0.100000     24.000000
  0.700000 -0.250000  0.000000     24.000000
  0.700000 -0.200000  0.050000     48.000000
  0.700000 -0.150000  0.100000     48.000000
 -0.250000 -0.250000 -0.950000     24.000000
 -0.250000 -0.200000 -0.900000     48.000000
 -0.250000 -0.150000 -0.850000     24.000000
 -0.200000 -0.200000 -0.850000     24.000000
  0.550000  0.000000  0.000000      6.000000
  0.600000 -0.050000  0.000000     24.000000
  0.650000 -0.100000  0.000000     24.000000
  0.650000 -0.050000  0.050000     24.000000
  0.700000 -0.150000  0.000000     24.000000
  0.700000 -0.100000  0.050000     48.000000
  0.750000 -0.200000  0.000000     24.000000
  0.750000 -0.150000  0.050000     48.000000
  0.750000 -0.100000  0.100000     24.000000
 -0.200000 -0.200000 -0.950000     24.000000
 -0.200000 -0.150000 -0.900000     48.000000
 -0.150000 -0.150000 -0.850000      8.000000
  0.650000  0.000000  0.000000      6.000000
  0.700000 -0.050000  0.000000     24.000000
  0.750000 -0.100000  0.000000     24.000000
  0.750000 -0.050000  0.050000     24.000000
  0.800000 -0.150000  0.000000     24.000000
  0.800000 -0.100000  0.050000     48.000000
 -0.150000 -0.150000 -0.950000     24.000000
 -0.150000 -0.100000 -0.900000     24.000000
  0.750000  0.000000  0.000000      6.000000
  0.800000 -0.050000  0.000000     24.000000
  0.850000 -0.100000  0.000000     24.000000
  0.850000 -0.050000  0.050000     24.000000
 -0.100000 -0.100000 -0.950000     24.000000
  0.850000  0.000000  0.000000      6.000000
  0.900000 -0.050000  0.000000     24.000000
 -0.050000 -0.050000 -0.950000      8.000000
  0.950000  0.000000  0.000000      6.000000
 
 TETIRR: Found   9483 inequivalent tetrahedra from    48000


--------------------------------------------------------------------------------------------------------




 Dimension of arrays:
   k-points           NKPTS =    250   k-points in BZ     NKDIM =    250   number of bands    NBANDS=     10
   number of dos      NEDOS =    301   number of ions     NIONS =      1
   non local maximal  LDIM  =      6   non local SUM 2l+1 LMDIM =     18
   total plane-waves  NPLWV =   1000
   max r-space proj   IRMAX =      1   max aug-charges    IRDMAX=   3213
   dimension x,y,z NGX =    10 NGY =   10 NGZ =   10
   dimension x,y,z NGXF=    20 NGYF=   20 NGZF=   20
   support grid    NGXF=    20 NGYF=   20 NGZF=   20
   ions per type =               1
   NGX,Y,Z   is equivalent  to a cutoff of   6.69,  6.69,  6.69 a.u.
   NGXF,Y,Z  is equivalent  to a cutoff of  13.38, 13.38, 13.38 a.u.

 SYSTEM =  bcc Fe                                  
 POSCAR =  Fe bulk bcc                             

 Startparameter for this run:
   NWRITE =      2    write-flag & timer
   PREC   = normal    normal or accurate (medium, high low for compatibility)
   ISTART =      0    job   : 0-new  1-cont  2-samecut
   ICHARG =     11    charge: 1-file 2-atom 10-const
   ISPIN  =      2    spin polarized calculation?
   LNONCOLLINEAR =      F non collinear calculations
   LSORBIT =      F    spin-orbit coupling
   INIWAV =      1    electr: 0-lowe 1-rand  2-diag
   LASPH  =      F    aspherical Exc in radial PAW
   METAGGA=      F    non-selfconsistent MetaGGA calc.

 Electronic Relaxation 1
   ENCUT  =  267.9 eV  19.69 Ry    4.44 a.u.   3.32  3.32  3.32*2*pi/ulx,y,z
   ENINI  =  267.9     initial cutoff
   ENAUG  =  511.4 eV  augmentation charge cutoff
   NELM   =     60;   NELMIN=  2; NELMDL= -5     # of ELM steps 
   EDIFF  = 0.1E-03   stopping-criterion for ELM
   LREAL  =      F    real-space projection
   NLSPLINE    = F    spline interpolate recip. space projectors
   LCOMPAT=      F    compatible to vasp.4.4
   GGA_COMPAT  = T    GGA compatible to vasp.4.4-vasp.4.6
   LMAXPAW     = -100 max onsite density
   LMAXMIX     =    2 max onsite mixed and CHGCAR
   VOSKOWN=      0    Vosko Wilk Nusair interpolation
   ROPT   =    0.00000
 Ionic relaxation
   EDIFFG = 0.1E-02   stopping-criterion for IOM
   NSW    =      0    number of steps for IOM
   NBLOCK =      1;   KBLOCK =      1    inner block; outer block 
   IBRION =     -1    ionic relax: 0-MD 1-quasi-New 2-CG
   NFREE  =      0    steps in history (QN), initial steepest desc. (CG)
   ISIF   =      2    stress and relaxation
   IWAVPR =     10    prediction:  0-non 1-charg 2-wave 3-comb
   ISYM   =      2    0-nonsym 1-usesym 2-fastsym
   LCORR  =      T    Harris-Foulkes like correction to forces

   POTIM  = 0.5000    time-step for ionic-motion
   TEIN   =    0.0    initial temperature
   TEBEG  =    0.0;   TEEND  =   0.0 temperature during run
   SMASS  =  -3.00    Nose mass-parameter (am)
   estimated Nose-frequenzy (Omega)   =  0.10E-29 period in steps =****** mass=  -0.141E-27a.u.
   SCALEE = 1.0000    scale energy and forces
   NPACO  =    256;   APACO  = 16.0  distance and # of slots for P.C.
   PSTRESS=    0.0 pullay stress

  Mass of Ions in am
   POMASS =  55.85
  Ionic Valenz
   ZVAL   =   8.00
  Atomic Wigner-Seitz radii
   RWIGS  =   1.30
  virtual crystal weights 
   VCA    =   1.00
   NELECT =       8.0000    total number of electrons
   NUPDOWN=      -1.0000    fix difference up-down

 DOS related values:
   EMIN   =  10.00;   EMAX   =-10.00  energy-range for DOS
   EFERMI =   0.00
   ISMEAR =    -5;   SIGMA  =   0.20  broadening in eV -4-tet -1-fermi 0-gaus

 Electronic relaxation 2 (details)
   IALGO  =     38    algorithm
   LDIAG  =      T    sub-space diagonalisation (order eigenvalues)
   LSUBROT=      F    optimize rotation matrix (better conditioning)
   TURBO    =      0    0=normal 1=particle mesh
   IRESTART =      0    0=no restart 2=restart with 2 vectors
   NREBOOT  =      0    no. of reboots
   NMIN     =      0    reboot dimension
   EREF     =   0.00    reference energy to select bands
   IMIX   =      4    mixing-type and parameters
     AMIX     =   0.40;   BMIX     =  1.00
     AMIX_MAG =   1.60;   BMIX_MAG =  1.00
     AMIN     =   0.10
     WC   =   100.;   INIMIX=   1;  MIXPRE=   1;  MAXMIX= -45

 Intra band minimization:
   WEIMIN = 0.0000     energy-eigenvalue tresh-hold
   EBREAK =  0.25E-05  absolut break condition
   DEPER  =   0.30     relativ break condition  

   TIME   =   0.40     timestep for ELM

  volume/ion in A,a.u.               =      11.82        79.76
  Fermi-wavevector in a.u.,A,eV,Ry     =   1.437362  2.716221 28.109779  2.066010
  Thomas-Fermi vector in A             =   2.556448
 
 Write flags
   LWAVE        =      F    write WAVECAR
   LDOWNSAMPLE  =      F    k-point downsampling of WAVECAR
   LCHARG       =      F    write CHGCAR
   LVTOT        =      F    write LOCPOT, total local potential
   LVHAR        =      F    write LOCPOT, Hartree potential only
   LELF         =      F    write electronic localiz. function (ELF)
   LORBIT       =     10    0 simple, 1 ext, 2 COOP (PROOUT), +10 PAW based schemes


 Dipole corrections
   LMONO  =      F    monopole corrections only (constant potential shift)
   LDIPOL =      F    correct potential (dipole corrections)
   IDIPOL =      0    1-x, 2-y, 3-z, 4-all directions 
   EPSILON=  1.0000000 bulk dielectric constant

 Exchange correlation treatment:
   GGA     =    --    GGA type
   LEXCH   =     7    internal setting for exchange type
   VOSKOWN=      0    Vosko Wilk Nusair interpolation
   LHFCALC =     F    Hartree Fock is set to
   LHFONE  =     F    Hartree Fock one center treatment
   AEXX    =    0.0000 exact exchange contribution

 Linear response parameters
   LEPSILON=     F    determine dielectric tensor
   LRPA    =     F    only Hartree local field effects (RPA)
   LNABLA  =     F    use nabla operator in PAW spheres
   LVEL    =     F    velocity operator in full k-point grid
   LINTERFAST=   F  fast interpolation
   KINTER  =     0    interpolate to denser k-point grid
   CSHIFT  =0.1000    complex shift for real part using Kramers Kronig
   OMEGAMAX=  -1.0    maximum frequency
   DEG_THRESHOLD= 0.2000000E-02 threshold for treating states as degnerate
   RTIME   =   -0.100 relaxation time in fs
  (WPLASMAI=    0.000 imaginary part of plasma frequency in eV, 0.658/RTIME)
   DFIELD  = 0.0000000 0.0000000 0.0000000 field for delta impulse in time
 
 Orbital magnetization related:
   ORBITALMAG=     F  switch on orbital magnetization
   LCHIMAG   =     F  perturbation theory with respect to B field
   DQ        =  0.001000  dq finite difference perturbation B field
   LLRAUG    =     F  two centre corrections for induced B field



--------------------------------------------------------------------------------------------------------


 Static calculation
 charge density and potential remain constant during run
 spin polarized calculation
 Variant of blocked Davidson
 Davidson routine will perform the subspace rotation
 perform sub-space diagonalisation
    after iterative eigenvector-optimisation
 no mixing
 using additional bands            6
 reciprocal scheme for non local part
 use partial core corrections
 calculate Harris-corrections to forces 
   (improved forces if not selfconsistent)
 use gradient corrections 
 WARNING: stress and forces are not correct
  (second derivative of E(xc) not defined)
 use of overlap-Matrix (Vanderbilt PP)
 Fermi weights with tetrahedron method with Bloechl corrections


--------------------------------------------------------------------------------------------------------


  energy-cutoff  :      267.91
  volume of cell :       11.82
      direct lattice vectors                 reciprocal lattice vectors
    -1.435000000  1.435000000  1.435000000     0.000000000  0.348432056  0.348432056
     1.435000000 -1.435000000  1.435000000     0.348432056  0.000000000  0.348432056
     1.435000000  1.435000000 -1.435000000     0.348432056  0.348432056  0.000000000

  length of vectors
     2.485492909  2.485492909  2.485492909     0.492757339  0.492757339  0.492757339


 
 k-points in units of 2pi/SCALE and weight: 20x20x20                                
   0.05000000  0.05000000  0.05000000       0.001
   0.05000000  0.10000000  0.10000000       0.003
   0.05000000  0.15000000  0.15000000       0.003
   0.05000000  0.20000000  0.20000000       0.003
   0.05000000  0.25000000  0.25000000       0.003
   0.05000000  0.30000000  0.30000000       0.003
   0.05000000  0.35000000  0.35000000       0.003
   0.05000000  0.40000000  0.40000000       0.003
   0.05000000  0.45000000  0.45000000       0.003
   0.05000000  0.50000000  0.50000000       0.002
   0.05000000  0.00000000  0.00000000       0.001
   0.10000000  0.10000000  0.15000000       0.003
   0.10000000  0.15000000  0.20000000       0.006
   0.10000000  0.20000000  0.25000000       0.006
   0.10000000  0.25000000  0.30000000       0.006
   0.10000000  0.30000000  0.35000000       0.006
   0.10000000  0.35000000  0.40000000       0.006
   0.10000000  0.40000000  0.45000000       0.006
   0.10000000  0.45000000  0.50000000       0.006
   0.10000000 -0.05000000  0.00000000       0.003
   0.15000000  0.15000000  0.25000000       0.003
   0.15000000  0.20000000  0.30000000       0.006
   0.15000000  0.25000000  0.35000000       0.006
   0.15000000  0.30000000  0.40000000       0.006
   0.15000000  0.35000000  0.45000000       0.006
   0.15000000  0.40000000  0.50000000       0.006
   0.15000000  0.45000000  0.55000000       0.003
   0.15000000 -0.10000000  0.00000000       0.003
   0.15000000 -0.05000000  0.05000000       0.003
   0.20000000  0.20000000  0.35000000       0.003
   0.20000000  0.25000000  0.40000000       0.006
   0.20000000  0.30000000  0.45000000       0.006
   0.20000000  0.35000000  0.50000000       0.006
   0.20000000  0.40000000  0.55000000       0.006
   0.20000000 -0.15000000  0.00000000       0.003
   0.20000000 -0.10000000  0.05000000       0.006
   0.25000000  0.25000000  0.45000000       0.003
   0.25000000  0.30000000  0.50000000       0.006
   0.25000000  0.35000000  0.55000000       0.006
   0.25000000  0.40000000  0.60000000       0.003
   0.25000000 -0.20000000  0.00000000       0.003
   0.25000000 -0.15000000  0.05000000       0.006
   0.25000000 -0.10000000  0.10000000       0.003
   0.30000000  0.30000000  0.55000000       0.003
   0.30000000  0.35000000  0.60000000       0.006
   0.30000000 -0.25000000  0.00000000       0.003
   0.30000000 -0.20000000  0.05000000       0.006
   0.30000000 -0.15000000  0.10000000       0.006
   0.35000000  0.35000000  0.65000000       0.001
   0.35000000 -0.30000000  0.00000000       0.003
   0.35000000 -0.25000000  0.05000000       0.006
   0.35000000 -0.20000000  0.10000000       0.006
   0.35000000 -0.15000000  0.15000000       0.003
   0.40000000 -0.35000000  0.00000000       0.003
   0.40000000 -0.30000000  0.05000000       0.006
   0.40000000 -0.25000000  0.10000000       0.006
   0.40000000 -0.20000000  0.15000000       0.006
   0.45000000 -0.40000000  0.00000000       0.003
   0.45000000 -0.35000000  0.05000000       0.006
   0.45000000 -0.30000000  0.10000000       0.006
   0.45000000 -0.25000000  0.15000000       0.006
   0.45000000 -0.20000000  0.20000000       0.003
   0.50000000 -0.45000000  0.00000000       0.003
   0.50000000 -0.40000000  0.05000000       0.006
   0.50000000 -0.35000000  0.10000000       0.006
   0.50000000 -0.30000000  0.15000000       0.006
   0.50000000 -0.25000000  0.20000000       0.006
  -0.45000000 -0.45000000 -0.95000000       0.003
  -0.45000000 -0.40000000 -0.90000000       0.006
  -0.45000000 -0.35000000 -0.85000000       0.006
  -0.45000000 -0.30000000 -0.80000000       0.006
  -0.45000000 -0.25000000 -0.75000000       0.003
  -0.40000000 -0.40000000 -0.85000000       0.003
  -0.40000000 -0.35000000 -0.80000000       0.006
  -0.40000000 -0.30000000 -0.75000000       0.006
  -0.35000000 -0.35000000 -0.75000000       0.003
  -0.35000000 -0.30000000 -0.70000000       0.003
   0.15000000  0.15000000  0.15000000       0.001
   0.15000000  0.20000000  0.20000000       0.003
   0.15000000  0.25000000  0.25000000       0.003
   0.15000000  0.30000000  0.30000000       0.003
   0.15000000  0.35000000  0.35000000       0.003
   0.15000000  0.40000000  0.40000000       0.003
   0.15000000  0.45000000  0.45000000       0.003
   0.15000000  0.50000000  0.50000000       0.002
   0.15000000  0.00000000  0.00000000       0.001
   0.20000000  0.20000000  0.25000000       0.003
   0.20000000  0.25000000  0.30000000       0.006
   0.20000000  0.30000000  0.35000000       0.006
   0.20000000  0.35000000  0.40000000       0.006
   0.20000000  0.40000000  0.45000000       0.006
   0.20000000  0.45000000  0.50000000       0.006
   0.20000000 -0.05000000  0.00000000       0.003
   0.25000000  0.25000000  0.35000000       0.003
   0.25000000  0.30000000  0.40000000       0.006
   0.25000000  0.35000000  0.45000000       0.006
   0.25000000  0.40000000  0.50000000       0.006
   0.25000000  0.45000000  0.55000000       0.003
   0.25000000 -0.10000000  0.00000000       0.003
   0.25000000 -0.05000000  0.05000000       0.003
   0.30000000  0.30000000  0.45000000       0.003
   0.30000000  0.35000000  0.50000000       0.006
   0.30000000  0.40000000  0.55000000       0.006
   0.30000000 -0.15000000  0.00000000       0.003
   0.30000000 -0.10000000  0.05000000       0.006
   0.35000000  0.35000000  0.55000000       0.003
   0.35000000  0.40000000  0.60000000       0.003
   0.35000000 -0.20000000  0.00000000       0.003
   0.35000000 -0.15000000  0.05000000       0.006
   0.35000000 -0.10000000  0.10000000       0.003
   0.40000000 -0.25000000  0.00000000       0.003
   0.40000000 -0.20000000  0.05000000       0.006
   0.40000000 -0.15000000  0.10000000       0.006
   0.45000000 -0.30000000  0.00000000       0.003
   0.45000000 -0.25000000  0.05000000       0.006
   0.45000000 -0.20000000  0.10000000       0.006
   0.45000000 -0.15000000  0.15000000       0.003
   0.50000000 -0.35000000  0.00000000       0.003
   0.50000000 -0.30000000  0.05000000       0.006
   0.50000000 -0.25000000  0.10000000       0.006
   0.50000000 -0.20000000  0.15000000       0.006
   0.55000000 -0.40000000  0.00000000       0.003
   0.55000000 -0.35000000  0.05000000       0.006
   0.55000000 -0.30000000  0.10000000       0.006
   0.55000000 -0.25000000  0.15000000       0.006
   0.55000000 -0.20000000  0.20000000       0.003
  -0.40000000 -0.40000000 -0.95000000       0.003
  -0.40000000 -0.35000000 -0.90000000       0.006
  -0.40000000 -0.30000000 -0.85000000       0.006
  -0.40000000 -0.25000000 -0.80000000       0.006
  -0.35000000 -0.35000000 -0.85000000       0.003
  -0.35000000 -0.30000000 -0.80000000       0.006
  -0.35000000 -0.25000000 -0.75000000       0.003
  -0.30000000 -0.30000000 -0.75000000       0.003
   0.25000000  0.25000000  0.25000000       0.001
   0.25000000  0.30000000  0.30000000       0.003
   0.25000000  0.35000000  0.35000000       0.003
   0.25000000  0.40000000  0.40000000       0.003
   0.25000000  0.45000000  0.45000000       0.003
   0.25000000  0.50000000  0.50000000       0.002
   0.25000000  0.00000000  0.00000000       0.001
   0.30000000  0.30000000  0.35000000       0.003
   0.30000000  0.35000000  0.40000000       0.006
   0.30000000  0.40000000  0.45000000       0.006
   0.30000000  0.45000000  0.50000000       0.006
   0.30000000 -0.05000000  0.00000000       0.003
   0.35000000  0.35000000  0.45000000       0.003
   0.35000000  0.40000000  0.50000000       0.006
   0.35000000  0.45000000  0.55000000       0.003
   0.35000000 -0.10000000  0.00000000       0.003
   0.35000000 -0.05000000  0.05000000       0.003
   0.40000000  0.40000000  0.55000000       0.003
   0.40000000 -0.15000000  0.00000000       0.003
   0.40000000 -0.10000000  0.05000000       0.006
   0.45000000 -0.20000000  0.00000000       0.003
   0.45000000 -0.15000000  0.05000000       0.006
   0.45000000 -0.10000000  0.10000000       0.003
   0.50000000 -0.25000000  0.00000000       0.003
   0.50000000 -0.20000000  0.05000000       0.006
   0.50000000 -0.15000000  0.10000000       0.006
   0.55000000 -0.30000000  0.00000000       0.003
   0.55000000 -0.25000000  0.05000000       0.006
   0.55000000 -0.20000000  0.10000000       0.006
   0.55000000 -0.15000000  0.15000000       0.003
   0.60000000 -0.35000000  0.00000000       0.003
   0.60000000 -0.30000000  0.05000000       0.006
   0.60000000 -0.25000000  0.10000000       0.006
   0.60000000 -0.20000000  0.15000000       0.006
  -0.35000000 -0.35000000 -0.95000000       0.003
  -0.35000000 -0.30000000 -0.90000000       0.006
  -0.35000000 -0.25000000 -0.85000000       0.006
  -0.35000000 -0.20000000 -0.80000000       0.003
  -0.30000000 -0.30000000 -0.85000000       0.003
  -0.30000000 -0.25000000 -0.80000000       0.006
  -0.25000000 -0.25000000 -0.75000000       0.001
   0.35000000  0.35000000  0.35000000       0.001
   0.35000000  0.40000000  0.40000000       0.003
   0.35000000  0.45000000  0.45000000       0.003
   0.35000000  0.50000000  0.50000000       0.002
   0.35000000  0.00000000  0.00000000       0.001
   0.40000000  0.40000000  0.45000000       0.003
   0.40000000  0.45000000  0.50000000       0.006
   0.40000000 -0.05000000  0.00000000       0.003
   0.45000000  0.45000000  0.55000000       0.001
   0.45000000 -0.10000000  0.00000000       0.003
   0.45000000 -0.05000000  0.05000000       0.003
   0.50000000 -0.15000000  0.00000000       0.003
   0.50000000 -0.10000000  0.05000000       0.006
   0.55000000 -0.20000000  0.00000000       0.003
   0.55000000 -0.15000000  0.05000000       0.006
   0.55000000 -0.10000000  0.10000000       0.003
   0.60000000 -0.25000000  0.00000000       0.003
   0.60000000 -0.20000000  0.05000000       0.006
   0.60000000 -0.15000000  0.10000000       0.006
   0.65000000 -0.30000000  0.00000000       0.003
   0.65000000 -0.25000000  0.05000000       0.006
   0.65000000 -0.20000000  0.10000000       0.006
   0.65000000 -0.15000000  0.15000000       0.003
  -0.30000000 -0.30000000 -0.95000000       0.003
  -0.30000000 -0.25000000 -0.90000000       0.006
  -0.30000000 -0.20000000 -0.85000000       0.006
  -0.25000000 -0.25000000 -0.85000000       0.003
  -0.25000000 -0.20000000 -0.80000000       0.003
   0.45000000  0.45000000  0.45000000       0.001
   0.45000000  0.50000000  0.50000000       0.002
   0.45000000  0.00000000  0.00000000       0.001
   0.50000000 -0.05000000  0.00000000       0.003
   0.55000000 -0.10000000  0.00000000       0.003
   0.55000000 -0.05000000  0.05000000       0.003
   0.60000000 -0.15000000  0.00000000       0.003
   0.60000000 -0.10000000  0.05000000       0.006
   0.65000000 -0.20000000  0.00000000       0.003
   0.65000000 -0.15000000  0.05000000       0.006
   0.65000000 -0.10000000  0.10000000       0.003
   0.70000000 -0.25000000  0.00000000       0.003
   0.70000000 -0.20000000  0.05000000       0.006
   0.70000000 -0.15000000  0.10000000       0.006
  -0.25000000 -0.25000000 -0.95000000       0.003
  -0.25000000 -0.20000000 -0.90000000       0.006
  -0.25000000 -0.15000000 -0.85000000       0.003
  -0.20000000 -0.20000000 -0.85000000       0.003
   0.55000000  0.00000000  0.00000000       0.001
   0.60000000 -0.05000000  0.00000000       0.003
   0.65000000 -0.10000000  0.00000000       0.003
   0.65000000 -0.05000000  0.05000000       0.003
   0.70000000 -0.15000000  0.00000000       0.003
   0.70000000 -0.10000000  0.05000000       0.006
   0.75000000 -0.20000000  0.00000000       0.003
   0.75000000 -0.15000000  0.05000000       0.006
   0.75000000 -0.10000000  0.10000000       0.003
  -0.20000000 -0.20000000 -0.95000000       0.003
  -0.20000000 -0.15000000 -0.90000000       0.006
  -0.15000000 -0.15000000 -0.85000000       0.001
   0.65000000  0.00000000  0.00000000       0.001
   0.70000000 -0.05000000  0.00000000       0.003
   0.75000000 -0.10000000  0.00000000       0.003
   0.75000000 -0.05000000  0.05000000       0.003
   0.80000000 -0.15000000  0.00000000       0.003
   0.80000000 -0.10000000  0.05000000       0.006
  -0.15000000 -0.15000000 -0.95000000       0.003
  -0.15000000 -0.10000000 -0.90000000       0.003
   0.75000000  0.00000000  0.00000000       0.001
   0.80000000 -0.05000000  0.00000000       0.003
   0.85000000 -0.10000000  0.00000000       0.003
   0.85000000 -0.05000000  0.05000000       0.003
  -0.10000000 -0.10000000 -0.95000000       0.003
   0.85000000  0.00000000  0.00000000       0.001
   0.90000000 -0.05000000  0.00000000       0.003
  -0.05000000 -0.05000000 -0.95000000       0.001
   0.95000000  0.00000000  0.00000000       0.001
 
 k-points in reciprocal lattice and weights: 20x20x20                                
   0.02500000  0.02500000  0.02500000       0.001
   0.07500000  0.02500000  0.02500000       0.003
   0.12500000  0.02500000  0.02500000       0.003
   0.17500000  0.02500000  0.02500000       0.003
   0.22500000  0.02500000  0.02500000       0.003
   0.27500000  0.02500000  0.02500000       0.003
   0.32500000  0.02500000  0.02500000       0.003
   0.37500000  0.02500000  0.02500000       0.003
   0.42500000  0.02500000  0.02500000       0.003
   0.47500000  0.02500000  0.02500000       0.002
  -0.02500000  0.02500000  0.02500000       0.001
   0.07500000  0.07500000  0.02500000       0.003
   0.12500000  0.07500000  0.02500000       0.006
   0.17500000  0.07500000  0.02500000       0.006
   0.22500000  0.07500000  0.02500000       0.006
   0.27500000  0.07500000  0.02500000       0.006
   0.32500000  0.07500000  0.02500000       0.006
   0.37500000  0.07500000  0.02500000       0.006
   0.42500000  0.07500000  0.02500000       0.006
  -0.07500000  0.07500000  0.02500000       0.003
   0.12500000  0.12500000  0.02500000       0.003
   0.17500000  0.12500000  0.02500000       0.006
   0.22500000  0.12500000  0.02500000       0.006
   0.27500000  0.12500000  0.02500000       0.006
   0.32500000  0.12500000  0.02500000       0.006
   0.37500000  0.12500000  0.02500000       0.006
   0.42500000  0.12500000  0.02500000       0.003
  -0.12500000  0.12500000  0.02500000       0.003
  -0.07500000  0.12500000  0.02500000       0.003
   0.17500000  0.17500000  0.02500000       0.003
   0.22500000  0.17500000  0.02500000       0.006
   0.27500000  0.17500000  0.02500000       0.006
   0.32500000  0.17500000  0.02500000       0.006
   0.37500000  0.17500000  0.02500000       0.006
  -0.17500000  0.17500000  0.02500000       0.003
  -0.12500000  0.17500000  0.02500000       0.006
   0.22500000  0.22500000  0.02500000       0.003
   0.27500000  0.22500000  0.02500000       0.006
   0.32500000  0.22500000  0.02500000       0.006
   0.37500000  0.22500000  0.02500000       0.003
  -0.22500000  0.22500000  0.02500000       0.003
  -0.17500000  0.22500000  0.02500000       0.006
  -0.12500000  0.22500000  0.02500000       0.003
   0.27500000  0.27500000  0.02500000       0.003
   0.32500000  0.27500000  0.02500000       0.006
  -0.27500000  0.27500000  0.02500000       0.003
  -0.22500000  0.27500000  0.02500000       0.006
  -0.17500000  0.27500000  0.02500000       0.006
   0.32500000  0.32500000  0.02500000       0.001
  -0.32500000  0.32500000  0.02500000       0.003
  -0.27500000  0.32500000  0.02500000       0.006
  -0.22500000  0.32500000  0.02500000       0.006
  -0.17500000  0.32500000  0.02500000       0.003
  -0.37500000  0.37500000  0.02500000       0.003
  -0.32500000  0.37500000  0.02500000       0.006
  -0.27500000  0.37500000  0.02500000       0.006
  -0.22500000  0.37500000  0.02500000       0.006
  -0.42500000  0.42500000  0.02500000       0.003
  -0.37500000  0.42500000  0.02500000       0.006
  -0.32500000  0.42500000  0.02500000       0.006
  -0.27500000  0.42500000  0.02500000       0.006
  -0.22500000  0.42500000  0.02500000       0.003
  -0.47500000  0.47500000  0.02500000       0.003
  -0.42500000  0.47500000  0.02500000       0.006
  -0.37500000  0.47500000  0.02500000       0.006
  -0.32500000  0.47500000  0.02500000       0.006
  -0.27500000  0.47500000  0.02500000       0.006
  -0.47500000 -0.47500000  0.02500000       0.003
  -0.42500000 -0.47500000  0.02500000       0.006
  -0.37500000 -0.47500000  0.02500000       0.006
  -0.32500000 -0.47500000  0.02500000       0.006
  -0.27500000 -0.47500000  0.02500000       0.003
  -0.42500000 -0.42500000  0.02500000       0.003
  -0.37500000 -0.42500000  0.02500000       0.006
  -0.32500000 -0.42500000  0.02500000       0.006
  -0.37500000 -0.37500000  0.02500000       0.003
  -0.32500000 -0.37500000  0.02500000       0.003
   0.07500000  0.07500000  0.07500000       0.001
   0.12500000  0.07500000  0.07500000       0.003
   0.17500000  0.07500000  0.07500000       0.003
   0.22500000  0.07500000  0.07500000       0.003
   0.27500000  0.07500000  0.07500000       0.003
   0.32500000  0.07500000  0.07500000       0.003
   0.37500000  0.07500000  0.07500000       0.003
   0.42500000  0.07500000  0.07500000       0.002
  -0.07500000  0.07500000  0.07500000       0.001
   0.12500000  0.12500000  0.07500000       0.003
   0.17500000  0.12500000  0.07500000       0.006
   0.22500000  0.12500000  0.07500000       0.006
   0.27500000  0.12500000  0.07500000       0.006
   0.32500000  0.12500000  0.07500000       0.006
   0.37500000  0.12500000  0.07500000       0.006
  -0.12500000  0.12500000  0.07500000       0.003
   0.17500000  0.17500000  0.07500000       0.003
   0.22500000  0.17500000  0.07500000       0.006
   0.27500000  0.17500000  0.07500000       0.006
   0.32500000  0.17500000  0.07500000       0.006
   0.37500000  0.17500000  0.07500000       0.003
  -0.17500000  0.17500000  0.07500000       0.003
  -0.12500000  0.17500000  0.07500000       0.003
   0.22500000  0.22500000  0.07500000       0.003
   0.27500000  0.22500000  0.07500000       0.006
   0.32500000  0.22500000  0.07500000       0.006
  -0.22500000  0.22500000  0.07500000       0.003
  -0.17500000  0.22500000  0.07500000       0.006
   0.27500000  0.27500000  0.07500000       0.003
   0.32500000  0.27500000  0.07500000       0.003
  -0.27500000  0.27500000  0.07500000       0.003
  -0.22500000  0.27500000  0.07500000       0.006
  -0.17500000  0.27500000  0.07500000       0.003
  -0.32500000  0.32500000  0.07500000       0.003
  -0.27500000  0.32500000  0.07500000       0.006
  -0.22500000  0.32500000  0.07500000       0.006
  -0.37500000  0.37500000  0.07500000       0.003
  -0.32500000  0.37500000  0.07500000       0.006
  -0.27500000  0.37500000  0.07500000       0.006
  -0.22500000  0.37500000  0.07500000       0.003
  -0.42500000  0.42500000  0.07500000       0.003
  -0.37500000  0.42500000  0.07500000       0.006
  -0.32500000  0.42500000  0.07500000       0.006
  -0.27500000  0.42500000  0.07500000       0.006
  -0.47500000  0.47500000  0.07500000       0.003
  -0.42500000  0.47500000  0.07500000       0.006
  -0.37500000  0.47500000  0.07500000       0.006
  -0.32500000  0.47500000  0.07500000       0.006
  -0.27500000  0.47500000  0.07500000       0.003
  -0.47500000 -0.47500000  0.07500000       0.003
  -0.42500000 -0.47500000  0.07500000       0.006
  -0.37500000 -0.47500000  0.07500000       0.006
  -0.32500000 -0.47500000  0.07500000       0.006
  -0.42500000 -0.42500000  0.07500000       0.003
  -0.37500000 -0.42500000  0.07500000       0.006
  -0.32500000 -0.42500000  0.07500000       0.003
  -0.37500000 -0.37500000  0.07500000       0.003
   0.12500000  0.12500000  0.12500000       0.001
   0.17500000  0.12500000  0.12500000       0.003
   0.22500000  0.12500000  0.12500000       0.003
   0.27500000  0.12500000  0.12500000       0.003
   0.32500000  0.12500000  0.12500000       0.003
   0.37500000  0.12500000  0.12500000       0.002
  -0.12500000  0.12500000  0.12500000       0.001
   0.17500000  0.17500000  0.12500000       0.003
   0.22500000  0.17500000  0.12500000       0.006
   0.27500000  0.17500000  0.12500000       0.006
   0.32500000  0.17500000  0.12500000       0.006
  -0.17500000  0.17500000  0.12500000       0.003
   0.22500000  0.22500000  0.12500000       0.003
   0.27500000  0.22500000  0.12500000       0.006
   0.32500000  0.22500000  0.12500000       0.003
  -0.22500000  0.22500000  0.12500000       0.003
  -0.17500000  0.22500000  0.12500000       0.003
   0.27500000  0.27500000  0.12500000       0.003
  -0.27500000  0.27500000  0.12500000       0.003
  -0.22500000  0.27500000  0.12500000       0.006
  -0.32500000  0.32500000  0.12500000       0.003
  -0.27500000  0.32500000  0.12500000       0.006
  -0.22500000  0.32500000  0.12500000       0.003
  -0.37500000  0.37500000  0.12500000       0.003
  -0.32500000  0.37500000  0.12500000       0.006
  -0.27500000  0.37500000  0.12500000       0.006
  -0.42500000  0.42500000  0.12500000       0.003
  -0.37500000  0.42500000  0.12500000       0.006
  -0.32500000  0.42500000  0.12500000       0.006
  -0.27500000  0.42500000  0.12500000       0.003
  -0.47500000  0.47500000  0.12500000       0.003
  -0.42500000  0.47500000  0.12500000       0.006
  -0.37500000  0.47500000  0.12500000       0.006
  -0.32500000  0.47500000  0.12500000       0.006
  -0.47500000 -0.47500000  0.12500000       0.003
  -0.42500000 -0.47500000  0.12500000       0.006
  -0.37500000 -0.47500000  0.12500000       0.006
  -0.32500000 -0.47500000  0.12500000       0.003
  -0.42500000 -0.42500000  0.12500000       0.003
  -0.37500000 -0.42500000  0.12500000       0.006
  -0.37500000 -0.37500000  0.12500000       0.001
   0.17500000  0.17500000  0.17500000       0.001
   0.22500000  0.17500000  0.17500000       0.003
   0.27500000  0.17500000  0.17500000       0.003
   0.32500000  0.17500000  0.17500000       0.002
  -0.17500000  0.17500000  0.17500000       0.001
   0.22500000  0.22500000  0.17500000       0.003
   0.27500000  0.22500000  0.17500000       0.006
  -0.22500000  0.22500000  0.17500000       0.003
   0.27500000  0.27500000  0.17500000       0.001
  -0.27500000  0.27500000  0.17500000       0.003
  -0.22500000  0.27500000  0.17500000       0.003
  -0.32500000  0.32500000  0.17500000       0.003
  -0.27500000  0.32500000  0.17500000       0.006
  -0.37500000  0.37500000  0.17500000       0.003
  -0.32500000  0.37500000  0.17500000       0.006
  -0.27500000  0.37500000  0.17500000       0.003
  -0.42500000  0.42500000  0.17500000       0.003
  -0.37500000  0.42500000  0.17500000       0.006
  -0.32500000  0.42500000  0.17500000       0.006
  -0.47500000  0.47500000  0.17500000       0.003
  -0.42500000  0.47500000  0.17500000       0.006
  -0.37500000  0.47500000  0.17500000       0.006
  -0.32500000  0.47500000  0.17500000       0.003
  -0.47500000 -0.47500000  0.17500000       0.003
  -0.42500000 -0.47500000  0.17500000       0.006
  -0.37500000 -0.47500000  0.17500000       0.006
  -0.42500000 -0.42500000  0.17500000       0.003
  -0.37500000 -0.42500000  0.17500000       0.003
   0.22500000  0.22500000  0.22500000       0.001
   0.27500000  0.22500000  0.22500000       0.002
  -0.22500000  0.22500000  0.22500000       0.001
  -0.27500000  0.27500000  0.22500000       0.003
  -0.32500000  0.32500000  0.22500000       0.003
  -0.27500000  0.32500000  0.22500000       0.003
  -0.37500000  0.37500000  0.22500000       0.003
  -0.32500000  0.37500000  0.22500000       0.006
  -0.42500000  0.42500000  0.22500000       0.003
  -0.37500000  0.42500000  0.22500000       0.006
  -0.32500000  0.42500000  0.22500000       0.003
  -0.47500000  0.47500000  0.22500000       0.003
  -0.42500000  0.47500000  0.22500000       0.006
  -0.37500000  0.47500000  0.22500000       0.006
  -0.47500000 -0.47500000  0.22500000       0.003
  -0.42500000 -0.47500000  0.22500000       0.006
  -0.37500000 -0.47500000  0.22500000       0.003
  -0.42500000 -0.42500000  0.22500000       0.003
  -0.27500000  0.27500000  0.27500000       0.001
  -0.32500000  0.32500000  0.27500000       0.003
  -0.37500000  0.37500000  0.27500000       0.003
  -0.32500000  0.37500000  0.27500000       0.003
  -0.42500000  0.42500000  0.27500000       0.003
  -0.37500000  0.42500000  0.27500000       0.006
  -0.47500000  0.47500000  0.27500000       0.003
  -0.42500000  0.47500000  0.27500000       0.006
  -0.37500000  0.47500000  0.27500000       0.003
  -0.47500000 -0.47500000  0.27500000       0.003
  -0.42500000 -0.47500000  0.27500000       0.006
  -0.42500000 -0.42500000  0.27500000       0.001
  -0.32500000  0.32500000  0.32500000       0.001
  -0.37500000  0.37500000  0.32500000       0.003
  -0.42500000  0.42500000  0.32500000       0.003
  -0.37500000  0.42500000  0.32500000       0.003
  -0.47500000  0.47500000  0.32500000       0.003
  -0.42500000  0.47500000  0.32500000       0.006
  -0.47500000 -0.47500000  0.32500000       0.003
  -0.42500000 -0.47500000  0.32500000       0.003
  -0.37500000  0.37500000  0.37500000       0.001
  -0.42500000  0.42500000  0.37500000       0.003
  -0.47500000  0.47500000  0.37500000       0.003
  -0.42500000  0.47500000  0.37500000       0.003
  -0.47500000 -0.47500000  0.37500000       0.003
  -0.42500000  0.42500000  0.42500000       0.001
  -0.47500000  0.47500000  0.42500000       0.003
  -0.47500000 -0.47500000  0.42500000       0.001
  -0.47500000  0.47500000  0.47500000       0.001
 
 position of ions in fractional coordinates (direct lattice) 
   0.00000000  0.00000000  0.00000000
 
 position of ions in cartesian coordinates  (Angst):
   0.00000000  0.00000000  0.00000000
 


--------------------------------------------------------------------------------------------------------


 k-point  1 :   0.0250 0.0250 0.0250  plane waves:     135
 k-point  2 :   0.0750 0.0250 0.0250  plane waves:     127
 k-point  3 :   0.1250 0.0250 0.0250  plane waves:     123
 k-point  4 :   0.1750 0.0250 0.0250  plane waves:     119
 k-point  5 :   0.2250 0.0250 0.0250  plane waves:     117
 k-point  6 :   0.2750 0.0250 0.0250  plane waves:     115
 k-point  7 :   0.3250 0.0250 0.0250  plane waves:     116
 k-point  8 :   0.3750 0.0250 0.0250  plane waves:     116
 k-point  9 :   0.4250 0.0250 0.0250  plane waves:     116
 k-point 10 :   0.4750 0.0250 0.0250  plane waves:     118
 k-point 11 :  -0.0250 0.0250 0.0250  plane waves:     135
 k-point 12 :   0.0750 0.0750 0.0250  plane waves:     121
 k-point 13 :   0.1250 0.0750 0.0250  plane waves:     121
 k-point 14 :   0.1750 0.0750 0.0250  plane waves:     119
 k-point 15 :   0.2250 0.0750 0.0250  plane waves:     117
 k-point 16 :   0.2750 0.0750 0.0250  plane waves:     117
 k-point 17 :   0.3250 0.0750 0.0250  plane waves:     118
 k-point 18 :   0.3750 0.0750 0.0250  plane waves:     117
 k-point 19 :   0.4250 0.0750 0.0250  plane waves:     118
 k-point 20 :  -0.0750 0.0750 0.0250  plane waves:     129
 k-point 21 :   0.1250 0.1250 0.0250  plane waves:     118
 k-point 22 :   0.1750 0.1250 0.0250  plane waves:     117
 k-point 23 :   0.2250 0.1250 0.0250  plane waves:     118
 k-point 24 :   0.2750 0.1250 0.0250  plane waves:     116
 k-point 25 :   0.3250 0.1250 0.0250  plane waves:     117
 k-point 26 :   0.3750 0.1250 0.0250  plane waves:     118
 k-point 27 :   0.4250 0.1250 0.0250  plane waves:     117
 k-point 28 :  -0.1250 0.1250 0.0250  plane waves:     121
 k-point 29 :  -0.0750 0.1250 0.0250  plane waves:     123
 k-point 30 :   0.1750 0.1750 0.0250  plane waves:     118
 k-point 31 :   0.2250 0.1750 0.0250  plane waves:     119
 k-point 32 :   0.2750 0.1750 0.0250  plane waves:     119
 k-point 33 :   0.3250 0.1750 0.0250  plane waves:     117
 k-point 34 :   0.3750 0.1750 0.0250  plane waves:     119
 k-point 35 :  -0.1750 0.1750 0.0250  plane waves:     122
 k-point 36 :  -0.1250 0.1750 0.0250  plane waves:     120
 k-point 37 :   0.2250 0.2250 0.0250  plane waves:     118
 k-point 38 :   0.2750 0.2250 0.0250  plane waves:     121
 k-point 39 :   0.3250 0.2250 0.0250  plane waves:     120
 k-point 40 :   0.3750 0.2250 0.0250  plane waves:     118
 k-point 41 :  -0.2250 0.2250 0.0250  plane waves:     117
 k-point 42 :  -0.1750 0.2250 0.0250  plane waves:     118
 k-point 43 :  -0.1250 0.2250 0.0250  plane waves:     118
 k-point 44 :   0.2750 0.2750 0.0250  plane waves:     118
 k-point 45 :   0.3250 0.2750 0.0250  plane waves:     118
 k-point 46 :  -0.2750 0.2750 0.0250  plane waves:     117
 k-point 47 :  -0.2250 0.2750 0.0250  plane waves:     119
 k-point 48 :  -0.1750 0.2750 0.0250  plane waves:     116
 k-point 49 :   0.3250 0.3250 0.0250  plane waves:     119
 k-point 50 :  -0.3250 0.3250 0.0250  plane waves:     114
 k-point 51 :  -0.2750 0.3250 0.0250  plane waves:     116
 k-point 52 :  -0.2250 0.3250 0.0250  plane waves:     116
 k-point 53 :  -0.1750 0.3250 0.0250  plane waves:     115
 k-point 54 :  -0.3750 0.3750 0.0250  plane waves:     114
 k-point 55 :  -0.3250 0.3750 0.0250  plane waves:     117
 k-point 56 :  -0.2750 0.3750 0.0250  plane waves:     118
 k-point 57 :  -0.2250 0.3750 0.0250  plane waves:     117
 k-point 58 :  -0.4250 0.4250 0.0250  plane waves:     116
 k-point 59 :  -0.3750 0.4250 0.0250  plane waves:     117
 k-point 60 :  -0.3250 0.4250 0.0250  plane waves:     117
 k-point 61 :  -0.2750 0.4250 0.0250  plane waves:     117
 k-point 62 :  -0.2250 0.4250 0.0250  plane waves:     116
 k-point 63 :  -0.4750 0.4750 0.0250  plane waves:     117
 k-point 64 :  -0.4250 0.4750 0.0250  plane waves:     116
 k-point 65 :  -0.3750 0.4750 0.0250  plane waves:     117
 k-point 66 :  -0.3250 0.4750 0.0250  plane waves:     119
 k-point 67 :  -0.2750 0.4750 0.0250  plane waves:     120
 k-point 68 :  -0.4750-0.4750 0.0250  plane waves:     116
 k-point 69 :  -0.4250-0.4750 0.0250  plane waves:     120
 k-point 70 :  -0.3750-0.4750 0.0250  plane waves:     119
 k-point 71 :  -0.3250-0.4750 0.0250  plane waves:     119
 k-point 72 :  -0.2750-0.4750 0.0250  plane waves:     120
 k-point 73 :  -0.4250-0.4250 0.0250  plane waves:     118
 k-point 74 :  -0.3750-0.4250 0.0250  plane waves:     119
 k-point 75 :  -0.3250-0.4250 0.0250  plane waves:     118
 k-point 76 :  -0.3750-0.3750 0.0250  plane waves:     120
 k-point 77 :  -0.3250-0.3750 0.0250  plane waves:     119
 k-point 78 :   0.0750 0.0750 0.0750  plane waves:     123
 k-point 79 :   0.1250 0.0750 0.0750  plane waves:     121
 k-point 80 :   0.1750 0.0750 0.0750  plane waves:     118
 k-point 81 :   0.2250 0.0750 0.0750  plane waves:     117
 k-point 82 :   0.2750 0.0750 0.0750  plane waves:     119
 k-point 83 :   0.3250 0.0750 0.0750  plane waves:     118
 k-point 84 :   0.3750 0.0750 0.0750  plane waves:     118
 k-point 85 :   0.4250 0.0750 0.0750  plane waves:     122
 k-point 86 :  -0.0750 0.0750 0.0750  plane waves:     127
 k-point 87 :   0.1250 0.1250 0.0750  plane waves:     119
 k-point 88 :   0.1750 0.1250 0.0750  plane waves:     117
 k-point 89 :   0.2250 0.1250 0.0750  plane waves:     118
 k-point 90 :   0.2750 0.1250 0.0750  plane waves:     117
 k-point 91 :   0.3250 0.1250 0.0750  plane waves:     118
 k-point 92 :   0.3750 0.1250 0.0750  plane waves:     119
 k-point 93 :  -0.1250 0.1250 0.0750  plane waves:     120
 k-point 94 :   0.1750 0.1750 0.0750  plane waves:     120
 k-point 95 :   0.2250 0.1750 0.0750  plane waves:     119
 k-point 96 :   0.2750 0.1750 0.0750  plane waves:     120
 k-point 97 :   0.3250 0.1750 0.0750  plane waves:     119
 k-point 98 :   0.3750 0.1750 0.0750  plane waves:     122
 k-point 99 :  -0.1750 0.1750 0.0750  plane waves:     118
 k-point ** :  -0.1250 0.1750 0.0750  plane waves:     120
 k-point ** :   0.2250 0.2250 0.0750  plane waves:     118
 k-point ** :   0.2750 0.2250 0.0750  plane waves:     122
 k-point ** :   0.3250 0.2250 0.0750  plane waves:     122
 k-point ** :  -0.2250 0.2250 0.0750  plane waves:     118
 k-point ** :  -0.1750 0.2250 0.0750  plane waves:     117
 k-point ** :   0.2750 0.2750 0.0750  plane waves:     119
 k-point ** :   0.3250 0.2750 0.0750  plane waves:     119
 k-point ** :  -0.2750 0.2750 0.0750  plane waves:     119
 k-point ** :  -0.2250 0.2750 0.0750  plane waves:     117
 k-point ** :  -0.1750 0.2750 0.0750  plane waves:     116
 k-point ** :  -0.3250 0.3250 0.0750  plane waves:     118
 k-point ** :  -0.2750 0.3250 0.0750  plane waves:     118
 k-point ** :  -0.2250 0.3250 0.0750  plane waves:     114
 k-point ** :  -0.3750 0.3750 0.0750  plane waves:     118
 k-point ** :  -0.3250 0.3750 0.0750  plane waves:     119
 k-point ** :  -0.2750 0.3750 0.0750  plane waves:     117
 k-point ** :  -0.2250 0.3750 0.0750  plane waves:     116
 k-point ** :  -0.4250 0.4250 0.0750  plane waves:     118
 k-point ** :  -0.3750 0.4250 0.0750  plane waves:     117
 k-point ** :  -0.3250 0.4250 0.0750  plane waves:     117
 k-point ** :  -0.2750 0.4250 0.0750  plane waves:     116
 k-point ** :  -0.4750 0.4750 0.0750  plane waves:     119
 k-point ** :  -0.4250 0.4750 0.0750  plane waves:     121
 k-point ** :  -0.3750 0.4750 0.0750  plane waves:     117
 k-point ** :  -0.3250 0.4750 0.0750  plane waves:     117
 k-point ** :  -0.2750 0.4750 0.0750  plane waves:     116
 k-point ** :  -0.4750-0.4750 0.0750  plane waves:     122
 k-point ** :  -0.4250-0.4750 0.0750  plane waves:     119
 k-point ** :  -0.3750-0.4750 0.0750  plane waves:     119
 k-point ** :  -0.3250-0.4750 0.0750  plane waves:     118
 k-point ** :  -0.4250-0.4250 0.0750  plane waves:     117
 k-point ** :  -0.3750-0.4250 0.0750  plane waves:     117
 k-point ** :  -0.3250-0.4250 0.0750  plane waves:     117
 k-point ** :  -0.3750-0.3750 0.0750  plane waves:     119
 k-point ** :   0.1250 0.1250 0.1250  plane waves:     119
 k-point ** :   0.1750 0.1250 0.1250  plane waves:     120
 k-point ** :   0.2250 0.1250 0.1250  plane waves:     118
 k-point ** :   0.2750 0.1250 0.1250  plane waves:     118
 k-point ** :   0.3250 0.1250 0.1250  plane waves:     120
 k-point ** :   0.3750 0.1250 0.1250  plane waves:     122
 k-point ** :  -0.1250 0.1250 0.1250  plane waves:     120
 k-point ** :   0.1750 0.1750 0.1250  plane waves:     124
 k-point ** :   0.2250 0.1750 0.1250  plane waves:     121
 k-point ** :   0.2750 0.1750 0.1250  plane waves:     121
 k-point ** :   0.3250 0.1750 0.1250  plane waves:     121
 k-point ** :  -0.1750 0.1750 0.1250  plane waves:     116
 k-point ** :   0.2250 0.2250 0.1250  plane waves:     121
 k-point ** :   0.2750 0.2250 0.1250  plane waves:     121
 k-point ** :   0.3250 0.2250 0.1250  plane waves:     121
 k-point ** :  -0.2250 0.2250 0.1250  plane waves:     116
 k-point ** :  -0.1750 0.2250 0.1250  plane waves:     114
 k-point ** :   0.2750 0.2750 0.1250  plane waves:     119
 k-point ** :  -0.2750 0.2750 0.1250  plane waves:     116
 k-point ** :  -0.2250 0.2750 0.1250  plane waves:     115
 k-point ** :  -0.3250 0.3250 0.1250  plane waves:     118
 k-point ** :  -0.2750 0.3250 0.1250  plane waves:     117
 k-point ** :  -0.2250 0.3250 0.1250  plane waves:     116
 k-point ** :  -0.3750 0.3750 0.1250  plane waves:     116
 k-point ** :  -0.3250 0.3750 0.1250  plane waves:     116
 k-point ** :  -0.2750 0.3750 0.1250  plane waves:     117
 k-point ** :  -0.4250 0.4250 0.1250  plane waves:     118
 k-point ** :  -0.3750 0.4250 0.1250  plane waves:     118
 k-point ** :  -0.3250 0.4250 0.1250  plane waves:     118
 k-point ** :  -0.2750 0.4250 0.1250  plane waves:     117
 k-point ** :  -0.4750 0.4750 0.1250  plane waves:     118
 k-point ** :  -0.4250 0.4750 0.1250  plane waves:     118
 k-point ** :  -0.3750 0.4750 0.1250  plane waves:     119
 k-point ** :  -0.3250 0.4750 0.1250  plane waves:     116
 k-point ** :  -0.4750-0.4750 0.1250  plane waves:     119
 k-point ** :  -0.4250-0.4750 0.1250  plane waves:     119
 k-point ** :  -0.3750-0.4750 0.1250  plane waves:     115
 k-point ** :  -0.3250-0.4750 0.1250  plane waves:     115
 k-point ** :  -0.4250-0.4250 0.1250  plane waves:     117
 k-point ** :  -0.3750-0.4250 0.1250  plane waves:     116
 k-point ** :  -0.3750-0.3750 0.1250  plane waves:     113
 k-point ** :   0.1750 0.1750 0.1750  plane waves:     125
 k-point ** :   0.2250 0.1750 0.1750  plane waves:     123
 k-point ** :   0.2750 0.1750 0.1750  plane waves:     118
 k-point ** :   0.3250 0.1750 0.1750  plane waves:     122
 k-point ** :  -0.1750 0.1750 0.1750  plane waves:     112
 k-point ** :   0.2250 0.2250 0.1750  plane waves:     121
 k-point ** :   0.2750 0.2250 0.1750  plane waves:     119
 k-point ** :  -0.2250 0.2250 0.1750  plane waves:     114
 k-point ** :   0.2750 0.2750 0.1750  plane waves:     119
 k-point ** :  -0.2750 0.2750 0.1750  plane waves:     116
 k-point ** :  -0.2250 0.2750 0.1750  plane waves:     117
 k-point ** :  -0.3250 0.3250 0.1750  plane waves:     117
 k-point ** :  -0.2750 0.3250 0.1750  plane waves:     118
 k-point ** :  -0.3750 0.3750 0.1750  plane waves:     119
 k-point ** :  -0.3250 0.3750 0.1750  plane waves:     117
 k-point ** :  -0.2750 0.3750 0.1750  plane waves:     119
 k-point ** :  -0.4250 0.4250 0.1750  plane waves:     119
 k-point ** :  -0.3750 0.4250 0.1750  plane waves:     119
 k-point ** :  -0.3250 0.4250 0.1750  plane waves:     118
 k-point ** :  -0.4750 0.4750 0.1750  plane waves:     120
 k-point ** :  -0.4250 0.4750 0.1750  plane waves:     119
[...]
      3       6.4877     -0.00051
      4       7.3755      0.00000
      5       7.6545      0.00000
      6      13.8160      0.00000
      7      15.2345      0.00000
      8      15.7770      0.00000
      9      23.3294      0.00000
     10      24.0121      0.00000

 k-point   242 :      -0.3750    0.3750    0.3750
  band No.  band energies     occupation 
      1       2.8540      1.00000
      2       3.1984      1.00000
      3       6.7663      0.00000
      4       6.7666      0.00000
      5       7.3919      0.00000
      6      11.0750      0.00000
      7      17.7799      0.00000
      8      17.7799      0.00000
      9      22.0038      0.00000
     10      23.6136      0.00000

 k-point   243 :      -0.4250    0.4250    0.3750
  band No.  band energies     occupation 
      1       2.8315      1.00000
      2       3.0001      1.00000
      3       6.9375      0.00000
      4       7.0091      0.00000
      5       7.6078      0.00000
      6      12.2168      0.00000
      7      16.6355      0.00000
      8      17.0902      0.00000
      9      22.0912      0.00000
     10      23.5757      0.00000

 k-point   244 :      -0.4750    0.4750    0.3750
  band No.  band energies     occupation 
      1       2.8304      1.00000
      2       2.8792      1.00000
      3       6.9730      0.00000
      4       7.1320      0.00000
      5       7.7963      0.00000
      6      13.5157      0.00000
      7      15.2202      0.00000
      8      16.7156      0.00000
      9      22.2591      0.00000
     10      23.7548      0.00000

 k-point   245 :      -0.4250    0.4750    0.3750
  band No.  band energies     occupation 
      1       2.7821      1.00000
      2       2.8506      1.00000
      3       7.0376      0.00000
      4       7.3466      0.00000
      5       7.7133      0.00000
      6      13.4045      0.00000
      7      16.0287      0.00000
      8      16.1744      0.00000
      9      22.2352      0.00000
     10      23.2988      0.00000

 k-point   246 :      -0.4750   -0.4750    0.3750
  band No.  band energies     occupation 
      1       2.7758      1.00000
      2       2.7870      1.00000
      3       7.0528      0.00000
      4       7.4858      0.00000
      5       7.7537      0.00000
      6      14.5045      0.00000
      7      14.9980      0.00000
      8      15.9324      0.00000
      9      22.4601      0.00000
     10      23.1422      0.00000

 k-point   247 :      -0.4250    0.4250    0.4250
  band No.  band energies     occupation 
      1       2.7333      1.00000
      2       2.8178      1.00000
      3       7.3361      0.00000
      4       7.3364      0.00000
      5       7.6361      0.00000
      6      13.2459      0.00000
      7      16.3611      0.00000
      8      16.3611      0.00000
      9      21.8039      0.00000
     10      22.9984      0.00000

 k-point   248 :      -0.4750    0.4750    0.4250
  band No.  band energies     occupation 
      1       2.6866      1.00000
      2       2.7131      1.00000
      3       7.4527      0.00000
      4       7.5128      0.00000
      5       7.7701      0.00000
      6      14.3726      0.00000
      7      15.5381      0.00000
      8      15.9606      0.00000
      9      21.9172      0.00000
     10      22.6232      0.00000

 k-point   249 :      -0.4750   -0.4750    0.4250
  band No.  band energies     occupation 
      1       2.6593      1.00000
      2       2.6593      1.00000
      3       7.5022      0.00000
      4       7.7329      0.00000
      5       7.7333      0.00000
      6      15.2440      0.00000
      7      15.2442      0.00000
      8      15.4608      0.00000
      9      22.1076      0.00000
     10      22.1076      0.00000

 k-point   250 :      -0.4750    0.4750    0.4750
  band No.  band energies     occupation 
      1       2.6132      1.00000
      2       2.6205      1.00000
      3       7.7257      0.00000
      4       7.7261      0.00000
      5       7.7654      0.00000
      6      15.1063      0.00000
      7      15.5423      0.00000
      8      15.5424      0.00000
      9      21.7118      0.00000
     10      21.9471      0.00000


--------------------------------------------------------------------------------------------------------


 soft charge-density along one line, spin component           1
         0         1         2         3         4         5         6         7         8         9
 total charge-density along one line
 
 soft charge-density along one line, spin component           2
         0         1         2         3         4         5         6         7         8         9
 total charge-density along one line
 
 pseudopotential strength for first ion, spin component:           1
 -5.878   0.000   0.000   0.000   0.000   0.000   0.000   0.000   0.000   0.000  -0.546   0.000  -0.000   0.000  -0.000   0.000
  0.000   0.000  -5.878   0.000  -0.000   0.000   0.000   0.000   0.000   0.000  -0.000   0.000  -0.546   0.000   0.000   0.000
  0.000   0.000  -0.000   0.000  -5.909   0.000  -0.000   0.000   0.000   0.000  -0.000   0.000   0.000   0.000  -0.539   0.000
  0.000   0.000   0.000   0.000  -0.000   0.000  -5.878   0.000  -0.000   0.000  -0.000   0.000  -0.000   0.000   0.000   0.000
  0.000   0.000   0.000   0.000   0.000   0.000  -0.000   0.000  -5.909   0.000  -0.000   0.000  -0.000   0.000  -0.000   0.000
 -0.546   0.000  -0.000   0.000  -0.000   0.000  -0.000   0.000  -0.000   0.000   0.892   0.000   0.000   0.000   0.000   0.000
 -0.000   0.000  -0.546   0.000   0.000   0.000  -0.000   0.000  -0.000   0.000   0.000   0.000   0.892   0.000  -0.000   0.000
 -0.000   0.000   0.000   0.000  -0.539   0.000   0.000   0.000  -0.000   0.000   0.000   0.000  -0.000   0.000   0.891   0.000
 -0.000   0.000  -0.000   0.000   0.000   0.000  -0.546   0.000   0.000   0.000   0.000   0.000   0.000   0.000  -0.000   0.000
 -0.000   0.000  -0.000   0.000  -0.000   0.000   0.000   0.000  -0.539   0.000   0.000   0.000   0.000   0.000   0.000   0.000
 -0.000   0.000  -0.000   0.000   0.000   0.000  -0.000   0.000   0.000   0.000  -0.000   0.000  -0.000   0.000  -0.000   0.000
  0.000   0.000   0.000   0.000  -0.000   0.000   0.000   0.000  -0.000   0.000  -0.000   0.000  -0.000   0.000   0.000   0.000
 -0.000   0.000   0.000   0.000  -0.000   0.000   0.000   0.000  -0.000   0.000   0.000   0.000  -0.000   0.000   0.000   0.000
  0.000   0.000   0.000   0.000   0.000   0.000  -0.000   0.000  -0.000   0.000   0.000   0.000  -0.000   0.000  -0.000   0.000
  0.000   0.000   0.000   0.000   0.000   0.000   0.000   0.000  -0.000   0.000  -0.000   0.000   0.000   0.000  -0.000   0.000
  0.000   0.000  -0.000   0.000   0.000   0.000  -0.000   0.000  -0.000   0.000  -0.000   0.000   0.000   0.000  -0.000   0.000
 -0.000   0.000  -0.000   0.000  -0.000   0.000   0.000   0.000   0.000   0.000   0.000   0.000   0.000   0.000   0.000   0.000
 -0.000   0.000  -0.000   0.000  -0.000   0.000  -0.000   0.000   0.000   0.000   0.000   0.000   0.000   0.000   0.000   0.000
 pseudopotential strength for first ion, spin component:           2
 -4.299   0.000   0.000   0.000   0.000   0.000   0.000   0.000   0.000   0.000  -1.025   0.000  -0.000   0.000  -0.000   0.000
  0.000   0.000  -4.299   0.000  -0.000   0.000   0.000   0.000   0.000   0.000  -0.000   0.000  -1.025   0.000   0.000   0.000
  0.000   0.000  -0.000   0.000  -4.185   0.000  -0.000   0.000   0.000   0.000  -0.000   0.000   0.000   0.000  -1.050   0.000
  0.000   0.000   0.000   0.000  -0.000   0.000  -4.299   0.000  -0.000   0.000  -0.000   0.000  -0.000   0.000   0.000   0.000
  0.000   0.000   0.000   0.000   0.000   0.000  -0.000   0.000  -4.185   0.000  -0.000   0.000  -0.000   0.000  -0.000   0.000
 -1.025   0.000  -0.000   0.000  -0.000   0.000  -0.000   0.000  -0.000   0.000   1.036   0.000   0.000   0.000   0.000   0.000
 -0.000   0.000  -1.025   0.000   0.000   0.000  -0.000   0.000  -0.000   0.000   0.000   0.000   1.036   0.000  -0.000   0.000
 -0.000   0.000   0.000   0.000  -1.050   0.000   0.000   0.000  -0.000   0.000   0.000   0.000  -0.000   0.000   1.040   0.000
 -0.000   0.000  -0.000   0.000   0.000   0.000  -1.025   0.000   0.000   0.000   0.000   0.000   0.000   0.000  -0.000   0.000
 -0.000   0.000  -0.000   0.000  -0.000   0.000   0.000   0.000  -1.050   0.000   0.000   0.000   0.000   0.000   0.000   0.000
  0.000   0.000   0.000   0.000  -0.000   0.000   0.000   0.000   0.000   0.000   0.000   0.000   0.000   0.000  -0.000   0.000
 -0.000   0.000  -0.000   0.000   0.000   0.000  -0.000   0.000  -0.000   0.000   0.000   0.000   0.000   0.000  -0.000   0.000
 -0.000   0.000  -0.000   0.000  -0.000   0.000  -0.000   0.000  -0.000   0.000   0.000   0.000   0.000   0.000   0.000   0.000
 -0.000   0.000   0.000   0.000  -0.000   0.000  -0.000   0.000  -0.000   0.000  -0.000   0.000  -0.000   0.000   0.000   0.000
  0.000   0.000  -0.000   0.000   0.000   0.000  -0.000   0.000  -0.000   0.000  -0.000   0.000  -0.000   0.000  -0.000   0.000
  0.000   0.000  -0.000   0.000   0.000   0.000   0.000   0.000   0.000   0.000  -0.000   0.000  -0.000   0.000  -0.000   0.000
  0.000   0.000  -0.000   0.000   0.000   0.000   0.000   0.000   0.000   0.000  -0.000   0.000   0.000   0.000  -0.000   0.000
 -0.000   0.000   0.000   0.000  -0.000   0.000   0.000   0.000   0.000   0.000   0.000   0.000  -0.000   0.000   0.000   0.000
 total augmentation occupancy for first ion, spin component:           1
  1.400   0.000   0.000   0.000   0.000   0.000   0.000   0.000   0.000   0.000   0.000   0.000   0.000   0.000   0.000   0.000
  0.000   1.400   0.000   0.000   0.000   0.000   0.000   0.000   0.000   0.000   0.000   0.000   0.000   0.000   0.000   0.000
  0.000   0.000   1.400   0.000   0.000   0.000   0.000   0.000   0.000   0.000   0.000   0.000   0.000   0.000   0.000   0.000
  0.000   0.000   0.000   1.400   0.000   0.000   0.000   0.000   0.000   0.000   0.000   0.000   0.000   0.000   0.000   0.000
  0.000   0.000   0.000   0.000   1.400   0.000   0.000   0.000   0.000   0.000   0.000   0.000   0.000   0.000   0.000   0.000
  0.000   0.000   0.000   0.000   0.000   0.000   0.000   0.000   0.000   0.000   0.000   0.000   0.000   0.000   0.000   0.000
  0.000   0.000   0.000   0.000   0.000   0.000   0.000   0.000   0.000   0.000   0.000   0.000   0.000   0.000   0.000   0.000
  0.000   0.000   0.000   0.000   0.000   0.000   0.000   0.000   0.000   0.000   0.000   0.000   0.000   0.000   0.000   0.000
  0.000   0.000   0.000   0.000   0.000   0.000   0.000   0.000   0.000   0.000   0.000   0.000   0.000   0.000   0.000   0.000
  0.000   0.000   0.000   0.000   0.000   0.000   0.000   0.000   0.000   0.000   0.000   0.000   0.000   0.000   0.000   0.000
  0.000   0.000   0.000   0.000   0.000   0.000   0.000   0.000   0.000   0.000   1.000   0.000   0.000   0.000   0.000   0.000
  0.000   0.000   0.000   0.000   0.000   0.000   0.000   0.000   0.000   0.000   0.000   0.000   0.000   0.000   0.000   0.000
  0.000   0.000   0.000   0.000   0.000   0.000   0.000   0.000   0.000   0.000   0.000   0.000   0.000   0.000   0.000   0.000
  0.000   0.000   0.000   0.000   0.000   0.000   0.000   0.000   0.000   0.000   0.000   0.000   0.000   0.000   0.000   0.000
  0.000   0.000   0.000   0.000   0.000   0.000   0.000   0.000   0.000   0.000   0.000   0.000   0.000   0.000   0.000   0.000
  0.000   0.000   0.000   0.000   0.000   0.000   0.000   0.000   0.000   0.000   0.000   0.000   0.000   0.000   0.000   0.000
  0.000   0.000   0.000   0.000   0.000   0.000   0.000   0.000   0.000   0.000   0.000   0.000   0.000   0.000   0.000   0.000
  0.000   0.000   0.000   0.000   0.000   0.000   0.000   0.000   0.000   0.000   0.000   0.000   0.000   0.000   0.000   0.000
 total augmentation occupancy for first ion, spin component:           2
  0.525   0.000   0.000   0.000   0.000   0.000   0.000   0.000   0.000   0.000   0.000   0.000   0.000   0.000   0.000   0.000
  0.000   0.525   0.000   0.000   0.000   0.000   0.000   0.000   0.000   0.000   0.000   0.000   0.000   0.000   0.000   0.000
  0.000   0.000   0.525   0.000   0.000   0.000   0.000   0.000   0.000   0.000   0.000   0.000   0.000   0.000   0.000   0.000
  0.000   0.000   0.000   0.525   0.000   0.000   0.000   0.000   0.000   0.000   0.000   0.000   0.000   0.000   0.000   0.000
  0.000   0.000   0.000   0.000   0.525   0.000   0.000   0.000   0.000   0.000   0.000   0.000   0.000   0.000   0.000   0.000
  0.000   0.000   0.000   0.000   0.000   0.000   0.000   0.000   0.000   0.000   0.000   0.000   0.000   0.000   0.000   0.000
  0.000   0.000   0.000   0.000   0.000   0.000   0.000   0.000   0.000   0.000   0.000   0.000   0.000   0.000   0.000   0.000
  0.000   0.000   0.000   0.000   0.000   0.000   0.000   0.000   0.000   0.000   0.000   0.000   0.000   0.000   0.000   0.000
  0.000   0.000   0.000   0.000   0.000   0.000   0.000   0.000   0.000   0.000   0.000   0.000   0.000   0.000   0.000   0.000
  0.000   0.000   0.000   0.000   0.000   0.000   0.000   0.000   0.000   0.000   0.000   0.000   0.000   0.000   0.000   0.000
  0.000   0.000   0.000   0.000   0.000   0.000   0.000   0.000   0.000   0.000   0.375   0.000   0.000   0.000   0.000   0.000
  0.000   0.000   0.000   0.000   0.000   0.000   0.000   0.000   0.000   0.000   0.000   0.000   0.000   0.000   0.000   0.000
  0.000   0.000   0.000   0.000   0.000   0.000   0.000   0.000   0.000   0.000   0.000   0.000   0.000   0.000   0.000   0.000
  0.000   0.000   0.000   0.000   0.000   0.000   0.000   0.000   0.000   0.000   0.000   0.000   0.000   0.000   0.000   0.000
  0.000   0.000   0.000   0.000   0.000   0.000   0.000   0.000   0.000   0.000   0.000   0.000   0.000   0.000   0.000   0.000
  0.000   0.000   0.000   0.000   0.000   0.000   0.000   0.000   0.000   0.000   0.000   0.000   0.000   0.000   0.000   0.000
  0.000   0.000   0.000   0.000   0.000   0.000   0.000   0.000   0.000   0.000   0.000   0.000   0.000   0.000   0.000   0.000
  0.000   0.000   0.000   0.000   0.000   0.000   0.000   0.000   0.000   0.000   0.000   0.000   0.000   0.000   0.000   0.000


------------------------ aborting loop because EDIFF is reached ----------------------------------------


 


 total charge     
 
# of ion       s       p       d       tot
------------------------------------------
    1        0.469   0.500   6.233   7.202
 


 magnetization (x)
 
# of ion       s       p       d       tot
------------------------------------------
    1       -0.015  -0.050   2.356   2.291
 
    CHARGE:  cpu time    0.0212: real time    0.0343
    FORLOC:  cpu time    0.0003: real time    0.0003
    FORNL :  cpu time    0.1015: real time    0.2161
    STRESS:  cpu time    0.2093: real time    0.4151
    FORCOR:  cpu time    0.0378: real time    0.0769
    FORHAR:  cpu time    0.0012: real time    0.0013
    OFIELD:  cpu time    0.0001: real time    0.0001

  FORCE on cell =-STRESS in cart. coord.  units (eV):
  Direction    XX          YY          ZZ          XY          YZ          ZX
  --------------------------------------------------------------------------------------
  Alpha Z    58.10571    58.10571    58.10571
  Ewald    -194.76585  -194.76585  -194.76585     0.00000     0.00000     0.00000
  Hartree    32.81663    32.81663    32.81663    -0.00000    -0.00000    -0.00000
  E(xc)     -39.88465   -39.88465   -39.88465     0.00008     0.00008     0.00008
  Local      58.05977    58.05977    58.05977    -0.00021    -0.00021    -0.00021
  n-local   -27.94765   -26.88803   -26.12316     1.06637    -0.62679    -1.41665
  augment    38.69935    38.69935    38.69935     0.00050     0.00050     0.00050
  Kinetic    73.12125    72.58264    72.46526    -2.34886     1.87438     1.32032
  Fock        0.00000     0.00000     0.00000     0.00000     0.00000     0.00000
  -------------------------------------------------------------------------------------
  Total      -1.23226    -1.23226    -1.23226    -0.00000    -0.00000    -0.00000
  in kB    -167.03096  -167.03096  -167.03096    -0.00000    -0.00000    -0.00000
  external pressure =     -167.03 kB  Pullay stress =        0.00 kB


 VOLUME and BASIS-vectors are now :
 -----------------------------------------------------------------------------
  energy-cutoff  :      267.91
  volume of cell :       11.82
      direct lattice vectors                 reciprocal lattice vectors
    -1.435000000  1.435000000  1.435000000     0.000000000  0.348432056  0.348432056
     1.435000000 -1.435000000  1.435000000     0.348432056  0.000000000  0.348432056
     1.435000000  1.435000000 -1.435000000     0.348432056  0.348432056  0.000000000

  length of vectors
     2.485492909  2.485492909  2.485492909     0.492757339  0.492757339  0.492757339


 FORCES acting on ions
    electron-ion (+dipol)            ewald-force                    non-local-force                 convergence-correction
 -----------------------------------------------------------------------------------------------
   -.706E-13 0.137E-12 -.422E-13   0.131E-14 -.418E-15 -.327E-17   0.424E-21 -.424E-21 0.000E+00   -.423E-12 -.106E-12 0.417E-12
 -----------------------------------------------------------------------------------------------
   -.706E-13 0.137E-12 -.422E-13   0.131E-14 -.418E-15 -.327E-17   0.424E-21 -.424E-21 0.000E+00   -.423E-12 -.106E-12 0.417E-12
 
 
 POSITION                                       TOTAL-FORCE (eV/Angst)
 -----------------------------------------------------------------------------------
      0.00000      0.00000      0.00000        -0.000000      0.000000      0.000000
 -----------------------------------------------------------------------------------
    total drift:                               -0.000000      0.000000      0.000000


--------------------------------------------------------------------------------------------------------



  FREE ENERGIE OF THE ION-ELECTRON SYSTEM (eV)
  ---------------------------------------------------
  free  energy   TOTEN  =        -8.13684182 eV

  energy  without entropy=       -8.13684182  energy(sigma->0) =       -8.13684182
 


--------------------------------------------------------------------------------------------------------


    POTLOK:  cpu time    0.0466: real time    0.0987


--------------------------------------------------------------------------------------------------------


     LOOP+:  cpu time    6.3040: real time   12.6772
    4ORBIT:  cpu time    0.0000: real time    0.0000
 


 total charge     
 
# of ion       s       p       d       tot
------------------------------------------
    1        0.469   0.500   6.233   7.202
 


 magnetization (x)
 
# of ion       s       p       d       tot
------------------------------------------
    1       -0.015  -0.050   2.356   2.291
 
 BZINTS: Fermi energy:  5.365940;  8.000000 electrons
         Band energy:  26.313575;  BLOECHL correction: -0.012137

 total amount of memory used by VASP MPI-rank0    48765. kBytes
=======================================================================

   base      :      30000. kBytes
   nonl-proj :       4862. kBytes
   fftplans  :        544. kBytes
   grid      :       1088. kBytes
   one-center:         31. kBytes
   wavefun   :      12240. kBytes
 
  
  
 General timing and accounting informations for this job:
 ========================================================
  
                  Total CPU time used (sec):        8.287
                            User time (sec):        7.391
                          System time (sec):        0.896
                         Elapsed time (sec):       16.701
  
                   Maximum memory used (kb):       72424.
                   Average memory used (kb):           0.
  
                          Minor page faults:        11731
                          Major page faults:            0
                 Voluntary context switches:          252
