 running on    1 total cores
 distrk:  each k-point on    1 cores,    1 groups
 distr:  one band on    1 cores,    1 groups
 using from now: INCAR     
 vasp.5.4.4.18Apr17-6-g9f103f2a35 (build May 20 2018 16:52:39) complex          
  
 POSCAR found type information on POSCAR  Si
 POSCAR found :  1 types and       1 ions
 scaLAPACK will be used
 WARNING: type information on POSCAR and POTCAR are incompatible
 POTCAR overwrites the type information in POSCAR
 typ   1 type information:  Si Fe
 LDA part: xc-table for Ceperly-Alder, standard interpolation
 WARNING: stress and forces are not correct
 POSCAR, INCAR and KPOINTS ok, starting setup
 FFT: planning ...
 WAVECAR not read
 reading imaginary part of occupancies ...
 charge-density read from file: bcc                                     
 reading imaginary part of occupancies ...
 magnetization density read from file 1
 entering main loop
       N       E                     dE             d eps       ncg     rms          rms(c)
DAV:   1     0.939825712261E+01    0.93983E+01   -0.27831E+03 10858   0.563E+02
DAV:   2    -0.790703395216E+01   -0.17305E+02   -0.16110E+02 10216   0.972E+01
DAV:   3    -0.813603254898E+01   -0.22900E+00   -0.22863E+00 11190   0.138E+01
DAV:   4    -0.813683596296E+01   -0.80341E-03   -0.80076E-03 10656   0.781E-01
DAV:   5    -0.813684160908E+01   -0.56461E-05   -0.56251E-05  8792   0.645E-02
DAV:   6    -0.813684181675E+01   -0.20767E-06   -0.20676E-06  6886   0.133E-02
   1 F= -.81368418E+01 E0= -.81368418E+01  d E =0.000000E+00  mag=     2.3385
