   2   2   0   0
  0.2001288E+02  0.3839590E-09  0.3839590E-09  0.3839590E-09  0.5000000E-15
  1.000000000000000E-004
  CAR 
 Si                                      
     17.95699697     -8.13054999  301      5.87520178      1.00000000
     -8.131  0.0000E+00  0.0000E+00
     -8.044  0.0000E+00  0.0000E+00
     -7.957  0.0000E+00  0.0000E+00
     -7.870  0.0000E+00  0.0000E+00
     -7.783  0.0000E+00  0.0000E+00
     -7.696  0.0000E+00  0.0000E+00
     -7.609  0.0000E+00  0.0000E+00
     -7.522  0.0000E+00  0.0000E+00
     -7.435  0.0000E+00  0.0000E+00
     -7.348  0.0000E+00  0.0000E+00
     -7.261  0.0000E+00  0.0000E+00
     -7.174  0.0000E+00  0.0000E+00
     -7.087  0.0000E+00  0.0000E+00
     -7.000  0.0000E+00  0.0000E+00
     -6.913  0.0000E+00  0.0000E+00
     -6.826  0.0000E+00  0.0000E+00
     -6.739  0.0000E+00  0.0000E+00
     -6.652  0.0000E+00  0.0000E+00
     -6.565  0.0000E+00  0.0000E+00
     -6.478  0.0000E+00  0.0000E+00
     -6.391  0.0000E+00  0.0000E+00
     -6.304  0.0000E+00  0.0000E+00
     -6.217  0.0000E+00  0.0000E+00
     -6.131  0.6708E-07  0.1012E-11
     -6.044  0.8628E-01  0.4267E-02
     -5.957  0.1404E+00  0.1439E-01
     -5.870  0.1703E+00  0.2768E-01
     -5.783  0.2020E+00  0.4406E-01
     -5.696  0.2247E+00  0.6261E-01
     -5.609  0.2523E+00  0.8332E-01
     -5.522  0.2731E+00  0.1063E+00
     -5.435  0.2931E+00  0.1309E+00
     -5.348  0.3149E+00  0.1573E+00
     -5.261  0.3364E+00  0.1857E+00
     -5.174  0.3532E+00  0.2157E+00
     -5.087  0.3722E+00  0.2472E+00
     -5.000  0.3920E+00  0.2804E+00
     -4.913  0.4127E+00  0.3154E+00
     -4.826  0.4299E+00  0.3520E+00
     -4.739  0.4484E+00  0.3902E+00
     -4.652  0.4688E+00  0.4301E+00
     -4.565  0.4901E+00  0.4718E+00
     -4.478  0.5116E+00  0.5153E+00
     -4.391  0.5335E+00  0.5608E+00
     -4.304  0.5578E+00  0.6082E+00
     -4.217  0.5854E+00  0.6579E+00
     -4.130  0.6166E+00  0.7101E+00
     -4.044  0.6523E+00  0.7652E+00
     -3.957  0.6989E+00  0.8239E+00
     -3.870  0.7667E+00  0.8875E+00
     -3.783  0.9410E+00  0.9622E+00
     -3.696  0.8787E+00  0.1039E+01
     -3.609  0.8498E+00  0.1113E+01
     -3.522  0.8237E+00  0.1187E+01
     -3.435  0.7834E+00  0.1256E+01
     -3.348  0.7624E+00  0.1323E+01
     -3.261  0.7215E+00  0.1388E+01
     -3.174  0.6978E+00  0.1450E+01
     -3.087  0.6768E+00  0.1509E+01
     -3.000  0.6402E+00  0.1567E+01
     -2.913  0.6046E+00  0.1621E+01
     -2.826  0.5798E+00  0.1672E+01
     -2.739  0.5507E+00  0.1721E+01
     -2.652  0.5183E+00  0.1768E+01
     -2.565  0.4845E+00  0.1811E+01
     -2.478  0.4558E+00  0.1852E+01
     -2.391  0.4329E+00  0.1890E+01
     -2.304  0.3951E+00  0.1926E+01
     -2.217  0.3113E+00  0.1959E+01
     -2.130  0.1870E+00  0.1981E+01
     -2.043  0.9543E-01  0.1993E+01
     -1.956  0.3618E-01  0.1998E+01
     -1.870  0.2990E-01  0.2001E+01
     -1.783  0.7884E-01  0.2005E+01
     -1.696  0.1537E+00  0.2015E+01
     -1.609  0.2383E+00  0.2032E+01
     -1.522  0.3189E+00  0.2056E+01
     -1.435  0.3857E+00  0.2087E+01
     -1.348  0.4293E+00  0.2123E+01
     -1.261  0.4885E+00  0.2163E+01
     -1.174  0.5444E+00  0.2207E+01
     -1.087  0.7251E+00  0.2260E+01
     -1.000  0.1146E+01  0.2346E+01
     -0.913  0.1972E+01  0.2491E+01
     -0.826  0.1171E+01  0.2619E+01
     -0.739  0.9659E+00  0.2711E+01
     -0.652  0.8374E+00  0.2788E+01
     -0.565  0.7586E+00  0.2858E+01
     -0.478  0.6992E+00  0.2921E+01
     -0.391  0.6467E+00  0.2979E+01
     -0.304  0.5954E+00  0.3033E+01
     -0.217  0.5511E+00  0.3083E+01
     -0.130  0.5239E+00  0.3130E+01
     -0.043  0.4984E+00  0.3174E+01
      0.044  0.4735E+00  0.3217E+01
      0.131  0.4472E+00  0.3257E+01
      0.217  0.4224E+00  0.3294E+01
      0.304  0.3939E+00  0.3330E+01
      0.391  0.3781E+00  0.3363E+01
      0.478  0.3634E+00  0.3396E+01
      0.565  0.3487E+00  0.3427E+01
      0.652  0.3338E+00  0.3456E+01
      0.739  0.3181E+00  0.3485E+01
      0.826  0.2986E+00  0.3511E+01
      0.913  0.2805E+00  0.3536E+01
      1.000  0.2706E+00  0.3560E+01
      1.087  0.2615E+00  0.3584E+01
      1.174  0.2523E+00  0.3606E+01
      1.261  0.2422E+00  0.3627E+01
      1.348  0.2305E+00  0.3648E+01
      1.435  0.2190E+00  0.3668E+01
      1.522  0.5162E+00  0.3701E+01
      1.609  0.8381E+00  0.3760E+01
      1.696  0.1120E+01  0.3843E+01
      1.783  0.1228E+01  0.3953E+01
      1.870  0.1180E+01  0.4058E+01
      1.957  0.1122E+01  0.4157E+01
      2.044  0.1045E+01  0.4252E+01
      2.131  0.1000E+01  0.4341E+01
      2.218  0.1008E+01  0.4428E+01
      2.304  0.1022E+01  0.4516E+01
      2.391  0.1060E+01  0.4608E+01
      2.478  0.1070E+01  0.4700E+01
      2.565  0.1101E+01  0.4793E+01
      2.652  0.1116E+01  0.4890E+01
      2.739  0.1162E+01  0.4989E+01
      2.826  0.1266E+01  0.5096E+01
      2.913  0.1399E+01  0.5214E+01
      3.000  0.1535E+01  0.5340E+01
      3.087  0.1526E+01  0.5474E+01
      3.174  0.1513E+01  0.5605E+01
      3.261  0.1460E+01  0.5734E+01
      3.348  0.1452E+01  0.5861E+01
      3.435  0.1435E+01  0.5986E+01
      3.522  0.1403E+01  0.6110E+01
      3.609  0.1362E+01  0.6230E+01
      3.696  0.1347E+01  0.6347E+01
      3.783  0.1345E+01  0.6465E+01
      3.870  0.1309E+01  0.6580E+01
      3.957  0.1275E+01  0.6692E+01
      4.044  0.1261E+01  0.6803E+01
      4.131  0.1252E+01  0.6912E+01
      4.218  0.1222E+01  0.7020E+01
      4.305  0.1224E+01  0.7126E+01
      4.391  0.1220E+01  0.7232E+01
      4.478  0.1192E+01  0.7337E+01
      4.565  0.1169E+01  0.7440E+01
      4.652  0.9307E+00  0.7534E+01
      4.739  0.7705E+00  0.7608E+01
      4.826  0.6758E+00  0.7671E+01
      4.913  0.5922E+00  0.7725E+01
      5.000  0.5288E+00  0.7774E+01
      5.087  0.4636E+00  0.7817E+01
      5.174  0.4068E+00  0.7855E+01
      5.261  0.3569E+00  0.7888E+01
      5.348  0.3261E+00  0.7918E+01
      5.435  0.2711E+00  0.7944E+01
      5.522  0.2214E+00  0.7965E+01
      5.609  0.1650E+00  0.7982E+01
      5.696  0.1028E+00  0.7994E+01
      5.783  0.1531E-01  0.8000E+01
      5.870  0.0000E+00  0.8000E+01
      5.957  0.0000E+00  0.8000E+01
      6.044  0.0000E+00  0.8000E+01
      6.131  0.0000E+00  0.8000E+01
      6.218  0.0000E+00  0.8000E+01
      6.305  0.0000E+00  0.8000E+01
      6.392  0.0000E+00  0.8000E+01
      6.478  0.3898E-01  0.8001E+01
      6.565  0.1297E+00  0.8008E+01
      6.652  0.2074E+00  0.8023E+01
      6.739  0.2737E+00  0.8044E+01
      6.826  0.3428E+00  0.8071E+01
      6.913  0.4208E+00  0.8104E+01
      7.000  0.4566E+00  0.8143E+01
      7.087  0.4909E+00  0.8184E+01
      7.174  0.5306E+00  0.8228E+01
      7.261  0.5751E+00  0.8276E+01
      7.348  0.6211E+00  0.8328E+01
      7.435  0.6763E+00  0.8384E+01
      7.522  0.7583E+00  0.8446E+01
      7.609  0.8557E+00  0.8516E+01
      7.696  0.9654E+00  0.8596E+01
      7.783  0.1078E+01  0.8684E+01
      7.870  0.1214E+01  0.8784E+01
      7.957  0.1362E+01  0.8895E+01
      8.044  0.1557E+01  0.9022E+01
      8.131  0.1793E+01  0.9168E+01
      8.218  0.1742E+01  0.9325E+01
      8.305  0.1666E+01  0.9473E+01
      8.392  0.1510E+01  0.9613E+01
      8.479  0.1313E+01  0.9736E+01
      8.565  0.1234E+01  0.9846E+01
      8.652  0.1318E+01  0.9957E+01
      8.739  0.1228E+01  0.1007E+02
      8.826  0.1104E+01  0.1017E+02
      8.913  0.7680E+00  0.1025E+02
      9.000  0.8101E+00  0.1031E+02
      9.087  0.1338E+01  0.1040E+02
      9.174  0.2332E+01  0.1056E+02
      9.261  0.2261E+01  0.1076E+02
      9.348  0.1863E+01  0.1094E+02
      9.435  0.1789E+01  0.1110E+02
      9.522  0.1903E+01  0.1126E+02
      9.609  0.1921E+01  0.1143E+02
      9.696  0.1783E+01  0.1159E+02
      9.783  0.1424E+01  0.1173E+02
      9.870  0.1183E+01  0.1184E+02
      9.957  0.1100E+01  0.1194E+02
     10.044  0.1076E+01  0.1204E+02
     10.131  0.1250E+01  0.1213E+02
     10.218  0.1244E+01  0.1224E+02
     10.305  0.1309E+01  0.1235E+02
     10.392  0.1154E+01  0.1246E+02
     10.479  0.1143E+01  0.1256E+02
     10.566  0.1189E+01  0.1266E+02
     10.652  0.1231E+01  0.1277E+02
     10.739  0.1382E+01  0.1288E+02
     10.826  0.1177E+01  0.1299E+02
     10.913  0.1173E+01  0.1309E+02
     11.000  0.1192E+01  0.1320E+02
     11.087  0.1224E+01  0.1330E+02
     11.174  0.1181E+01  0.1341E+02
     11.261  0.1128E+01  0.1351E+02
     11.348  0.1102E+01  0.1361E+02
     11.435  0.1113E+01  0.1370E+02
     11.522  0.1209E+01  0.1380E+02
     11.609  0.1269E+01  0.1391E+02
     11.696  0.1142E+01  0.1401E+02
     11.783  0.1106E+01  0.1411E+02
     11.870  0.1036E+01  0.1420E+02
     11.957  0.9164E+00  0.1429E+02
     12.044  0.8753E+00  0.1437E+02
     12.131  0.8962E+00  0.1444E+02
     12.218  0.8715E+00  0.1452E+02
     12.305  0.8371E+00  0.1460E+02
     12.392  0.8619E+00  0.1467E+02
     12.479  0.9094E+00  0.1475E+02
     12.566  0.9892E+00  0.1483E+02
     12.653  0.1051E+01  0.1492E+02
     12.739  0.1033E+01  0.1501E+02
     12.826  0.9135E+00  0.1509E+02
     12.913  0.9096E+00  0.1517E+02
     13.000  0.7697E+00  0.1525E+02
     13.087  0.6990E+00  0.1531E+02
     13.174  0.6364E+00  0.1537E+02
     13.261  0.5835E+00  0.1542E+02
     13.348  0.5512E+00  0.1547E+02
     13.435  0.5315E+00  0.1552E+02
     13.522  0.5376E+00  0.1556E+02
     13.609  0.6221E+00  0.1561E+02
     13.696  0.6084E+00  0.1567E+02
     13.783  0.4651E+00  0.1572E+02
     13.870  0.3855E+00  0.1575E+02
     13.957  0.3083E+00  0.1578E+02
     14.044  0.2477E+00  0.1581E+02
     14.131  0.2175E+00  0.1583E+02
     14.218  0.2194E+00  0.1585E+02
     14.305  0.1972E+00  0.1586E+02
     14.392  0.1769E+00  0.1588E+02
     14.479  0.1585E+00  0.1589E+02
     14.566  0.1421E+00  0.1591E+02
     14.653  0.1277E+00  0.1592E+02
     14.740  0.1152E+00  0.1593E+02
     14.826  0.1049E+00  0.1594E+02
     14.913  0.9845E-01  0.1595E+02
     15.000  0.9646E-01  0.1596E+02
     15.087  0.9862E-01  0.1597E+02
     15.174  0.1005E+00  0.1597E+02
     15.261  0.9628E-01  0.1598E+02
     15.348  0.7296E-01  0.1599E+02
     15.435  0.3379E-01  0.1599E+02
     15.522  0.2347E-01  0.1600E+02
     15.609  0.1502E-01  0.1600E+02
     15.696  0.8449E-02  0.1600E+02
     15.783  0.3755E-02  0.1600E+02
     15.870  0.9392E-03  0.1600E+02
     15.957  0.1653E-09  0.1600E+02
     16.044  0.0000E+00  0.1600E+02
     16.131  0.0000E+00  0.1600E+02
     16.218  0.0000E+00  0.1600E+02
     16.305  0.0000E+00  0.1600E+02
     16.392  0.0000E+00  0.1600E+02
     16.479  0.0000E+00  0.1600E+02
     16.566  0.0000E+00  0.1600E+02
     16.653  0.0000E+00  0.1600E+02
     16.740  0.0000E+00  0.1600E+02
     16.827  0.0000E+00  0.1600E+02
     16.913  0.0000E+00  0.1600E+02
     17.000  0.0000E+00  0.1600E+02
     17.087  0.0000E+00  0.1600E+02
     17.174  0.0000E+00  0.1600E+02
     17.261  0.0000E+00  0.1600E+02
     17.348  0.0000E+00  0.1600E+02
     17.435  0.0000E+00  0.1600E+02
     17.522  0.0000E+00  0.1600E+02
     17.609  0.0000E+00  0.1600E+02
     17.696  0.0000E+00  0.1600E+02
     17.783  0.0000E+00  0.1600E+02
     17.870  0.0000E+00  0.1600E+02
     17.957  0.0000E+00  0.1600E+02
