    2    2    1    1
  0.2001288E+02  0.3839590E-09  0.3839590E-09  0.3839590E-09  0.5000000E-15
  1.000000000000000E-004
  CAR 
 Si                                      
      8    145      8
 
  0.0000000E+00  0.0000000E+00  0.0000000E+00  0.2441406E-03
    1       -6.130550   1.000000
    2        5.833065   1.000000
    3        5.833096   1.000000
    4        5.833096   1.000000
    5        8.401214   0.000000
    6        8.401243   0.000000
    7        8.401243   0.000000
    8        9.207976   0.000000
 
  0.6250000E-01  0.0000000E+00  0.0000000E+00  0.1953125E-02
    1       -6.079364   1.000000
    2        5.301633   1.000000
    3        5.747149   1.000000
    4        5.747179   1.000000
    5        8.463743   0.000000
    6        8.523807   0.000000
    7        8.523836   0.000000
    8        9.586136   0.000000
 
  0.1250000E+00  0.0000000E+00  0.0000000E+00  0.1953125E-02
    1       -5.926352   1.000000
    2        4.234225   1.000000
    3        5.542874   1.000000
    4        5.542906   1.000000
    5        8.339902   0.000000
    6        8.824297   0.000000
    7        8.824333   0.000000
    8       10.552431   0.000000
 
  0.1875000E+00  0.0000000E+00  0.0000000E+00  0.1953125E-02
    1       -5.674595   1.000000
    2        3.058909   1.000000
    3        5.300746   1.000000
    4        5.300779   1.000000
    5        8.107595   0.000000
    6        9.147887   0.000000
    7        9.147935   0.000000
    8       11.668928   0.000000
 
  0.2500000E+00  0.0000000E+00  0.0000000E+00  0.1953125E-02
    1       -5.330493   1.000000
    2        1.905714   1.000000
    3        5.072483   1.000000
    4        5.072516   1.000000
    5        7.866900   0.000000
    6        9.343526   0.000000
    7        9.343586   0.000000
    8       12.759148   0.000000
 
  0.3125000E+00  0.0000000E+00  0.0000000E+00  0.1953125E-02
    1       -4.907340   1.000000
    2        0.830986   1.000000
    3        4.883761   1.000000
    4        4.883794   1.000000
    5        7.659410   0.000000
    6        9.364684   0.000000
    7        9.364753   0.000000
    8       13.590116   0.000000
 
  0.3750000E+00  0.0000000E+00  0.0000000E+00  0.1953125E-02
    1       -4.436382   1.000000
    2       -0.114766   1.000000
    3        4.745609   1.000000
    4        4.745642   1.000000
    5        7.503383   0.000000
    6        9.289262   0.000000
    7        9.289332   0.000000
    8       13.718592   0.000000
 
  0.4375000E+00  0.0000000E+00  0.0000000E+00  0.1953125E-02
    1       -4.000127   1.000000
    2       -0.838939   1.000000
    3        4.661780   1.000000
    4        4.661813   1.000000
    5        7.407692   0.000000
    6        9.209886   0.000000
    7        9.209957   0.000000
    8       13.612101   0.000000
 
  0.5000000E+00  0.0000000E+00  0.0000000E+00  0.9765625E-03
    1       -3.798059   1.000000
    2       -1.137552   1.000000
    3        4.633615   1.000000
    4        4.633648   1.000000
    5        7.375453   0.000000
    6        9.177334   0.000000
    7        9.177403   0.000000
    8       13.563554   0.000000
 
  0.6250000E-01  0.6250000E-01  0.0000000E+00  0.1464844E-02
    1       -6.062235   1.000000
    2        5.412052   1.000000
    3        5.568786   1.000000
    4        5.568809   1.000000
    5        8.238071   0.000000
    6        8.746872   0.000000
    7        8.746893   0.000000
    8        9.607878   0.000000
 
  0.1250000E+00  0.6250000E-01  0.0000000E+00  0.5859375E-02
    1       -5.942991   1.000000
    2        4.552705   1.000000
    3        5.312585   1.000000
    4        5.480768   1.000000
    5        8.235654   0.000000
    6        8.853435   0.000000
    7        9.114127   0.000000
    8       10.294679   0.000000
 
  0.1875000E+00  0.6250000E-01  0.0000000E+00  0.5859375E-02
    1       -5.723798   1.000000
    2        3.430097   1.000000
    3        5.051772   1.000000
    4        5.287050   1.000000
    5        8.332536   0.000000
    6        8.842927   0.000000
    7        9.489066   0.000000
    8       11.141747   0.000000
 
  0.2500000E+00  0.6250000E-01  0.0000000E+00  0.5859375E-02
    1       -5.409673   1.000000
    2        2.282948   1.000000
    3        4.826300   1.000000
    4        5.034602   1.000000
    5        8.224300   0.000000
    6        9.011881   0.000000
    7        9.727745   0.000000
    8       11.621005   0.000000
 
  0.3125000E+00  0.6250000E-01  0.0000000E+00  0.5859375E-02
    1       -5.010838   1.000000
    2        1.189130   1.000000
    3        4.656009   1.000000
    4        4.784562   1.000000
    5        8.040436   0.000000
    6        9.126100   0.000000
    7        9.760950   0.000000
    8       12.088902   0.000000
 
  0.3750000E+00  0.6250000E-01  0.0000000E+00  0.5859375E-02
    1       -4.550437   1.000000
    2        0.200497   1.000000
    3        4.549072   1.000000
    4        4.566170   1.000000
    5        7.878819   0.000000
    6        9.123281   0.000000
    7        9.651220   0.000000
    8       12.794751   0.000000
 
  0.4375000E+00  0.6250000E-01  0.0000000E+00  0.5859375E-02
    1       -4.087289   1.000000
    2       -0.609649   1.000000
    3        4.393919   1.000000
    4        4.507657   1.000000
    5        7.767366   0.000000
    6        9.094446   0.000000
    7        9.502304   0.000000
    8       13.502247   0.000000
 
  0.5000000E+00  0.6250000E-01  0.0000000E+00  0.5859375E-02
    1       -3.777202   1.000000
    2       -1.078518   1.000000
    3        4.275756   1.000000
    4        4.530393   1.000000
    5        7.714839   0.000000
    6        9.106851   0.000000
    7        9.381359   0.000000
    8       13.733855   0.000000
 
 -0.4375000E+00  0.6250000E-01  0.0000000E+00  0.5859375E-02
    1       -3.848166   1.000000
    2       -0.975451   1.000000
    3        4.217370   1.000000
    4        4.613655   1.000000
    5        7.724441   0.000000
    6        9.184663   0.000000
    7        9.316796   0.000000
    8       13.766601   0.000000
 
 -0.3750000E+00  0.6250000E-01  0.0000000E+00  0.5859375E-02
    1       -4.235832   1.000000
    2       -0.365379   1.000000
    3        4.223144   1.000000
    4        4.752138   1.000000
    5        7.796121   0.000000
    6        9.306375   0.000000
    7        9.320094   0.000000
    8       13.682847   0.000000
 
 -0.3125000E+00  0.6250000E-01  0.0000000E+00  0.5859375E-02
    1       -4.708821   1.000000
    2        0.516295   1.000000
    3        4.296492   1.000000
    4        4.939073   1.000000
    5        7.927634   0.000000
    6        9.313693   0.000000
    7        9.472767   0.000000
    8       13.187434   0.000000
 
 -0.2500000E+00  0.6250000E-01  0.0000000E+00  0.5859375E-02
    1       -5.152618   1.000000
    2        1.545241   1.000000
    3        4.438637   1.000000
    4        5.163671   1.000000
    5        8.110393   0.000000
    6        9.259264   0.000000
    7        9.550115   0.000000
    8       12.483159   0.000000
 
 -0.1875000E+00  0.6250000E-01  0.0000000E+00  0.5859375E-02
    1       -5.524786   1.000000
    2        2.659222   1.000000
    3        4.649441   1.000000
    4        5.406604   1.000000
    5        8.329460   0.000000
    6        9.064293   0.000000
    7        9.426060   0.000000
    8       11.806737   0.000000
 
 -0.1250000E+00  0.6250000E-01  0.0000000E+00  0.5859375E-02
    1       -5.807971   1.000000
    2        3.793506   1.000000
    3        4.927931   1.000000
    4        5.630478   1.000000
    5        8.548126   0.000000
    6        8.770646   0.000000
    7        9.078204   0.000000
    8       11.010467   0.000000
 
 -0.6250000E-01  0.6250000E-01  0.0000000E+00  0.2929688E-02
    1       -5.994130   1.000000
    2        4.785574   1.000000
    3        5.305401   1.000000
    4        5.768215   1.000000
    5        8.540385   0.000000
    6        8.645660   0.000000
    7        8.695275   0.000000
    8       10.132418   0.000000
 
  0.1250000E+00  0.1250000E+00  0.0000000E+00  0.1464844E-02
    1       -5.857532   1.000000
    2        4.499454   1.000000
    3        5.025399   1.000000
    4        5.025420   1.000000
    5        7.847381   0.000000
    6        9.541637   0.000000
    7        9.541659   0.000000
    8       10.238594   0.000000
 
  0.1875000E+00  0.1250000E+00  0.0000000E+00  0.5859375E-02
    1       -5.671457   1.000000
    2        3.662362   1.000000
    3        4.747046   1.000000
    4        4.839456   1.000000
    5        7.806853   0.000000
    6        9.633684   0.000000
    7        9.985692   0.000000
    8       10.530767   0.000000
 
  0.2500000E+00  0.1250000E+00  0.0000000E+00  0.5859375E-02
    1       -5.388611   1.000000
    2        2.609077   1.000000
    3        4.513786   1.000000
    4        4.590583   1.000000
    5        7.984488   0.000000
    6        9.547682   0.000000
    7       10.307526   0.000000
    8       10.590573   0.000000
 
  0.3125000E+00  0.1250000E+00  0.0000000E+00  0.5859375E-02
    1       -5.016855   1.000000
    2        1.545638   1.000000
    3        4.290161   1.000000
    4        4.344139   1.000000
    5        8.100499   0.000000
    6        9.533927   0.000000
    7       10.403413   0.000000
    8       10.740606   0.000000
 
  0.3750000E+00  0.1250000E+00  0.0000000E+00  0.5859375E-02
    1       -4.573309   1.000000
    2        0.547963   1.000000
    3        3.999291   1.000000
    4        4.245844   1.000000
    5        8.084579   0.000000
    6        9.480596   0.000000
    7       10.304302   0.000000
    8       11.308973   0.000000
 
  0.4375000E+00  0.1250000E+00  0.0000000E+00  0.5859375E-02
    1       -4.099973   1.000000
    2       -0.315250   1.000000
    3        3.748085   1.000000
    4        4.221688   1.000000
    5        8.038519   0.000000
    6        9.398756   0.000000
    7       10.122006   0.000000
    8       12.192903   0.000000
 
  0.5000000E+00  0.1250000E+00  0.0000000E+00  0.5859375E-02
    1       -3.711394   1.000000
    2       -0.915971   1.000000
    3        3.553325   1.000000
    4        4.270386   1.000000
    5        8.031549   0.000000
    6        9.353475   0.000000
    7        9.940325   0.000000
    8       13.213825   0.000000
 
 -0.4375000E+00  0.1250000E+00  0.0000000E+00  0.5859375E-02
    1       -3.642321   1.000000
    2       -1.013863   1.000000
    3        3.425086   1.000000
    4        4.387719   1.000000
    5        8.084917   0.000000
    6        9.372837   0.000000
    7        9.799178   0.000000
    8       14.052001   0.000000
 
 -0.3750000E+00  0.1250000E+00  0.0000000E+00  0.5859375E-02
    1       -3.956136   1.000000
    2       -0.545188   1.000000
    3        3.371470   1.000000
    4        4.566935   1.000000
    5        8.198362   0.000000
    6        9.461821   0.000000
    7        9.707279   0.000000
    8       13.758163   0.000000
 
 -0.3125000E+00  0.1250000E+00  0.0000000E+00  0.5859375E-02
    1       -4.420212   1.000000
    2        0.252003   1.000000
    3        3.399980   1.000000
    4        4.796510   1.000000
    5        8.361043   0.000000
    6        9.596383   0.000000
    7        9.636472   0.000000
    8       12.930335   0.000000
 
 -0.2500000E+00  0.1250000E+00  0.0000000E+00  0.5859375E-02
    1       -4.879764   1.000000
    2        1.207413   1.000000
    3        3.521808   1.000000
    4        5.058822   1.000000
    5        8.557802   0.000000
    6        9.515573   0.000000
    7        9.694759   0.000000
    8       12.139593   0.000000
 
 -0.1875000E+00  0.1250000E+00  0.0000000E+00  0.5859375E-02
    1       -5.277207   1.000000
    2        2.221653   1.000000
    3        3.762168   1.000000
    4        5.323642   1.000000
    5        8.761924   0.000000
    6        9.269557   0.000000
    7        9.572000   0.000000
    8       11.634880   0.000000
 
 -0.1250000E+00  0.1250000E+00  0.0000000E+00  0.2929688E-02
    1       -5.589952   1.000000
    2        3.149416   1.000000
    3        4.203774   1.000000
    4        5.539326   1.000000
    5        8.881320   0.000000
    6        8.961214   0.000000
    7        9.196816   0.000000
    8       11.390241   0.000000
 
  0.1875000E+00  0.1875000E+00  0.0000000E+00  0.1464844E-02
    1       -5.518413   1.000000
    2        3.431303   1.000000
    3        4.452730   1.000000
    4        4.452751   1.000000
    5        7.386810   0.000000
    6        9.901062   0.000000
    7       10.525091   0.000000
    8       10.525114   0.000000
 
  0.2500000E+00  0.1875000E+00  0.0000000E+00  0.5859375E-02
    1       -5.267452   1.000000
    2        2.688963   1.000000
    3        4.177351   1.000000
    4        4.205809   1.000000
    5        7.361226   0.000000
    6        9.545265   0.000000
    7       10.807570   0.000000
    8       10.972406   0.000000
 
  0.3125000E+00  0.1875000E+00  0.0000000E+00  0.5859375E-02
    1       -4.924616   1.000000
    2        1.773044   1.000000
    3        3.823427   1.000000
    4        4.025067   1.000000
    5        7.559359   0.000000
    6        9.491263   0.000000
    7       10.749334   0.000000
    8       11.187913   0.000000
 
  0.3750000E+00  0.1875000E+00  0.0000000E+00  0.5859375E-02
    1       -4.502608   1.000000
    2        0.839819   1.000000
    3        3.446279   1.000000
    4        3.919781   1.000000
    5        7.685352   0.000000
    6        9.907476   0.000000
    7       10.594884   0.000000
    8       11.150896   0.000000
 
  0.4375000E+00  0.1875000E+00  0.0000000E+00  0.5859375E-02
    1       -4.031450   1.000000
    2       -0.021906   1.000000
    3        3.104627   1.000000
    4        3.893408   1.000000
    5        7.714007   0.000000
    6       10.436570   0.000000
    7       10.725993   0.000000
    8       10.971553   0.000000
 
  0.5000000E+00  0.1875000E+00  0.0000000E+00  0.5859375E-02
    1       -3.592478   1.000000
    2       -0.701165   1.000000
    3        2.826675   1.000000
    4        3.946076   1.000000
    5        7.756056   0.000000
    6       10.317952   0.000000
    7       10.758348   0.000000
    8       11.776227   0.000000
 
 -0.4375000E+00  0.1875000E+00  0.0000000E+00  0.5859375E-02
    1       -3.392487   1.000000
    2       -0.977833   1.000000
    3        2.627276   1.000000
    4        4.073926   1.000000
    5        7.863518   0.000000
    6       10.250063   0.000000
    7       10.567159   0.000000
    8       12.958567   0.000000
 
 -0.3750000E+00  0.1875000E+00  0.0000000E+00  0.5859375E-02
    1       -3.607947   1.000000
    2       -0.672887   1.000000
    3        2.519568   1.000000
    4        4.270250   1.000000
    5        8.047804   0.000000
    6       10.237680   0.000000
    7       10.410562   0.000000
    8       13.779361   0.000000
 
 -0.3125000E+00  0.1875000E+00  0.0000000E+00  0.5859375E-02
    1       -4.050088   1.000000
    2        0.013701   1.000000
    3        2.520006   1.000000
    4        4.522633   1.000000
    5        8.295536   0.000000
    6       10.260828   0.000000
    7       10.264940   0.000000
    8       12.772456   0.000000
 
 -0.2500000E+00  0.1875000E+00  0.0000000E+00  0.5859375E-02
    1       -4.519210   1.000000
    2        0.843795   1.000000
    3        2.664844   1.000000
    4        4.810707   1.000000
    5        8.573272   0.000000
    6       10.032250   0.000000
    7       10.251207   0.000000
    8       11.920142   0.000000
 
 -0.1875000E+00  0.1875000E+00  0.0000000E+00  0.2929688E-02
    1       -4.937853   1.000000
    2        1.634224   1.000000
    3        3.046035   1.000000
    4        5.097889   1.000000
    5        8.804193   0.000000
    6        9.659504   0.000000
    7        9.967822   0.000000
    8       11.538310   0.000000
 
  0.2500000E+00  0.2500000E+00  0.0000000E+00  0.1464844E-02
    1       -5.048120   1.000000
    2        2.316679   1.000000
    3        3.942384   1.000000
    4        3.942404   1.000000
    5        6.965039   0.000000
    6        8.970405   0.000000
    7       11.597942   0.000000
    8       11.597967   0.000000
 
  0.3125000E+00  0.2500000E+00  0.0000000E+00  0.5859375E-02
    1       -4.735025   1.000000
    2        1.654898   1.000000
    3        3.621654   1.000000
    4        3.744983   1.000000
    5        6.981618   0.000000
    6        8.644532   0.000000
    7       11.880867   0.000000
    8       12.014377   0.000000
 
  0.3750000E+00  0.2500000E+00  0.0000000E+00  0.5859375E-02
    1       -4.337744   1.000000
    2        0.892617   1.000000
    3        3.161997   1.000000
    4        3.624264   1.000000
    5        7.186729   0.000000
    6        8.731953   0.000000
    7       11.840998   0.000000
    8       12.111632   0.000000
 
  0.4375000E+00  0.2500000E+00  0.0000000E+00  0.5859375E-02
    1       -3.877601   1.000000
    2        0.125521   1.000000
    3        2.694609   1.000000
    4        3.584785   1.000000
    5        7.291019   0.000000
    6        9.340122   0.000000
    7       11.708595   0.000000
    8       11.980156   0.000000
 
  0.5000000E+00  0.2500000E+00  0.0000000E+00  0.5859375E-02
    1       -3.411379   1.000000
    2       -0.550084   1.000000
    3        2.298261   1.000000
    4        3.627416   1.000000
    5        7.355768   0.000000
    6       10.285916   0.000000
    7       11.586467   0.000000
    8       11.762087   0.000000
 
 -0.4375000E+00  0.2500000E+00  0.0000000E+00  0.5859375E-02
    1       -3.103984   1.000000
    2       -0.946577   1.000000
    3        2.005967   1.000000
    4        3.749839   1.000000
    5        7.477186   0.000000
    6       11.213060   0.000000
    7       11.536692   0.000000
    8       11.709063   0.000000
 
 -0.3750000E+00  0.2500000E+00  0.0000000E+00  0.5859375E-02
    1       -3.206945   1.000000
    2       -0.808614   1.000000
    3        1.839610   1.000000
    4        3.946080   1.000000
    5        7.681122   0.000000
    6       11.305289   0.000000
    7       11.321983   0.000000
    8       12.803343   0.000000
 
 -0.3125000E+00  0.2500000E+00  0.0000000E+00  0.5859375E-02
    1       -3.615096   1.000000
    2       -0.267292   1.000000
    3        1.836622   1.000000
    4        4.204593   1.000000
    5        7.961698   0.000000
    6       11.065890   0.000000
    7       11.255618   0.000000
    8       12.705640   0.000000
 
 -0.2500000E+00  0.2500000E+00  0.0000000E+00  0.2929688E-02
    1       -4.085880   1.000000
    2        0.352650   1.000000
    3        2.079588   1.000000
    4        4.504678   1.000000
    5        8.287440   0.000000
    6       10.628914   0.000000
    7       10.970969   0.000000
    8       11.987075   0.000000
 
  0.3125000E+00  0.3125000E+00  0.0000000E+00  0.1464844E-02
    1       -4.451330   1.000000
    2        1.194133   1.000000
    3        3.528365   1.000000
    4        3.528384   1.000000
    5        6.641585   0.000000
    6        8.085381   0.000000
    7       12.723853   0.000000
    8       12.723876   0.000000
 
  0.3750000E+00  0.3125000E+00  0.0000000E+00  0.5859375E-02
    1       -4.080324   1.000000
    2        0.591451   1.000000
    3        3.201887   1.000000
    4        3.387834   1.000000
    5        6.712213   0.000000
    6        7.864169   0.000000
    7       13.028077   0.000000
    8       13.092129   0.000000
 
  0.4375000E+00  0.3125000E+00  0.0000000E+00  0.5859375E-02
    1       -3.637208   1.000000
    2       -0.041112   1.000000
    3        2.680880   1.000000
    4        3.329461   1.000000
    5        6.904357   0.000000
    6        8.153664   0.000000
    7       13.004208   0.000000
    8       13.086489   0.000000
 
  0.5000000E+00  0.3125000E+00  0.0000000E+00  0.5859375E-02
    1       -3.160812   1.000000
    2       -0.637003   1.000000
    3        2.153562   1.000000
    4        3.354891   1.000000
    5        6.999238   0.000000
    6        8.962807   0.000000
    7       12.883306   0.000000
    8       12.896316   0.000000
 
 -0.4375000E+00  0.3125000E+00  0.0000000E+00  0.5859375E-02
    1       -2.776349   1.000000
    2       -1.067337   1.000000
    3        1.733264   1.000000
    4        3.462874   1.000000
    5        7.120549   0.000000
    6       10.044907   0.000000
    7       12.647783   0.000000
    8       12.760133   0.000000
 
 -0.3750000E+00  0.3125000E+00  0.0000000E+00  0.5859375E-02
    1       -2.778581   1.000000
    2       -1.052769   1.000000
    3        1.486993   1.000000
    4        3.648510   1.000000
    5        7.324327   0.000000
    6       11.252791   0.000000
    7       12.354657   0.000000
    8       12.682363   0.000000
 
 -0.3125000E+00  0.3125000E+00  0.0000000E+00  0.2929688E-02
    1       -3.153078   1.000000
    2       -0.661908   1.000000
    3        1.490232   1.000000
    4        3.901802   1.000000
    5        7.612598   0.000000
    6       11.857788   0.000000
    7       12.038869   0.000000
    8       12.903581   0.000000
 
  0.3750000E+00  0.3750000E+00  0.0000000E+00  0.1464844E-02
    1       -3.734981   1.000000
    2        0.087880   1.000000
    3        3.225736   1.000000
    4        3.225755   1.000000
    5        6.450072   0.000000
    6        7.374739   0.000000
    7       13.888526   0.000000
    8       13.888551   0.000000
 
  0.4375000E+00  0.3750000E+00  0.0000000E+00  0.5859375E-02
    1       -3.312066   1.000000
    2       -0.465915   1.000000
    3        2.922399   1.000000
    4        3.145312   1.000000
    5        6.575204   0.000000
    6        7.282842   0.000000
    7       14.202656   0.000000
    8       14.209825   0.000000
 
  0.5000000E+00  0.3750000E+00  0.0000000E+00  0.5859375E-02
    1       -2.837368   1.000000
    2       -0.997556   1.000000
    3        2.396591   1.000000
    4        3.149667   1.000000
    5        6.729999   0.000000
    6        7.803031   0.000000
    7       14.112933   0.000000
    8       14.201601   0.000000
 
 -0.4375000E+00  0.3750000E+00  0.0000000E+00  0.5859375E-02
    1       -2.406912   1.000000
    2       -1.417425   1.000000
    3        1.879212   1.000000
    4        3.238222   1.000000
    5        6.846061   0.000000
    6        8.777897   0.000000
    7       13.842273   0.000000
    8       14.088689   0.000000
 
 -0.3750000E+00  0.3750000E+00  0.0000000E+00  0.2929688E-02
    1       -2.398372   1.000000
    2       -1.394362   1.000000
    3        1.530325   1.000000
    4        3.407258   1.000000
    5        7.039753   0.000000
    6        9.965424   0.000000
    7       13.313307   0.000000
    8       13.860779   0.000000
 
  0.4375000E+00  0.4375000E+00  0.0000000E+00  0.1464844E-02
    1       -2.908562   1.000000
    2       -0.979172   1.000000
    3        3.041739   1.000000
    4        3.041758   1.000000
    5        6.411604   0.000000
    6        6.861617   0.000000
    7       15.068820   0.000000
    8       15.068848   0.000000
 
  0.5000000E+00  0.4375000E+00  0.0000000E+00  0.5859375E-02
    1       -2.442481   1.000000
    2       -1.485428   1.000000
    3        2.782817   1.000000
    4        3.022832   1.000000
    5        6.565427   0.000000
    6        6.929576   0.000000
    7       15.298464   0.000000
    8       15.384320   0.000000
 
 -0.4375000E+00  0.4375000E+00  0.0000000E+00  0.2929688E-02
    1       -2.053889   1.000000
    2       -1.836623   1.000000
    3        2.303087   1.000000
    4        3.089314   1.000000
    5        6.671169   0.000000
    6        7.685762   0.000000
    7       14.901573   0.000000
    8       15.291329   0.000000
 
  0.5000000E+00  0.5000000E+00  0.0000000E+00  0.7324219E-03
    1       -1.984548   1.000000
    2       -1.984548   1.000000
    3        2.980058   1.000000
    4        2.980077   1.000000
    5        6.544186   0.000000
    6        6.544235   0.000000
    7       15.956971   0.000000
    8       15.956997   0.000000
 
  0.1875000E+00  0.1250000E+00  0.6250000E-01  0.5859375E-02
    1       -5.790454   1.000000
    2        3.941688   1.000000
    3        4.758399   1.000000
    4        5.409186   1.000000
    5        8.214053   0.000000
    6        9.117741   0.000000
    7        9.414112   0.000000
    8       10.774678   0.000000
 
  0.2500000E+00  0.1250000E+00  0.6250000E-01  0.1171875E-01
    1       -5.539423   1.000000
    2        2.974964   1.000000
    3        4.343050   1.000000
    4        5.248746   1.000000
    5        8.386321   0.000000
    6        9.108066   0.000000
    7        9.793282   0.000000
    8       11.043241   0.000000
 
  0.3125000E+00  0.1250000E+00  0.6250000E-01  0.1171875E-01
    1       -5.196166   1.000000
    2        1.903103   1.000000
    3        4.072983   1.000000
    4        5.011983   1.000000
    5        8.448396   0.000000
    6        9.139970   0.000000
    7       10.020507   0.000000
    8       11.222393   0.000000
 
  0.3750000E+00  0.1250000E+00  0.6250000E-01  0.1171875E-01
    1       -4.773766   1.000000
    2        0.867667   1.000000
    3        3.890330   1.000000
    4        4.769764   1.000000
    5        8.353258   0.000000
    6        9.166367   0.000000
    7       10.026202   0.000000
    8       11.716836   0.000000
 
  0.4375000E+00  0.1250000E+00  0.6250000E-01  0.1171875E-01
    1       -4.302961   1.000000
    2       -0.057720   1.000000
    3        3.776867   1.000000
    4        4.565214   1.000000
    5        8.238788   0.000000
    6        9.107826   0.000000
    7        9.930009   0.000000
    8       12.516153   0.000000
 
  0.5000000E+00  0.1250000E+00  0.6250000E-01  0.1171875E-01
    1       -3.865365   1.000000
    2       -0.773134   1.000000
    3        3.718801   1.000000
    4        4.427492   1.000000
    5        8.161085   0.000000
    6        9.038571   0.000000
    7        9.836720   0.000000
    8       13.432474   0.000000
 
 -0.4375000E+00  0.1250000E+00  0.6250000E-01  0.5859375E-02
    1       -3.661594   1.000000
    2       -1.070279   1.000000
    3        3.701771   1.000000
    4        4.378434   1.000000
    5        8.134124   0.000000
    6        9.010486   0.000000
    7        9.800141   0.000000
    8       13.958908   0.000000
 
  0.2500000E+00  0.1875000E+00  0.6250000E-01  0.5859375E-02
    1       -5.453182   1.000000
    2        3.033319   1.000000
    3        4.182904   1.000000
    4        4.758664   1.000000
    5        7.770347   0.000000
    6        9.782793   0.000000
    7       10.414453   0.000000
    8       10.424598   0.000000
 
  0.3125000E+00  0.1875000E+00  0.6250000E-01  0.1171875E-01
    1       -5.140353   1.000000
    2        2.149219   1.000000
    3        3.765237   1.000000
    4        4.576640   1.000000
    5        7.978397   0.000000
    6        9.752467   0.000000
    7       10.277185   0.000000
    8       10.788860   0.000000
 
  0.3750000E+00  0.1875000E+00  0.6250000E-01  0.1171875E-01
    1       -4.742926   1.000000
    2        1.184191   1.000000
    3        3.482497   1.000000
    4        4.347030   1.000000
    5        8.142346   0.000000
    6        9.793227   0.000000
    7       10.341847   0.000000
    8       10.921070   0.000000
 
  0.4375000E+00  0.1875000E+00  0.6250000E-01  0.1171875E-01
    1       -4.283151   1.000000
    2        0.263463   1.000000
    3        3.273009   1.000000
    4        4.157554   1.000000
    5        8.180262   0.000000
    6        9.636628   0.000000
    7       10.818438   0.000000
    8       11.053660   0.000000
 
  0.5000000E+00  0.1875000E+00  0.6250000E-01  0.1171875E-01
    1       -3.818582   1.000000
    2       -0.512177   1.000000
    3        3.108250   1.000000
    4        4.056950   1.000000
    5        8.197489   0.000000
    6        9.449533   0.000000
    7       10.738470   0.000000
    8       11.999965   0.000000
 
 -0.4375000E+00  0.1875000E+00  0.6250000E-01  0.1171875E-01
    1       -3.505759   1.000000
    2       -0.967804   1.000000
    3        2.983389   1.000000
    4        4.062093   1.000000
    5        8.261252   0.000000
    6        9.304847   0.000000
    7       10.650027   0.000000
    8       13.118260   0.000000
 
 -0.3750000E+00  0.1875000E+00  0.6250000E-01  0.1171875E-01
    1       -3.581053   1.000000
    2       -0.860859   1.000000
    3        2.909598   1.000000
    4        4.166316   1.000000
    5        8.387227   0.000000
    6        9.221123   0.000000
    7       10.606339   0.000000
    8       13.406657   0.000000
 
 -0.3125000E+00  0.1875000E+00  0.6250000E-01  0.1171875E-01
    1       -3.973891   1.000000
    2       -0.264464   1.000000
    3        2.904851   1.000000
    4        4.352582   1.000000
    5        8.563912   0.000000
    6        9.199897   0.000000
    7       10.599754   0.000000
    8       12.352498   0.000000
 
 -0.2500000E+00  0.1875000E+00  0.6250000E-01  0.1171875E-01
    1       -4.447135   1.000000
    2        0.570237   1.000000
    3        2.990267   1.000000
    4        4.598133   1.000000
    5        8.757456   0.000000
    6        9.208518   0.000000
    7       10.586226   0.000000
    8       11.477714   0.000000
 
 -0.1875000E+00  0.1875000E+00  0.6250000E-01  0.1171875E-01
    1       -4.888907   1.000000
    2        1.490251   1.000000
    3        3.201261   1.000000
    4        4.869571   1.000000
    5        8.872084   0.000000
    6        9.170716   0.000000
    7       10.481312   0.000000
    8       10.932119   0.000000
 
 -0.1250000E+00  0.1875000E+00  0.6250000E-01  0.5859375E-02
    1       -5.258545   1.000000
    2        2.345919   1.000000
    3        3.624258   1.000000
    4        5.113914   1.000000
    5        8.662972   0.000000
    6        9.197316   0.000000
    7       10.166946   0.000000
    8       10.848522   0.000000
 