       N       E                     dE             d eps       ncg     rms          rms(c)
DAV:   1     0.150860487020E+01    0.15086E+01   -0.24550E+03  2336   0.497E+02
DAV:   2    -0.108719316411E+02   -0.12381E+02   -0.12099E+02  3672   0.654E+01
DAV:   3    -0.110176178886E+02   -0.14569E+00   -0.14569E+00  2904   0.885E+00
DAV:   4    -0.110181508943E+02   -0.53301E-03   -0.53301E-03  3856   0.577E-01
DAV:   5    -0.110181511269E+02   -0.23258E-06   -0.23258E-06  2856   0.979E-03    0.301E+00
DAV:   6    -0.108937082032E+02    0.12444E+00   -0.82329E-02  2848   0.149E+00    0.178E+00
DAV:   7    -0.108368594843E+02    0.56849E-01   -0.15111E-01  2944   0.215E+00    0.154E-01
DAV:   8    -0.108381697152E+02   -0.13102E-02   -0.40859E-03  2656   0.476E-01    0.250E-02
DAV:   9    -0.108382629150E+02   -0.93200E-04   -0.99606E-05  3640   0.788E-02    0.146E-02
DAV:  10    -0.108382834078E+02   -0.20493E-04   -0.29316E-05  2672   0.415E-02    0.153E-03
DAV:  11    -0.108382827254E+02    0.68232E-06   -0.47466E-07  3776   0.429E-03    0.532E-04
DAV:  12    -0.108382826846E+02    0.40836E-07   -0.46135E-08  1992   0.197E-03
   1 F= -.10838283E+02 E0= -.10838283E+02  d E =0.000000E+00
