<?xml version="1.0" encoding="ISO-8859-1"?>
<modeling>
 <generator>
  <i name="program" type="string">vasp </i>
  <i name="version" type="string">5.4.4.18Apr17-6-g9f103f2a35  </i>
  <i name="subversion" type="string">(build May 20 2018 16:52:39) complex            parallel </i>
  <i name="platform" type="string">LinuxIFC </i>
  <i name="date" type="string">2022 11 04 </i>
  <i name="time" type="string">18:17:53 </i>
 </generator>
 <incar>
  <i type="string" name="SYSTEM"> Si</i>
  <i type="string" name="PREC">normal</i>
  <i name="EDIFF">      0.00000010</i>
  <i name="ENCUT">    300.00000000</i>
  <i type="int" name="ISMEAR">    -5</i>
  <v type="int" name="KPOINT_BSE">    -1     0     0     0</v>
 </incar>
 <structure name="primitive_cell" >
  <crystal>
   <varray name="basis" >
    <v>       0.00000000       2.71500000       2.71500000 </v>
    <v>       2.71500000       0.00000000       2.71500000 </v>
    <v>       2.71500000       2.71500000       0.00000000 </v>
   </varray>
   <i name="volume">     40.02575175 </i>
   <varray name="rec_basis" >
    <v>      -0.18416206       0.18416206       0.18416206 </v>
    <v>       0.18416206      -0.18416206       0.18416206 </v>
    <v>       0.18416206       0.18416206      -0.18416206 </v>
   </varray>
  </crystal>
  <varray name="positions" >
   <v>       0.00000000       0.00000000       0.00000000 </v>
   <v>       0.25000000       0.25000000       0.25000000 </v>
  </varray>
 </structure>
 <varray name="primitive_index" >
  <v type="int" >        1 </v>
  <v type="int" >        2 </v>
 </varray>
 <kpoints>
  <generation param="Gamma">
   <v type="int" name="divisions">      16       16       16 </v>
   <v name="usershift">      0.00000000       0.00000000       0.00000000 </v>
   <v name="genvec1">      0.06250000       0.00000000       0.00000000 </v>
   <v name="genvec2">      0.00000000       0.06250000       0.00000000 </v>
   <v name="genvec3">      0.00000000       0.00000000       0.06250000 </v>
   <v name="shift">      0.00000000       0.00000000       0.00000000 </v>
  </generation>
  <varray name="kpointlist" >
   <v>       0.00000000       0.00000000       0.00000000 </v>
   <v>       0.06250000       0.00000000       0.00000000 </v>
   <v>       0.12500000       0.00000000       0.00000000 </v>
   <v>       0.18750000       0.00000000       0.00000000 </v>
   <v>       0.25000000       0.00000000       0.00000000 </v>
   <v>       0.31250000       0.00000000       0.00000000 </v>
   <v>       0.37500000       0.00000000       0.00000000 </v>
   <v>       0.43750000       0.00000000       0.00000000 </v>
   <v>       0.50000000       0.00000000       0.00000000 </v>
   <v>       0.06250000       0.06250000       0.00000000 </v>
   <v>       0.12500000       0.06250000       0.00000000 </v>
   <v>       0.18750000       0.06250000       0.00000000 </v>
   <v>       0.25000000       0.06250000       0.00000000 </v>
   <v>       0.31250000       0.06250000       0.00000000 </v>
   <v>       0.37500000       0.06250000       0.00000000 </v>
   <v>       0.43750000       0.06250000       0.00000000 </v>
   <v>       0.50000000       0.06250000       0.00000000 </v>
   <v>      -0.43750000       0.06250000       0.00000000 </v>
   <v>      -0.37500000       0.06250000       0.00000000 </v>
   <v>      -0.31250000       0.06250000       0.00000000 </v>
   <v>      -0.25000000       0.06250000       0.00000000 </v>
   <v>      -0.18750000       0.06250000       0.00000000 </v>
   <v>      -0.12500000       0.06250000       0.00000000 </v>
   <v>      -0.06250000       0.06250000       0.00000000 </v>
   <v>       0.12500000       0.12500000       0.00000000 </v>
   <v>       0.18750000       0.12500000       0.00000000 </v>
   <v>       0.25000000       0.12500000       0.00000000 </v>
   <v>       0.31250000       0.12500000       0.00000000 </v>
   <v>       0.37500000       0.12500000       0.00000000 </v>
   <v>       0.43750000       0.12500000       0.00000000 </v>
   <v>       0.50000000       0.12500000       0.00000000 </v>
   <v>      -0.43750000       0.12500000       0.00000000 </v>
   <v>      -0.37500000       0.12500000       0.00000000 </v>
   <v>      -0.31250000       0.12500000       0.00000000 </v>
   <v>      -0.25000000       0.12500000       0.00000000 </v>
   <v>      -0.18750000       0.12500000       0.00000000 </v>
   <v>      -0.12500000       0.12500000       0.00000000 </v>
   <v>       0.18750000       0.18750000       0.00000000 </v>
   <v>       0.25000000       0.18750000       0.00000000 </v>
   <v>       0.31250000       0.18750000       0.00000000 </v>
   <v>       0.37500000       0.18750000       0.00000000 </v>
   <v>       0.43750000       0.18750000       0.00000000 </v>
   <v>       0.50000000       0.18750000       0.00000000 </v>
   <v>      -0.43750000       0.18750000       0.00000000 </v>
   <v>      -0.37500000       0.18750000       0.00000000 </v>
   <v>      -0.31250000       0.18750000       0.00000000 </v>
   <v>      -0.25000000       0.18750000       0.00000000 </v>
   <v>      -0.18750000       0.18750000       0.00000000 </v>
   <v>       0.25000000       0.25000000       0.00000000 </v>
   <v>       0.31250000       0.25000000       0.00000000 </v>
   <v>       0.37500000       0.25000000       0.00000000 </v>
   <v>       0.43750000       0.25000000       0.00000000 </v>
   <v>       0.50000000       0.25000000       0.00000000 </v>
   <v>      -0.43750000       0.25000000       0.00000000 </v>
   <v>      -0.37500000       0.25000000       0.00000000 </v>
   <v>      -0.31250000       0.25000000       0.00000000 </v>
   <v>      -0.25000000       0.25000000       0.00000000 </v>
   <v>       0.31250000       0.31250000       0.00000000 </v>
   <v>       0.37500000       0.31250000       0.00000000 </v>
   <v>       0.43750000       0.31250000       0.00000000 </v>
   <v>       0.50000000       0.31250000       0.00000000 </v>
   <v>      -0.43750000       0.31250000       0.00000000 </v>
   <v>      -0.37500000       0.31250000       0.00000000 </v>
   <v>      -0.31250000       0.31250000       0.00000000 </v>
   <v>       0.37500000       0.37500000       0.00000000 </v>
   <v>       0.43750000       0.37500000       0.00000000 </v>
   <v>       0.50000000       0.37500000       0.00000000 </v>
   <v>      -0.43750000       0.37500000       0.00000000 </v>
   <v>      -0.37500000       0.37500000       0.00000000 </v>
   <v>       0.43750000       0.43750000       0.00000000 </v>
   <v>       0.50000000       0.43750000       0.00000000 </v>
   <v>      -0.43750000       0.43750000       0.00000000 </v>
   <v>       0.50000000       0.50000000       0.00000000 </v>
   <v>       0.18750000       0.12500000       0.06250000 </v>
   <v>       0.25000000       0.12500000       0.06250000 </v>
   <v>       0.31250000       0.12500000       0.06250000 </v>
   <v>       0.37500000       0.12500000       0.06250000 </v>
   <v>       0.43750000       0.12500000       0.06250000 </v>
   <v>       0.50000000       0.12500000       0.06250000 </v>
   <v>      -0.43750000       0.12500000       0.06250000 </v>
   <v>       0.25000000       0.18750000       0.06250000 </v>
   <v>       0.31250000       0.18750000       0.06250000 </v>
   <v>       0.37500000       0.18750000       0.06250000 </v>
   <v>       0.43750000       0.18750000       0.06250000 </v>
   <v>       0.50000000       0.18750000       0.06250000 </v>
   <v>      -0.43750000       0.18750000       0.06250000 </v>
   <v>      -0.37500000       0.18750000       0.06250000 </v>
   <v>      -0.31250000       0.18750000       0.06250000 </v>
   <v>      -0.25000000       0.18750000       0.06250000 </v>
   <v>      -0.18750000       0.18750000       0.06250000 </v>
   <v>      -0.12500000       0.18750000       0.06250000 </v>
   <v>       0.31250000       0.25000000       0.06250000 </v>
   <v>       0.37500000       0.25000000       0.06250000 </v>
   <v>       0.43750000       0.25000000       0.06250000 </v>
   <v>       0.50000000       0.25000000       0.06250000 </v>
   <v>      -0.43750000       0.25000000       0.06250000 </v>
   <v>      -0.37500000       0.25000000       0.06250000 </v>
   <v>      -0.31250000       0.25000000       0.06250000 </v>
   <v>      -0.25000000       0.25000000       0.06250000 </v>
   <v>      -0.18750000       0.25000000       0.06250000 </v>
   <v>       0.37500000       0.31250000       0.06250000 </v>
   <v>       0.43750000       0.31250000       0.06250000 </v>
   <v>       0.50000000       0.31250000       0.06250000 </v>
   <v>      -0.43750000       0.31250000       0.06250000 </v>
   <v>      -0.37500000       0.31250000       0.06250000 </v>
   <v>      -0.31250000       0.31250000       0.06250000 </v>
   <v>      -0.25000000       0.31250000       0.06250000 </v>
   <v>       0.43750000       0.37500000       0.06250000 </v>
   <v>       0.50000000       0.37500000       0.06250000 </v>
   <v>      -0.43750000       0.37500000       0.06250000 </v>
   <v>      -0.37500000       0.37500000       0.06250000 </v>
   <v>      -0.31250000       0.37500000       0.06250000 </v>
   <v>       0.50000000       0.43750000       0.06250000 </v>
   <v>      -0.43750000       0.43750000       0.06250000 </v>
   <v>      -0.37500000       0.43750000       0.06250000 </v>
   <v>      -0.43750000       0.50000000       0.06250000 </v>
   <v>       0.37500000       0.25000000       0.12500000 </v>
   <v>       0.43750000       0.25000000       0.12500000 </v>
   <v>       0.50000000       0.25000000       0.12500000 </v>
   <v>      -0.43750000       0.25000000       0.12500000 </v>
   <v>      -0.37500000       0.25000000       0.12500000 </v>
   <v>       0.43750000       0.31250000       0.12500000 </v>
   <v>       0.50000000       0.31250000       0.12500000 </v>
   <v>      -0.43750000       0.31250000       0.12500000 </v>
   <v>      -0.37500000       0.31250000       0.12500000 </v>
   <v>      -0.31250000       0.31250000       0.12500000 </v>
   <v>      -0.25000000       0.31250000       0.12500000 </v>
   <v>      -0.18750000       0.31250000       0.12500000 </v>
   <v>       0.50000000       0.37500000       0.12500000 </v>
   <v>      -0.43750000       0.37500000       0.12500000 </v>
   <v>      -0.37500000       0.37500000       0.12500000 </v>
   <v>      -0.31250000       0.37500000       0.12500000 </v>
   <v>      -0.25000000       0.37500000       0.12500000 </v>
   <v>      -0.43750000       0.43750000       0.12500000 </v>
   <v>      -0.37500000       0.43750000       0.12500000 </v>
   <v>      -0.31250000       0.43750000       0.12500000 </v>
   <v>      -0.37500000       0.50000000       0.12500000 </v>
   <v>      -0.43750000       0.37500000       0.18750000 </v>
   <v>      -0.37500000       0.37500000       0.18750000 </v>
   <v>      -0.31250000       0.37500000       0.18750000 </v>
   <v>      -0.37500000       0.43750000       0.18750000 </v>
   <v>      -0.31250000       0.43750000       0.18750000 </v>
   <v>      -0.25000000       0.43750000       0.18750000 </v>
   <v>      -0.31250000       0.50000000       0.18750000 </v>
   <v>      -0.25000000       0.50000000       0.25000000 </v>
  </varray>
  <varray name="weights" >
   <v>       0.00024414 </v>
   <v>       0.00195312 </v>
   <v>       0.00195312 </v>
   <v>       0.00195312 </v>
   <v>       0.00195312 </v>
   <v>       0.00195312 </v>
   <v>       0.00195312 </v>
   <v>       0.00195312 </v>
   <v>       0.00097656 </v>
   <v>       0.00146484 </v>
   <v>       0.00585938 </v>
   <v>       0.00585938 </v>
   <v>       0.00585938 </v>
   <v>       0.00585938 </v>
   <v>       0.00585938 </v>
   <v>       0.00585938 </v>
   <v>       0.00585938 </v>
   <v>       0.00585938 </v>
   <v>       0.00585938 </v>
   <v>       0.00585938 </v>
   <v>       0.00585938 </v>
   <v>       0.00585938 </v>
   <v>       0.00585938 </v>
   <v>       0.00292969 </v>
   <v>       0.00146484 </v>
   <v>       0.00585938 </v>
   <v>       0.00585938 </v>
   <v>       0.00585938 </v>
   <v>       0.00585938 </v>
   <v>       0.00585938 </v>
   <v>       0.00585938 </v>
   <v>       0.00585938 </v>
   <v>       0.00585938 </v>
   <v>       0.00585938 </v>
   <v>       0.00585938 </v>
   <v>       0.00585938 </v>
   <v>       0.00292969 </v>
   <v>       0.00146484 </v>
   <v>       0.00585938 </v>
   <v>       0.00585938 </v>
   <v>       0.00585938 </v>
   <v>       0.00585938 </v>
   <v>       0.00585938 </v>
   <v>       0.00585938 </v>
   <v>       0.00585938 </v>
   <v>       0.00585938 </v>
   <v>       0.00585938 </v>
   <v>       0.00292969 </v>
   <v>       0.00146484 </v>
   <v>       0.00585938 </v>
   <v>       0.00585938 </v>
   <v>       0.00585938 </v>
   <v>       0.00585938 </v>
   <v>       0.00585938 </v>
   <v>       0.00585938 </v>
   <v>       0.00585938 </v>
   <v>       0.00292969 </v>
   <v>       0.00146484 </v>
   <v>       0.00585938 </v>
   <v>       0.00585938 </v>
   <v>       0.00585938 </v>
   <v>       0.00585938 </v>
   <v>       0.00585938 </v>
   <v>       0.00292969 </v>
   <v>       0.00146484 </v>
   <v>       0.00585938 </v>
   <v>       0.00585938 </v>
   <v>       0.00585938 </v>
   <v>       0.00292969 </v>
   <v>       0.00146484 </v>
   <v>       0.00585938 </v>
   <v>       0.00292969 </v>
   <v>       0.00073242 </v>
   <v>       0.00585938 </v>
   <v>       0.01171875 </v>
   <v>       0.01171875 </v>
   <v>       0.01171875 </v>
   <v>       0.01171875 </v>
   <v>       0.01171875 </v>
   <v>       0.00585938 </v>
   <v>       0.00585938 </v>
   <v>       0.01171875 </v>
   <v>       0.01171875 </v>
   <v>       0.01171875 </v>
   <v>       0.01171875 </v>
   <v>       0.01171875 </v>
   <v>       0.01171875 </v>
   <v>       0.01171875 </v>
   <v>       0.01171875 </v>
   <v>       0.01171875 </v>
   <v>       0.00585938 </v>
   <v>       0.00585938 </v>
   <v>       0.01171875 </v>
   <v>       0.01171875 </v>
   <v>       0.01171875 </v>
   <v>       0.01171875 </v>
   <v>       0.01171875 </v>
   <v>       0.01171875 </v>
   <v>       0.01171875 </v>
   <v>       0.00585938 </v>
   <v>       0.00585938 </v>
   <v>       0.01171875 </v>
   <v>       0.01171875 </v>
   <v>       0.01171875 </v>
   <v>       0.01171875 </v>
   <v>       0.01171875 </v>
   <v>       0.00585938 </v>
   <v>       0.00585938 </v>
   <v>       0.01171875 </v>
   <v>       0.01171875 </v>
   <v>       0.01171875 </v>
   <v>       0.00585938 </v>
   <v>       0.00585938 </v>
   <v>       0.01171875 </v>
   <v>       0.00585938 </v>
   <v>       0.00292969 </v>
   <v>       0.00585938 </v>
   <v>       0.01171875 </v>
   <v>       0.01171875 </v>
   <v>       0.01171875 </v>
   <v>       0.00585938 </v>
   <v>       0.00585938 </v>
   <v>       0.01171875 </v>
   <v>       0.01171875 </v>
   <v>       0.01171875 </v>
   <v>       0.01171875 </v>
   <v>       0.01171875 </v>
   <v>       0.00585938 </v>
   <v>       0.00585938 </v>
   <v>       0.01171875 </v>
   <v>       0.01171875 </v>
   <v>       0.01171875 </v>
   <v>       0.00585938 </v>
   <v>       0.00585938 </v>
   <v>       0.01171875 </v>
   <v>       0.00585938 </v>
   <v>       0.00292969 </v>
   <v>       0.00585938 </v>
   <v>       0.01171875 </v>
   <v>       0.00585938 </v>
   <v>       0.00585938 </v>
   <v>       0.01171875 </v>
   <v>       0.00585938 </v>
   <v>       0.00292969 </v>
   <v>       0.00146484 </v>
  </varray>
  <varray name="tetrahedronlist"  type="int" >
   <v type="int" >       24        1        2        2       10 </v>
   <v type="int" >       48        2       10       11       24 </v>
   <v type="int" >       48        2        3       11       24 </v>
   <v type="int" >       24        2        2       10       24 </v>
   <v type="int" >       48        3       11       12       23 </v>
   <v type="int" >       48        3        4       12       23 </v>
   <v type="int" >       48        3       11       23       24 </v>
   <v type="int" >       48        4       12       13       22 </v>
   <v type="int" >       48        4        5       13       22 </v>
   <v type="int" >       48        4       12       22       23 </v>
   <v type="int" >       48        5       13       14       21 </v>
   <v type="int" >       48        5        6       14       21 </v>
   <v type="int" >       48        5       13       21       22 </v>
   <v type="int" >       48        6       14       15       20 </v>
   <v type="int" >       48        6        7       15       20 </v>
   <v type="int" >       48        6       14       20       21 </v>
   <v type="int" >       48        7       15       16       19 </v>
   <v type="int" >       48        7        8       16       19 </v>
   <v type="int" >       48        7       15       19       20 </v>
   <v type="int" >       48        8       16       17       18 </v>
   <v type="int" >       48        8        9       17       18 </v>
   <v type="int" >       48        8       16       18       19 </v>
   <v type="int" >       48        9       17       17       18 </v>
   <v type="int" >       24       10       11       11       25 </v>
   <v type="int" >       24       10       11       11       24 </v>
   <v type="int" >       48       11       25       26       74 </v>
   <v type="int" >       48       11       12       26       74 </v>
   <v type="int" >       48       11       12       23       74 </v>
   <v type="int" >       24       11       11       25       74 </v>
   <v type="int" >       24       11       11       24       74 </v>
   <v type="int" >       48       11       23       24       74 </v>
   <v type="int" >       48       12       26       27       75 </v>
   <v type="int" >       48       12       13       27       75 </v>
   <v type="int" >       48       12       13       22       75 </v>
   <v type="int" >       48       12       26       74       75 </v>
   <v type="int" >       48       12       23       74       75 </v>
   <v type="int" >       48       12       22       23       75 </v>
   <v type="int" >       48       13       27       28       76 </v>
   <v type="int" >       48       13       14       28       76 </v>
   <v type="int" >       48       13       14       21       76 </v>
   <v type="int" >       48       13       27       75       76 </v>
   <v type="int" >       48       13       22       75       76 </v>
   <v type="int" >       48       13       21       22       76 </v>
   <v type="int" >       48       14       28       29       77 </v>
   <v type="int" >       48       14       15       29       77 </v>
   <v type="int" >       48       14       15       20       77 </v>
   <v type="int" >       48       14       28       76       77 </v>
   <v type="int" >       48       14       21       76       77 </v>
   <v type="int" >       48       14       20       21       77 </v>
   <v type="int" >       48       15       29       30       78 </v>
   <v type="int" >       48       15       16       30       78 </v>
   <v type="int" >       48       15       16       19       78 </v>
   <v type="int" >       48       15       29       77       78 </v>
   <v type="int" >       48       15       20       77       78 </v>
   <v type="int" >       48       15       19       20       78 </v>
   <v type="int" >       48       16       30       31       79 </v>
   <v type="int" >       48       16       17       31       79 </v>
   <v type="int" >       48       16       17       18       79 </v>
   <v type="int" >       48       16       30       78       79 </v>
   <v type="int" >       48       16       19       78       79 </v>
   <v type="int" >       48       16       18       19       79 </v>
   <v type="int" >       48       17       31       32       80 </v>
   <v type="int" >       48       17       18       32       80 </v>
   <v type="int" >       48       17       17       18       80 </v>
   <v type="int" >       48       17       31       79       80 </v>
   <v type="int" >       48       17       18       79       80 </v>
   <v type="int" >       48       18       32       33       79 </v>
   <v type="int" >       48       18       19       33       79 </v>
   <v type="int" >       48       18       32       79       80 </v>
   <v type="int" >       48       19       33       34       78 </v>
   <v type="int" >       48       19       20       34       78 </v>
   <v type="int" >       48       19       33       78       79 </v>
   <v type="int" >       48       20       34       35       77 </v>
   <v type="int" >       48       20       21       35       77 </v>
   <v type="int" >       48       20       34       77       78 </v>
   <v type="int" >       48       21       35       36       76 </v>
   <v type="int" >       48       21       22       36       76 </v>
   <v type="int" >       48       21       35       76       77 </v>
   <v type="int" >       48       22       36       37       75 </v>
   <v type="int" >       48       22       23       37       75 </v>
   <v type="int" >       48       22       36       75       76 </v>
   <v type="int" >       24       23       23       37       74 </v>
   <v type="int" >       24       23       23       24       74 </v>
   <v type="int" >       48       23       37       74       75 </v>
   <v type="int" >       24       25       26       26       38 </v>
   <v type="int" >       24       25       26       26       74 </v>
   <v type="int" >       48       26       38       39       81 </v>
   <v type="int" >       48       26       27       39       81 </v>
   <v type="int" >       48       26       27       75       81 </v>
   <v type="int" >       24       26       26       38       81 </v>
   <v type="int" >       24       26       26       74       81 </v>
   <v type="int" >       48       26       74       75       81 </v>
   <v type="int" >       48       27       39       40       82 </v>
   <v type="int" >       48       27       28       40       82 </v>
   <v type="int" >       48       27       28       76       82 </v>
   <v type="int" >       48       27       39       81       82 </v>
   <v type="int" >       48       27       75       81       82 </v>
   <v type="int" >       48       27       75       76       82 </v>
   <v type="int" >       48       28       40       41       83 </v>
   <v type="int" >       48       28       29       41       83 </v>
   <v type="int" >       48       28       29       77       83 </v>
   <v type="int" >       48       28       40       82       83 </v>
   <v type="int" >       48       28       76       82       83 </v>
   <v type="int" >       48       28       76       77       83 </v>
   <v type="int" >       48       29       41       42       84 </v>
   <v type="int" >       48       29       30       42       84 </v>
   <v type="int" >       48       29       30       78       84 </v>
   <v type="int" >       48       29       41       83       84 </v>
   <v type="int" >       48       29       77       83       84 </v>
   <v type="int" >       48       29       77       78       84 </v>
   <v type="int" >       48       30       42       43       85 </v>
   <v type="int" >       48       30       31       43       85 </v>
   <v type="int" >       48       30       31       79       85 </v>
   <v type="int" >       48       30       42       84       85 </v>
   <v type="int" >       48       30       78       84       85 </v>
   <v type="int" >       48       30       78       79       85 </v>
   <v type="int" >       48       31       43       44       86 </v>
   <v type="int" >       48       31       32       44       86 </v>
   <v type="int" >       48       31       32       80       86 </v>
   <v type="int" >       48       31       43       85       86 </v>
   <v type="int" >       48       31       79       85       86 </v>
   <v type="int" >       48       31       79       80       86 </v>
   <v type="int" >       48       32       44       45       87 </v>
   <v type="int" >       48       32       33       45       87 </v>
   <v type="int" >       48       32       33       79       87 </v>
   <v type="int" >       48       32       44       86       87 </v>
   <v type="int" >       48       32       80       86       87 </v>
   <v type="int" >       48       32       79       80       87 </v>
   <v type="int" >       48       33       45       46       88 </v>
   <v type="int" >       48       33       34       46       88 </v>
   <v type="int" >       48       33       34       78       88 </v>
   <v type="int" >       48       33       45       87       88 </v>
   <v type="int" >       48       33       79       87       88 </v>
   <v type="int" >       48       33       78       79       88 </v>
   <v type="int" >       48       34       46       47       89 </v>
   <v type="int" >       48       34       35       47       89 </v>
   <v type="int" >       48       34       35       77       89 </v>
   <v type="int" >       48       34       46       88       89 </v>
   <v type="int" >       48       34       78       88       89 </v>
   <v type="int" >       48       34       77       78       89 </v>
   <v type="int" >       48       35       47       48       90 </v>
   <v type="int" >       48       35       36       48       90 </v>
   <v type="int" >       48       35       36       76       90 </v>
   <v type="int" >       48       35       47       89       90 </v>
   <v type="int" >       48       35       77       89       90 </v>
   <v type="int" >       48       35       76       77       90 </v>
   <v type="int" >       24       36       36       48       91 </v>
   <v type="int" >       24       36       36       37       91 </v>
   <v type="int" >       48       36       37       75       91 </v>
   <v type="int" >       48       36       48       90       91 </v>
   <v type="int" >       48       36       76       90       91 </v>
   <v type="int" >       48       36       75       76       91 </v>
   <v type="int" >       24       37       75       75       91 </v>
   <v type="int" >       24       37       74       75       75 </v>
   <v type="int" >       24       38       39       39       49 </v>
   <v type="int" >       24       38       39       39       81 </v>
   <v type="int" >       48       39       49       50       92 </v>
   <v type="int" >       48       39       40       50       92 </v>
   <v type="int" >       48       39       40       82       92 </v>
   <v type="int" >       24       39       39       49       92 </v>
   <v type="int" >       24       39       39       81       92 </v>
   <v type="int" >       48       39       81       82       92 </v>
   <v type="int" >       48       40       50       51       93 </v>
   <v type="int" >       48       40       41       51       93 </v>
   <v type="int" >       48       40       41       83       93 </v>
   <v type="int" >       48       40       50       92       93 </v>
   <v type="int" >       48       40       82       92       93 </v>
   <v type="int" >       48       40       82       83       93 </v>
   <v type="int" >       48       41       51       52       94 </v>
   <v type="int" >       48       41       42       52       94 </v>
   <v type="int" >       48       41       42       84       94 </v>
   <v type="int" >       48       41       51       93       94 </v>
   <v type="int" >       48       41       83       93       94 </v>
   <v type="int" >       48       41       83       84       94 </v>
   <v type="int" >       48       42       52       53       95 </v>
   <v type="int" >       48       42       43       53       95 </v>
   <v type="int" >       48       42       43       85       95 </v>
   <v type="int" >       48       42       52       94       95 </v>
   <v type="int" >       48       42       84       94       95 </v>
   <v type="int" >       48       42       84       85       95 </v>
   <v type="int" >       48       43       53       54       96 </v>
   <v type="int" >       48       43       44       54       96 </v>
   <v type="int" >       48       43       44       86       96 </v>
   <v type="int" >       48       43       53       95       96 </v>
   <v type="int" >       48       43       85       95       96 </v>
   <v type="int" >       48       43       85       86       96 </v>
   <v type="int" >       48       44       54       55       97 </v>
   <v type="int" >       48       44       45       55       97 </v>
   <v type="int" >       48       44       45       87       97 </v>
   <v type="int" >       48       44       54       96       97 </v>
   <v type="int" >       48       44       86       96       97 </v>
   <v type="int" >       48       44       86       87       97 </v>
   <v type="int" >       48       45       55       56       98 </v>
   <v type="int" >       48       45       46       56       98 </v>
   <v type="int" >       48       45       46       88       98 </v>
   <v type="int" >       48       45       55       97       98 </v>
   <v type="int" >       48       45       87       97       98 </v>
   <v type="int" >       48       45       87       88       98 </v>
   <v type="int" >       48       46       56       57       99 </v>
   <v type="int" >       48       46       47       57       99 </v>
   <v type="int" >       48       46       47       89       99 </v>
   <v type="int" >       48       46       56       98       99 </v>
   <v type="int" >       48       46       88       98       99 </v>
   <v type="int" >       48       46       88       89       99 </v>
   <v type="int" >       24       47       47       57      100 </v>
   <v type="int" >       24       47       47       48      100 </v>
   <v type="int" >       48       47       48       90      100 </v>
   <v type="int" >       48       47       57       99      100 </v>
   <v type="int" >       48       47       89       99      100 </v>
   <v type="int" >       48       47       89       90      100 </v>
   <v type="int" >       24       48       90       90      100 </v>
   <v type="int" >       24       48       90       90       91 </v>
   <v type="int" >       24       49       50       50       58 </v>
   <v type="int" >       24       49       50       50       92 </v>
   <v type="int" >       48       50       58       59      101 </v>
   <v type="int" >       48       50       51       59      101 </v>
   <v type="int" >       48       50       51       93      101 </v>
   <v type="int" >       24       50       50       58      101 </v>
   <v type="int" >       24       50       50       92      101 </v>
   <v type="int" >       48       50       92       93      101 </v>
   <v type="int" >       48       51       59       60      102 </v>
   <v type="int" >       48       51       52       60      102 </v>
   <v type="int" >       48       51       52       94      102 </v>
   <v type="int" >       48       51       59      101      102 </v>
   <v type="int" >       48       51       93      101      102 </v>
   <v type="int" >       48       51       93       94      102 </v>
   <v type="int" >       48       52       60       61      103 </v>
   <v type="int" >       48       52       53       61      103 </v>
   <v type="int" >       48       52       53       95      103 </v>
   <v type="int" >       48       52       60      102      103 </v>
   <v type="int" >       48       52       94      102      103 </v>
   <v type="int" >       48       52       94       95      103 </v>
   <v type="int" >       48       53       61       62      104 </v>
   <v type="int" >       48       53       54       62      104 </v>
   <v type="int" >       48       53       54       96      104 </v>
   <v type="int" >       48       53       61      103      104 </v>
   <v type="int" >       48       53       95      103      104 </v>
   <v type="int" >       48       53       95       96      104 </v>
   <v type="int" >       48       54       62       63      105 </v>
   <v type="int" >       48       54       55       63      105 </v>
   <v type="int" >       48       54       55       97      105 </v>
   <v type="int" >       48       54       62      104      105 </v>
   <v type="int" >       48       54       96      104      105 </v>
   <v type="int" >       48       54       96       97      105 </v>
   <v type="int" >       48       55       63       64      106 </v>
   <v type="int" >       48       55       56       64      106 </v>
   <v type="int" >       48       55       56       98      106 </v>
   <v type="int" >       48       55       63      105      106 </v>
   <v type="int" >       48       55       97      105      106 </v>
   <v type="int" >       48       55       97       98      106 </v>
   <v type="int" >       24       56       56       64      107 </v>
   <v type="int" >       24       56       56       57      107 </v>
   <v type="int" >       48       56       57       99      107 </v>
   <v type="int" >       48       56       64      106      107 </v>
   <v type="int" >       48       56       98      106      107 </v>
   <v type="int" >       48       56       98       99      107 </v>
   <v type="int" >       24       57       99       99      107 </v>
   <v type="int" >       24       57       99       99      100 </v>
   <v type="int" >       24       58       59       59       65 </v>
   <v type="int" >       24       58       59       59      101 </v>
   <v type="int" >       48       59       65       66      108 </v>
   <v type="int" >       48       59       60       66      108 </v>
   <v type="int" >       48       59       60      102      108 </v>
   <v type="int" >       24       59       59       65      108 </v>
   <v type="int" >       24       59       59      101      108 </v>
   <v type="int" >       48       59      101      102      108 </v>
   <v type="int" >       48       60       66       67      109 </v>
   <v type="int" >       48       60       61       67      109 </v>
   <v type="int" >       48       60       61      103      109 </v>
   <v type="int" >       48       60       66      108      109 </v>
   <v type="int" >       48       60      102      108      109 </v>
   <v type="int" >       48       60      102      103      109 </v>
   <v type="int" >       48       61       67       68      110 </v>
   <v type="int" >       48       61       62       68      110 </v>
   <v type="int" >       48       61       62      104      110 </v>
   <v type="int" >       48       61       67      109      110 </v>
   <v type="int" >       48       61      103      109      110 </v>
   <v type="int" >       48       61      103      104      110 </v>
   <v type="int" >       48       62       68       69      111 </v>
   <v type="int" >       48       62       63       69      111 </v>
   <v type="int" >       48       62       63      105      111 </v>
   <v type="int" >       48       62       68      110      111 </v>
   <v type="int" >       48       62      104      110      111 </v>
   <v type="int" >       48       62      104      105      111 </v>
   <v type="int" >       24       63       63       69      112 </v>
   <v type="int" >       24       63       63       64      112 </v>
   <v type="int" >       48       63       64      106      112 </v>
   <v type="int" >       48       63       69      111      112 </v>
   <v type="int" >       48       63      105      111      112 </v>
   <v type="int" >       48       63      105      106      112 </v>
   <v type="int" >       24       64      106      106      112 </v>
   <v type="int" >       24       64      106      106      107 </v>
   <v type="int" >       24       65       66       66       70 </v>
   <v type="int" >       24       65       66       66      108 </v>
   <v type="int" >       48       66       70       71      113 </v>
   <v type="int" >       48       66       67       71      113 </v>
   <v type="int" >       48       66       67      109      113 </v>
   <v type="int" >       24       66       66       70      113 </v>
   <v type="int" >       24       66       66      108      113 </v>
   <v type="int" >       48       66      108      109      113 </v>
   <v type="int" >       48       67       71       72      114 </v>
   <v type="int" >       48       67       68       72      114 </v>
   <v type="int" >       48       67       68      110      114 </v>
   <v type="int" >       48       67       71      113      114 </v>
   <v type="int" >       48       67      109      113      114 </v>
   <v type="int" >       48       67      109      110      114 </v>
   <v type="int" >       24       68       68       72      115 </v>
   <v type="int" >       24       68       68       69      115 </v>
   <v type="int" >       48       68       69      111      115 </v>
   <v type="int" >       48       68       72      114      115 </v>
   <v type="int" >       48       68      110      114      115 </v>
   <v type="int" >       48       68      110      111      115 </v>
   <v type="int" >       24       69      111      111      115 </v>
   <v type="int" >       24       69      111      111      112 </v>
   <v type="int" >       24       70       71       71       73 </v>
   <v type="int" >       24       70       71       71      113 </v>
   <v type="int" >       48       71       71       73      116 </v>
   <v type="int" >       24       71       71       72      116 </v>
   <v type="int" >       48       71       72      114      116 </v>
   <v type="int" >       24       71       71      113      116 </v>
   <v type="int" >       48       71      113      114      116 </v>
   <v type="int" >       24       72      114      114      116 </v>
   <v type="int" >       24       72      114      114      115 </v>
   <v type="int" >       24       74       75       75       81 </v>
   <v type="int" >       48       75       81       82       91 </v>
   <v type="int" >       48       75       76       82       91 </v>
   <v type="int" >       24       75       75       81       91 </v>
   <v type="int" >       48       76       82       83       90 </v>
   <v type="int" >       48       76       77       83       90 </v>
   <v type="int" >       48       76       82       90       91 </v>
   <v type="int" >       48       77       83       84       89 </v>
   <v type="int" >       48       77       78       84       89 </v>
   <v type="int" >       48       77       83       89       90 </v>
   <v type="int" >       48       78       84       85       88 </v>
   <v type="int" >       48       78       79       85       88 </v>
   <v type="int" >       48       78       84       88       89 </v>
   <v type="int" >       48       79       85       86       87 </v>
   <v type="int" >       48       79       80       86       87 </v>
   <v type="int" >       48       79       85       87       88 </v>
   <v type="int" >       48       80       86       86       87 </v>
   <v type="int" >       24       81       82       82       92 </v>
   <v type="int" >       24       81       82       82       91 </v>
   <v type="int" >       48       82       92       93      117 </v>
   <v type="int" >       48       82       83       93      117 </v>
   <v type="int" >       48       82       83       90      117 </v>
   <v type="int" >       24       82       82       92      117 </v>
   <v type="int" >       24       82       82       91      117 </v>
   <v type="int" >       48       82       90       91      117 </v>
   <v type="int" >       48       83       93       94      118 </v>
   <v type="int" >       48       83       84       94      118 </v>
   <v type="int" >       48       83       84       89      118 </v>
   <v type="int" >       48       83       93      117      118 </v>
   <v type="int" >       48       83       90      117      118 </v>
   <v type="int" >       48       83       89       90      118 </v>
   <v type="int" >       48       84       94       95      119 </v>
   <v type="int" >       48       84       85       95      119 </v>
   <v type="int" >       48       84       85       88      119 </v>
   <v type="int" >       48       84       94      118      119 </v>
   <v type="int" >       48       84       89      118      119 </v>
   <v type="int" >       48       84       88       89      119 </v>
   <v type="int" >       48       85       95       96      120 </v>
   <v type="int" >       48       85       86       96      120 </v>
   <v type="int" >       48       85       86       87      120 </v>
   <v type="int" >       48       85       95      119      120 </v>
   <v type="int" >       48       85       88      119      120 </v>
   <v type="int" >       48       85       87       88      120 </v>
   <v type="int" >       48       86       96       97      121 </v>
   <v type="int" >       48       86       87       97      121 </v>
   <v type="int" >       48       86       86       87      121 </v>
   <v type="int" >       48       86       96      120      121 </v>
   <v type="int" >       48       86       87      120      121 </v>
   <v type="int" >       48       87       97       98      120 </v>
   <v type="int" >       48       87       88       98      120 </v>
   <v type="int" >       48       87       97      120      121 </v>
   <v type="int" >       48       88       98       99      119 </v>
   <v type="int" >       48       88       89       99      119 </v>
   <v type="int" >       48       88       98      119      120 </v>
   <v type="int" >       48       89       99      100      118 </v>
   <v type="int" >       48       89       90      100      118 </v>
   <v type="int" >       48       89       99      118      119 </v>
   <v type="int" >       24       90       90      100      117 </v>
   <v type="int" >       24       90       90       91      117 </v>
   <v type="int" >       48       90      100      117      118 </v>
   <v type="int" >       24       92       93       93      101 </v>
   <v type="int" >       24       92       93       93      117 </v>
   <v type="int" >       48       93      101      102      122 </v>
   <v type="int" >       48       93       94      102      122 </v>
   <v type="int" >       48       93       94      118      122 </v>
   <v type="int" >       24       93       93      101      122 </v>
   <v type="int" >       24       93       93      117      122 </v>
   <v type="int" >       48       93      117      118      122 </v>
   <v type="int" >       48       94      102      103      123 </v>
   <v type="int" >       48       94       95      103      123 </v>
   <v type="int" >       48       94       95      119      123 </v>
   <v type="int" >       48       94      102      122      123 </v>
   <v type="int" >       48       94      118      122      123 </v>
   <v type="int" >       48       94      118      119      123 </v>
   <v type="int" >       48       95      103      104      124 </v>
   <v type="int" >       48       95       96      104      124 </v>
   <v type="int" >       48       95       96      120      124 </v>
   <v type="int" >       48       95      103      123      124 </v>
   <v type="int" >       48       95      119      123      124 </v>
   <v type="int" >       48       95      119      120      124 </v>
   <v type="int" >       48       96      104      105      125 </v>
   <v type="int" >       48       96       97      105      125 </v>
   <v type="int" >       48       96       97      121      125 </v>
   <v type="int" >       48       96      104      124      125 </v>
   <v type="int" >       48       96      120      124      125 </v>
   <v type="int" >       48       96      120      121      125 </v>
   <v type="int" >       48       97      105      106      126 </v>
   <v type="int" >       48       97       98      106      126 </v>
   <v type="int" >       48       97       98      120      126 </v>
   <v type="int" >       48       97      105      125      126 </v>
   <v type="int" >       48       97      121      125      126 </v>
   <v type="int" >       48       97      120      121      126 </v>
   <v type="int" >       48       98      106      107      127 </v>
   <v type="int" >       48       98       99      107      127 </v>
   <v type="int" >       48       98       99      119      127 </v>
   <v type="int" >       48       98      106      126      127 </v>
   <v type="int" >       48       98      120      126      127 </v>
   <v type="int" >       48       98      119      120      127 </v>
   <v type="int" >       24       99       99      107      128 </v>
   <v type="int" >       24       99       99      100      128 </v>
   <v type="int" >       48       99      100      118      128 </v>
   <v type="int" >       48       99      107      127      128 </v>
   <v type="int" >       48       99      119      127      128 </v>
   <v type="int" >       48       99      118      119      128 </v>
   <v type="int" >       24      100      118      118      128 </v>
   <v type="int" >       24      100      117      118      118 </v>
   <v type="int" >       24      101      102      102      108 </v>
   <v type="int" >       24      101      102      102      122 </v>
   <v type="int" >       48      102      108      109      129 </v>
   <v type="int" >       48      102      103      109      129 </v>
   <v type="int" >       48      102      103      123      129 </v>
   <v type="int" >       24      102      102      108      129 </v>
   <v type="int" >       24      102      102      122      129 </v>
   <v type="int" >       48      102      122      123      129 </v>
   <v type="int" >       48      103      109      110      130 </v>
   <v type="int" >       48      103      104      110      130 </v>
   <v type="int" >       48      103      104      124      130 </v>
   <v type="int" >       48      103      109      129      130 </v>
   <v type="int" >       48      103      123      129      130 </v>
   <v type="int" >       48      103      123      124      130 </v>
   <v type="int" >       48      104      110      111      131 </v>
   <v type="int" >       48      104      105      111      131 </v>
   <v type="int" >       48      104      105      125      131 </v>
   <v type="int" >       48      104      110      130      131 </v>
   <v type="int" >       48      104      124      130      131 </v>
   <v type="int" >       48      104      124      125      131 </v>
   <v type="int" >       48      105      111      112      132 </v>
   <v type="int" >       48      105      106      112      132 </v>
   <v type="int" >       48      105      106      126      132 </v>
   <v type="int" >       48      105      111      131      132 </v>
   <v type="int" >       48      105      125      131      132 </v>
   <v type="int" >       48      105      125      126      132 </v>
   <v type="int" >       24      106      106      112      133 </v>
   <v type="int" >       24      106      106      107      133 </v>
   <v type="int" >       48      106      107      127      133 </v>
   <v type="int" >       48      106      112      132      133 </v>
   <v type="int" >       48      106      126      132      133 </v>
   <v type="int" >       48      106      126      127      133 </v>
   <v type="int" >       24      107      127      127      133 </v>
   <v type="int" >       24      107      127      127      128 </v>
   <v type="int" >       24      108      109      109      113 </v>
   <v type="int" >       24      108      109      109      129 </v>
   <v type="int" >       48      109      113      114      134 </v>
   <v type="int" >       48      109      110      114      134 </v>
   <v type="int" >       48      109      110      130      134 </v>
   <v type="int" >       24      109      109      113      134 </v>
   <v type="int" >       24      109      109      129      134 </v>
   <v type="int" >       48      109      129      130      134 </v>
   <v type="int" >       48      110      114      115      135 </v>
   <v type="int" >       48      110      111      115      135 </v>
   <v type="int" >       48      110      111      131      135 </v>
   <v type="int" >       48      110      114      134      135 </v>
   <v type="int" >       48      110      130      134      135 </v>
   <v type="int" >       48      110      130      131      135 </v>
   <v type="int" >       24      111      111      115      136 </v>
   <v type="int" >       24      111      111      112      136 </v>
   <v type="int" >       48      111      112      132      136 </v>
   <v type="int" >       48      111      115      135      136 </v>
   <v type="int" >       48      111      131      135      136 </v>
   <v type="int" >       48      111      131      132      136 </v>
   <v type="int" >       24      112      132      132      136 </v>
   <v type="int" >       24      112      132      132      133 </v>
   <v type="int" >       24      113      114      114      116 </v>
   <v type="int" >       24      113      114      114      134 </v>
   <v type="int" >       48      114      114      116      137 </v>
   <v type="int" >       24      114      114      115      137 </v>
   <v type="int" >       48      114      115      135      137 </v>
   <v type="int" >       24      114      114      134      137 </v>
   <v type="int" >       48      114      134      135      137 </v>
   <v type="int" >       24      115      135      135      137 </v>
   <v type="int" >       24      115      135      135      136 </v>
   <v type="int" >       24      117      118      118      122 </v>
   <v type="int" >       48      118      122      123      128 </v>
   <v type="int" >       48      118      119      123      128 </v>
   <v type="int" >       24      118      118      122      128 </v>
   <v type="int" >       48      119      123      124      127 </v>
   <v type="int" >       48      119      120      124      127 </v>
   <v type="int" >       48      119      123      127      128 </v>
   <v type="int" >       48      120      124      125      126 </v>
   <v type="int" >       48      120      121      125      126 </v>
   <v type="int" >       48      120      124      126      127 </v>
   <v type="int" >       48      121      125      125      126 </v>
   <v type="int" >       24      122      123      123      129 </v>
   <v type="int" >       24      122      123      123      128 </v>
   <v type="int" >       48      123      129      130      138 </v>
   <v type="int" >       48      123      124      130      138 </v>
   <v type="int" >       48      123      124      127      138 </v>
   <v type="int" >       24      123      123      129      138 </v>
   <v type="int" >       24      123      123      128      138 </v>
   <v type="int" >       48      123      127      128      138 </v>
   <v type="int" >       48      124      130      131      139 </v>
   <v type="int" >       48      124      125      131      139 </v>
   <v type="int" >       48      124      125      126      139 </v>
   <v type="int" >       48      124      130      138      139 </v>
   <v type="int" >       48      124      127      138      139 </v>
   <v type="int" >       48      124      126      127      139 </v>
   <v type="int" >       48      125      131      132      140 </v>
   <v type="int" >       48      125      126      132      140 </v>
   <v type="int" >       48      125      125      126      140 </v>
   <v type="int" >       48      125      131      139      140 </v>
   <v type="int" >       48      125      126      139      140 </v>
   <v type="int" >       48      126      132      133      139 </v>
   <v type="int" >       48      126      127      133      139 </v>
   <v type="int" >       48      126      132      139      140 </v>
   <v type="int" >       24      127      127      133      138 </v>
   <v type="int" >       24      127      127      128      138 </v>
   <v type="int" >       48      127      133      138      139 </v>
   <v type="int" >       24      129      130      130      134 </v>
   <v type="int" >       24      129      130      130      138 </v>
   <v type="int" >       48      130      134      135      141 </v>
   <v type="int" >       48      130      131      135      141 </v>
   <v type="int" >       48      130      131      139      141 </v>
   <v type="int" >       24      130      130      134      141 </v>
   <v type="int" >       24      130      130      138      141 </v>
   <v type="int" >       48      130      138      139      141 </v>
   <v type="int" >       48      131      135      136      142 </v>
   <v type="int" >       48      131      132      136      142 </v>
   <v type="int" >       48      131      132      140      142 </v>
   <v type="int" >       48      131      135      141      142 </v>
   <v type="int" >       48      131      139      141      142 </v>
   <v type="int" >       48      131      139      140      142 </v>
   <v type="int" >       24      132      132      136      143 </v>
   <v type="int" >       24      132      132      133      143 </v>
   <v type="int" >       48      132      133      139      143 </v>
   <v type="int" >       48      132      136      142      143 </v>
   <v type="int" >       48      132      140      142      143 </v>
   <v type="int" >       48      132      139      140      143 </v>
   <v type="int" >       24      133      139      139      143 </v>
   <v type="int" >       24      133      138      139      139 </v>
   <v type="int" >       24      134      135      135      137 </v>
   <v type="int" >       24      134      135      135      141 </v>
   <v type="int" >       48      135      135      137      144 </v>
   <v type="int" >       24      135      135      136      144 </v>
   <v type="int" >       48      135      136      142      144 </v>
   <v type="int" >       24      135      135      141      144 </v>
   <v type="int" >       48      135      141      142      144 </v>
   <v type="int" >       24      136      142      142      144 </v>
   <v type="int" >       24      136      142      142      143 </v>
   <v type="int" >       24      138      139      139      141 </v>
   <v type="int" >       48      139      141      142      143 </v>
   <v type="int" >       48      139      140      142      143 </v>
   <v type="int" >       24      139      139      141      143 </v>
   <v type="int" >       48      140      142      142      143 </v>
   <v type="int" >       24      141      142      142      144 </v>
   <v type="int" >       24      141      142      142      143 </v>
   <v type="int" >       48      142      142      144      145 </v>
   <v type="int" >       96      142      142      143      145 </v>
  </varray>
  <i name="volumeweight">      0.00004069 </i>
 </kpoints>
 <parameters>
  <separator name="general" >
   <i type="string" name="SYSTEM">Si</i>
   <i type="logical" name="LCOMPAT"> F  </i>
  </separator>
  <separator name="electronic" >
   <i type="string" name="PREC">normal</i>
   <i name="ENMAX">    300.00000000</i>
   <i name="ENAUG">    322.06900000</i>
   <i name="EDIFF">      0.00000010</i>
   <i type="int" name="IALGO">    38</i>
   <i type="int" name="IWAVPR">    10</i>
   <i type="int" name="NBANDS">     8</i>
   <i name="NELECT">      8.00000000</i>
   <i type="int" name="TURBO">     0</i>
   <i type="int" name="IRESTART">     0</i>
   <i type="int" name="NREBOOT">     0</i>
   <i type="int" name="NMIN">     0</i>
   <i name="EREF">      0.00000000</i>
   <separator name="electronic smearing" >
    <i type="int" name="ISMEAR">    -5</i>
    <i name="SIGMA">      0.20000000</i>
    <i name="KSPACING">      0.50000000</i>
    <i type="logical" name="KGAMMA"> T  </i>
   </separator>
   <separator name="electronic projectors" >
    <i type="logical" name="LREAL"> F  </i>
    <v name="ROPT">      0.00000000</v>
    <i type="int" name="LMAXPAW">  -100</i>
    <i type="int" name="LMAXMIX">     2</i>
    <i type="logical" name="NLSPLINE"> F  </i>
   </separator>
   <separator name="electronic startup" >
    <i type="int" name="ISTART">     0</i>
    <i type="int" name="ICHARG">     2</i>
    <i type="int" name="INIWAV">     1</i>
   </separator>
   <separator name="electronic spin" >
    <i type="int" name="ISPIN">     1</i>
    <i type="logical" name="LNONCOLLINEAR"> F  </i>
    <v name="MAGMOM">      1.00000000      1.00000000</v>
    <i name="NUPDOWN">     -1.00000000</i>
    <i type="logical" name="LSORBIT"> F  </i>
    <v name="SAXIS">      0.00000000      0.00000000      1.00000000</v>
    <i type="logical" name="LSPIRAL"> F  </i>
    <v name="QSPIRAL">      0.00000000      0.00000000      0.00000000</v>
    <i type="logical" name="LZEROZ"> F  </i>
   </separator>
   <separator name="electronic exchange-correlation" >
    <i type="logical" name="LASPH"> F  </i>
    <i type="logical" name="LMETAGGA"> F  </i>
   </separator>
   <separator name="electronic convergence" >
    <i type="int" name="NELM">    60</i>
    <i type="int" name="NELMDL">    -5</i>
    <i type="int" name="NELMIN">     2</i>
    <i name="ENINI">    300.00000000</i>
    <separator name="electronic convergence detail" >
     <i type="logical" name="LDIAG"> T  </i>
     <i type="logical" name="LSUBROT"> F  </i>
     <i name="WEIMIN">      0.00000000</i>
     <i name="EBREAK">      0.00000000</i>
     <i name="DEPER">      0.30000000</i>
     <i type="int" name="NRMM">     4</i>
     <i name="TIME">      0.40000000</i>
    </separator>
   </separator>
   <separator name="electronic mixer" >
    <i name="AMIX">      0.40000000</i>
    <i name="BMIX">      1.00000000</i>
    <i name="AMIN">      0.10000000</i>
    <i name="AMIX_MAG">      1.60000000</i>
    <i name="BMIX_MAG">      1.00000000</i>
    <separator name="electronic mixer details" >
     <i type="int" name="IMIX">     4</i>
     <i type="logical" name="MIXFIRST"> F  </i>
     <i type="int" name="MAXMIX">   -45</i>
     <i name="WC">    100.00000000</i>
     <i type="int" name="INIMIX">     1</i>
     <i type="int" name="MIXPRE">     1</i>
     <i type="int" name="MREMOVE">     5</i>
    </separator>
   </separator>
   <separator name="electronic dipolcorrection" >
    <i type="logical" name="LDIPOL"> F  </i>
    <i type="logical" name="LMONO"> F  </i>
    <i type="int" name="IDIPOL">     0</i>
    <i name="EPSILON">      1.00000000</i>
    <v name="DIPOL">   -100.00000000   -100.00000000   -100.00000000</v>
    <i name="EFIELD">      0.00000000</i>
   </separator>
  </separator>
  <separator name="grids" >
   <i type="int" name="NGX">    16</i>
   <i type="int" name="NGY">    16</i>
   <i type="int" name="NGZ">    16</i>
   <i type="int" name="NGXF">    32</i>
   <i type="int" name="NGYF">    32</i>
   <i type="int" name="NGZF">    32</i>
   <i type="logical" name="ADDGRID"> F  </i>
  </separator>
  <separator name="ionic" >
   <i type="int" name="NSW">     0</i>
   <i type="int" name="IBRION">    -1</i>
   <i type="int" name="MDALGO">     0</i>
   <i type="int" name="ISIF">     2</i>
   <i name="PSTRESS">      0.00000000</i>
   <i name="EDIFFG">      0.00000100</i>
   <i type="int" name="NFREE">     0</i>
   <i name="POTIM">      0.50000000</i>
   <i name="SMASS">     -3.00000000</i>
   <i name="SCALEE">      1.00000000</i>
  </separator>
  <separator name="ionic md" >
   <i name="TEBEG">      0.00010000</i>
   <i name="TEEND">      0.00010000</i>
   <i type="int" name="NBLOCK">     1</i>
   <i type="int" name="KBLOCK">     1</i>
   <i type="int" name="NPACO">   256</i>
   <i name="APACO">     16.00000000</i>
  </separator>
  <separator name="symmetry" >
   <i type="int" name="ISYM">     2</i>
   <i name="SYMPREC">      0.00001000</i>
  </separator>
  <separator name="dos" >
   <i type="int" name="LORBIT">     0</i>
   <v name="RWIGS">     -1.00000000</v>
   <i type="int" name="NEDOS">   301</i>
   <i name="EMIN">     10.00000000</i>
   <i name="EMAX">    -10.00000000</i>
   <i name="EFERMI">      0.00000000</i>
  </separator>
  <separator name="writing" >
   <i type="int" name="NWRITE">     2</i>
   <i type="logical" name="LWAVE"> T  </i>
   <i type="logical" name="LDOWNSAMPLE"> F  </i>
   <i type="logical" name="LCHARG"> T  </i>
   <i type="logical" name="LPARD"> F  </i>
   <i type="logical" name="LVTOT"> F  </i>
   <i type="logical" name="LVHAR"> F  </i>
   <i type="logical" name="LELF"> F  </i>
   <i type="logical" name="LOPTICS"> F  </i>
   <v name="STM">      0.00000000      0.00000000      0.00000000      0.00000000      0.00000000      0.00000000      0.00000000</v>
  </separator>
  <separator name="performance" >
   <i type="int" name="NPAR">     1</i>
   <i type="int" name="NSIM">     4</i>
   <i type="int" name="NBLK">    -1</i>
   <i type="logical" name="LPLANE"> T  </i>
   <i type="logical" name="LSCALAPACK"> T  </i>
   <i type="logical" name="LSCAAWARE"> F  </i>
   <i type="logical" name="LSCALU"> F  </i>
   <i type="logical" name="LASYNC"> F  </i>
   <i type="logical" name="LORBITALREAL"> F  </i>
  </separator>
  <separator name="miscellaneous" >
   <i type="int" name="IDIOT">     3</i>
   <i type="int" name="ISPECIAL">     0</i>
   <i type="logical" name="LMUSIC"> F  </i>
   <v name="POMASS">     28.08500000</v>
   <v name="DARWINR">      0.00000000</v>
   <v name="DARWINV">      1.00000000</v>
   <i type="logical" name="LCORR"> T  </i>
  </separator>
  <i type="logical" name="GGA_COMPAT"> T  </i>
  <i type="logical" name="LBERRY"> F  </i>
  <i type="int" name="ICORELEVEL">     0</i>
  <i type="logical" name="LDAU"> F  </i>
  <i type="int" name="I_CONSTRAINED_M">     0</i>
  <separator name="electronic exchange-correlation" >
   <i type="string" name="GGA">--</i>
   <i type="int" name="VOSKOWN">     0</i>
   <i type="logical" name="LHFCALC"> F  </i>
   <i type="string" name="PRECFOCK"></i>
   <i type="logical" name="LSYMGRAD"> F  </i>
   <i type="logical" name="LHFONE"> F  </i>
   <i type="logical" name="LRHFCALC"> F  </i>
   <i type="logical" name="LTHOMAS"> F  </i>
   <i type="logical" name="LMODELHF"> F  </i>
   <i name="ENCUT4O">     -1.00000000</i>
   <i type="int" name="EXXOEP">     0</i>
   <i type="int" name="FOURORBIT">     0</i>
   <i name="AEXX">      0.00000000</i>
   <i name="HFALPHA">      0.00000000</i>
   <i name="MCALPHA">      0.00000000</i>
   <i name="ALDAX">      1.00000000</i>
   <i name="AGGAX">      1.00000000</i>
   <i name="ALDAC">      1.00000000</i>
   <i name="AGGAC">      1.00000000</i>
   <i type="int" name="NKREDX">     1</i>
   <i type="int" name="NKREDY">     1</i>
   <i type="int" name="NKREDZ">     1</i>
   <i type="logical" name="SHIFTRED"> F  </i>
   <i type="logical" name="ODDONLY"> F  </i>
   <i type="logical" name="EVENONLY"> F  </i>
   <i type="int" name="LMAXFOCK">     0</i>
   <i type="int" name="NMAXFOCKAE">     0</i>
   <i type="logical" name="LFOCKAEDFT"> F  </i>
   <i name="HFSCREEN">      0.00000000</i>
   <i name="HFSCREENC">      0.00000000</i>
   <i type="int" name="NBANDSGWLOW">     0</i>
  </separator>
  <separator name="vdW DFT" >
   <i type="logical" name="LUSE_VDW"> F  </i>
   <i name="Zab_VDW">     -0.84910000</i>
   <i name="PARAM1">      0.12340000</i>
   <i name="PARAM2">      1.00000000</i>
   <i name="PARAM3">      0.00000000</i>
  </separator>
  <separator name="model GW" >
   <i type="int" name="MODEL_GW">     0</i>
   <i name="MODEL_EPS0">     12.00772552</i>
   <i name="MODEL_ALPHA">      1.00000000</i>
  </separator>
  <separator name="linear response parameters" >
   <i type="logical" name="LEPSILON"> F  </i>
   <i type="logical" name="LRPA"> F  </i>
   <i type="logical" name="LNABLA"> F  </i>
   <i type="logical" name="LVEL"> F  </i>
   <i type="int" name="KINTER">     0</i>
   <i name="CSHIFT">      0.10000000</i>
   <i name="OMEGAMAX">     -1.00000000</i>
   <i name="DEG_THRESHOLD">      0.00200000</i>
   <i name="RTIME">     -0.10000000</i>
   <i name="WPLASMAI">      0.00000000</i>
   <v name="DFIELD">      0.00000000      0.00000000      0.00000000</v>
   <v name="WPLASMA">      0.00000000      0.00000000      0.00000000      0.00000000      0.00000000      0.00000000      0.00000000      0.00000000      0.00000000</v>
  </separator>
  <separator name="orbital magnetization" >
   <i type="logical" name="NUCIND"> F  </i>
   <v name="MAGPOS">      0.00000000      0.00000000      0.00000000</v>
   <i type="logical" name="LNICSALL"> T  </i>
   <i type="logical" name="ORBITALMAG"> F  </i>
   <i type="logical" name="LMAGBLOCH"> F  </i>
   <i type="logical" name="LCHIMAG"> F  </i>
   <i type="logical" name="LGAUGE"> T  </i>
   <i type="int" name="MAGATOM">     0</i>
   <v name="MAGDIPOL">      0.00000000      0.00000000      0.00000000</v>
   <v name="AVECCONST">      0.00000000      0.00000000      0.00000000</v>
  </separator>
  <separator name="response functions" >
   <i type="logical" name="LADDER"> F  </i>
   <i type="logical" name="LRPAFORCE"> F  </i>
   <i type="logical" name="LFXC"> F  </i>
   <i type="logical" name="LHARTREE"> T  </i>
   <i type="int" name="IBSE">     0</i>
   <v type="int" name="KPOINT">    -1     0     0     0</v>
   <i type="logical" name="LTCTE"> F  </i>
   <i type="logical" name="LTETE"> F  </i>
   <i type="logical" name="LTRIPLET"> F  </i>
   <i type="logical" name="LFXCEPS"> F  </i>
   <i type="logical" name="LFXHEG"> F  </i>
   <i type="int" name="NATURALO">     2</i>
   <i type="logical" name="L2ORDER"> F  </i>
   <i type="logical" name="LMP2LT"> F  </i>
   <i type="logical" name="LUSEW"> F  </i>
   <i name="ENCUTGW">     -2.00000000</i>
   <i name="ENCUTGWSOFT">     -2.00000000</i>
   <i name="ENCUTLF">     -1.00000000</i>
   <i type="int" name="LMAXMP2">    -1</i>
   <i name="SCISSOR">      0.00000000</i>
   <i type="int" name="NOMEGA">     0</i>
   <i type="int" name="NOMEGAR">     0</i>
   <i type="int" name="NBANDSGW">    -1</i>
   <i type="int" name="NBANDSO">    -1</i>
   <i type="int" name="NBANDSV">    -1</i>
   <i type="int" name="NELM">     1</i>
   <i type="int" name="NELMHF">     1</i>
   <i type="int" name="DIM">     3</i>
   <i type="int" name="ANTIRES">     0</i>
   <i name="OMEGAMAX">    -30.00000000</i>
   <i name="OMEGAMIN">    -30.00000000</i>
   <i name="OMEGATL">   -200.00000000</i>
   <i type="int" name="OMEGAGRID">   140</i>
   <i name="CSHIFT">     -0.10000000</i>
   <i type="logical" name="SELFENERGY"> F  </i>
   <i type="logical" name="LSPECTRAL"> F  </i>
   <i type="logical" name="LSPECTRALGW"> F  </i>
   <i type="logical" name="LSINGLES"> F  </i>
   <i type="logical" name="LFERMIGW"> F  </i>
   <i type="logical" name="ODDONLYGW"> F  </i>
   <i type="logical" name="EVENONLYGW"> F  </i>
   <i type="int" name="NKREDLFX">     1</i>
   <i type="int" name="NKREDLFY">     1</i>
   <i type="int" name="NKREDLFZ">     1</i>
   <i type="int" name="MAXMEM">  2800</i>
   <i type="int" name="TELESCOPE">     0</i>
   <i type="int" name="TAUPAR">     1</i>
   <i type="int" name="OMEGAPAR">    -1</i>
   <i name="LAMBDA">      1.00000000</i>
  </separator>
  <separator name="External order field" >
   <i name="OFIELD_KAPPA">      0.00000000</i>
   <v name="OFIELD_K">      0.00000000      0.00000000      0.00000000</v>
   <i name="OFIELD_Q6_NEAR">      0.00000000</i>
   <i name="OFIELD_Q6_FAR">      0.00000000</i>
   <i name="OFIELD_A">      0.00000000</i>
  </separator>
 </parameters>
 <atominfo>
  <atoms>       2 </atoms>
  <types>       1 </types>
  <array name="atoms" >
   <dimension dim="1">ion</dimension>
   <field type="string">element</field>
   <field type="int">atomtype</field>
   <set>
    <rc><c>Si</c><c>   1</c></rc>
    <rc><c>Si</c><c>   1</c></rc>
   </set>
  </array>
  <array name="atomtypes" >
   <dimension dim="1">type</dimension>
   <field type="int">atomspertype</field>
   <field type="string">element</field>
   <field>mass</field>
   <field>valence</field>
   <field type="string">pseudopotential</field>
   <set>
    <rc><c>   2</c><c>Si</c><c>     28.08500000</c><c>      4.00000000</c><c> PAW_PBE Si 05Jan2001                   </c></rc>
   </set>
  </array>
 </atominfo>
 <structure name="initialpos" >
  <crystal>
   <varray name="basis" >
    <v>       0.00000000       2.71500000       2.71500000 </v>
    <v>       2.71500000       0.00000000       2.71500000 </v>
    <v>       2.71500000       2.71500000       0.00000000 </v>
   </varray>
   <i name="volume">     40.02575175 </i>
   <varray name="rec_basis" >
    <v>      -0.18416206       0.18416206       0.18416206 </v>
    <v>       0.18416206      -0.18416206       0.18416206 </v>
    <v>       0.18416206       0.18416206      -0.18416206 </v>
   </varray>
  </crystal>
  <varray name="positions" >
   <v>       0.00000000       0.00000000       0.00000000 </v>
   <v>       0.25000000       0.25000000       0.25000000 </v>
  </varray>
 </structure>
 <calculation>
  <scstep>
   <time name="dav">    0.30    0.30</time>
   <time name="total">    0.33    0.33</time>
   <energy>
    <i name="alphaZ">      3.36414203 </i>
    <i name="ewald">   -228.56352493 </i>
    <i name="hartreedc">    -11.00108243 </i>
    <i name="XCdc">    -18.60181216 </i>
    <i name="pawpsdc">     65.95520812 </i>
    <i name="pawaedc">    -30.76852678 </i>
    <i name="eentropy">      0.00000000 </i>
    <i name="bandstr">     14.99451516 </i>
    <i name="atom">    206.12968587 </i>
    <i name="e_fr_energy">      1.50860487 </i>
    <i name="e_wo_entrp">      1.50860487 </i>
    <i name="e_0_energy">      1.50860487 </i>
   </energy>
  </scstep>
  <scstep>
   <time name="dav">    0.43    0.43</time>
   <time name="total">    0.43    0.43</time>
   <energy>
    <i name="e_fr_energy">    -10.87193164 </i>
    <i name="e_wo_entrp">    -10.87193164 </i>
    <i name="e_0_energy">    -10.87193164 </i>
   </energy>
  </scstep>
  <scstep>
   <time name="dav">    0.35    0.35</time>
   <time name="total">    0.35    0.36</time>
   <energy>
    <i name="e_fr_energy">    -11.01761789 </i>
    <i name="e_wo_entrp">    -11.01761789 </i>
    <i name="e_0_energy">    -11.01761789 </i>
   </energy>
  </scstep>
  <scstep>
   <time name="dav">    0.44    0.44</time>
   <time name="total">    0.44    0.44</time>
   <energy>
    <i name="e_fr_energy">    -11.01815089 </i>
    <i name="e_wo_entrp">    -11.01815089 </i>
    <i name="e_0_energy">    -11.01815089 </i>
   </energy>
  </scstep>
  <scstep>
   <time name="dav">    0.33    0.33</time>
   <time name="total">    0.35    0.35</time>
   <energy>
    <i name="e_fr_energy">    -11.01815113 </i>
    <i name="e_wo_entrp">    -11.01815113 </i>
    <i name="e_0_energy">    -11.01815113 </i>
   </energy>
  </scstep>
  <scstep>
   <time name="dav">    0.33    0.33</time>
   <time name="total">    0.37    0.37</time>
   <energy>
    <i name="e_fr_energy">    -10.89370820 </i>
    <i name="e_wo_entrp">    -10.89370820 </i>
    <i name="e_0_energy">    -10.89370820 </i>
   </energy>
  </scstep>
  <scstep>
   <time name="dav">    0.34    0.34</time>
   <time name="total">    0.37    0.37</time>
   <energy>
    <i name="e_fr_energy">    -10.83685948 </i>
    <i name="e_wo_entrp">    -10.83685948 </i>
    <i name="e_0_energy">    -10.83685948 </i>
   </energy>
  </scstep>
  <scstep>
   <time name="dav">    0.31    0.31</time>
   <time name="total">    0.34    0.35</time>
   <energy>
    <i name="e_fr_energy">    -10.83816972 </i>
    <i name="e_wo_entrp">    -10.83816972 </i>
    <i name="e_0_energy">    -10.83816972 </i>
   </energy>
  </scstep>
  <scstep>
   <time name="dav">    0.41    0.41</time>
   <time name="total">    0.45    0.45</time>
   <energy>
    <i name="e_fr_energy">    -10.83826292 </i>
    <i name="e_wo_entrp">    -10.83826292 </i>
    <i name="e_0_energy">    -10.83826292 </i>
   </energy>
  </scstep>
  <scstep>
   <time name="dav">    0.31    0.31</time>
   <time name="total">    0.35    0.35</time>
   <energy>
    <i name="e_fr_energy">    -10.83828341 </i>
    <i name="e_wo_entrp">    -10.83828341 </i>
    <i name="e_0_energy">    -10.83828341 </i>
   </energy>
  </scstep>
  <scstep>
   <time name="dav">    0.43    0.43</time>
   <time name="total">    0.46    0.47</time>
   <energy>
    <i name="e_fr_energy">    -10.83828273 </i>
    <i name="e_wo_entrp">    -10.83828273 </i>
    <i name="e_0_energy">    -10.83828273 </i>
   </energy>
  </scstep>
  <scstep>
   <time name="dav">    0.25    0.25</time>
   <time name="total">    0.27    0.27</time>
   <energy>
    <i name="alphaZ">      3.36414203 </i>
    <i name="ewald">   -228.56352493 </i>
    <i name="hartreedc">    -14.91343646 </i>
    <i name="XCdc">    -17.96005124 </i>
    <i name="pawpsdc">     74.49646051 </i>
    <i name="pawaedc">    -39.53613268 </i>
    <i name="eentropy">      0.00000000 </i>
    <i name="bandstr">      6.14457422 </i>
    <i name="atom">    206.12968587 </i>
    <i name="e_fr_energy">    -10.83828268 </i>
    <i name="e_wo_entrp">    -10.83828268 </i>
    <i name="e_0_energy">    -10.83828268 </i>
   </energy>
  </scstep>
  <structure>
   <crystal>
    <varray name="basis" >
     <v>       0.00000000       2.71500000       2.71500000 </v>
     <v>       2.71500000       0.00000000       2.71500000 </v>
     <v>       2.71500000       2.71500000       0.00000000 </v>
    </varray>
    <i name="volume">     40.02575175 </i>
    <varray name="rec_basis" >
     <v>      -0.18416206       0.18416206       0.18416206 </v>
     <v>       0.18416206      -0.18416206       0.18416206 </v>
     <v>       0.18416206       0.18416206      -0.18416206 </v>
    </varray>
   </crystal>
   <varray name="positions" >
    <v>       0.00000000       0.00000000       0.00000000 </v>
    <v>       0.25000000       0.25000000       0.25000000 </v>
   </varray>
  </structure>
  <varray name="forces" >
   <v>       0.00000000       0.00000000       0.00000000 </v>
   <v>       0.00000000       0.00000000       0.00000000 </v>
  </varray>
  <varray name="stress" >
   <v>      18.67628469       0.00000000       0.00000000 </v>
   <v>      -0.00000000      18.67628469       0.00000000 </v>
   <v>       0.00000000      -0.00000000      18.67628469 </v>
  </varray>
  <energy>
   <i name="e_fr_energy">    -10.83828268 </i>
   <i name="e_wo_entrp">    -10.83828268 </i>
   <i name="e_0_energy">      0.00000000 </i>
  </energy>
  <time name="totalsc">    4.98    5.00</time>
  <eigenvalues>
   <array>
    <dimension dim="1">band</dimension>
    <dimension dim="2">kpoint</dimension>
    <dimension dim="3">spin</dimension>
    <field>eigene</field>
    <field>occ</field>
    <set>
     <set comment="spin 1">
      <set comment="kpoint 1">
       <r>   -6.1305    1.0000 </r>
       <r>    5.8331    1.0000 </r>
       <r>    5.8331    1.0000 </r>
       <r>    5.8331    1.0000 </r>
       <r>    8.4012    0.0000 </r>
       <r>    8.4012    0.0000 </r>
       <r>    8.4012    0.0000 </r>
       <r>    9.2080    0.0000 </r>
      </set>
      <set comment="kpoint 2">
       <r>   -6.0794    1.0000 </r>
       <r>    5.3016    1.0000 </r>
       <r>    5.7471    1.0000 </r>
       <r>    5.7472    1.0000 </r>
       <r>    8.4637    0.0000 </r>
       <r>    8.5238    0.0000 </r>
       <r>    8.5238    0.0000 </r>
       <r>    9.5861    0.0000 </r>
      </set>
      <set comment="kpoint 3">
       <r>   -5.9264    1.0000 </r>
       <r>    4.2342    1.0000 </r>
       <r>    5.5429    1.0000 </r>
       <r>    5.5429    1.0000 </r>
       <r>    8.3399    0.0000 </r>
       <r>    8.8243    0.0000 </r>
       <r>    8.8243    0.0000 </r>
       <r>   10.5524    0.0000 </r>
      </set>
      <set comment="kpoint 4">
       <r>   -5.6746    1.0000 </r>
       <r>    3.0589    1.0000 </r>
       <r>    5.3007    1.0000 </r>
       <r>    5.3008    1.0000 </r>
       <r>    8.1076    0.0000 </r>
       <r>    9.1479    0.0000 </r>
       <r>    9.1479    0.0000 </r>
       <r>   11.6689    0.0000 </r>
      </set>
      <set comment="kpoint 5">
       <r>   -5.3305    1.0000 </r>
       <r>    1.9057    1.0000 </r>
       <r>    5.0725    1.0000 </r>
       <r>    5.0725    1.0000 </r>
       <r>    7.8669    0.0000 </r>
       <r>    9.3435    0.0000 </r>
       <r>    9.3436    0.0000 </r>
       <r>   12.7591    0.0000 </r>
      </set>
      <set comment="kpoint 6">
       <r>   -4.9073    1.0000 </r>
       <r>    0.8310    1.0000 </r>
       <r>    4.8838    1.0000 </r>
       <r>    4.8838    1.0000 </r>
       <r>    7.6594    0.0000 </r>
       <r>    9.3647    0.0000 </r>
       <r>    9.3648    0.0000 </r>
       <r>   13.5901    0.0000 </r>
      </set>
      <set comment="kpoint 7">
       <r>   -4.4364    1.0000 </r>
       <r>   -0.1148    1.0000 </r>
       <r>    4.7456    1.0000 </r>
       <r>    4.7456    1.0000 </r>
       <r>    7.5034    0.0000 </r>
       <r>    9.2893    0.0000 </r>
       <r>    9.2893    0.0000 </r>
       <r>   13.7186    0.0000 </r>
      </set>
      <set comment="kpoint 8">
       <r>   -4.0001    1.0000 </r>
       <r>   -0.8389    1.0000 </r>
       <r>    4.6618    1.0000 </r>
       <r>    4.6618    1.0000 </r>
       <r>    7.4077    0.0000 </r>
       <r>    9.2099    0.0000 </r>
       <r>    9.2100    0.0000 </r>
       <r>   13.6121    0.0000 </r>
      </set>
      <set comment="kpoint 9">
       <r>   -3.7981    1.0000 </r>
       <r>   -1.1376    1.0000 </r>
       <r>    4.6336    1.0000 </r>
       <r>    4.6336    1.0000 </r>
       <r>    7.3755    0.0000 </r>
       <r>    9.1773    0.0000 </r>
       <r>    9.1774    0.0000 </r>
       <r>   13.5636    0.0000 </r>
      </set>
      <set comment="kpoint 10">
       <r>   -6.0622    1.0000 </r>
       <r>    5.4121    1.0000 </r>
       <r>    5.5688    1.0000 </r>
       <r>    5.5688    1.0000 </r>
       <r>    8.2381    0.0000 </r>
       <r>    8.7469    0.0000 </r>
       <r>    8.7469    0.0000 </r>
       <r>    9.6079    0.0000 </r>
      </set>
      <set comment="kpoint 11">
       <r>   -5.9430    1.0000 </r>
       <r>    4.5527    1.0000 </r>
       <r>    5.3126    1.0000 </r>
       <r>    5.4808    1.0000 </r>
       <r>    8.2357    0.0000 </r>
       <r>    8.8534    0.0000 </r>
       <r>    9.1141    0.0000 </r>
       <r>   10.2947    0.0000 </r>
      </set>
      <set comment="kpoint 12">
       <r>   -5.7238    1.0000 </r>
       <r>    3.4301    1.0000 </r>
       <r>    5.0518    1.0000 </r>
       <r>    5.2870    1.0000 </r>
       <r>    8.3325    0.0000 </r>
       <r>    8.8429    0.0000 </r>
       <r>    9.4891    0.0000 </r>
       <r>   11.1417    0.0000 </r>
      </set>
      <set comment="kpoint 13">
       <r>   -5.4097    1.0000 </r>
       <r>    2.2829    1.0000 </r>
       <r>    4.8263    1.0000 </r>
       <r>    5.0346    1.0000 </r>
       <r>    8.2243    0.0000 </r>
       <r>    9.0119    0.0000 </r>
       <r>    9.7277    0.0000 </r>
       <r>   11.6210    0.0000 </r>
      </set>
      <set comment="kpoint 14">
       <r>   -5.0108    1.0000 </r>
       <r>    1.1891    1.0000 </r>
       <r>    4.6560    1.0000 </r>
       <r>    4.7846    1.0000 </r>
       <r>    8.0404    0.0000 </r>
       <r>    9.1261    0.0000 </r>
       <r>    9.7609    0.0000 </r>
       <r>   12.0889    0.0000 </r>
      </set>
      <set comment="kpoint 15">
       <r>   -4.5504    1.0000 </r>
       <r>    0.2005    1.0000 </r>
       <r>    4.5491    1.0000 </r>
       <r>    4.5662    1.0000 </r>
       <r>    7.8788    0.0000 </r>
       <r>    9.1233    0.0000 </r>
       <r>    9.6512    0.0000 </r>
       <r>   12.7948    0.0000 </r>
      </set>
      <set comment="kpoint 16">
       <r>   -4.0873    1.0000 </r>
       <r>   -0.6096    1.0000 </r>
       <r>    4.3939    1.0000 </r>
       <r>    4.5077    1.0000 </r>
       <r>    7.7674    0.0000 </r>
       <r>    9.0944    0.0000 </r>
       <r>    9.5023    0.0000 </r>
       <r>   13.5022    0.0000 </r>
[...]
       <r>   -1.0186    1.0000 </r>
       <r>    2.3613    1.0000 </r>
       <r>    2.6490    1.0000 </r>
       <r>    7.7203    0.0000 </r>
       <r>    8.0560    0.0000 </r>
       <r>   12.5982    0.0000 </r>
       <r>   14.7827    0.0000 </r>
      </set>
      <set comment="kpoint 135">
       <r>   -2.3053    1.0000 </r>
       <r>   -1.4447    1.0000 </r>
       <r>    1.9748    1.0000 </r>
       <r>    2.5908    1.0000 </r>
       <r>    7.9684    0.0000 </r>
       <r>    8.8942    0.0000 </r>
       <r>   12.3368    0.0000 </r>
       <r>   13.4627    0.0000 </r>
      </set>
      <set comment="kpoint 136">
       <r>   -2.2533    1.0000 </r>
       <r>   -1.4657    1.0000 </r>
       <r>    1.6456    1.0000 </r>
       <r>    2.7429    1.0000 </r>
       <r>    8.1577    0.0000 </r>
       <r>   10.0567    0.0000 </r>
       <r>   12.0084    0.0000 </r>
       <r>   12.2677    0.0000 </r>
      </set>
      <set comment="kpoint 137">
       <r>   -1.9064    1.0000 </r>
       <r>   -1.9064    1.0000 </r>
       <r>    2.4156    1.0000 </r>
       <r>    2.4156    1.0000 </r>
       <r>    7.8064    0.0000 </r>
       <r>    7.8064    0.0000 </r>
       <r>   13.6917    0.0000 </r>
       <r>   13.6918    0.0000 </r>
      </set>
      <set comment="kpoint 138">
       <r>   -3.3041    1.0000 </r>
       <r>   -0.4021    1.0000 </r>
       <r>    1.9704    1.0000 </r>
       <r>    3.0953    1.0000 </r>
       <r>    9.0075    0.0000 </r>
       <r>    9.5552    0.0000 </r>
       <r>   10.1882    0.0000 </r>
       <r>   13.7682    0.0000 </r>
      </set>
      <set comment="kpoint 139">
       <r>   -2.8510    1.0000 </r>
       <r>   -0.8842    1.0000 </r>
       <r>    1.7677    1.0000 </r>
       <r>    2.8536    1.0000 </r>
       <r>    9.3038    0.0000 </r>
       <r>    9.7456    0.0000 </r>
       <r>   10.5452    0.0000 </r>
       <r>   13.0528    0.0000 </r>
      </set>
      <set comment="kpoint 140">
       <r>   -2.6177    1.0000 </r>
       <r>   -1.1326    1.0000 </r>
       <r>    1.7078    1.0000 </r>
       <r>    2.7659    1.0000 </r>
       <r>    9.3763    0.0000 </r>
       <r>    9.6633    0.0000 </r>
       <r>   11.4901    0.0000 </r>
       <r>   11.9327    0.0000 </r>
      </set>
      <set comment="kpoint 141">
       <r>   -2.5921    1.0000 </r>
       <r>   -1.1075    1.0000 </r>
       <r>    1.9335    1.0000 </r>
       <r>    2.4890    1.0000 </r>
       <r>    8.9419    0.0000 </r>
       <r>    9.2179    0.0000 </r>
       <r>   11.0496    0.0000 </r>
       <r>   13.2254    0.0000 </r>
      </set>
      <set comment="kpoint 142">
       <r>   -2.2388    1.0000 </r>
       <r>   -1.4345    1.0000 </r>
       <r>    1.7716    1.0000 </r>
       <r>    2.3685    1.0000 </r>
       <r>    9.2085    0.0000 </r>
       <r>   10.1329    0.0000 </r>
       <r>   10.8850    0.0000 </r>
       <r>   11.8847    0.0000 </r>
      </set>
      <set comment="kpoint 143">
       <r>   -2.4112    1.0000 </r>
       <r>   -1.2648    1.0000 </r>
       <r>    1.6713    1.0000 </r>
       <r>    2.5268    1.0000 </r>
       <r>    9.4178    0.0000 </r>
       <r>   10.2874    0.0000 </r>
       <r>   10.7677    0.0000 </r>
       <r>   11.7101    0.0000 </r>
      </set>
      <set comment="kpoint 144">
       <r>   -1.8466    1.0000 </r>
       <r>   -1.8466    1.0000 </r>
       <r>    2.0993    1.0000 </r>
       <r>    2.0993    1.0000 </r>
       <r>    9.0082    0.0000 </r>
       <r>    9.0082    0.0000 </r>
       <r>   12.0775    0.0000 </r>
       <r>   12.0776    0.0000 </r>
      </set>
      <set comment="kpoint 145">
       <r>   -1.8205    1.0000 </r>
       <r>   -1.8205    1.0000 </r>
       <r>    1.9795    1.0000 </r>
       <r>    1.9795    1.0000 </r>
       <r>   10.1069    0.0000 </r>
       <r>   10.1070    0.0000 </r>
       <r>   10.8447    0.0000 </r>
       <r>   10.8447    0.0000 </r>
      </set>
     </set>
    </set>
   </array>
  </eigenvalues>
  <separator name="orbital magnetization" >
   <v name="MAGDIPOLOUT">      0.00000000      0.00000000      0.00000000</v>
  </separator>
  <dos>
   <i name="efermi">      5.87520178 </i>
   <total>
    <array>
     <dimension dim="1">gridpoints</dimension>
     <dimension dim="2">spin</dimension>
     <field>energy</field>
     <field>total</field>
     <field>integrated</field>
     <set>
      <set comment="spin 1">
       <r>    -8.1305     0.0000     0.0000 </r>
       <r>    -8.0436     0.0000     0.0000 </r>
       <r>    -7.9566     0.0000     0.0000 </r>
       <r>    -7.8697     0.0000     0.0000 </r>
       <r>    -7.7827     0.0000     0.0000 </r>
       <r>    -7.6958     0.0000     0.0000 </r>
       <r>    -7.6088     0.0000     0.0000 </r>
       <r>    -7.5218     0.0000     0.0000 </r>
       <r>    -7.4349     0.0000     0.0000 </r>
       <r>    -7.3479     0.0000     0.0000 </r>
       <r>    -7.2610     0.0000     0.0000 </r>
       <r>    -7.1740     0.0000     0.0000 </r>
       <r>    -7.0870     0.0000     0.0000 </r>
       <r>    -7.0001     0.0000     0.0000 </r>
       <r>    -6.9131     0.0000     0.0000 </r>
       <r>    -6.8262     0.0000     0.0000 </r>
       <r>    -6.7392     0.0000     0.0000 </r>
       <r>    -6.6523     0.0000     0.0000 </r>
       <r>    -6.5653     0.0000     0.0000 </r>
       <r>    -6.4783     0.0000     0.0000 </r>
       <r>    -6.3914     0.0000     0.0000 </r>
       <r>    -6.3044     0.0000     0.0000 </r>
       <r>    -6.2175     0.0000     0.0000 </r>
       <r>    -6.1305     0.0000     0.0000 </r>
       <r>    -6.0435     0.0863     0.0043 </r>
       <r>    -5.9566     0.1404     0.0144 </r>
       <r>    -5.8696     0.1703     0.0277 </r>
       <r>    -5.7827     0.2020     0.0441 </r>
       <r>    -5.6957     0.2247     0.0626 </r>
       <r>    -5.6088     0.2523     0.0833 </r>
       <r>    -5.5218     0.2731     0.1063 </r>
       <r>    -5.4348     0.2931     0.1309 </r>
       <r>    -5.3479     0.3149     0.1573 </r>
       <r>    -5.2609     0.3364     0.1857 </r>
       <r>    -5.1740     0.3532     0.2157 </r>
       <r>    -5.0870     0.3722     0.2472 </r>
       <r>    -5.0000     0.3920     0.2804 </r>
       <r>    -4.9131     0.4127     0.3154 </r>
       <r>    -4.8261     0.4299     0.3520 </r>
       <r>    -4.7392     0.4484     0.3902 </r>
       <r>    -4.6522     0.4688     0.4301 </r>
       <r>    -4.5653     0.4901     0.4718 </r>
       <r>    -4.4783     0.5116     0.5153 </r>
       <r>    -4.3913     0.5335     0.5608 </r>
       <r>    -4.3044     0.5578     0.6082 </r>
       <r>    -4.2174     0.5854     0.6579 </r>
       <r>    -4.1305     0.6166     0.7101 </r>
       <r>    -4.0435     0.6523     0.7652 </r>
       <r>    -3.9565     0.6989     0.8239 </r>
       <r>    -3.8696     0.7667     0.8875 </r>
       <r>    -3.7826     0.9410     0.9622 </r>
       <r>    -3.6957     0.8787     1.0390 </r>
       <r>    -3.6087     0.8498     1.1128 </r>
       <r>    -3.5218     0.8237     1.1865 </r>
       <r>    -3.4348     0.7834     1.2560 </r>
       <r>    -3.3478     0.7624     1.3233 </r>
       <r>    -3.2609     0.7215     1.3881 </r>
       <r>    -3.1739     0.6978     1.4497 </r>
       <r>    -3.0870     0.6768     1.5095 </r>
       <r>    -3.0000     0.6402     1.5669 </r>
       <r>    -2.9130     0.6046     1.6208 </r>
       <r>    -2.8261     0.5798     1.6724 </r>
       <r>    -2.7391     0.5507     1.7215 </r>
       <r>    -2.6522     0.5183     1.7680 </r>
       <r>    -2.5652     0.4845     1.8114 </r>
       <r>    -2.4782     0.4558     1.8524 </r>
       <r>    -2.3913     0.4329     1.8903 </r>
       <r>    -2.3043     0.3951     1.9263 </r>
       <r>    -2.2174     0.3113     1.9594 </r>
       <r>    -2.1304     0.1870     1.9809 </r>
       <r>    -2.0435     0.0954     1.9929 </r>
       <r>    -1.9565     0.0362     1.9983 </r>
       <r>    -1.8695     0.0299     2.0008 </r>
       <r>    -1.7826     0.0788     2.0052 </r>
       <r>    -1.6956     0.1537     2.0152 </r>
       <r>    -1.6087     0.2383     2.0322 </r>
       <r>    -1.5217     0.3189     2.0565 </r>
       <r>    -1.4347     0.3857     2.0873 </r>
       <r>    -1.3478     0.4293     2.1225 </r>
       <r>    -1.2608     0.4885     2.1626 </r>
       <r>    -1.1739     0.5444     2.2075 </r>
       <r>    -1.0869     0.7251     2.2600 </r>
       <r>    -1.0000     1.1459     2.3460 </r>
       <r>    -0.9130     1.9721     2.4912 </r>
       <r>    -0.8260     1.1705     2.6185 </r>
       <r>    -0.7391     0.9659     2.7106 </r>
       <r>    -0.6521     0.8374     2.7884 </r>
       <r>    -0.5652     0.7586     2.8576 </r>
       <r>    -0.4782     0.6992     2.9209 </r>
       <r>    -0.3912     0.6467     2.9794 </r>
       <r>    -0.3043     0.5954     3.0334 </r>
       <r>    -0.2173     0.5511     3.0832 </r>
       <r>    -0.1304     0.5239     3.1299 </r>
       <r>    -0.0434     0.4984     3.1743 </r>
       <r>     0.0435     0.4735     3.2166 </r>
       <r>     0.1305     0.4472     3.2566 </r>
       <r>     0.2175     0.4224     3.2944 </r>
       <r>     0.3044     0.3939     3.3298 </r>
       <r>     0.3914     0.3781     3.3633 </r>
       <r>     0.4783     0.3634     3.3956 </r>
       <r>     0.5653     0.3487     3.4265 </r>
       <r>     0.6523     0.3338     3.4562 </r>
       <r>     0.7392     0.3181     3.4846 </r>
       <r>     0.8262     0.2986     3.5113 </r>
       <r>     0.9131     0.2805     3.5365 </r>
       <r>     1.0001     0.2706     3.5604 </r>
       <r>     1.0870     0.2615     3.5836 </r>
       <r>     1.1740     0.2523     3.6059 </r>
       <r>     1.2610     0.2422     3.6274 </r>
       <r>     1.3479     0.2305     3.6480 </r>
       <r>     1.4349     0.2190     3.6675 </r>
       <r>     1.5218     0.5162     3.7009 </r>
       <r>     1.6088     0.8381     3.7596 </r>
       <r>     1.6958     1.1196     3.8434 </r>
       <r>     1.7827     1.2285     3.9531 </r>
       <r>     1.8697     1.1797     4.0578 </r>
       <r>     1.9566     1.1221     4.1571 </r>
       <r>     2.0436     1.0446     4.2523 </r>
       <r>     2.1306     1.0001     4.3405 </r>
       <r>     2.2175     1.0081     4.4275 </r>
       <r>     2.3045     1.0221     4.5158 </r>
       <r>     2.3914     1.0603     4.6078 </r>
       <r>     2.4784     1.0699     4.6998 </r>
       <r>     2.5653     1.1007     4.7930 </r>
       <r>     2.6523     1.1157     4.8901 </r>
       <r>     2.7393     1.1620     4.9890 </r>
       <r>     2.8262     1.2655     5.0961 </r>
       <r>     2.9132     1.3990     5.2136 </r>
       <r>     3.0001     1.5353     5.3398 </r>
       <r>     3.0871     1.5258     5.4738 </r>
       <r>     3.1741     1.5133     5.6052 </r>
       <r>     3.2610     1.4604     5.7340 </r>
       <r>     3.3480     1.4520     5.8605 </r>
       <r>     3.4349     1.4347     5.9861 </r>
       <r>     3.5219     1.4028     6.1096 </r>
       <r>     3.6088     1.3620     6.2298 </r>
       <r>     3.6958     1.3474     6.3474 </r>
       <r>     3.7828     1.3452     6.4647 </r>
       <r>     3.8697     1.3085     6.5802 </r>
       <r>     3.9567     1.2751     6.6924 </r>
       <r>     4.0436     1.2610     6.8025 </r>
       <r>     4.1306     1.2522     6.9119 </r>
       <r>     4.2176     1.2222     7.0197 </r>
       <r>     4.3045     1.2245     7.1258 </r>
       <r>     4.3915     1.2203     7.2322 </r>
       <r>     4.4784     1.1923     7.3373 </r>
       <r>     4.5654     1.1690     7.4397 </r>
       <r>     4.6523     0.9307     7.5337 </r>
       <r>     4.7393     0.7705     7.6076 </r>
       <r>     4.8263     0.6758     7.6706 </r>
       <r>     4.9132     0.5922     7.7255 </r>
       <r>     5.0002     0.5288     7.7742 </r>
       <r>     5.0871     0.4636     7.8174 </r>
       <r>     5.1741     0.4068     7.8551 </r>
       <r>     5.2611     0.3569     7.8883 </r>
       <r>     5.3480     0.3261     7.9179 </r>
       <r>     5.4350     0.2711     7.9440 </r>
       <r>     5.5219     0.2214     7.9653 </r>
       <r>     5.6089     0.1650     7.9824 </r>
       <r>     5.6958     0.1028     7.9937 </r>
       <r>     5.7828     0.0153     7.9997 </r>
       <r>     5.8698     0.0000     8.0000 </r>
       <r>     5.9567     0.0000     8.0000 </r>
       <r>     6.0437     0.0000     8.0000 </r>
       <r>     6.1306     0.0000     8.0000 </r>
       <r>     6.2176     0.0000     8.0000 </r>
       <r>     6.3046     0.0000     8.0000 </r>
       <r>     6.3915     0.0000     8.0000 </r>
       <r>     6.4785     0.0390     8.0009 </r>
       <r>     6.5654     0.1297     8.0084 </r>
       <r>     6.6524     0.2074     8.0230 </r>
       <r>     6.7394     0.2737     8.0440 </r>
       <r>     6.8263     0.3428     8.0708 </r>
       <r>     6.9133     0.4208     8.1039 </r>
       <r>     7.0002     0.4566     8.1425 </r>
       <r>     7.0872     0.4909     8.1836 </r>
       <r>     7.1741     0.5306     8.2280 </r>
       <r>     7.2611     0.5751     8.2760 </r>
       <r>     7.3481     0.6211     8.3280 </r>
       <r>     7.4350     0.6763     8.3842 </r>
       <r>     7.5220     0.7583     8.4464 </r>
       <r>     7.6089     0.8557     8.5165 </r>
       <r>     7.6959     0.9654     8.5956 </r>
       <r>     7.7829     1.0781     8.6840 </r>
       <r>     7.8698     1.2136     8.7837 </r>
       <r>     7.9568     1.3616     8.8955 </r>
       <r>     8.0437     1.5575     9.0220 </r>
       <r>     8.1307     1.7934     9.1683 </r>
       <r>     8.2176     1.7417     9.3249 </r>
       <r>     8.3046     1.6665     9.4729 </r>
       <r>     8.3916     1.5101     9.6132 </r>
       <r>     8.4785     1.3129     9.7357 </r>
       <r>     8.5655     1.2344     9.8455 </r>
       <r>     8.6524     1.3184     9.9568 </r>
       <r>     8.7394     1.2284    10.0678 </r>
       <r>     8.8264     1.1041    10.1703 </r>
       <r>     8.9133     0.7680    10.2467 </r>
       <r>     9.0003     0.8101    10.3150 </r>
       <r>     9.0872     1.3379    10.4014 </r>
       <r>     9.1742     2.3315    10.5611 </r>
       <r>     9.2611     2.2610    10.7629 </r>
       <r>     9.3481     1.8627    10.9446 </r>
       <r>     9.4351     1.7890    11.0985 </r>
       <r>     9.5220     1.9025    11.2596 </r>
       <r>     9.6090     1.9210    11.4268 </r>
       <r>     9.6959     1.7833    11.5891 </r>
       <r>     9.7829     1.4236    11.7312 </r>
       <r>     9.8699     1.1832    11.8441 </r>
       <r>     9.9568     1.0999    11.9427 </r>
       <r>    10.0438     1.0763    12.0368 </r>
       <r>    10.1307     1.2497    12.1337 </r>
       <r>    10.2177     1.2444    12.2416 </r>
       <r>    10.3046     1.3093    12.3531 </r>
       <r>    10.3916     1.1544    12.4604 </r>
       <r>    10.4786     1.1432    12.5586 </r>
       <r>    10.5655     1.1891    12.6617 </r>
       <r>    10.6525     1.2310    12.7660 </r>
       <r>    10.7394     1.3818    12.8839 </r>
       <r>    10.8264     1.1771    12.9906 </r>
       <r>    10.9134     1.1731    13.0949 </r>
       <r>    11.0003     1.1916    13.1977 </r>
       <r>    11.0873     1.2240    13.3031 </r>
       <r>    11.1742     1.1814    13.4082 </r>
       <r>    11.2612     1.1279    13.5089 </r>
       <r>    11.3482     1.1018    13.6052 </r>
       <r>    11.4351     1.1135    13.7013 </r>
       <r>    11.5221     1.2091    13.8013 </r>
       <r>    11.6090     1.2686    13.9114 </r>
       <r>    11.6960     1.1420    14.0150 </r>
       <r>    11.7829     1.1058    14.1144 </r>
       <r>    11.8699     1.0361    14.2041 </r>
       <r>    11.9569     0.9164    14.2899 </r>
       <r>    12.0438     0.8753    14.3672 </r>
       <r>    12.1308     0.8962    14.4443 </r>
       <r>    12.2177     0.8715    14.5216 </r>
       <r>    12.3047     0.8371    14.5953 </r>
       <r>    12.3917     0.8619    14.6689 </r>
       <r>    12.4786     0.9094    14.7458 </r>
       <r>    12.5656     0.9892    14.8281 </r>
       <r>    12.6525     1.0515    14.9171 </r>
       <r>    12.7395     1.0332    15.0088 </r>
       <r>    12.8264     0.9135    15.0938 </r>
       <r>    12.9134     0.9096    15.1730 </r>
       <r>    13.0004     0.7697    15.2470 </r>
       <r>    13.0873     0.6990    15.3103 </r>
       <r>    13.1743     0.6364    15.3685 </r>
       <r>    13.2612     0.5835    15.4214 </r>
       <r>    13.3482     0.5512    15.4706 </r>
       <r>    13.4352     0.5315    15.5176 </r>
       <r>    13.5221     0.5376    15.5638 </r>
       <r>    13.6091     0.6221    15.6132 </r>
       <r>    13.6960     0.6084    15.6695 </r>
       <r>    13.7830     0.4651    15.7158 </r>
       <r>    13.8699     0.3855    15.7527 </r>
       <r>    13.9569     0.3083    15.7829 </r>
       <r>    14.0439     0.2477    15.8068 </r>
       <r>    14.1308     0.2175    15.8268 </r>
       <r>    14.2178     0.2194    15.8456 </r>
       <r>    14.3047     0.1972    15.8637 </r>
       <r>    14.3917     0.1769    15.8799 </r>
       <r>    14.4787     0.1585    15.8945 </r>
       <r>    14.5656     0.1421    15.9076 </r>
       <r>    14.6526     0.1277    15.9193 </r>
       <r>    14.7395     0.1152    15.9298 </r>
       <r>    14.8265     0.1049    15.9394 </r>
       <r>    14.9134     0.0984    15.9482 </r>
       <r>    15.0004     0.0965    15.9566 </r>
       <r>    15.0874     0.0986    15.9651 </r>
       <r>    15.1743     0.1005    15.9738 </r>
       <r>    15.2613     0.0963    15.9824 </r>
       <r>    15.3482     0.0730    15.9901 </r>
       <r>    15.4352     0.0338    15.9941 </r>
       <r>    15.5222     0.0235    15.9966 </r>
       <r>    15.6091     0.0150    15.9983 </r>
       <r>    15.6961     0.0084    15.9993 </r>
       <r>    15.7830     0.0038    15.9998 </r>
       <r>    15.8700     0.0009    16.0000 </r>
       <r>    15.9570     0.0000    16.0000 </r>
       <r>    16.0439     0.0000    16.0000 </r>
       <r>    16.1309     0.0000    16.0000 </r>
       <r>    16.2178     0.0000    16.0000 </r>
       <r>    16.3048     0.0000    16.0000 </r>
       <r>    16.3917     0.0000    16.0000 </r>
       <r>    16.4787     0.0000    16.0000 </r>
       <r>    16.5657     0.0000    16.0000 </r>
       <r>    16.6526     0.0000    16.0000 </r>
       <r>    16.7396     0.0000    16.0000 </r>
       <r>    16.8265     0.0000    16.0000 </r>
       <r>    16.9135     0.0000    16.0000 </r>
       <r>    17.0005     0.0000    16.0000 </r>
       <r>    17.0874     0.0000    16.0000 </r>
       <r>    17.1744     0.0000    16.0000 </r>
       <r>    17.2613     0.0000    16.0000 </r>
       <r>    17.3483     0.0000    16.0000 </r>
       <r>    17.4352     0.0000    16.0000 </r>
       <r>    17.5222     0.0000    16.0000 </r>
       <r>    17.6092     0.0000    16.0000 </r>
       <r>    17.6961     0.0000    16.0000 </r>
       <r>    17.7831     0.0000    16.0000 </r>
       <r>    17.8700     0.0000    16.0000 </r>
       <r>    17.9570     0.0000    16.0000 </r>
      </set>
     </set>
    </array>
   </total>
  </dos>
 </calculation>
 <structure name="finalpos" >
  <crystal>
   <varray name="basis" >
    <v>       0.00000000       2.71500000       2.71500000 </v>
    <v>       2.71500000       0.00000000       2.71500000 </v>
    <v>       2.71500000       2.71500000       0.00000000 </v>
   </varray>
   <i name="volume">     40.02575175 </i>
   <varray name="rec_basis" >
    <v>      -0.18416206       0.18416206       0.18416206 </v>
    <v>       0.18416206      -0.18416206       0.18416206 </v>
    <v>       0.18416206       0.18416206      -0.18416206 </v>
   </varray>
  </crystal>
  <varray name="positions" >
   <v>       0.00000000       0.00000000       0.00000000 </v>
   <v>       0.25000000       0.25000000       0.25000000 </v>
  </varray>
 </structure>
</modeling>
