   1   1   0   0
  0.9398844E+01  0.2368808E-09  0.2368808E-09  0.2368808E-09  0.5000000E-15
  1.000000000000000E-004
  CAR 
 fcc Fe                                  
     39.26096374     -3.60120597  301      7.59719532      1.00000000
     -3.601  0.0000E+00  0.0000E+00
     -3.458  0.0000E+00  0.0000E+00
     -3.315 -0.2101E-35 -0.3001E-36
     -3.173 -0.2423E-30 -0.3462E-31
     -3.030 -0.9968E-26 -0.1424E-26
     -2.887 -0.1468E-21 -0.2098E-22
     -2.744 -0.7513E-18 -0.1074E-18
     -2.601 -0.1408E-14 -0.2013E-15
     -2.458 -0.9438E-12 -0.1350E-12
     -2.315 -0.2264E-09 -0.3249E-10
     -2.172 -0.1940E-07 -0.2804E-08
     -2.030 -0.5840E-06 -0.8624E-07
     -1.887 -0.5692E-05 -0.8994E-06
     -1.744 -0.9360E-05 -0.2237E-05
     -1.601  0.7259E-04  0.8134E-05
     -1.458  0.2972E-03  0.5060E-04
     -1.315  0.5228E-03  0.1253E-03
     -1.172  0.6791E-03  0.2223E-03
     -1.029  0.8107E-03  0.3381E-03
     -0.887  0.9124E-03  0.4685E-03
     -0.744  0.1057E-02  0.6195E-03
     -0.601  0.1120E-02  0.7794E-03
     -0.458  0.1248E-02  0.9578E-03
     -0.315  0.1398E-02  0.1158E-02
     -0.172  0.1389E-02  0.1356E-02
     -0.029  0.1610E-02  0.1586E-02
      0.114  0.1707E-02  0.1830E-02
      0.256  0.1747E-02  0.2080E-02
      0.399  0.1903E-02  0.2351E-02
      0.542  0.2139E-02  0.2657E-02
      0.685  0.2133E-02  0.2962E-02
      0.828  0.2261E-02  0.3285E-02
      0.971  0.2656E-02  0.3664E-02
      1.114  0.2600E-02  0.4036E-02
      1.257  0.2863E-02  0.4445E-02
      1.399  0.3237E-02  0.4907E-02
      1.542  0.3337E-02  0.5384E-02
      1.685  0.3836E-02  0.5932E-02
      1.828  0.4104E-02  0.6518E-02
      1.971  0.4715E-02  0.7192E-02
      2.114  0.6428E-02  0.8110E-02
      2.257  0.1100E-01  0.9682E-02
      2.399  0.1642E-01  0.1203E-01
      2.542  0.1851E-01  0.1467E-01
      2.685  0.1890E-01  0.1737E-01
      2.828  0.1949E-01  0.2016E-01
      2.971  0.2169E-01  0.2326E-01
      3.114  0.2470E-01  0.2679E-01
      3.257  0.2708E-01  0.3065E-01
      3.400  0.2875E-01  0.3476E-01
      3.542  0.2895E-01  0.3890E-01
      3.685  0.2743E-01  0.4282E-01
      3.828  0.2541E-01  0.4645E-01
      3.971  0.2459E-01  0.4996E-01
      4.114  0.2532E-01  0.5358E-01
      4.257  0.2470E-01  0.5711E-01
      4.400  0.2215E-01  0.6027E-01
      4.543  0.2072E-01  0.6323E-01
      4.685  0.2143E-01  0.6629E-01
      4.828  0.2422E-01  0.6975E-01
      4.971  0.2734E-01  0.7366E-01
      5.114  0.2886E-01  0.7778E-01
      5.257  0.3044E-01  0.8213E-01
      5.400  0.3056E-01  0.8650E-01
      5.543  0.3341E-01  0.9127E-01
      5.686  0.3796E-01  0.9670E-01
      5.828  0.3867E-01  0.1022E+00
      5.971  0.4082E-01  0.1081E+00
      6.114  0.4462E-01  0.1144E+00
      6.257  0.3950E-01  0.1201E+00
      6.400  0.3061E-01  0.1244E+00
      6.543  0.2694E-01  0.1283E+00
      6.686  0.2518E-01  0.1319E+00
      6.829  0.2432E-01  0.1354E+00
      6.971  0.2707E-01  0.1392E+00
      7.114  0.3154E-01  0.1437E+00
      7.257  0.3437E-01  0.1486E+00
      7.400  0.3508E-01  0.1537E+00
      7.543  0.3269E-01  0.1583E+00
      7.686  0.3023E-01  0.1626E+00
      7.829  0.2875E-01  0.1668E+00
      7.972  0.2819E-01  0.1708E+00
      8.114  0.2875E-01  0.1749E+00
      8.257  0.2988E-01  0.1792E+00
      8.400  0.3352E-01  0.1840E+00
      8.543  0.4259E-01  0.1900E+00
      8.686  0.5381E-01  0.1977E+00
      8.829  0.4904E-01  0.2047E+00
      8.972  0.2958E-01  0.2090E+00
      9.115  0.1359E-01  0.2109E+00
      9.257  0.6648E-02  0.2118E+00
      9.400  0.4387E-02  0.2125E+00
      9.543  0.5716E-02  0.2133E+00
      9.686  0.5936E-02  0.2141E+00
      9.829  0.4798E-02  0.2148E+00
      9.972  0.5723E-02  0.2156E+00
     10.115  0.5719E-02  0.2165E+00
     10.258  0.4822E-02  0.2171E+00
     10.400  0.5092E-02  0.2179E+00
     10.543  0.5273E-02  0.2186E+00
     10.686  0.5330E-02  0.2194E+00
     10.829  0.5385E-02  0.2202E+00
     10.972  0.4768E-02  0.2208E+00
     11.115  0.4504E-02  0.2215E+00
     11.258  0.5214E-02  0.2222E+00
     11.401  0.5781E-02  0.2231E+00
     11.543  0.4979E-02  0.2238E+00
     11.686  0.4092E-02  0.2244E+00
     11.829  0.4823E-02  0.2250E+00
     11.972  0.5125E-02  0.2258E+00
     12.115  0.4746E-02  0.2265E+00
     12.258  0.4612E-02  0.2271E+00
     12.401  0.4438E-02  0.2277E+00
     12.544  0.4529E-02  0.2284E+00
     12.686  0.4240E-02  0.2290E+00
     12.829  0.3940E-02  0.2296E+00
     12.972  0.4445E-02  0.2302E+00
     13.115  0.4804E-02  0.2309E+00
     13.258  0.3583E-02  0.2314E+00
     13.401  0.3376E-02  0.2319E+00
     13.544  0.3984E-02  0.2324E+00
     13.687  0.3800E-02  0.2330E+00
     13.829  0.3666E-02  0.2335E+00
     13.972  0.3756E-02  0.2340E+00
     14.115  0.3267E-02  0.2345E+00
     14.258  0.2670E-02  0.2349E+00
     14.401  0.3154E-02  0.2353E+00
     14.544  0.3443E-02  0.2358E+00
     14.687  0.3104E-02  0.2363E+00
     14.830  0.2456E-02  0.2366E+00
     14.972  0.2308E-02  0.2370E+00
     15.115  0.2517E-02  0.2373E+00
     15.258  0.2677E-02  0.2377E+00
     15.401  0.2288E-02  0.2380E+00
     15.544  0.1791E-02  0.2383E+00
     15.687  0.1657E-02  0.2385E+00
     15.830  0.1916E-02  0.2388E+00
     15.973  0.1653E-02  0.2390E+00
     16.115  0.1480E-02  0.2392E+00
     16.258  0.1223E-02  0.2394E+00
     16.401  0.5843E-03  0.2395E+00
     16.544  0.4862E-03  0.2396E+00
     16.687  0.1096E-02  0.2397E+00
     16.830  0.4037E-02  0.2403E+00
     16.973  0.8277E-02  0.2415E+00
     17.116  0.9072E-02  0.2428E+00
     17.258  0.8208E-02  0.2440E+00
     17.401  0.7433E-02  0.2450E+00
     17.544  0.6493E-02  0.2459E+00
     17.687  0.6509E-02  0.2469E+00
     17.830  0.5672E-02  0.2477E+00
     17.973  0.4755E-02  0.2484E+00
     18.116  0.5447E-02  0.2491E+00
     18.259  0.5586E-02  0.2499E+00
     18.401  0.4834E-02  0.2506E+00
     18.544  0.4698E-02  0.2513E+00
     18.687  0.4556E-02  0.2520E+00
     18.830  0.4614E-02  0.2526E+00
     18.973  0.4622E-02  0.2533E+00
     19.116  0.4556E-02  0.2539E+00
     19.259  0.4574E-02  0.2546E+00
     19.401  0.4319E-02  0.2552E+00
     19.544  0.4030E-02  0.2558E+00
     19.687  0.4410E-02  0.2564E+00
     19.830  0.4278E-02  0.2570E+00
     19.973  0.4344E-02  0.2576E+00
     20.116  0.4469E-02  0.2583E+00
     20.259  0.4824E-02  0.2590E+00
     20.402  0.6333E-02  0.2599E+00
     20.544  0.5593E-02  0.2607E+00
     20.687  0.4798E-02  0.2614E+00
     20.830  0.6363E-02  0.2623E+00
     20.973  0.6684E-02  0.2632E+00
     21.116  0.6511E-02  0.2641E+00
     21.259  0.6604E-02  0.2651E+00
     21.402  0.7974E-02  0.2662E+00
     21.545  0.9383E-02  0.2676E+00
     21.687  0.7696E-02  0.2687E+00
     21.830  0.5850E-02  0.2695E+00
     21.973  0.6041E-02  0.2704E+00
     22.116  0.7200E-02  0.2714E+00
     22.259  0.7904E-02  0.2725E+00
     22.402  0.7620E-02  0.2736E+00
     22.545  0.7141E-02  0.2746E+00
     22.688  0.6380E-02  0.2755E+00
     22.830  0.5467E-02  0.2763E+00
     22.973  0.6550E-02  0.2773E+00
     23.116  0.6755E-02  0.2782E+00
     23.259  0.7008E-02  0.2792E+00
     23.402  0.7648E-02  0.2803E+00
     23.545  0.5915E-02  0.2812E+00
     23.688  0.5456E-02  0.2819E+00
     23.831  0.5907E-02  0.2828E+00
     23.973  0.6057E-02  0.2837E+00
     24.116  0.6413E-02  0.2846E+00
     24.259  0.6803E-02  0.2855E+00
     24.402  0.6570E-02  0.2865E+00
     24.545  0.5000E-02  0.2872E+00
     24.688  0.5463E-02  0.2880E+00
     24.831  0.6671E-02  0.2889E+00
     24.974  0.5272E-02  0.2897E+00
     25.116  0.4584E-02  0.2903E+00
     25.259  0.5890E-02  0.2912E+00
     25.402  0.6307E-02  0.2921E+00
     25.545  0.5359E-02  0.2928E+00
     25.688  0.4530E-02  0.2935E+00
     25.831  0.5025E-02  0.2942E+00
     25.974  0.5299E-02  0.2950E+00
     26.117  0.4526E-02  0.2956E+00
     26.259  0.4895E-02  0.2963E+00
     26.402  0.5338E-02  0.2971E+00
     26.545  0.5033E-02  0.2978E+00
     26.688  0.4690E-02  0.2985E+00
     26.831  0.4836E-02  0.2992E+00
     26.974  0.5032E-02  0.2999E+00
     27.117  0.3653E-02  0.3004E+00
     27.260  0.3765E-02  0.3009E+00
     27.402  0.5699E-02  0.3018E+00
     27.545  0.5430E-02  0.3025E+00
     27.688  0.3716E-02  0.3031E+00
     27.831  0.3671E-02  0.3036E+00
     27.974  0.4797E-02  0.3043E+00
     28.117  0.4492E-02  0.3049E+00
     28.260  0.4297E-02  0.3055E+00
     28.403  0.4393E-02  0.3062E+00
     28.545  0.3521E-02  0.3067E+00
     28.688  0.4209E-02  0.3073E+00
     28.831  0.4804E-02  0.3079E+00
     28.974  0.4468E-02  0.3086E+00
     29.117  0.3930E-02  0.3091E+00
     29.260  0.3595E-02  0.3097E+00
     29.403  0.3731E-02  0.3102E+00
     29.546  0.4581E-02  0.3108E+00
     29.688  0.4815E-02  0.3115E+00
     29.831  0.4087E-02  0.3121E+00
     29.974  0.3774E-02  0.3127E+00
     30.117  0.4163E-02  0.3133E+00
     30.260  0.4349E-02  0.3139E+00
     30.403  0.4100E-02  0.3145E+00
     30.546  0.3482E-02  0.3150E+00
     30.689  0.3048E-02  0.3154E+00
     30.831  0.2654E-02  0.3158E+00
     30.974  0.2663E-02  0.3162E+00
     31.117  0.3512E-02  0.3167E+00
     31.260  0.3046E-02  0.3171E+00
     31.403  0.1668E-02  0.3173E+00
     31.546  0.1852E-02  0.3176E+00
     31.689  0.2842E-02  0.3180E+00
     31.832  0.1977E-02  0.3183E+00
     31.974  0.7389E-03  0.3184E+00
     32.117  0.9694E-03  0.3185E+00
     32.260  0.1230E-02  0.3187E+00
     32.403  0.8597E-03  0.3188E+00
     32.546  0.1096E-02  0.3190E+00
     32.689  0.1091E-02  0.3191E+00
     32.832  0.7052E-03  0.3192E+00
     32.975  0.3605E-03  0.3193E+00
     33.117  0.1624E-03  0.3193E+00
     33.260  0.5388E-03  0.3194E+00
     33.403  0.9587E-03  0.3195E+00
     33.546  0.4365E-03  0.3196E+00
     33.689  0.1418E-04  0.3196E+00
     33.832  0.6566E-04  0.3196E+00
     33.975  0.1998E-03  0.3196E+00
     34.118  0.3803E-03  0.3197E+00
     34.260  0.4746E-03  0.3197E+00
     34.403  0.1751E-03  0.3198E+00
     34.546  0.4779E-04  0.3198E+00
     34.689  0.9592E-04  0.3198E+00
     34.832  0.3865E-04  0.3198E+00
     34.975  0.1793E-03  0.3198E+00
     35.118  0.3405E-03  0.3199E+00
     35.260  0.1550E-03  0.3199E+00
     35.403  0.2618E-04  0.3199E+00
     35.546 -0.3759E-05  0.3199E+00
     35.689  0.9222E-05  0.3199E+00
     35.832  0.1601E-03  0.3199E+00
     35.975  0.2166E-03  0.3200E+00
     36.118  0.5499E-04  0.3200E+00
     36.261 -0.1313E-04  0.3200E+00
     36.403 -0.7420E-05  0.3200E+00
     36.546  0.4700E-04  0.3200E+00
     36.689  0.1181E-03  0.3200E+00
     36.832  0.5718E-04  0.3200E+00
     36.975 -0.4225E-05  0.3200E+00
     37.118  0.1388E-05  0.3200E+00
     37.261  0.3221E-04  0.3200E+00
     37.404  0.3257E-04  0.3200E+00
     37.546  0.4642E-05  0.3200E+00
     37.689 -0.1806E-05  0.3200E+00
     37.832 -0.3302E-06  0.3200E+00
     37.975 -0.1408E-07  0.3200E+00
     38.118 -0.1883E-09  0.3200E+00
     38.261 -0.8486E-12  0.3200E+00
     38.404 -0.1324E-14  0.3200E+00
     38.547 -0.7304E-18  0.3200E+00
     38.689  0.0000E+00  0.3200E+00
     38.832  0.0000E+00  0.3200E+00
     38.975  0.0000E+00  0.3200E+00
     39.118  0.0000E+00  0.3200E+00
     39.261  0.0000E+00  0.3200E+00
