       N       E                     dE             d eps       ncg     rms          rms(c)
DAV:   1     0.227796060966E+01    0.22780E+01   -0.30593E+03 13048   0.782E+02
DAV:   2    -0.108154436508E+02   -0.13093E+02   -0.12374E+02 12704   0.101E+02
DAV:   3    -0.108773781909E+02   -0.61935E-01   -0.61907E-01 16688   0.888E+00
DAV:   4    -0.108775994186E+02   -0.22123E-03   -0.22122E-03 14024   0.389E-01
DAV:   5    -0.108776009646E+02   -0.15460E-05   -0.15468E-05 16464   0.247E-02    0.894E+00
DAV:   6    -0.943292116336E+01    0.14447E+01   -0.12923E+01 12432   0.605E+01    0.102E+00
DAV:   7    -0.935153724701E+01    0.81384E-01   -0.41317E-01 12456   0.108E+01    0.606E-01
DAV:   8    -0.932784282917E+01    0.23694E-01   -0.19776E-02 17768   0.118E+00    0.637E-02
DAV:   9    -0.932768980751E+01    0.15302E-03   -0.55729E-04 13336   0.446E-01    0.269E-02
DAV:  10    -0.932770380169E+01   -0.13994E-04   -0.15847E-05 15520   0.630E-02    0.132E-03
DAV:  11    -0.932770376056E+01    0.41132E-07   -0.58260E-08  6640   0.302E-03
   1 F= -.93277038E+01 E0= -.93278169E+01  d E =-.932770E+01
       N       E                     dE             d eps       ncg     rms          rms(c)
DAV:   1    -0.934911270675E+01   -0.21409E-01   -0.65439E-01 12320   0.147E+01    0.115E+00
DAV:   2    -0.932824684755E+01    0.20866E-01   -0.20733E-01 12376   0.699E+00    0.207E-01
DAV:   3    -0.932623303307E+01    0.20138E-02   -0.96577E-03 12608   0.166E+00    0.121E-01
DAV:   4    -0.932572422011E+01    0.50881E-03   -0.60838E-04 15280   0.220E-01    0.819E-03
DAV:   5    -0.932572315753E+01    0.10626E-05   -0.26242E-06 13096   0.226E-02    0.604E-03
DAV:   6    -0.932572278743E+01    0.37010E-06   -0.70573E-07  6616   0.106E-02
   2 F= -.93257228E+01 E0= -.93258400E+01  d E =0.198097E-02
       N       E                     dE             d eps       ncg     rms          rms(c)
DAV:   1    -0.934022915155E+01   -0.14506E-01   -0.34141E-01 12320   0.106E+01    0.827E-01
DAV:   2    -0.932924364866E+01    0.10986E-01   -0.10339E-01 12376   0.506E+00    0.139E-01
DAV:   3    -0.932829532172E+01    0.94833E-03   -0.42139E-03 12728   0.111E+00    0.886E-02
DAV:   4    -0.932802830666E+01    0.26702E-03   -0.33395E-04 15328   0.152E-01    0.789E-03
DAV:   5    -0.932802760718E+01    0.69948E-06   -0.13704E-06 11296   0.118E-02
   3 F= -.93280276E+01 E0= -.93281419E+01  d E =-.323847E-03
