 vasp.5.4.4.18Apr17-6-g9f103f2a35 (build May 20 2018 16:52:39) complex          
  
 executed on             LinuxIFC date 2022.10.31  00:06:14
 running on    1 total cores
 distrk:  each k-point on    1 cores,    1 groups
 distr:  one band on NCORES_PER_BAND=   1 cores,    1 groups


--------------------------------------------------------------------------------------------------------


 INCAR:
 POTCAR:    PAW Fe                                
 POTCAR:    PAW Fe                                
   VRHFIN =Fe:  d7 s1                                                           
   LEXCH  = CA                                                                  
   EATOM  =   597.3650 eV,   43.9051 Ry                                         
                                                                                
   TITEL  = PAW Fe                                                              
   LULTRA =        F    use ultrasoft PP ?                                      
   IUNSCR =        1    unscreen: 0-lin 1-nonlin 2-no                           
   RPACOR =    2.000    partial core radius                                     
   POMASS =   55.847; ZVAL   =    8.000    mass and valenz                      
   RCORE  =    2.300    outmost cutoff radius                                   
   RWIGS  =    2.460; RWIGS  =    1.302    wigner-seitz radius (au A)           
   ENMAX  =  267.969; ENMIN  =  200.977 eV                                      
   RCLOC  =    1.701    cutoff for local pot                                    
   LCOR   =        T    correct aug charges                                     
   LPAW   =        T    paw PP                                                  
   EAUG   =  511.368                                                            
   DEXC   =    -.018                                                            
   RMAX   =    2.817    core radius for proj-oper                               
   RAUG   =    1.300    factor for augmentation sphere                          
   RDEP   =    2.442    core radius for depl-charge                             
   QCUT   =   -4.438; QGAM   =    8.876    optimization parameters              
                                                                                
   Description                                                                  
     l     E      TYP  RCUT    TYP  RCUT                                        
     2   .000     23  2.300                                                     
     2   .000     23  2.300                                                     
     0   .000     23  2.300                                                     
     0   .000     23  2.300                                                     
     1  -.200     23  2.300                                                     
     1   .000     23  2.300                                                     
     3   .000      7   .000                                                     
  local pseudopotential read in
  partial core-charges read in
  atomic valenz-charges read in
  non local Contribution for L=           2  read in
    real space projection operators read in
  non local Contribution for L=           2  read in
    real space projection operators read in
  non local Contribution for L=           0  read in
    real space projection operators read in
  non local Contribution for L=           0  read in
    real space projection operators read in
  non local Contribution for L=           1  read in
    real space projection operators read in
  non local Contribution for L=           1  read in
    real space projection operators read in
    PAW grid and wavefunctions read in
 
   number of l-projection  operators is LMAX  =           6
   number of lm-projection operators is LMMAX =          18
 
  PAW Fe                                :
 energy of atom  1       EATOM= -597.3650
 kinetic energy error for atom=    0.0346 (will be added to EATOM!!)
 
 
 POSCAR: Fe bulk fcc                             
  positions in direct lattice
  No initial velocities read in
 exchange correlation table for  LEXCH =        2
   RHO(1)=    0.500       N(1)  =     2000
   RHO(2)=  100.500       N(2)  =     4000
 


--------------------------------------------------------------------------------------------------------


 ion  position               nearest neighbor table
   1  0.000  0.000  0.000-
 
  LATTYP: Found a face centered cubic cell.
 ALAT       =     3.3500000000
  
  Lattice vectors:
  
 A1 = (   0.0000000000,   1.6750000000,   1.6750000000)
 A2 = (   1.6750000000,   0.0000000000,   1.6750000000)
 A3 = (   1.6750000000,   1.6750000000,   0.0000000000)


Analysis of symmetry for initial positions (statically):
=====================================================================
 Subroutine PRICEL returns:
 Original cell was already a primitive cell.
 

 Routine SETGRP: Setting up the symmetry group for a 
 face centered cubic supercell.


 Subroutine GETGRP returns: Found 48 space group operations
 (whereof 48 operations were pure point group operations)
 out of a pool of 48 trial point group operations.


The static configuration has the point symmetry O_h .


Analysis of symmetry for dynamics (positions and initial velocities):
=====================================================================
 Subroutine PRICEL returns:
 Original cell was already a primitive cell.
 

 Routine SETGRP: Setting up the symmetry group for a 
 face centered cubic supercell.


 Subroutine GETGRP returns: Found 48 space group operations
 (whereof 48 operations were pure point group operations)
 out of a pool of 48 trial point group operations.


The dynamic configuration has the point symmetry O_h .


 Subroutine INISYM returns: Found 48 space group operations
 (whereof 48 operations are pure point group operations),
 and found     1 'primitive' translations

 
 
 KPOINTS: 20x20x20                                

Automatic generation of k-mesh.
Space group operators:
 irot       det(A)        alpha          n_x          n_y          n_z        tau_x        tau_y        tau_z
    1     1.000000     0.000000     1.000000     0.000000     0.000000     0.000000     0.000000     0.000000
    2    -1.000000     0.000000     1.000000     0.000000     0.000000     0.000000     0.000000     0.000000
    3     1.000000   120.000000    -0.577350    -0.577350    -0.577350     0.000000     0.000000     0.000000
    4    -1.000000   120.000000    -0.577350    -0.577350    -0.577350     0.000000     0.000000     0.000000
    5     1.000000   120.000000     0.577350     0.577350     0.577350     0.000000     0.000000     0.000000
    6    -1.000000   120.000000     0.577350     0.577350     0.577350     0.000000     0.000000     0.000000
    7     1.000000    90.000000     0.000000     0.000000    -1.000000     0.000000     0.000000     0.000000
    8    -1.000000    90.000000     0.000000     0.000000    -1.000000     0.000000     0.000000     0.000000
    9     1.000000   180.000000     0.000000     0.707107     0.707107     0.000000     0.000000     0.000000
   10    -1.000000   180.000000     0.000000     0.707107     0.707107     0.000000     0.000000     0.000000
   11     1.000000    90.000000     0.000000     1.000000     0.000000     0.000000     0.000000     0.000000
   12    -1.000000    90.000000     0.000000     1.000000     0.000000     0.000000     0.000000     0.000000
   13     1.000000   180.000000     0.000000     0.000000     1.000000     0.000000     0.000000     0.000000
   14    -1.000000   180.000000     0.000000     0.000000     1.000000     0.000000     0.000000     0.000000
   15     1.000000   120.000000    -0.577350     0.577350     0.577350     0.000000     0.000000     0.000000
   16    -1.000000   120.000000    -0.577350     0.577350     0.577350     0.000000     0.000000     0.000000
   17     1.000000   120.000000    -0.577350     0.577350    -0.577350     0.000000     0.000000     0.000000
   18    -1.000000   120.000000    -0.577350     0.577350    -0.577350     0.000000     0.000000     0.000000
   19     1.000000    90.000000     0.000000     0.000000     1.000000     0.000000     0.000000     0.000000
   20    -1.000000    90.000000     0.000000     0.000000     1.000000     0.000000     0.000000     0.000000
   21     1.000000    90.000000    -1.000000     0.000000     0.000000     0.000000     0.000000     0.000000
   22    -1.000000    90.000000    -1.000000     0.000000     0.000000     0.000000     0.000000     0.000000
   23     1.000000   180.000000     0.707107     0.000000     0.707107     0.000000     0.000000     0.000000
   24    -1.000000   180.000000     0.707107     0.000000     0.707107     0.000000     0.000000     0.000000
   25     1.000000   120.000000     0.577350    -0.577350     0.577350     0.000000     0.000000     0.000000
   26    -1.000000   120.000000     0.577350    -0.577350     0.577350     0.000000     0.000000     0.000000
   27     1.000000   120.000000    -0.577350    -0.577350     0.577350     0.000000     0.000000     0.000000
   28    -1.000000   120.000000    -0.577350    -0.577350     0.577350     0.000000     0.000000     0.000000
   29     1.000000   180.000000     1.000000     0.000000     0.000000     0.000000     0.000000     0.000000
   30    -1.000000   180.000000     1.000000     0.000000     0.000000     0.000000     0.000000     0.000000
   31     1.000000    90.000000     0.000000    -1.000000     0.000000     0.000000     0.000000     0.000000
   32    -1.000000    90.000000     0.000000    -1.000000     0.000000     0.000000     0.000000     0.000000
   33     1.000000   180.000000     0.707107     0.707107     0.000000     0.000000     0.000000     0.000000
   34    -1.000000   180.000000     0.707107     0.707107     0.000000     0.000000     0.000000     0.000000
   35     1.000000    90.000000     1.000000     0.000000     0.000000     0.000000     0.000000     0.000000
   36    -1.000000    90.000000     1.000000     0.000000     0.000000     0.000000     0.000000     0.000000
   37     1.000000   120.000000     0.577350    -0.577350    -0.577350     0.000000     0.000000     0.000000
   38    -1.000000   120.000000     0.577350    -0.577350    -0.577350     0.000000     0.000000     0.000000
   39     1.000000   180.000000     0.000000     1.000000     0.000000     0.000000     0.000000     0.000000
   40    -1.000000   180.000000     0.000000     1.000000     0.000000     0.000000     0.000000     0.000000
   41     1.000000   120.000000     0.577350     0.577350    -0.577350     0.000000     0.000000     0.000000
   42    -1.000000   120.000000     0.577350     0.577350    -0.577350     0.000000     0.000000     0.000000
   43     1.000000   180.000000     0.000000    -0.707107     0.707107     0.000000     0.000000     0.000000
   44    -1.000000   180.000000     0.000000    -0.707107     0.707107     0.000000     0.000000     0.000000
   45     1.000000   180.000000     0.707107    -0.707107     0.000000     0.000000     0.000000     0.000000
   46    -1.000000   180.000000     0.707107    -0.707107     0.000000     0.000000     0.000000     0.000000
   47     1.000000   180.000000     0.707107     0.000000    -0.707107     0.000000     0.000000     0.000000
   48    -1.000000   180.000000     0.707107     0.000000    -0.707107     0.000000     0.000000     0.000000
 
 Subroutine IBZKPT returns following result:
 ===========================================
 
 Found    770 irreducible k-points:
 
 Following reciprocal coordinates:
            Coordinates               Weight
  0.025000  0.025000  0.025000     96.000000
  0.075000  0.025000  0.025000    288.000000
  0.125000  0.025000  0.025000    288.000000
  0.175000  0.025000  0.025000    288.000000
  0.225000  0.025000  0.025000    288.000000
  0.275000  0.025000  0.025000    288.000000
  0.325000  0.025000  0.025000    288.000000
  0.375000  0.025000  0.025000    288.000000
  0.425000  0.025000  0.025000    288.000000
  0.475000  0.025000  0.025000    288.000000
 -0.475000  0.025000  0.025000    288.000000
 -0.425000  0.025000  0.025000    288.000000
 -0.375000  0.025000  0.025000    288.000000
 -0.325000  0.025000  0.025000    288.000000
 -0.275000  0.025000  0.025000    288.000000
 -0.225000  0.025000  0.025000    288.000000
 -0.175000  0.025000  0.025000    288.000000
 -0.125000  0.025000  0.025000    288.000000
 -0.075000  0.025000  0.025000    288.000000
 -0.025000  0.025000  0.025000    288.000000
  0.075000  0.075000  0.025000    288.000000
  0.125000  0.075000  0.025000    576.000000
  0.175000  0.075000  0.025000    576.000000
  0.225000  0.075000  0.025000    576.000000
  0.275000  0.075000  0.025000    576.000000
  0.325000  0.075000  0.025000    576.000000
  0.375000  0.075000  0.025000    576.000000
  0.425000  0.075000  0.025000    576.000000
  0.475000  0.075000  0.025000    576.000000
 -0.475000  0.075000  0.025000    576.000000
 -0.425000  0.075000  0.025000    576.000000
 -0.375000  0.075000  0.025000    576.000000
 -0.325000  0.075000  0.025000    576.000000
 -0.275000  0.075000  0.025000    576.000000
 -0.225000  0.075000  0.025000    576.000000
 -0.175000  0.075000  0.025000    576.000000
 -0.125000  0.075000  0.025000    576.000000
 -0.075000  0.075000  0.025000    576.000000
 -0.025000  0.075000  0.025000    576.000000
  0.125000  0.125000  0.025000    288.000000
  0.175000  0.125000  0.025000    576.000000
  0.225000  0.125000  0.025000    576.000000
  0.275000  0.125000  0.025000    576.000000
  0.325000  0.125000  0.025000    576.000000
  0.375000  0.125000  0.025000    576.000000
  0.425000  0.125000  0.025000    576.000000
  0.475000  0.125000  0.025000    576.000000
 -0.475000  0.125000  0.025000    576.000000
 -0.425000  0.125000  0.025000    576.000000
 -0.375000  0.125000  0.025000    576.000000
 -0.325000  0.125000  0.025000    576.000000
 -0.275000  0.125000  0.025000    576.000000
 -0.225000  0.125000  0.025000    576.000000
 -0.175000  0.125000  0.025000    576.000000
 -0.125000  0.125000  0.025000    576.000000
 -0.075000  0.125000  0.025000    576.000000
 -0.025000  0.125000  0.025000    576.000000
  0.175000  0.175000  0.025000    288.000000
  0.225000  0.175000  0.025000    576.000000
  0.275000  0.175000  0.025000    576.000000
  0.325000  0.175000  0.025000    576.000000
  0.375000  0.175000  0.025000    576.000000
  0.425000  0.175000  0.025000    576.000000
  0.475000  0.175000  0.025000    576.000000
 -0.475000  0.175000  0.025000    576.000000
 -0.425000  0.175000  0.025000    576.000000
 -0.375000  0.175000  0.025000    576.000000
 -0.325000  0.175000  0.025000    576.000000
 -0.275000  0.175000  0.025000    576.000000
 -0.225000  0.175000  0.025000    576.000000
 -0.175000  0.175000  0.025000    576.000000
 -0.125000  0.175000  0.025000    576.000000
 -0.075000  0.175000  0.025000    576.000000
 -0.025000  0.175000  0.025000    576.000000
  0.225000  0.225000  0.025000    288.000000
  0.275000  0.225000  0.025000    576.000000
  0.325000  0.225000  0.025000    576.000000
  0.375000  0.225000  0.025000    576.000000
  0.425000  0.225000  0.025000    576.000000
  0.475000  0.225000  0.025000    576.000000
 -0.475000  0.225000  0.025000    576.000000
 -0.425000  0.225000  0.025000    576.000000
 -0.375000  0.225000  0.025000    576.000000
 -0.325000  0.225000  0.025000    576.000000
 -0.275000  0.225000  0.025000    576.000000
 -0.225000  0.225000  0.025000    576.000000
 -0.175000  0.225000  0.025000    576.000000
 -0.125000  0.225000  0.025000    576.000000
 -0.075000  0.225000  0.025000    576.000000
 -0.025000  0.225000  0.025000    576.000000
  0.275000  0.275000  0.025000    288.000000
  0.325000  0.275000  0.025000    576.000000
  0.375000  0.275000  0.025000    576.000000
  0.425000  0.275000  0.025000    576.000000
  0.475000  0.275000  0.025000    576.000000
 -0.475000  0.275000  0.025000    576.000000
 -0.425000  0.275000  0.025000    576.000000
 -0.375000  0.275000  0.025000    576.000000
 -0.325000  0.275000  0.025000    576.000000
 -0.275000  0.275000  0.025000    576.000000
 -0.225000  0.275000  0.025000    576.000000
 -0.175000  0.275000  0.025000    576.000000
 -0.125000  0.275000  0.025000    576.000000
 -0.075000  0.275000  0.025000    576.000000
 -0.025000  0.275000  0.025000    576.000000
  0.325000  0.325000  0.025000    288.000000
  0.375000  0.325000  0.025000    576.000000
  0.425000  0.325000  0.025000    576.000000
  0.475000  0.325000  0.025000    576.000000
 -0.475000  0.325000  0.025000    576.000000
 -0.425000  0.325000  0.025000    576.000000
 -0.375000  0.325000  0.025000    576.000000
 -0.325000  0.325000  0.025000    576.000000
 -0.275000  0.325000  0.025000    576.000000
 -0.225000  0.325000  0.025000    576.000000
 -0.175000  0.325000  0.025000    576.000000
 -0.125000  0.325000  0.025000    576.000000
 -0.075000  0.325000  0.025000    576.000000
 -0.025000  0.325000  0.025000    576.000000
  0.375000  0.375000  0.025000    288.000000
  0.425000  0.375000  0.025000    576.000000
  0.475000  0.375000  0.025000    576.000000
 -0.475000  0.375000  0.025000    576.000000
 -0.425000  0.375000  0.025000    576.000000
 -0.375000  0.375000  0.025000    576.000000
 -0.325000  0.375000  0.025000    576.000000
 -0.275000  0.375000  0.025000    576.000000
 -0.225000  0.375000  0.025000    576.000000
 -0.175000  0.375000  0.025000    576.000000
 -0.125000  0.375000  0.025000    576.000000
 -0.075000  0.375000  0.025000    576.000000
 -0.025000  0.375000  0.025000    576.000000
  0.425000  0.425000  0.025000    288.000000
  0.475000  0.425000  0.025000    576.000000
 -0.475000  0.425000  0.025000    576.000000
 -0.425000  0.425000  0.025000    576.000000
 -0.375000  0.425000  0.025000    576.000000
 -0.325000  0.425000  0.025000    576.000000
 -0.275000  0.425000  0.025000    576.000000
 -0.225000  0.425000  0.025000    576.000000
 -0.175000  0.425000  0.025000    576.000000
 -0.125000  0.425000  0.025000    576.000000
 -0.075000  0.425000  0.025000    576.000000
 -0.025000  0.425000  0.025000    576.000000
  0.475000  0.475000  0.025000    288.000000
 -0.475000  0.475000  0.025000    576.000000
 -0.425000  0.475000  0.025000    576.000000
 -0.375000  0.475000  0.025000    576.000000
 -0.325000  0.475000  0.025000    576.000000
 -0.275000  0.475000  0.025000    576.000000
 -0.225000  0.475000  0.025000    576.000000
 -0.175000  0.475000  0.025000    576.000000
 -0.125000  0.475000  0.025000    576.000000
 -0.075000  0.475000  0.025000    576.000000
 -0.025000  0.475000  0.025000    576.000000
 -0.475000 -0.475000  0.025000    288.000000
 -0.425000 -0.475000  0.025000    576.000000
 -0.375000 -0.475000  0.025000    576.000000
 -0.325000 -0.475000  0.025000    576.000000
 -0.275000 -0.475000  0.025000    576.000000
 -0.225000 -0.475000  0.025000    576.000000
 -0.175000 -0.475000  0.025000    576.000000
 -0.125000 -0.475000  0.025000    576.000000
 -0.075000 -0.475000  0.025000    576.000000
 -0.425000 -0.425000  0.025000    288.000000
 -0.375000 -0.425000  0.025000    576.000000
 -0.325000 -0.425000  0.025000    576.000000
 -0.275000 -0.425000  0.025000    576.000000
 -0.225000 -0.425000  0.025000    576.000000
 -0.175000 -0.425000  0.025000    576.000000
 -0.125000 -0.425000  0.025000    576.000000
 -0.075000 -0.425000  0.025000    576.000000
 -0.375000 -0.375000  0.025000    288.000000
 -0.325000 -0.375000  0.025000    576.000000
 -0.275000 -0.375000  0.025000    576.000000
 -0.225000 -0.375000  0.025000    576.000000
 -0.175000 -0.375000  0.025000    576.000000
 -0.125000 -0.375000  0.025000    576.000000
 -0.075000 -0.375000  0.025000    576.000000
 -0.325000 -0.325000  0.025000    288.000000
 -0.275000 -0.325000  0.025000    576.000000
 -0.225000 -0.325000  0.025000    576.000000
 -0.175000 -0.325000  0.025000    576.000000
 -0.125000 -0.325000  0.025000    576.000000
 -0.075000 -0.325000  0.025000    576.000000
 -0.275000 -0.275000  0.025000    288.000000
 -0.225000 -0.275000  0.025000    576.000000
 -0.175000 -0.275000  0.025000    576.000000
 -0.125000 -0.275000  0.025000    576.000000
 -0.075000 -0.275000  0.025000    576.000000
 -0.225000 -0.225000  0.025000    288.000000
 -0.175000 -0.225000  0.025000    576.000000
 -0.125000 -0.225000  0.025000    576.000000
 -0.075000 -0.225000  0.025000    576.000000
 -0.175000 -0.175000  0.025000    288.000000
 -0.125000 -0.175000  0.025000    576.000000
 -0.075000 -0.175000  0.025000    576.000000
 -0.125000 -0.125000  0.025000    288.000000
 -0.075000 -0.125000  0.025000    576.000000
 -0.075000 -0.075000  0.025000    288.000000
  0.075000  0.075000  0.075000     96.000000
  0.125000  0.075000  0.075000    288.000000
  0.175000  0.075000  0.075000    288.000000
  0.225000  0.075000  0.075000    288.000000
  0.275000  0.075000  0.075000    288.000000
  0.325000  0.075000  0.075000    288.000000
  0.375000  0.075000  0.075000    288.000000
  0.425000  0.075000  0.075000    288.000000
  0.475000  0.075000  0.075000    288.000000
 -0.475000  0.075000  0.075000    288.000000
 -0.425000  0.075000  0.075000    288.000000
 -0.375000  0.075000  0.075000    288.000000
 -0.325000  0.075000  0.075000    288.000000
 -0.275000  0.075000  0.075000    288.000000
 -0.225000  0.075000  0.075000    288.000000
 -0.175000  0.075000  0.075000    288.000000
 -0.125000  0.075000  0.075000    288.000000
 -0.075000  0.075000  0.075000    288.000000
  0.125000  0.125000  0.075000    288.000000
  0.175000  0.125000  0.075000    576.000000
  0.225000  0.125000  0.075000    576.000000
  0.275000  0.125000  0.075000    576.000000
  0.325000  0.125000  0.075000    576.000000
  0.375000  0.125000  0.075000    576.000000
  0.425000  0.125000  0.075000    576.000000
  0.475000  0.125000  0.075000    576.000000
 -0.475000  0.125000  0.075000    576.000000
 -0.425000  0.125000  0.075000    576.000000
 -0.375000  0.125000  0.075000    576.000000
 -0.325000  0.125000  0.075000    576.000000
 -0.275000  0.125000  0.075000    576.000000
 -0.225000  0.125000  0.075000    576.000000
 -0.175000  0.125000  0.075000    576.000000
 -0.125000  0.125000  0.075000    576.000000
 -0.075000  0.125000  0.075000    576.000000
  0.175000  0.175000  0.075000    288.000000
  0.225000  0.175000  0.075000    576.000000
  0.275000  0.175000  0.075000    576.000000
  0.325000  0.175000  0.075000    576.000000
  0.375000  0.175000  0.075000    576.000000
  0.425000  0.175000  0.075000    576.000000
  0.475000  0.175000  0.075000    576.000000
 -0.475000  0.175000  0.075000    576.000000
 -0.425000  0.175000  0.075000    576.000000
 -0.375000  0.175000  0.075000    576.000000
 -0.325000  0.175000  0.075000    576.000000
 -0.275000  0.175000  0.075000    576.000000
 -0.225000  0.175000  0.075000    576.000000
 -0.175000  0.175000  0.075000    576.000000
 -0.125000  0.175000  0.075000    576.000000
 -0.075000  0.175000  0.075000    576.000000
  0.225000  0.225000  0.075000    288.000000
  0.275000  0.225000  0.075000    576.000000
  0.325000  0.225000  0.075000    576.000000
  0.375000  0.225000  0.075000    576.000000
  0.425000  0.225000  0.075000    576.000000
  0.475000  0.225000  0.075000    576.000000
 -0.475000  0.225000  0.075000    576.000000
 -0.425000  0.225000  0.075000    576.000000
 -0.375000  0.225000  0.075000    576.000000
 -0.325000  0.225000  0.075000    576.000000
 -0.275000  0.225000  0.075000    576.000000
 -0.225000  0.225000  0.075000    576.000000
 -0.175000  0.225000  0.075000    576.000000
 -0.125000  0.225000  0.075000    576.000000
 -0.075000  0.225000  0.075000    576.000000
  0.275000  0.275000  0.075000    288.000000
  0.325000  0.275000  0.075000    576.000000
  0.375000  0.275000  0.075000    576.000000
  0.425000  0.275000  0.075000    576.000000
  0.475000  0.275000  0.075000    576.000000
 -0.475000  0.275000  0.075000    576.000000
 -0.425000  0.275000  0.075000    576.000000
 -0.375000  0.275000  0.075000    576.000000
 -0.325000  0.275000  0.075000    576.000000
 -0.275000  0.275000  0.075000    576.000000
 -0.225000  0.275000  0.075000    576.000000
 -0.175000  0.275000  0.075000    576.000000
 -0.125000  0.275000  0.075000    576.000000
 -0.075000  0.275000  0.075000    576.000000
  0.325000  0.325000  0.075000    288.000000
  0.375000  0.325000  0.075000    576.000000
  0.425000  0.325000  0.075000    576.000000
  0.475000  0.325000  0.075000    576.000000
 -0.475000  0.325000  0.075000    576.000000
 -0.425000  0.325000  0.075000    576.000000
 -0.375000  0.325000  0.075000    576.000000
 -0.325000  0.325000  0.075000    576.000000
 -0.275000  0.325000  0.075000    576.000000
 -0.225000  0.325000  0.075000    576.000000
 -0.175000  0.325000  0.075000    576.000000
 -0.125000  0.325000  0.075000    576.000000
 -0.075000  0.325000  0.075000    576.000000
  0.375000  0.375000  0.075000    288.000000
  0.425000  0.375000  0.075000    576.000000
  0.475000  0.375000  0.075000    576.000000
 -0.475000  0.375000  0.075000    576.000000
 -0.425000  0.375000  0.075000    576.000000
 -0.375000  0.375000  0.075000    576.000000
 -0.325000  0.375000  0.075000    576.000000
 -0.275000  0.375000  0.075000    576.000000
 -0.225000  0.375000  0.075000    576.000000
 -0.175000  0.375000  0.075000    576.000000
 -0.125000  0.375000  0.075000    576.000000
 -0.075000  0.375000  0.075000    576.000000
  0.425000  0.425000  0.075000    288.000000
  0.475000  0.425000  0.075000    576.000000
 -0.475000  0.425000  0.075000    576.000000
 -0.425000  0.425000  0.075000    576.000000
 -0.375000  0.425000  0.075000    576.000000
 -0.325000  0.425000  0.075000    576.000000
 -0.275000  0.425000  0.075000    576.000000
 -0.225000  0.425000  0.075000    576.000000
 -0.175000  0.425000  0.075000    576.000000
 -0.125000  0.425000  0.075000    576.000000
 -0.075000  0.425000  0.075000    576.000000
  0.475000  0.475000  0.075000    288.000000
 -0.475000  0.475000  0.075000    576.000000
 -0.425000  0.475000  0.075000    576.000000
 -0.375000  0.475000  0.075000    576.000000
 -0.325000  0.475000  0.075000    576.000000
 -0.275000  0.475000  0.075000    576.000000
 -0.225000  0.475000  0.075000    576.000000
 -0.175000  0.475000  0.075000    576.000000
 -0.125000  0.475000  0.075000    576.000000
 -0.075000  0.475000  0.075000    576.000000
 -0.475000 -0.475000  0.075000    288.000000
 -0.425000 -0.475000  0.075000    576.000000
 -0.375000 -0.475000  0.075000    576.000000
 -0.325000 -0.475000  0.075000    576.000000
 -0.275000 -0.475000  0.075000    576.000000
 -0.225000 -0.475000  0.075000    576.000000
 -0.175000 -0.475000  0.075000    576.000000
 -0.125000 -0.475000  0.075000    576.000000
 -0.425000 -0.425000  0.075000    288.000000
 -0.375000 -0.425000  0.075000    576.000000
 -0.325000 -0.425000  0.075000    576.000000
 -0.275000 -0.425000  0.075000    576.000000
 -0.225000 -0.425000  0.075000    576.000000
 -0.175000 -0.425000  0.075000    576.000000
 -0.125000 -0.425000  0.075000    576.000000
 -0.375000 -0.375000  0.075000    288.000000
 -0.325000 -0.375000  0.075000    576.000000
 -0.275000 -0.375000  0.075000    576.000000
 -0.225000 -0.375000  0.075000    576.000000
 -0.175000 -0.375000  0.075000    576.000000
 -0.125000 -0.375000  0.075000    576.000000
 -0.325000 -0.325000  0.075000    288.000000
 -0.275000 -0.325000  0.075000    576.000000
 -0.225000 -0.325000  0.075000    576.000000
 -0.175000 -0.325000  0.075000    576.000000
 -0.125000 -0.325000  0.075000    576.000000
 -0.275000 -0.275000  0.075000    288.000000
 -0.225000 -0.275000  0.075000    576.000000
 -0.175000 -0.275000  0.075000    576.000000
 -0.125000 -0.275000  0.075000    576.000000
 -0.225000 -0.225000  0.075000    288.000000
 -0.175000 -0.225000  0.075000    576.000000
 -0.125000 -0.225000  0.075000    576.000000
 -0.175000 -0.175000  0.075000    288.000000
 -0.125000 -0.175000  0.075000    576.000000
 -0.125000 -0.125000  0.075000    288.000000
  0.125000  0.125000  0.125000     96.000000
  0.175000  0.125000  0.125000    288.000000
  0.225000  0.125000  0.125000    288.000000
  0.275000  0.125000  0.125000    288.000000
  0.325000  0.125000  0.125000    288.000000
  0.375000  0.125000  0.125000    288.000000
  0.425000  0.125000  0.125000    288.000000
  0.475000  0.125000  0.125000    288.000000
 -0.475000  0.125000  0.125000    288.000000
 -0.425000  0.125000  0.125000    288.000000
 -0.375000  0.125000  0.125000    288.000000
 -0.325000  0.125000  0.125000    288.000000
 -0.275000  0.125000  0.125000    288.000000
 -0.225000  0.125000  0.125000    288.000000
 -0.175000  0.125000  0.125000    288.000000
 -0.125000  0.125000  0.125000    288.000000
  0.175000  0.175000  0.125000    288.000000
  0.225000  0.175000  0.125000    576.000000
  0.275000  0.175000  0.125000    576.000000
  0.325000  0.175000  0.125000    576.000000
  0.375000  0.175000  0.125000    576.000000
  0.425000  0.175000  0.125000    576.000000
  0.475000  0.175000  0.125000    576.000000
 -0.475000  0.175000  0.125000    576.000000
 -0.425000  0.175000  0.125000    576.000000
 -0.375000  0.175000  0.125000    576.000000
 -0.325000  0.175000  0.125000    576.000000
 -0.275000  0.175000  0.125000    576.000000
 -0.225000  0.175000  0.125000    576.000000
 -0.175000  0.175000  0.125000    576.000000
 -0.125000  0.175000  0.125000    576.000000
  0.225000  0.225000  0.125000    288.000000
  0.275000  0.225000  0.125000    576.000000
  0.325000  0.225000  0.125000    576.000000
  0.375000  0.225000  0.125000    576.000000
  0.425000  0.225000  0.125000    576.000000
  0.475000  0.225000  0.125000    576.000000
 -0.475000  0.225000  0.125000    576.000000
 -0.425000  0.225000  0.125000    576.000000
 -0.375000  0.225000  0.125000    576.000000
 -0.325000  0.225000  0.125000    576.000000
 -0.275000  0.225000  0.125000    576.000000
 -0.225000  0.225000  0.125000    576.000000
 -0.175000  0.225000  0.125000    576.000000
 -0.125000  0.225000  0.125000    576.000000
  0.275000  0.275000  0.125000    288.000000
  0.325000  0.275000  0.125000    576.000000
  0.375000  0.275000  0.125000    576.000000
  0.425000  0.275000  0.125000    576.000000
  0.475000  0.275000  0.125000    576.000000
 -0.475000  0.275000  0.125000    576.000000
 -0.425000  0.275000  0.125000    576.000000
 -0.375000  0.275000  0.125000    576.000000
 -0.325000  0.275000  0.125000    576.000000
 -0.275000  0.275000  0.125000    576.000000
 -0.225000  0.275000  0.125000    576.000000
 -0.175000  0.275000  0.125000    576.000000
 -0.125000  0.275000  0.125000    576.000000
  0.325000  0.325000  0.125000    288.000000
  0.375000  0.325000  0.125000    576.000000
  0.425000  0.325000  0.125000    576.000000
  0.475000  0.325000  0.125000    576.000000
 -0.475000  0.325000  0.125000    576.000000
 -0.425000  0.325000  0.125000    576.000000
 -0.375000  0.325000  0.125000    576.000000
 -0.325000  0.325000  0.125000    576.000000
 -0.275000  0.325000  0.125000    576.000000
 -0.225000  0.325000  0.125000    576.000000
 -0.175000  0.325000  0.125000    576.000000
 -0.125000  0.325000  0.125000    576.000000
  0.375000  0.375000  0.125000    288.000000
  0.425000  0.375000  0.125000    576.000000
  0.475000  0.375000  0.125000    576.000000
 -0.475000  0.375000  0.125000    576.000000
 -0.425000  0.375000  0.125000    576.000000
 -0.375000  0.375000  0.125000    576.000000
 -0.325000  0.375000  0.125000    576.000000
 -0.275000  0.375000  0.125000    576.000000
 -0.225000  0.375000  0.125000    576.000000
 -0.175000  0.375000  0.125000    576.000000
 -0.125000  0.375000  0.125000    576.000000
  0.425000  0.425000  0.125000    288.000000
  0.475000  0.425000  0.125000    576.000000
 -0.475000  0.425000  0.125000    576.000000
 -0.425000  0.425000  0.125000    576.000000
 -0.375000  0.425000  0.125000    576.000000
 -0.325000  0.425000  0.125000    576.000000
 -0.275000  0.425000  0.125000    576.000000
 -0.225000  0.425000  0.125000    576.000000
 -0.175000  0.425000  0.125000    576.000000
 -0.125000  0.425000  0.125000    576.000000
  0.475000  0.475000  0.125000    288.000000
 -0.475000  0.475000  0.125000    576.000000
 -0.425000  0.475000  0.125000    576.000000
 -0.375000  0.475000  0.125000    576.000000
 -0.325000  0.475000  0.125000    576.000000
 -0.275000  0.475000  0.125000    576.000000
 -0.225000  0.475000  0.125000    576.000000
 -0.175000  0.475000  0.125000    576.000000
 -0.125000  0.475000  0.125000    576.000000
 -0.475000 -0.475000  0.125000    288.000000
 -0.425000 -0.475000  0.125000    576.000000
 -0.375000 -0.475000  0.125000    576.000000
 -0.325000 -0.475000  0.125000    576.000000
 -0.275000 -0.475000  0.125000    576.000000
 -0.225000 -0.475000  0.125000    576.000000
 -0.175000 -0.475000  0.125000    576.000000
 -0.425000 -0.425000  0.125000    288.000000
 -0.375000 -0.425000  0.125000    576.000000
 -0.325000 -0.425000  0.125000    576.000000
 -0.275000 -0.425000  0.125000    576.000000
 -0.225000 -0.425000  0.125000    576.000000
 -0.175000 -0.425000  0.125000    576.000000
 -0.375000 -0.375000  0.125000    288.000000
 -0.325000 -0.375000  0.125000    576.000000
 -0.275000 -0.375000  0.125000    576.000000
 -0.225000 -0.375000  0.125000    576.000000
 -0.175000 -0.375000  0.125000    576.000000
 -0.325000 -0.325000  0.125000    288.000000
 -0.275000 -0.325000  0.125000    576.000000
 -0.225000 -0.325000  0.125000    576.000000
 -0.175000 -0.325000  0.125000    576.000000
 -0.275000 -0.275000  0.125000    288.000000
 -0.225000 -0.275000  0.125000    576.000000
 -0.175000 -0.275000  0.125000    576.000000
 -0.225000 -0.225000  0.125000    288.000000
 -0.175000 -0.225000  0.125000    576.000000
 -0.175000 -0.175000  0.125000    288.000000
  0.175000  0.175000  0.175000     96.000000
  0.225000  0.175000  0.175000    288.000000
  0.275000  0.175000  0.175000    288.000000
  0.325000  0.175000  0.175000    288.000000
  0.375000  0.175000  0.175000    288.000000
  0.425000  0.175000  0.175000    288.000000
  0.475000  0.175000  0.175000    288.000000
 -0.475000  0.175000  0.175000    288.000000
 -0.425000  0.175000  0.175000    288.000000
 -0.375000  0.175000  0.175000    288.000000
 -0.325000  0.175000  0.175000    288.000000
 -0.275000  0.175000  0.175000    288.000000
 -0.225000  0.175000  0.175000    288.000000
 -0.175000  0.175000  0.175000    288.000000
  0.225000  0.225000  0.175000    288.000000
  0.275000  0.225000  0.175000    576.000000
  0.325000  0.225000  0.175000    576.000000
  0.375000  0.225000  0.175000    576.000000
  0.425000  0.225000  0.175000    576.000000
  0.475000  0.225000  0.175000    576.000000
 -0.475000  0.225000  0.175000    576.000000
 -0.425000  0.225000  0.175000    576.000000
 -0.375000  0.225000  0.175000    576.000000
 -0.325000  0.225000  0.175000    576.000000
 -0.275000  0.225000  0.175000    576.000000
 -0.225000  0.225000  0.175000    576.000000
 -0.175000  0.225000  0.175000    576.000000
  0.275000  0.275000  0.175000    288.000000
  0.325000  0.275000  0.175000    576.000000
  0.375000  0.275000  0.175000    576.000000
  0.425000  0.275000  0.175000    576.000000
  0.475000  0.275000  0.175000    576.000000
 -0.475000  0.275000  0.175000    576.000000
 -0.425000  0.275000  0.175000    576.000000
 -0.375000  0.275000  0.175000    576.000000
 -0.325000  0.275000  0.175000    576.000000
 -0.275000  0.275000  0.175000    576.000000
 -0.225000  0.275000  0.175000    576.000000
 -0.175000  0.275000  0.175000    576.000000
  0.325000  0.325000  0.175000    288.000000
  0.375000  0.325000  0.175000    576.000000
  0.425000  0.325000  0.175000    576.000000
  0.475000  0.325000  0.175000    576.000000
 -0.475000  0.325000  0.175000    576.000000
 -0.425000  0.325000  0.175000    576.000000
 -0.375000  0.325000  0.175000    576.000000
 -0.325000  0.325000  0.175000    576.000000
 -0.275000  0.325000  0.175000    576.000000
 -0.225000  0.325000  0.175000    576.000000
 -0.175000  0.325000  0.175000    576.000000
  0.375000  0.375000  0.175000    288.000000
  0.425000  0.375000  0.175000    576.000000
  0.475000  0.375000  0.175000    576.000000
 -0.475000  0.375000  0.175000    576.000000
 -0.425000  0.375000  0.175000    576.000000
 -0.375000  0.375000  0.175000    576.000000
 -0.325000  0.375000  0.175000    576.000000
 -0.275000  0.375000  0.175000    576.000000
 -0.225000  0.375000  0.175000    576.000000
 -0.175000  0.375000  0.175000    576.000000
  0.425000  0.425000  0.175000    288.000000
  0.475000  0.425000  0.175000    576.000000
 -0.475000  0.425000  0.175000    576.000000
 -0.425000  0.425000  0.175000    576.000000
 -0.375000  0.425000  0.175000    576.000000
 -0.325000  0.425000  0.175000    576.000000
 -0.275000  0.425000  0.175000    576.000000
 -0.225000  0.425000  0.175000    576.000000
 -0.175000  0.425000  0.175000    576.000000
  0.475000  0.475000  0.175000    288.000000
 -0.475000  0.475000  0.175000    576.000000
 -0.425000  0.475000  0.175000    576.000000
 -0.375000  0.475000  0.175000    576.000000
 -0.325000  0.475000  0.175000    576.000000
 -0.275000  0.475000  0.175000    576.000000
 -0.225000  0.475000  0.175000    576.000000
 -0.175000  0.475000  0.175000    576.000000
 -0.475000 -0.475000  0.175000    288.000000
 -0.425000 -0.475000  0.175000    576.000000
 -0.375000 -0.475000  0.175000    576.000000
 -0.325000 -0.475000  0.175000    576.000000
 -0.275000 -0.475000  0.175000    576.000000
 -0.225000 -0.475000  0.175000    576.000000
 -0.425000 -0.425000  0.175000    288.000000
 -0.375000 -0.425000  0.175000    576.000000
 -0.325000 -0.425000  0.175000    576.000000
 -0.275000 -0.425000  0.175000    576.000000
 -0.225000 -0.425000  0.175000    576.000000
 -0.375000 -0.375000  0.175000    288.000000
 -0.325000 -0.375000  0.175000    576.000000
 -0.275000 -0.375000  0.175000    576.000000
 -0.225000 -0.375000  0.175000    576.000000
 -0.325000 -0.325000  0.175000    288.000000
 -0.275000 -0.325000  0.175000    576.000000
 -0.225000 -0.325000  0.175000    576.000000
 -0.275000 -0.275000  0.175000    288.000000
 -0.225000 -0.275000  0.175000    576.000000
 -0.225000 -0.225000  0.175000    288.000000
  0.225000  0.225000  0.225000     96.000000
  0.275000  0.225000  0.225000    288.000000
  0.325000  0.225000  0.225000    288.000000
  0.375000  0.225000  0.225000    288.000000
  0.425000  0.225000  0.225000    288.000000
  0.475000  0.225000  0.225000    288.000000
 -0.475000  0.225000  0.225000    288.000000
 -0.425000  0.225000  0.225000    288.000000
 -0.375000  0.225000  0.225000    288.000000
 -0.325000  0.225000  0.225000    288.000000
 -0.275000  0.225000  0.225000    288.000000
 -0.225000  0.225000  0.225000    288.000000
  0.275000  0.275000  0.225000    288.000000
  0.325000  0.275000  0.225000    576.000000
  0.375000  0.275000  0.225000    576.000000
  0.425000  0.275000  0.225000    576.000000
  0.475000  0.275000  0.225000    576.000000
 -0.475000  0.275000  0.225000    576.000000
 -0.425000  0.275000  0.225000    576.000000
 -0.375000  0.275000  0.225000    576.000000
 -0.325000  0.275000  0.225000    576.000000
 -0.275000  0.275000  0.225000    576.000000
 -0.225000  0.275000  0.225000    576.000000
  0.325000  0.325000  0.225000    288.000000
  0.375000  0.325000  0.225000    576.000000
  0.425000  0.325000  0.225000    576.000000
  0.475000  0.325000  0.225000    576.000000
 -0.475000  0.325000  0.225000    576.000000
 -0.425000  0.325000  0.225000    576.000000
 -0.375000  0.325000  0.225000    576.000000
 -0.325000  0.325000  0.225000    576.000000
 -0.275000  0.325000  0.225000    576.000000
 -0.225000  0.325000  0.225000    576.000000
  0.375000  0.375000  0.225000    288.000000
  0.425000  0.375000  0.225000    576.000000
  0.475000  0.375000  0.225000    576.000000
 -0.475000  0.375000  0.225000    576.000000
 -0.425000  0.375000  0.225000    576.000000
 -0.375000  0.375000  0.225000    576.000000
 -0.325000  0.375000  0.225000    576.000000
 -0.275000  0.375000  0.225000    576.000000
 -0.225000  0.375000  0.225000    576.000000
  0.425000  0.425000  0.225000    288.000000
  0.475000  0.425000  0.225000    576.000000
 -0.475000  0.425000  0.225000    576.000000
 -0.425000  0.425000  0.225000    576.000000
 -0.375000  0.425000  0.225000    576.000000
 -0.325000  0.425000  0.225000    576.000000
 -0.275000  0.425000  0.225000    576.000000
 -0.225000  0.425000  0.225000    576.000000
  0.475000  0.475000  0.225000    288.000000
 -0.475000  0.475000  0.225000    576.000000
 -0.425000  0.475000  0.225000    576.000000
 -0.375000  0.475000  0.225000    576.000000
 -0.325000  0.475000  0.225000    576.000000
 -0.275000  0.475000  0.225000    576.000000
 -0.225000  0.475000  0.225000    576.000000
 -0.475000 -0.475000  0.225000    288.000000
 -0.425000 -0.475000  0.225000    576.000000
 -0.375000 -0.475000  0.225000    576.000000
 -0.325000 -0.475000  0.225000    576.000000
 -0.275000 -0.475000  0.225000    576.000000
 -0.425000 -0.425000  0.225000    288.000000
 -0.375000 -0.425000  0.225000    576.000000
 -0.325000 -0.425000  0.225000    576.000000
 -0.275000 -0.425000  0.225000    576.000000
 -0.375000 -0.375000  0.225000    288.000000
 -0.325000 -0.375000  0.225000    576.000000
 -0.275000 -0.375000  0.225000    576.000000
 -0.325000 -0.325000  0.225000    288.000000
 -0.275000 -0.325000  0.225000    576.000000
 -0.275000 -0.275000  0.225000    288.000000
  0.275000  0.275000  0.275000     96.000000
  0.325000  0.275000  0.275000    288.000000
  0.375000  0.275000  0.275000    288.000000
  0.425000  0.275000  0.275000    288.000000
  0.475000  0.275000  0.275000    288.000000
 -0.475000  0.275000  0.275000    288.000000
 -0.425000  0.275000  0.275000    288.000000
 -0.375000  0.275000  0.275000    288.000000
 -0.325000  0.275000  0.275000    288.000000
 -0.275000  0.275000  0.275000    288.000000
  0.325000  0.325000  0.275000    288.000000
  0.375000  0.325000  0.275000    576.000000
  0.425000  0.325000  0.275000    576.000000
  0.475000  0.325000  0.275000    576.000000
 -0.475000  0.325000  0.275000    576.000000
 -0.425000  0.325000  0.275000    576.000000
 -0.375000  0.325000  0.275000    576.000000
 -0.325000  0.325000  0.275000    576.000000
 -0.275000  0.325000  0.275000    576.000000
  0.375000  0.375000  0.275000    288.000000
  0.425000  0.375000  0.275000    576.000000
  0.475000  0.375000  0.275000    576.000000
 -0.475000  0.375000  0.275000    576.000000
 -0.425000  0.375000  0.275000    576.000000
 -0.375000  0.375000  0.275000    576.000000
 -0.325000  0.375000  0.275000    576.000000
 -0.275000  0.375000  0.275000    576.000000
  0.425000  0.425000  0.275000    288.000000
  0.475000  0.425000  0.275000    576.000000
 -0.475000  0.425000  0.275000    576.000000
 -0.425000  0.425000  0.275000    576.000000
 -0.375000  0.425000  0.275000    576.000000
 -0.325000  0.425000  0.275000    576.000000
 -0.275000  0.425000  0.275000    576.000000
  0.475000  0.475000  0.275000    288.000000
 -0.475000  0.475000  0.275000    576.000000
 -0.425000  0.475000  0.275000    576.000000
 -0.375000  0.475000  0.275000    576.000000
 -0.325000  0.475000  0.275000    576.000000
 -0.275000  0.475000  0.275000    576.000000
 -0.475000 -0.475000  0.275000    288.000000
 -0.425000 -0.475000  0.275000    576.000000
 -0.375000 -0.475000  0.275000    576.000000
 -0.325000 -0.475000  0.275000    576.000000
 -0.425000 -0.425000  0.275000    288.000000
 -0.375000 -0.425000  0.275000    576.000000
 -0.325000 -0.425000  0.275000    576.000000
 -0.375000 -0.375000  0.275000    288.000000
 -0.325000 -0.375000  0.275000    576.000000
 -0.325000 -0.325000  0.275000    288.000000
  0.325000  0.325000  0.325000     96.000000
  0.375000  0.325000  0.325000    288.000000
  0.425000  0.325000  0.325000    288.000000
  0.475000  0.325000  0.325000    288.000000
 -0.475000  0.325000  0.325000    288.000000
 -0.425000  0.325000  0.325000    288.000000
 -0.375000  0.325000  0.325000    288.000000
 -0.325000  0.325000  0.325000    288.000000
  0.375000  0.375000  0.325000    288.000000
  0.425000  0.375000  0.325000    576.000000
  0.475000  0.375000  0.325000    576.000000
 -0.475000  0.375000  0.325000    576.000000
 -0.425000  0.375000  0.325000    576.000000
 -0.375000  0.375000  0.325000    576.000000
 -0.325000  0.375000  0.325000    576.000000
  0.425000  0.425000  0.325000    288.000000
  0.475000  0.425000  0.325000    576.000000
 -0.475000  0.425000  0.325000    576.000000
 -0.425000  0.425000  0.325000    576.000000
 -0.375000  0.425000  0.325000    576.000000
 -0.325000  0.425000  0.325000    576.000000
  0.475000  0.475000  0.325000    288.000000
 -0.475000  0.475000  0.325000    576.000000
 -0.425000  0.475000  0.325000    576.000000
 -0.375000  0.475000  0.325000    576.000000
 -0.325000  0.475000  0.325000    576.000000
 -0.475000 -0.475000  0.325000    288.000000
 -0.425000 -0.475000  0.325000    576.000000
 -0.375000 -0.475000  0.325000    576.000000
 -0.425000 -0.425000  0.325000    288.000000
 -0.375000 -0.425000  0.325000    576.000000
 -0.375000 -0.375000  0.325000    288.000000
  0.375000  0.375000  0.375000     96.000000
  0.425000  0.375000  0.375000    288.000000
  0.475000  0.375000  0.375000    288.000000
 -0.475000  0.375000  0.375000    288.000000
 -0.425000  0.375000  0.375000    288.000000
 -0.375000  0.375000  0.375000    288.000000
  0.425000  0.425000  0.375000    288.000000
  0.475000  0.425000  0.375000    576.000000
 -0.475000  0.425000  0.375000    576.000000
 -0.425000  0.425000  0.375000    576.000000
 -0.375000  0.425000  0.375000    576.000000
  0.475000  0.475000  0.375000    288.000000
 -0.475000  0.475000  0.375000    576.000000
 -0.425000  0.475000  0.375000    576.000000
 -0.375000  0.475000  0.375000    576.000000
 -0.475000 -0.475000  0.375000    288.000000
 -0.425000 -0.475000  0.375000    576.000000
 -0.425000 -0.425000  0.375000    288.000000
  0.425000  0.425000  0.425000     96.000000
  0.475000  0.425000  0.425000    288.000000
 -0.475000  0.425000  0.425000    288.000000
 -0.425000  0.425000  0.425000    288.000000
  0.475000  0.475000  0.425000    288.000000
 -0.475000  0.475000  0.425000    576.000000
 -0.425000  0.475000  0.425000    576.000000
 -0.475000 -0.475000  0.425000    288.000000
  0.475000  0.475000  0.475000     96.000000
 -0.475000  0.475000  0.475000    288.000000
 
 Following cartesian coordinates:
            Coordinates               Weight
  0.025000  0.025000  0.025000     96.000000
 -0.025000  0.075000  0.075000    288.000000
 -0.075000  0.125000  0.125000    288.000000
 -0.125000  0.175000  0.175000    288.000000
 -0.175000  0.225000  0.225000    288.000000
 -0.225000  0.275000  0.275000    288.000000
 -0.275000  0.325000  0.325000    288.000000
 -0.325000  0.375000  0.375000    288.000000
 -0.375000  0.425000  0.425000    288.000000
 -0.425000  0.475000  0.475000    288.000000
  0.525000 -0.475000 -0.475000    288.000000
  0.475000 -0.425000 -0.425000    288.000000
  0.425000 -0.375000 -0.375000    288.000000
  0.375000 -0.325000 -0.325000    288.000000
  0.325000 -0.275000 -0.275000    288.000000
  0.275000 -0.225000 -0.225000    288.000000
  0.225000 -0.175000 -0.175000    288.000000
  0.175000 -0.125000 -0.125000    288.000000
  0.125000 -0.075000 -0.075000    288.000000
  0.075000 -0.025000 -0.025000    288.000000
  0.025000  0.025000  0.125000    288.000000
 -0.025000  0.075000  0.175000    576.000000
 -0.075000  0.125000  0.225000    576.000000
 -0.125000  0.175000  0.275000    576.000000
 -0.175000  0.225000  0.325000    576.000000
 -0.225000  0.275000  0.375000    576.000000
 -0.275000  0.325000  0.425000    576.000000
 -0.325000  0.375000  0.475000    576.000000
 -0.375000  0.425000  0.525000    576.000000
  0.575000 -0.525000 -0.425000    576.000000
  0.525000 -0.475000 -0.375000    576.000000
  0.475000 -0.425000 -0.325000    576.000000
  0.425000 -0.375000 -0.275000    576.000000
  0.375000 -0.325000 -0.225000    576.000000
  0.325000 -0.275000 -0.175000    576.000000
  0.275000 -0.225000 -0.125000    576.000000
  0.225000 -0.175000 -0.075000    576.000000
  0.175000 -0.125000 -0.025000    576.000000
  0.125000 -0.075000  0.025000    576.000000
  0.025000  0.025000  0.225000    288.000000
 -0.025000  0.075000  0.275000    576.000000
 -0.075000  0.125000  0.325000    576.000000
 -0.125000  0.175000  0.375000    576.000000
 -0.175000  0.225000  0.425000    576.000000
 -0.225000  0.275000  0.475000    576.000000
 -0.275000  0.325000  0.525000    576.000000
 -0.325000  0.375000  0.575000    576.000000
  0.625000 -0.575000 -0.375000    576.000000
  0.575000 -0.525000 -0.325000    576.000000
  0.525000 -0.475000 -0.275000    576.000000
  0.475000 -0.425000 -0.225000    576.000000
  0.425000 -0.375000 -0.175000    576.000000
  0.375000 -0.325000 -0.125000    576.000000
  0.325000 -0.275000 -0.075000    576.000000
  0.275000 -0.225000 -0.025000    576.000000
  0.225000 -0.175000  0.025000    576.000000
  0.175000 -0.125000  0.075000    576.000000
  0.025000  0.025000  0.325000    288.000000
 -0.025000  0.075000  0.375000    576.000000
 -0.075000  0.125000  0.425000    576.000000
 -0.125000  0.175000  0.475000    576.000000
 -0.175000  0.225000  0.525000    576.000000
 -0.225000  0.275000  0.575000    576.000000
 -0.275000  0.325000  0.625000    576.000000
  0.675000 -0.625000 -0.325000    576.000000
  0.625000 -0.575000 -0.275000    576.000000
  0.575000 -0.525000 -0.225000    576.000000
  0.525000 -0.475000 -0.175000    576.000000
  0.475000 -0.425000 -0.125000    576.000000
  0.425000 -0.375000 -0.075000    576.000000
  0.375000 -0.325000 -0.025000    576.000000
  0.325000 -0.275000  0.025000    576.000000
  0.275000 -0.225000  0.075000    576.000000
  0.225000 -0.175000  0.125000    576.000000
  0.025000  0.025000  0.425000    288.000000
 -0.025000  0.075000  0.475000    576.000000
 -0.075000  0.125000  0.525000    576.000000
 -0.125000  0.175000  0.575000    576.000000
 -0.175000  0.225000  0.625000    576.000000
 -0.225000  0.275000  0.675000    576.000000
  0.725000 -0.675000 -0.275000    576.000000
  0.675000 -0.625000 -0.225000    576.000000
  0.625000 -0.575000 -0.175000    576.000000
  0.575000 -0.525000 -0.125000    576.000000
  0.525000 -0.475000 -0.075000    576.000000
  0.475000 -0.425000 -0.025000    576.000000
  0.425000 -0.375000  0.025000    576.000000
  0.375000 -0.325000  0.075000    576.000000
  0.325000 -0.275000  0.125000    576.000000
  0.275000 -0.225000  0.175000    576.000000
  0.025000  0.025000  0.525000    288.000000
 -0.025000  0.075000  0.575000    576.000000
 -0.075000  0.125000  0.625000    576.000000
 -0.125000  0.175000  0.675000    576.000000
 -0.175000  0.225000  0.725000    576.000000
  0.775000 -0.725000 -0.225000    576.000000
  0.725000 -0.675000 -0.175000    576.000000
  0.675000 -0.625000 -0.125000    576.000000
  0.625000 -0.575000 -0.075000    576.000000
  0.575000 -0.525000 -0.025000    576.000000
  0.525000 -0.475000  0.025000    576.000000
  0.475000 -0.425000  0.075000    576.000000
  0.425000 -0.375000  0.125000    576.000000
  0.375000 -0.325000  0.175000    576.000000
  0.325000 -0.275000  0.225000    576.000000
  0.025000  0.025000  0.625000    288.000000
 -0.025000  0.075000  0.675000    576.000000
 -0.075000  0.125000  0.725000    576.000000
 -0.125000  0.175000  0.775000    576.000000
  0.825000 -0.775000 -0.175000    576.000000
  0.775000 -0.725000 -0.125000    576.000000
  0.725000 -0.675000 -0.075000    576.000000
  0.675000 -0.625000 -0.025000    576.000000
  0.625000 -0.575000  0.025000    576.000000
  0.575000 -0.525000  0.075000    576.000000
  0.525000 -0.475000  0.125000    576.000000
  0.475000 -0.425000  0.175000    576.000000
  0.425000 -0.375000  0.225000    576.000000
  0.375000 -0.325000  0.275000    576.000000
  0.025000  0.025000  0.725000    288.000000
 -0.025000  0.075000  0.775000    576.000000
 -0.075000  0.125000  0.825000    576.000000
  0.875000 -0.825000 -0.125000    576.000000
  0.825000 -0.775000 -0.075000    576.000000
  0.775000 -0.725000 -0.025000    576.000000
  0.725000 -0.675000  0.025000    576.000000
  0.675000 -0.625000  0.075000    576.000000
  0.625000 -0.575000  0.125000    576.000000
  0.575000 -0.525000  0.175000    576.000000
  0.525000 -0.475000  0.225000    576.000000
  0.475000 -0.425000  0.275000    576.000000
  0.425000 -0.375000  0.325000    576.000000
  0.025000  0.025000  0.825000    288.000000
 -0.025000  0.075000  0.875000    576.000000
  0.925000 -0.875000 -0.075000    576.000000
  0.875000 -0.825000 -0.025000    576.000000
  0.825000 -0.775000  0.025000    576.000000
  0.775000 -0.725000  0.075000    576.000000
  0.725000 -0.675000  0.125000    576.000000
  0.675000 -0.625000  0.175000    576.000000
  0.625000 -0.575000  0.225000    576.000000
  0.575000 -0.525000  0.275000    576.000000
  0.525000 -0.475000  0.325000    576.000000
  0.475000 -0.425000  0.375000    576.000000
  0.025000  0.025000  0.925000    288.000000
  0.975000 -0.925000 -0.025000    576.000000
  0.925000 -0.875000  0.025000    576.000000
  0.875000 -0.825000  0.075000    576.000000
  0.825000 -0.775000  0.125000    576.000000
  0.775000 -0.725000  0.175000    576.000000
  0.725000 -0.675000  0.225000    576.000000
  0.675000 -0.625000  0.275000    576.000000
  0.625000 -0.575000  0.325000    576.000000
  0.575000 -0.525000  0.375000    576.000000
  0.525000 -0.475000  0.425000    576.000000
  0.025000  0.025000 -0.975000    288.000000
 -0.025000  0.075000 -0.925000    576.000000
 -0.075000  0.125000 -0.875000    576.000000
 -0.125000  0.175000 -0.825000    576.000000
 -0.175000  0.225000 -0.775000    576.000000
 -0.225000  0.275000 -0.725000    576.000000
 -0.275000  0.325000 -0.675000    576.000000
 -0.325000  0.375000 -0.625000    576.000000
 -0.375000  0.425000 -0.575000    576.000000
  0.025000  0.025000 -0.875000    288.000000
 -0.025000  0.075000 -0.825000    576.000000
 -0.075000  0.125000 -0.775000    576.000000
 -0.125000  0.175000 -0.725000    576.000000
 -0.175000  0.225000 -0.675000    576.000000
 -0.225000  0.275000 -0.625000    576.000000
 -0.275000  0.325000 -0.575000    576.000000
 -0.325000  0.375000 -0.525000    576.000000
  0.025000  0.025000 -0.775000    288.000000
 -0.025000  0.075000 -0.725000    576.000000
 -0.075000  0.125000 -0.675000    576.000000
 -0.125000  0.175000 -0.625000    576.000000
 -0.175000  0.225000 -0.575000    576.000000
 -0.225000  0.275000 -0.525000    576.000000
 -0.275000  0.325000 -0.475000    576.000000
  0.025000  0.025000 -0.675000    288.000000
 -0.025000  0.075000 -0.625000    576.000000
 -0.075000  0.125000 -0.575000    576.000000
 -0.125000  0.175000 -0.525000    576.000000
 -0.175000  0.225000 -0.475000    576.000000
 -0.225000  0.275000 -0.425000    576.000000
  0.025000  0.025000 -0.575000    288.000000
 -0.025000  0.075000 -0.525000    576.000000
 -0.075000  0.125000 -0.475000    576.000000
 -0.125000  0.175000 -0.425000    576.000000
 -0.175000  0.225000 -0.375000    576.000000
  0.025000  0.025000 -0.475000    288.000000
 -0.025000  0.075000 -0.425000    576.000000
 -0.075000  0.125000 -0.375000    576.000000
 -0.125000  0.175000 -0.325000    576.000000
  0.025000  0.025000 -0.375000    288.000000
 -0.025000  0.075000 -0.325000    576.000000
 -0.075000  0.125000 -0.275000    576.000000
  0.025000  0.025000 -0.275000    288.000000
 -0.025000  0.075000 -0.225000    576.000000
  0.025000  0.025000 -0.175000    288.000000
  0.075000  0.075000  0.075000     96.000000
  0.025000  0.125000  0.125000    288.000000
 -0.025000  0.175000  0.175000    288.000000
 -0.075000  0.225000  0.225000    288.000000
 -0.125000  0.275000  0.275000    288.000000
 -0.175000  0.325000  0.325000    288.000000
 -0.225000  0.375000  0.375000    288.000000
 -0.275000  0.425000  0.425000    288.000000
 -0.325000  0.475000  0.475000    288.000000
  0.625000 -0.475000 -0.475000    288.000000
  0.575000 -0.425000 -0.425000    288.000000
  0.525000 -0.375000 -0.375000    288.000000
  0.475000 -0.325000 -0.325000    288.000000
  0.425000 -0.275000 -0.275000    288.000000
  0.375000 -0.225000 -0.225000    288.000000
  0.325000 -0.175000 -0.175000    288.000000
  0.275000 -0.125000 -0.125000    288.000000
  0.225000 -0.075000 -0.075000    288.000000
  0.075000  0.075000  0.175000    288.000000
  0.025000  0.125000  0.225000    576.000000
 -0.025000  0.175000  0.275000    576.000000
 -0.075000  0.225000  0.325000    576.000000
 -0.125000  0.275000  0.375000    576.000000
 -0.175000  0.325000  0.425000    576.000000
 -0.225000  0.375000  0.475000    576.000000
 -0.275000  0.425000  0.525000    576.000000
  0.675000 -0.525000 -0.425000    576.000000
  0.625000 -0.475000 -0.375000    576.000000
  0.575000 -0.425000 -0.325000    576.000000
  0.525000 -0.375000 -0.275000    576.000000
  0.475000 -0.325000 -0.225000    576.000000
  0.425000 -0.275000 -0.175000    576.000000
  0.375000 -0.225000 -0.125000    576.000000
  0.325000 -0.175000 -0.075000    576.000000
  0.275000 -0.125000 -0.025000    576.000000
  0.075000  0.075000  0.275000    288.000000
  0.025000  0.125000  0.325000    576.000000
 -0.025000  0.175000  0.375000    576.000000
 -0.075000  0.225000  0.425000    576.000000
 -0.125000  0.275000  0.475000    576.000000
 -0.175000  0.325000  0.525000    576.000000
 -0.225000  0.375000  0.575000    576.000000
  0.725000 -0.575000 -0.375000    576.000000
  0.675000 -0.525000 -0.325000    576.000000
  0.625000 -0.475000 -0.275000    576.000000
  0.575000 -0.425000 -0.225000    576.000000
  0.525000 -0.375000 -0.175000    576.000000
  0.475000 -0.325000 -0.125000    576.000000
  0.425000 -0.275000 -0.075000    576.000000
  0.375000 -0.225000 -0.025000    576.000000
  0.325000 -0.175000  0.025000    576.000000
  0.075000  0.075000  0.375000    288.000000
  0.025000  0.125000  0.425000    576.000000
 -0.025000  0.175000  0.475000    576.000000
 -0.075000  0.225000  0.525000    576.000000
 -0.125000  0.275000  0.575000    576.000000
 -0.175000  0.325000  0.625000    576.000000
  0.775000 -0.625000 -0.325000    576.000000
  0.725000 -0.575000 -0.275000    576.000000
  0.675000 -0.525000 -0.225000    576.000000
  0.625000 -0.475000 -0.175000    576.000000
  0.575000 -0.425000 -0.125000    576.000000
  0.525000 -0.375000 -0.075000    576.000000
  0.475000 -0.325000 -0.025000    576.000000
  0.425000 -0.275000  0.025000    576.000000
  0.375000 -0.225000  0.075000    576.000000
  0.075000  0.075000  0.475000    288.000000
  0.025000  0.125000  0.525000    576.000000
 -0.025000  0.175000  0.575000    576.000000
 -0.075000  0.225000  0.625000    576.000000
 -0.125000  0.275000  0.675000    576.000000
  0.825000 -0.675000 -0.275000    576.000000
  0.775000 -0.625000 -0.225000    576.000000
  0.725000 -0.575000 -0.175000    576.000000
  0.675000 -0.525000 -0.125000    576.000000
  0.625000 -0.475000 -0.075000    576.000000
  0.575000 -0.425000 -0.025000    576.000000
  0.525000 -0.375000  0.025000    576.000000
  0.475000 -0.325000  0.075000    576.000000
  0.425000 -0.275000  0.125000    576.000000
  0.075000  0.075000  0.575000    288.000000
  0.025000  0.125000  0.625000    576.000000
 -0.025000  0.175000  0.675000    576.000000
 -0.075000  0.225000  0.725000    576.000000
  0.875000 -0.725000 -0.225000    576.000000
  0.825000 -0.675000 -0.175000    576.000000
  0.775000 -0.625000 -0.125000    576.000000
  0.725000 -0.575000 -0.075000    576.000000
  0.675000 -0.525000 -0.025000    576.000000
  0.625000 -0.475000  0.025000    576.000000
  0.575000 -0.425000  0.075000    576.000000
  0.525000 -0.375000  0.125000    576.000000
  0.475000 -0.325000  0.175000    576.000000
  0.075000  0.075000  0.675000    288.000000
  0.025000  0.125000  0.725000    576.000000
 -0.025000  0.175000  0.775000    576.000000
  0.925000 -0.775000 -0.175000    576.000000
  0.875000 -0.725000 -0.125000    576.000000
  0.825000 -0.675000 -0.075000    576.000000
  0.775000 -0.625000 -0.025000    576.000000
  0.725000 -0.575000  0.025000    576.000000
  0.675000 -0.525000  0.075000    576.000000
  0.625000 -0.475000  0.125000    576.000000
  0.575000 -0.425000  0.175000    576.000000
  0.525000 -0.375000  0.225000    576.000000
  0.075000  0.075000  0.775000    288.000000
  0.025000  0.125000  0.825000    576.000000
  0.975000 -0.825000 -0.125000    576.000000
  0.925000 -0.775000 -0.075000    576.000000
  0.875000 -0.725000 -0.025000    576.000000
  0.825000 -0.675000  0.025000    576.000000
  0.775000 -0.625000  0.075000    576.000000
  0.725000 -0.575000  0.125000    576.000000
  0.675000 -0.525000  0.175000    576.000000
  0.625000 -0.475000  0.225000    576.000000
  0.575000 -0.425000  0.275000    576.000000
  0.075000  0.075000  0.875000    288.000000
  1.025000 -0.875000 -0.075000    576.000000
  0.975000 -0.825000 -0.025000    576.000000
  0.925000 -0.775000  0.025000    576.000000
  0.875000 -0.725000  0.075000    576.000000
  0.825000 -0.675000  0.125000    576.000000
  0.775000 -0.625000  0.175000    576.000000
  0.725000 -0.575000  0.225000    576.000000
  0.675000 -0.525000  0.275000    576.000000
  0.625000 -0.475000  0.325000    576.000000
  0.075000  0.075000 -1.025000    288.000000
  0.025000  0.125000 -0.975000    576.000000
 -0.025000  0.175000 -0.925000    576.000000
 -0.075000  0.225000 -0.875000    576.000000
 -0.125000  0.275000 -0.825000    576.000000
 -0.175000  0.325000 -0.775000    576.000000
 -0.225000  0.375000 -0.725000    576.000000
 -0.275000  0.425000 -0.675000    576.000000
  0.075000  0.075000 -0.925000    288.000000
  0.025000  0.125000 -0.875000    576.000000
 -0.025000  0.175000 -0.825000    576.000000
 -0.075000  0.225000 -0.775000    576.000000
 -0.125000  0.275000 -0.725000    576.000000
 -0.175000  0.325000 -0.675000    576.000000
 -0.225000  0.375000 -0.625000    576.000000
  0.075000  0.075000 -0.825000    288.000000
  0.025000  0.125000 -0.775000    576.000000
 -0.025000  0.175000 -0.725000    576.000000
 -0.075000  0.225000 -0.675000    576.000000
 -0.125000  0.275000 -0.625000    576.000000
 -0.175000  0.325000 -0.575000    576.000000
  0.075000  0.075000 -0.725000    288.000000
  0.025000  0.125000 -0.675000    576.000000
 -0.025000  0.175000 -0.625000    576.000000
 -0.075000  0.225000 -0.575000    576.000000
 -0.125000  0.275000 -0.525000    576.000000
  0.075000  0.075000 -0.625000    288.000000
  0.025000  0.125000 -0.575000    576.000000
 -0.025000  0.175000 -0.525000    576.000000
 -0.075000  0.225000 -0.475000    576.000000
  0.075000  0.075000 -0.525000    288.000000
  0.025000  0.125000 -0.475000    576.000000
 -0.025000  0.175000 -0.425000    576.000000
  0.075000  0.075000 -0.425000    288.000000
  0.025000  0.125000 -0.375000    576.000000
  0.075000  0.075000 -0.325000    288.000000
  0.125000  0.125000  0.125000     96.000000
  0.075000  0.175000  0.175000    288.000000
  0.025000  0.225000  0.225000    288.000000
 -0.025000  0.275000  0.275000    288.000000
 -0.075000  0.325000  0.325000    288.000000
 -0.125000  0.375000  0.375000    288.000000
 -0.175000  0.425000  0.425000    288.000000
 -0.225000  0.475000  0.475000    288.000000
  0.725000 -0.475000 -0.475000    288.000000
  0.675000 -0.425000 -0.425000    288.000000
  0.625000 -0.375000 -0.375000    288.000000
  0.575000 -0.325000 -0.325000    288.000000
  0.525000 -0.275000 -0.275000    288.000000
  0.475000 -0.225000 -0.225000    288.000000
  0.425000 -0.175000 -0.175000    288.000000
  0.375000 -0.125000 -0.125000    288.000000
  0.125000  0.125000  0.225000    288.000000
  0.075000  0.175000  0.275000    576.000000
  0.025000  0.225000  0.325000    576.000000
 -0.025000  0.275000  0.375000    576.000000
 -0.075000  0.325000  0.425000    576.000000
 -0.125000  0.375000  0.475000    576.000000
 -0.175000  0.425000  0.525000    576.000000
  0.775000 -0.525000 -0.425000    576.000000
  0.725000 -0.475000 -0.375000    576.000000
  0.675000 -0.425000 -0.325000    576.000000
  0.625000 -0.375000 -0.275000    576.000000
  0.575000 -0.325000 -0.225000    576.000000
  0.525000 -0.275000 -0.175000    576.000000
  0.475000 -0.225000 -0.125000    576.000000
  0.425000 -0.175000 -0.075000    576.000000
  0.125000  0.125000  0.325000    288.000000
  0.075000  0.175000  0.375000    576.000000
  0.025000  0.225000  0.425000    576.000000
 -0.025000  0.275000  0.475000    576.000000
 -0.075000  0.325000  0.525000    576.000000
 -0.125000  0.375000  0.575000    576.000000
  0.825000 -0.575000 -0.375000    576.000000
  0.775000 -0.525000 -0.325000    576.000000
  0.725000 -0.475000 -0.275000    576.000000
  0.675000 -0.425000 -0.225000    576.000000
  0.625000 -0.375000 -0.175000    576.000000
  0.575000 -0.325000 -0.125000    576.000000
  0.525000 -0.275000 -0.075000    576.000000
  0.475000 -0.225000 -0.025000    576.000000
  0.125000  0.125000  0.425000    288.000000
  0.075000  0.175000  0.475000    576.000000
  0.025000  0.225000  0.525000    576.000000
 -0.025000  0.275000  0.575000    576.000000
 -0.075000  0.325000  0.625000    576.000000
  0.875000 -0.625000 -0.325000    576.000000
  0.825000 -0.575000 -0.275000    576.000000
  0.775000 -0.525000 -0.225000    576.000000
  0.725000 -0.475000 -0.175000    576.000000
  0.675000 -0.425000 -0.125000    576.000000
  0.625000 -0.375000 -0.075000    576.000000
  0.575000 -0.325000 -0.025000    576.000000
  0.525000 -0.275000  0.025000    576.000000
  0.125000  0.125000  0.525000    288.000000
  0.075000  0.175000  0.575000    576.000000
  0.025000  0.225000  0.625000    576.000000
 -0.025000  0.275000  0.675000    576.000000
  0.925000 -0.675000 -0.275000    576.000000
  0.875000 -0.625000 -0.225000    576.000000
  0.825000 -0.575000 -0.175000    576.000000
  0.775000 -0.525000 -0.125000    576.000000
  0.725000 -0.475000 -0.075000    576.000000
  0.675000 -0.425000 -0.025000    576.000000
  0.625000 -0.375000  0.025000    576.000000
  0.575000 -0.325000  0.075000    576.000000
  0.125000  0.125000  0.625000    288.000000
  0.075000  0.175000  0.675000    576.000000
  0.025000  0.225000  0.725000    576.000000
  0.975000 -0.725000 -0.225000    576.000000
  0.925000 -0.675000 -0.175000    576.000000
  0.875000 -0.625000 -0.125000    576.000000
  0.825000 -0.575000 -0.075000    576.000000
  0.775000 -0.525000 -0.025000    576.000000
  0.725000 -0.475000  0.025000    576.000000
  0.675000 -0.425000  0.075000    576.000000
  0.625000 -0.375000  0.125000    576.000000
  0.125000  0.125000  0.725000    288.000000
  0.075000  0.175000  0.775000    576.000000
  1.025000 -0.775000 -0.175000    576.000000
  0.975000 -0.725000 -0.125000    576.000000
  0.925000 -0.675000 -0.075000    576.000000
  0.875000 -0.625000 -0.025000    576.000000
  0.825000 -0.575000  0.025000    576.000000
  0.775000 -0.525000  0.075000    576.000000
  0.725000 -0.475000  0.125000    576.000000
  0.675000 -0.425000  0.175000    576.000000
  0.125000  0.125000  0.825000    288.000000
  1.075000 -0.825000 -0.125000    576.000000
  1.025000 -0.775000 -0.075000    576.000000
  0.975000 -0.725000 -0.025000    576.000000
  0.925000 -0.675000  0.025000    576.000000
  0.875000 -0.625000  0.075000    576.000000
  0.825000 -0.575000  0.125000    576.000000
  0.775000 -0.525000  0.175000    576.000000
  0.725000 -0.475000  0.225000    576.000000
  0.125000  0.125000 -1.075000    288.000000
  0.075000  0.175000 -1.025000    576.000000
  0.025000  0.225000 -0.975000    576.000000
 -0.025000  0.275000 -0.925000    576.000000
 -0.075000  0.325000 -0.875000    576.000000
 -0.125000  0.375000 -0.825000    576.000000
 -0.175000  0.425000 -0.775000    576.000000
  0.125000  0.125000 -0.975000    288.000000
  0.075000  0.175000 -0.925000    576.000000
  0.025000  0.225000 -0.875000    576.000000
 -0.025000  0.275000 -0.825000    576.000000
 -0.075000  0.325000 -0.775000    576.000000
 -0.125000  0.375000 -0.725000    576.000000
  0.125000  0.125000 -0.875000    288.000000
  0.075000  0.175000 -0.825000    576.000000
  0.025000  0.225000 -0.775000    576.000000
 -0.025000  0.275000 -0.725000    576.000000
 -0.075000  0.325000 -0.675000    576.000000
  0.125000  0.125000 -0.775000    288.000000
  0.075000  0.175000 -0.725000    576.000000
  0.025000  0.225000 -0.675000    576.000000
 -0.025000  0.275000 -0.625000    576.000000
  0.125000  0.125000 -0.675000    288.000000
  0.075000  0.175000 -0.625000    576.000000
  0.025000  0.225000 -0.575000    576.000000
  0.125000  0.125000 -0.575000    288.000000
  0.075000  0.175000 -0.525000    576.000000
  0.125000  0.125000 -0.475000    288.000000
  0.175000  0.175000  0.175000     96.000000
  0.125000  0.225000  0.225000    288.000000
  0.075000  0.275000  0.275000    288.000000
  0.025000  0.325000  0.325000    288.000000
 -0.025000  0.375000  0.375000    288.000000
 -0.075000  0.425000  0.425000    288.000000
 -0.125000  0.475000  0.475000    288.000000
  0.825000 -0.475000 -0.475000    288.000000
  0.775000 -0.425000 -0.425000    288.000000
  0.725000 -0.375000 -0.375000    288.000000
  0.675000 -0.325000 -0.325000    288.000000
  0.625000 -0.275000 -0.275000    288.000000
  0.575000 -0.225000 -0.225000    288.000000
  0.525000 -0.175000 -0.175000    288.000000
  0.175000  0.175000  0.275000    288.000000
  0.125000  0.225000  0.325000    576.000000
  0.075000  0.275000  0.375000    576.000000
  0.025000  0.325000  0.425000    576.000000
 -0.025000  0.375000  0.475000    576.000000
 -0.075000  0.425000  0.525000    576.000000
  0.875000 -0.525000 -0.425000    576.000000
  0.825000 -0.475000 -0.375000    576.000000
  0.775000 -0.425000 -0.325000    576.000000
  0.725000 -0.375000 -0.275000    576.000000
  0.675000 -0.325000 -0.225000    576.000000
  0.625000 -0.275000 -0.175000    576.000000
  0.575000 -0.225000 -0.125000    576.000000
  0.175000  0.175000  0.375000    288.000000
  0.125000  0.225000  0.425000    576.000000
  0.075000  0.275000  0.475000    576.000000
  0.025000  0.325000  0.525000    576.000000
 -0.025000  0.375000  0.575000    576.000000
  0.925000 -0.575000 -0.375000    576.000000
  0.875000 -0.525000 -0.325000    576.000000
  0.825000 -0.475000 -0.275000    576.000000
  0.775000 -0.425000 -0.225000    576.000000
  0.725000 -0.375000 -0.175000    576.000000
  0.675000 -0.325000 -0.125000    576.000000
  0.625000 -0.275000 -0.075000    576.000000
  0.175000  0.175000  0.475000    288.000000
  0.125000  0.225000  0.525000    576.000000
  0.075000  0.275000  0.575000    576.000000
  0.025000  0.325000  0.625000    576.000000
  0.975000 -0.625000 -0.325000    576.000000
  0.925000 -0.575000 -0.275000    576.000000
  0.875000 -0.525000 -0.225000    576.000000
  0.825000 -0.475000 -0.175000    576.000000
  0.775000 -0.425000 -0.125000    576.000000
  0.725000 -0.375000 -0.075000    576.000000
  0.675000 -0.325000 -0.025000    576.000000
  0.175000  0.175000  0.575000    288.000000
  0.125000  0.225000  0.625000    576.000000
  0.075000  0.275000  0.675000    576.000000
  1.025000 -0.675000 -0.275000    576.000000
  0.975000 -0.625000 -0.225000    576.000000
  0.925000 -0.575000 -0.175000    576.000000
  0.875000 -0.525000 -0.125000    576.000000
  0.825000 -0.475000 -0.075000    576.000000
  0.775000 -0.425000 -0.025000    576.000000
  0.725000 -0.375000  0.025000    576.000000
  0.175000  0.175000  0.675000    288.000000
  0.125000  0.225000  0.725000    576.000000
  1.075000 -0.725000 -0.225000    576.000000
  1.025000 -0.675000 -0.175000    576.000000
  0.975000 -0.625000 -0.125000    576.000000
  0.925000 -0.575000 -0.075000    576.000000
  0.875000 -0.525000 -0.025000    576.000000
  0.825000 -0.475000  0.025000    576.000000
  0.775000 -0.425000  0.075000    576.000000
  0.175000  0.175000  0.775000    288.000000
  1.125000 -0.775000 -0.175000    576.000000
  1.075000 -0.725000 -0.125000    576.000000
  1.025000 -0.675000 -0.075000    576.000000
  0.975000 -0.625000 -0.025000    576.000000
  0.925000 -0.575000  0.025000    576.000000
  0.875000 -0.525000  0.075000    576.000000
  0.825000 -0.475000  0.125000    576.000000
  0.175000  0.175000 -1.125000    288.000000
  0.125000  0.225000 -1.075000    576.000000
  0.075000  0.275000 -1.025000    576.000000
  0.025000  0.325000 -0.975000    576.000000
 -0.025000  0.375000 -0.925000    576.000000
 -0.075000  0.425000 -0.875000    576.000000
  0.175000  0.175000 -1.025000    288.000000
  0.125000  0.225000 -0.975000    576.000000
  0.075000  0.275000 -0.925000    576.000000
  0.025000  0.325000 -0.875000    576.000000
 -0.025000  0.375000 -0.825000    576.000000
  0.175000  0.175000 -0.925000    288.000000
  0.125000  0.225000 -0.875000    576.000000
  0.075000  0.275000 -0.825000    576.000000
  0.025000  0.325000 -0.775000    576.000000
  0.175000  0.175000 -0.825000    288.000000
  0.125000  0.225000 -0.775000    576.000000
  0.075000  0.275000 -0.725000    576.000000
  0.175000  0.175000 -0.725000    288.000000
  0.125000  0.225000 -0.675000    576.000000
  0.175000  0.175000 -0.625000    288.000000
  0.225000  0.225000  0.225000     96.000000
  0.175000  0.275000  0.275000    288.000000
  0.125000  0.325000  0.325000    288.000000
  0.075000  0.375000  0.375000    288.000000
  0.025000  0.425000  0.425000    288.000000
 -0.025000  0.475000  0.475000    288.000000
  0.925000 -0.475000 -0.475000    288.000000
  0.875000 -0.425000 -0.425000    288.000000
  0.825000 -0.375000 -0.375000    288.000000
  0.775000 -0.325000 -0.325000    288.000000
  0.725000 -0.275000 -0.275000    288.000000
  0.675000 -0.225000 -0.225000    288.000000
  0.225000  0.225000  0.325000    288.000000
  0.175000  0.275000  0.375000    576.000000
  0.125000  0.325000  0.425000    576.000000
  0.075000  0.375000  0.475000    576.000000
  0.025000  0.425000  0.525000    576.000000
  0.975000 -0.525000 -0.425000    576.000000
  0.925000 -0.475000 -0.375000    576.000000
  0.875000 -0.425000 -0.325000    576.000000
  0.825000 -0.375000 -0.275000    576.000000
  0.775000 -0.325000 -0.225000    576.000000
  0.725000 -0.275000 -0.175000    576.000000
  0.225000  0.225000  0.425000    288.000000
  0.175000  0.275000  0.475000    576.000000
  0.125000  0.325000  0.525000    576.000000
  0.075000  0.375000  0.575000    576.000000
  1.025000 -0.575000 -0.375000    576.000000
  0.975000 -0.525000 -0.325000    576.000000
  0.925000 -0.475000 -0.275000    576.000000
  0.875000 -0.425000 -0.225000    576.000000
  0.825000 -0.375000 -0.175000    576.000000
  0.775000 -0.325000 -0.125000    576.000000
  0.225000  0.225000  0.525000    288.000000
  0.175000  0.275000  0.575000    576.000000
  0.125000  0.325000  0.625000    576.000000
  1.075000 -0.625000 -0.325000    576.000000
  1.025000 -0.575000 -0.275000    576.000000
  0.975000 -0.525000 -0.225000    576.000000
  0.925000 -0.475000 -0.175000    576.000000
  0.875000 -0.425000 -0.125000    576.000000
  0.825000 -0.375000 -0.075000    576.000000
  0.225000  0.225000  0.625000    288.000000
  0.175000  0.275000  0.675000    576.000000
  1.125000 -0.675000 -0.275000    576.000000
  1.075000 -0.625000 -0.225000    576.000000
  1.025000 -0.575000 -0.175000    576.000000
  0.975000 -0.525000 -0.125000    576.000000
  0.925000 -0.475000 -0.075000    576.000000
  0.875000 -0.425000 -0.025000    576.000000
  0.225000  0.225000  0.725000    288.000000
  1.175000 -0.725000 -0.225000    576.000000
  1.125000 -0.675000 -0.175000    576.000000
  1.075000 -0.625000 -0.125000    576.000000
  1.025000 -0.575000 -0.075000    576.000000
  0.975000 -0.525000 -0.025000    576.000000
  0.925000 -0.475000  0.025000    576.000000
  0.225000  0.225000 -1.175000    288.000000
  0.175000  0.275000 -1.125000    576.000000
  0.125000  0.325000 -1.075000    576.000000
  0.075000  0.375000 -1.025000    576.000000
  0.025000  0.425000 -0.975000    576.000000
  0.225000  0.225000 -1.075000    288.000000
  0.175000  0.275000 -1.025000    576.000000
  0.125000  0.325000 -0.975000    576.000000
  0.075000  0.375000 -0.925000    576.000000
  0.225000  0.225000 -0.975000    288.000000
  0.175000  0.275000 -0.925000    576.000000
  0.125000  0.325000 -0.875000    576.000000
  0.225000  0.225000 -0.875000    288.000000
  0.175000  0.275000 -0.825000    576.000000
  0.225000  0.225000 -0.775000    288.000000
  0.275000  0.275000  0.275000     96.000000
  0.225000  0.325000  0.325000    288.000000
  0.175000  0.375000  0.375000    288.000000
  0.125000  0.425000  0.425000    288.000000
  0.075000  0.475000  0.475000    288.000000
  1.025000 -0.475000 -0.475000    288.000000
  0.975000 -0.425000 -0.425000    288.000000
  0.925000 -0.375000 -0.375000    288.000000
  0.875000 -0.325000 -0.325000    288.000000
  0.825000 -0.275000 -0.275000    288.000000
  0.275000  0.275000  0.375000    288.000000
  0.225000  0.325000  0.425000    576.000000
  0.175000  0.375000  0.475000    576.000000
  0.125000  0.425000  0.525000    576.000000
  1.075000 -0.525000 -0.425000    576.000000
  1.025000 -0.475000 -0.375000    576.000000
  0.975000 -0.425000 -0.325000    576.000000
  0.925000 -0.375000 -0.275000    576.000000
  0.875000 -0.325000 -0.225000    576.000000
  0.275000  0.275000  0.475000    288.000000
  0.225000  0.325000  0.525000    576.000000
  0.175000  0.375000  0.575000    576.000000
  1.125000 -0.575000 -0.375000    576.000000
  1.075000 -0.525000 -0.325000    576.000000
  1.025000 -0.475000 -0.275000    576.000000
  0.975000 -0.425000 -0.225000    576.000000
  0.925000 -0.375000 -0.175000    576.000000
  0.275000  0.275000  0.575000    288.000000
  0.225000  0.325000  0.625000    576.000000
  1.175000 -0.625000 -0.325000    576.000000
  1.125000 -0.575000 -0.275000    576.000000
  1.075000 -0.525000 -0.225000    576.000000
  1.025000 -0.475000 -0.175000    576.000000
  0.975000 -0.425000 -0.125000    576.000000
  0.275000  0.275000  0.675000    288.000000
  1.225000 -0.675000 -0.275000    576.000000
  1.175000 -0.625000 -0.225000    576.000000
  1.125000 -0.575000 -0.175000    576.000000
  1.075000 -0.525000 -0.125000    576.000000
  1.025000 -0.475000 -0.075000    576.000000
  0.275000  0.275000 -1.225000    288.000000
  0.225000  0.325000 -1.175000    576.000000
  0.175000  0.375000 -1.125000    576.000000
  0.125000  0.425000 -1.075000    576.000000
  0.275000  0.275000 -1.125000    288.000000
  0.225000  0.325000 -1.075000    576.000000
  0.175000  0.375000 -1.025000    576.000000
  0.275000  0.275000 -1.025000    288.000000
  0.225000  0.325000 -0.975000    576.000000
  0.275000  0.275000 -0.925000    288.000000
  0.325000  0.325000  0.325000     96.000000
  0.275000  0.375000  0.375000    288.000000
  0.225000  0.425000  0.425000    288.000000
  0.175000  0.475000  0.475000    288.000000
  1.125000 -0.475000 -0.475000    288.000000
  1.075000 -0.425000 -0.425000    288.000000
  1.025000 -0.375000 -0.375000    288.000000
  0.975000 -0.325000 -0.325000    288.000000
  0.325000  0.325000  0.425000    288.000000
  0.275000  0.375000  0.475000    576.000000
  0.225000  0.425000  0.525000    576.000000
  1.175000 -0.525000 -0.425000    576.000000
  1.125000 -0.475000 -0.375000    576.000000
  1.075000 -0.425000 -0.325000    576.000000
  1.025000 -0.375000 -0.275000    576.000000
  0.325000  0.325000  0.525000    288.000000
  0.275000  0.375000  0.575000    576.000000
  1.225000 -0.575000 -0.375000    576.000000
  1.175000 -0.525000 -0.325000    576.000000
  1.125000 -0.475000 -0.275000    576.000000
  1.075000 -0.425000 -0.225000    576.000000
  0.325000  0.325000  0.625000    288.000000
  1.275000 -0.625000 -0.325000    576.000000
  1.225000 -0.575000 -0.275000    576.000000
  1.175000 -0.525000 -0.225000    576.000000
  1.125000 -0.475000 -0.175000    576.000000
  0.325000  0.325000 -1.275000    288.000000
  0.275000  0.375000 -1.225000    576.000000
  0.225000  0.425000 -1.175000    576.000000
  0.325000  0.325000 -1.175000    288.000000
  0.275000  0.375000 -1.125000    576.000000
  0.325000  0.325000 -1.075000    288.000000
  0.375000  0.375000  0.375000     96.000000
  0.325000  0.425000  0.425000    288.000000
  0.275000  0.475000  0.475000    288.000000
  1.225000 -0.475000 -0.475000    288.000000
  1.175000 -0.425000 -0.425000    288.000000
[...]
  band No.  band energies     occupation 
      1       2.5194      2.00000
      2       5.4781      2.00000
      3       5.9258      2.00000
      4       6.1655      2.00000
      5       8.2755     -0.00002
      6       9.7192     -0.00000
      7      18.5759      0.00000
      8      29.1800      0.00000

 k-point   746 :      -0.4750    0.3750    0.3750
  band No.  band energies     occupation 
      1       2.8988      2.00000
      2       5.1283      2.00000
      3       5.8649      2.00000
      4       6.1552      2.00000
      5       8.2575     -0.00003
      6      10.8020     -0.00000
      7      18.2067      0.00000
      8      27.3962      0.00000

 k-point   747 :      -0.4250    0.3750    0.3750
  band No.  band energies     occupation 
      1       3.3235      2.00000
      2       4.7073      2.00000
      3       5.5793      2.00000
      4       6.4671      2.00000
      5       8.2647     -0.00002
      6      12.0210     -0.00000
      7      17.9087      0.00000
      8      25.4284      0.00000

 k-point   748 :      -0.3750    0.3750    0.3750
  band No.  band energies     occupation 
      1       3.6508      2.00000
      2       4.2932      2.00000
      3       5.4163      2.00000
      4       6.8385      2.00000
      5       8.3060     -0.00001
      6      13.3605      0.00000
      7      17.6191      0.00000
      8      23.5631      0.00000

 k-point   749 :       0.4250    0.4250    0.3750
  band No.  band energies     occupation 
      1       2.2837      2.00000
      2       5.6408      2.00000
      3       5.7978      2.00000
      4       6.6024      2.00000
      5       8.6243     -0.00000
      6       8.7731     -0.00000
      7      18.4684      0.00000
      8      30.3666      0.00000

 k-point   750 :       0.4750    0.4250    0.3750
  band No.  band energies     occupation 
      1       2.4617      2.00000
      2       5.4733      2.00000
      3       5.8737      2.00000
      4       6.4476      2.00000
      5       8.5483     -0.00000
      6       9.5657     -0.00000
      7      18.0099      0.00000
      8      29.7142      0.00000

 k-point   751 :      -0.4750    0.4250    0.3750
  band No.  band energies     occupation 
      1       2.7648      2.00000
      2       5.1781      2.00000
      3       6.0376      2.00000
      4       6.1550      2.00000
      5       8.4795     -0.00000
      6      10.6348     -0.00000
      7      17.6548      0.00000
      8      28.3566      0.00000

 k-point   752 :      -0.4250    0.4250    0.3750
  band No.  band energies     occupation 
      1       3.1507      2.00000
      2       4.7866      2.00000
      3       5.7890      2.00000
      4       6.3501      2.00000
      5       8.4490     -0.00000
      6      11.8420     -0.00000
      7      17.3829      0.00000
      8      26.5712      0.00000

 k-point   753 :      -0.3750    0.4250    0.3750
  band No.  band energies     occupation 
      1       3.5187      2.00000
      2       4.3665      2.00000
      3       5.5264      2.00000
      4       6.7045      2.00000
      5       8.4578     -0.00000
      6      13.1413      0.00000
      7      17.1738      0.00000
      8      24.7006      0.00000

 k-point   754 :       0.4750    0.4750    0.3750
  band No.  band energies     occupation 
      1       2.5424      2.00000
      2       5.3474      2.00000
      3       5.9269      2.00000
      4       6.4272      2.00000
      5       8.7494     -0.00000
      6       9.8785     -0.00000
      7      17.5775      0.00000
      8      29.5687      0.00000

 k-point   755 :      -0.4750    0.4750    0.3750
  band No.  band energies     occupation 
      1       2.7567      2.00000
      2       5.1127      2.00000
      3       6.0603      2.00000
      4       6.2186      2.00000
      5       8.6937     -0.00000
      6      10.7414     -0.00000
      7      17.2548      0.00000
      8      28.7104      0.00000

 k-point   756 :      -0.4250    0.4750    0.3750
  band No.  band energies     occupation 
      1       3.0818      2.00000
      2       4.7802      2.00000
      3       5.8843      2.00000
      4       6.3233      2.00000
      5       8.6114     -0.00000
      6      11.8312     -0.00000
      7      17.0401      0.00000
      8      27.4212      0.00000

 k-point   757 :      -0.3750    0.4750    0.3750
  band No.  band energies     occupation 
      1       3.4592      2.00000
      2       4.3947      2.00000
      3       5.5639      2.00000
      4       6.6439      2.00000
      5       8.5791     -0.00000
      6      13.0008     -0.00000
      7      16.9522      0.00000
      8      25.8218      0.00000

 k-point   758 :      -0.4750   -0.4750    0.3750
  band No.  band energies     occupation 
      1       2.8775      2.00000
      2       4.9554      2.00000
      3       6.1119      2.00000
      4       6.1650      2.00000
      5       8.7210     -0.00000
      6      11.2665     -0.00000
      7      16.9910      0.00000
      8      28.0188      0.00000

 k-point   759 :      -0.4250   -0.4750    0.3750
  band No.  band energies     occupation 
      1       3.1195      2.00000
      2       4.7095      2.00000
      3       5.8791      2.00000
      4       6.3630      2.00000
      5       8.6432     -0.00000
      6      12.0864     -0.00000
      7      16.8746      0.00000
      8      26.9505      0.00000

 k-point   760 :      -0.4250   -0.4250    0.3750
  band No.  band energies     occupation 
      1       3.2658      2.00000
      2       4.5738      2.00000
      3       5.7628      2.00000
      4       6.4859      2.00000
      5       8.5576     -0.00000
      6      12.5718     -0.00000
      7      16.9030      0.00000
      8      25.8383      0.00000

 k-point   761 :       0.4250    0.4250    0.4250
  band No.  band energies     occupation 
      1       2.2341      2.00000
      2       5.7020      2.00000
      3       5.7020      2.00000
      4       7.1697      2.01000
      5       8.5897     -0.00000
      6       8.5897     -0.00000
      7      17.9378      0.00000
      8      30.4419      0.00000

 k-point   762 :       0.4750    0.4250    0.4250
  band No.  band energies     occupation 
      1       2.3298      2.00000
      2       5.6130      2.00000
      3       5.7284      2.00000
      4       7.0573      2.00091
      5       8.5629     -0.00000
      6       9.1699     -0.00000
      7      17.5285      0.00000
      8      30.1140      0.00000

 k-point   763 :      -0.4750    0.4250    0.4250
  band No.  band energies     occupation 
      1       2.5639      2.00000
      2       5.3754      2.00000
      3       5.8755      2.00000
      4       6.6010      2.00000
      5       8.5465     -0.00000
      6      10.1929     -0.00000
      7      17.2237      0.00000
      8      29.1799      0.00000

 k-point   764 :      -0.4250    0.4250    0.4250
  band No.  band energies     occupation 
      1       2.9031      2.00000
      2       5.0094      2.00000
      3       6.1320      2.00000
      4       6.1361      2.00000
      5       8.5452     -0.00000
      6      11.3583     -0.00000
      7      17.0138      0.00000
      8      27.6397      0.00000

 k-point   765 :       0.4750    0.4750    0.4250
  band No.  band energies     occupation 
      1       2.3391      2.00000
      2       5.5779      2.00000
      3       5.7282      2.00000
      4       7.1895      2.01410
      5       8.7312     -0.00000
      6       9.1806     -0.00000
      7      17.1823      0.00000
      8      30.1041      0.00000

 k-point   766 :      -0.4750    0.4750    0.4250
  band No.  band energies     occupation 
      1       2.4933      2.00000
      2       5.4153      2.00000
      3       5.8257      2.00000
      4       6.8224      2.00000
      5       8.6855     -0.00000
      6       9.9897     -0.00000
      7      16.9529      0.00000
      8      29.5838      0.00000

 k-point   767 :      -0.4250    0.4750    0.4250
  band No.  band energies     occupation 
      1       2.7723      2.00000
      2       5.1124      2.00000
      3       6.0405      2.00000
      4       6.3265      2.00000
      5       8.6477     -0.00000
      6      11.0232     -0.00000
      7      16.8400      0.00000
      8      28.4928      0.00000

 k-point   768 :      -0.4750   -0.4750    0.4250
  band No.  band energies     occupation 
      1       2.5654      2.00000
      2       5.3305      2.00000
      3       5.8768      2.00000
      4       6.6922      2.00000
      5       8.7116     -0.00000
      6      10.3124     -0.00000
      7      16.8243      0.00000
      8      29.3080      0.00000

 k-point   769 :       0.4750    0.4750    0.4750
  band No.  band energies     occupation 
      1       2.2694      2.00000
      2       5.6530      2.00000
      3       5.6530      2.00000
      4       7.7957     -0.04866
      5       8.7162     -0.00000
      6       8.7162     -0.00000
      7      16.9379      0.00000
      8      30.2429      0.00000

 k-point   770 :      -0.4750    0.4750    0.4750
  band No.  band energies     occupation 
      1       2.3485      2.00000
      2       5.5691      2.00000
      3       5.7042      2.00000
      4       7.3691      2.06847
      5       8.7103     -0.00000
      6       9.3532     -0.00000
      7      16.8180      0.00000
      8      30.0196      0.00000


--------------------------------------------------------------------------------------------------------


 soft charge-density along one line, spin component           1
         0         1         2         3         4         5         6         7         8         9
 total charge-density along one line
 
 pseudopotential strength for first ion, spin component:           1
 -4.011   0.000   0.000   0.000   0.000   0.000   0.000   0.000  -0.000   0.000  -1.093   0.000  -0.000   0.000  -0.000   0.000
  0.000   0.000  -4.011   0.000  -0.000   0.000   0.000   0.000   0.000   0.000  -0.000   0.000  -1.093   0.000   0.000   0.000
  0.000   0.000  -0.000   0.000  -3.989   0.000  -0.000   0.000  -0.000   0.000  -0.000   0.000   0.000   0.000  -1.099   0.000
  0.000   0.000   0.000   0.000  -0.000   0.000  -4.011   0.000  -0.000   0.000  -0.000   0.000  -0.000   0.000   0.000   0.000
 -0.000   0.000   0.000   0.000  -0.000   0.000  -0.000   0.000  -3.989   0.000   0.000   0.000  -0.000   0.000   0.000   0.000
 -1.093   0.000  -0.000   0.000  -0.000   0.000  -0.000   0.000   0.000   0.000   1.058   0.000   0.000   0.000   0.000   0.000
 -0.000   0.000  -1.093   0.000   0.000   0.000  -0.000   0.000  -0.000   0.000   0.000   0.000   1.058   0.000  -0.000   0.000
 -0.000   0.000   0.000   0.000  -1.099   0.000   0.000   0.000   0.000   0.000   0.000   0.000  -0.000   0.000   1.059   0.000
 -0.000   0.000  -0.000   0.000   0.000   0.000  -1.093   0.000   0.000   0.000   0.000   0.000   0.000   0.000  -0.000   0.000
  0.000   0.000  -0.000   0.000   0.000   0.000   0.000   0.000  -1.099   0.000  -0.000   0.000   0.000   0.000  -0.000   0.000
  0.000   0.000   0.000   0.000   0.000   0.000   0.000   0.000  -0.000   0.000   0.000   0.000   0.000   0.000  -0.000   0.000
 -0.000   0.000  -0.000   0.000  -0.000   0.000  -0.000   0.000   0.000   0.000   0.000   0.000   0.000   0.000   0.000   0.000
 -0.000   0.000   0.000   0.000   0.000   0.000   0.000   0.000   0.000   0.000   0.000   0.000  -0.000   0.000  -0.000   0.000
  0.000   0.000  -0.000   0.000   0.000   0.000  -0.000   0.000   0.000   0.000   0.000   0.000   0.000   0.000  -0.000   0.000
 -0.000   0.000   0.000   0.000   0.000   0.000   0.000   0.000  -0.000   0.000   0.000   0.000   0.000   0.000  -0.000   0.000
  0.000   0.000  -0.000   0.000  -0.000   0.000  -0.000   0.000  -0.000   0.000  -0.000   0.000   0.000   0.000   0.000   0.000
 -0.000   0.000   0.000   0.000  -0.000   0.000  -0.000   0.000  -0.000   0.000   0.000   0.000  -0.000   0.000   0.000   0.000
  0.000   0.000  -0.000   0.000  -0.000   0.000  -0.000   0.000   0.000   0.000  -0.000   0.000   0.000   0.000   0.000   0.000
 total augmentation occupancy for first ion, spin component:           1
  1.468  -0.000  -0.000  -0.000  -0.000   0.328  -0.000  -0.000   0.000   0.000   0.000  -0.000   0.000   0.000   0.000   0.000
 -0.000   1.468  -0.000  -0.000  -0.000  -0.000   0.328  -0.000  -0.000  -0.000  -0.000   0.000   0.000   0.000   0.000   0.000
  0.000  -0.000   1.459   0.000   0.000   0.000  -0.000   0.208  -0.000   0.000   0.000   0.000   0.000   0.000   0.000   0.000
 -0.000  -0.000   0.000   1.468   0.000  -0.000   0.000  -0.000   0.328   0.000  -0.000   0.000   0.000   0.000   0.000   0.000
 -0.000  -0.000   0.000   0.000   1.459  -0.000   0.000   0.000   0.000   0.208  -0.000   0.000   0.000   0.000   0.000   0.000
  0.328  -0.000  -0.000  -0.000   0.000   0.182   0.000  -0.000  -0.000   0.000   0.000  -0.000   0.000   0.000   0.000   0.000
 -0.000   0.328   0.000   0.000   0.000  -0.000   0.182  -0.000   0.000  -0.000   0.000   0.000   0.000   0.000   0.000   0.000
  0.000  -0.000   0.208  -0.000   0.000  -0.000   0.000   0.198   0.000   0.000   0.000   0.000   0.000   0.000   0.000   0.000
 -0.000  -0.000  -0.000   0.328   0.000  -0.000  -0.000   0.000   0.182   0.000  -0.000   0.000   0.000   0.000   0.000   0.000
 -0.000  -0.000   0.000   0.000   0.208   0.000   0.000   0.000   0.000   0.198  -0.000   0.000   0.000   0.000   0.000   0.000
  0.000  -0.000  -0.000   0.000   0.000   0.000   0.000   0.000   0.000  -0.000   1.668  -0.376   0.000   0.000   0.000   0.000
 -0.000   0.000   0.000  -0.000   0.000  -0.000   0.000   0.000   0.000   0.000  -0.376   0.109   0.000   0.000   0.000   0.000
  0.000   0.000   0.000   0.000   0.000   0.000   0.000   0.000   0.000   0.000   0.000   0.000   0.294   0.000  -0.000  -0.016
  0.000   0.000   0.000   0.000   0.000   0.000   0.000   0.000   0.000   0.000   0.000   0.000   0.000   0.294   0.000   0.000
  0.000   0.000   0.000   0.000   0.000   0.000   0.000   0.000   0.000   0.000   0.000   0.000   0.000  -0.000   0.294  -0.000
  0.000   0.000   0.000   0.000   0.000   0.000   0.000   0.000   0.000   0.000   0.000   0.000  -0.016   0.000  -0.000   0.001
  0.000   0.000   0.000   0.000   0.000   0.000   0.000   0.000   0.000   0.000   0.000   0.000   0.000  -0.016   0.000   0.000
  0.000   0.000   0.000   0.000   0.000   0.000   0.000   0.000   0.000   0.000   0.000   0.000   0.000  -0.000  -0.016   0.000


------------------------ aborting loop because EDIFF is reached ----------------------------------------


    CHARGE:  cpu time    0.0412: real time    0.0817
    FORLOC:  cpu time    0.0003: real time    0.0003
    FORNL :  cpu time    0.1059: real time    0.2055
    STRESS:  cpu time    0.3752: real time    0.7518
    FORCOR:  cpu time    0.0018: real time    0.0018
    FORHAR:  cpu time    0.0012: real time    0.0012
    MIXING:  cpu time    0.0004: real time    0.0004
    OFIELD:  cpu time    0.0000: real time    0.0000

  FORCE on cell =-STRESS in cart. coord.  units (eV):
  Direction    XX          YY          ZZ          XY          YZ          ZX
  --------------------------------------------------------------------------------------
  Alpha Z    70.89076    70.89076    70.89076
  Ewald    -209.86036  -209.86036  -209.86036     0.00000    -0.00000    -0.00000
  Hartree    26.85673    26.85673    26.85673     0.00000     0.00000     0.00000
  E(xc)     -39.51194   -39.51194   -39.51194    -0.00001    -0.00001    -0.00001
  Local      63.16332    63.16332    63.16332     0.00000     0.00000     0.00000
  n-local   -24.62688   -24.91392   -27.23608     1.13912    -1.13551    -0.00212
  augment    37.38370    37.38370    37.38370    -0.00003    -0.00003    -0.00003
  Kinetic    74.04939    77.57427    78.34796    -0.11823     0.12016     0.02435
  Fock        0.00000     0.00000     0.00000     0.00000     0.00000     0.00000
  -------------------------------------------------------------------------------------
  Total      -0.01289    -0.01289    -0.01289     0.00000     0.00000    -0.00000
  in kB      -2.18567    -2.18567    -2.18567     0.00000     0.00000    -0.00000
  external pressure =       -2.19 kB  Pullay stress =        0.00 kB


 VOLUME and BASIS-vectors are now :
 -----------------------------------------------------------------------------
  energy-cutoff  :      267.97
  volume of cell :        9.45
      direct lattice vectors                 reciprocal lattice vectors
     0.000000000  1.677840489  1.677840489    -0.298002106  0.298002106  0.298002106
     1.677840489 -0.000000000  1.677840489     0.298002106 -0.298002106  0.298002106
     1.677840489  1.677840489  0.000000000     0.298002106  0.298002106 -0.298002106

  length of vectors
     2.372824776  2.372824776  2.372824776     0.516154789  0.516154789  0.516154789


 FORCES acting on ions
    electron-ion (+dipol)            ewald-force                    non-local-force                 convergence-correction
 -----------------------------------------------------------------------------------------------
   0.148E-13 0.719E-14 0.554E-14   0.977E-15 0.904E-15 0.160E-14   0.000E+00 -.808E-26 0.323E-26   0.117E-14 0.170E-13 0.185E-13
 -----------------------------------------------------------------------------------------------
   0.148E-13 0.719E-14 0.554E-14   0.977E-15 0.904E-15 0.160E-14   0.000E+00 -.808E-26 0.323E-26   0.117E-14 0.170E-13 0.185E-13
 
 
 POSITION                                       TOTAL-FORCE (eV/Angst)
 -----------------------------------------------------------------------------------
      0.00000     -0.00000      0.00000         0.000000     -0.000000     -0.000000
 -----------------------------------------------------------------------------------
    total drift:                                0.000000      0.000000      0.000000


--------------------------------------------------------------------------------------------------------



  FREE ENERGIE OF THE ION-ELECTRON SYSTEM (eV)
  ---------------------------------------------------
  free  energy   TOTEN  =        -9.32802761 eV

  energy  without entropy=       -9.32837050  energy(sigma->0) =       -9.32814191
 
 d Force = 0.0000000E+00[ 0.000E+00, 0.000E+00]  d Energy = 0.2304820E-02-0.230E-02
 d Force = 0.0000000E+00[ 0.000E+00, 0.000E+00]  d Ewald  = 0.2817679E+01-0.282E+01


--------------------------------------------------------------------------------------------------------


    POTLOK:  cpu time    0.0039: real time    0.0123


--------------------------------------------------------------------------------------------------------




--------------------------------------------------------------------------------------------------------


  
 reached required accuracy - stopping structural energy minimisation
     LOOP+:  cpu time    4.1136: real time    7.7024
    4ORBIT:  cpu time    0.0000: real time    0.0000

 total amount of memory used by VASP MPI-rank0    54159. kBytes
=======================================================================

   base      :      30000. kBytes
   nonl-proj :      11200. kBytes
   fftplans  :        544. kBytes
   grid      :        672. kBytes
   one-center:         15. kBytes
   wavefun   :      11728. kBytes
 
  
  
 General timing and accounting informations for this job:
 ========================================================
  
                  Total CPU time used (sec):       29.287
                            User time (sec):       28.703
                          System time (sec):        0.584
                         Elapsed time (sec):       46.163
  
                   Maximum memory used (kb):       75644.
                   Average memory used (kb):           0.
  
                          Minor page faults:        13170
                          Major page faults:            0
                 Voluntary context switches:          331
