 running on    1 total cores
 distrk:  each k-point on    1 cores,    1 groups
 distr:  one band on    1 cores,    1 groups
 using from now: INCAR     
 vasp.5.4.4.18Apr17-6-g9f103f2a35 (build May 20 2018 16:52:39) complex          
  
 POSCAR found type information on POSCAR  Fe
 POSCAR found :  1 types and       1 ions
 scaLAPACK will be used
 LDA part: xc-table for Ceperly-Alder, standard interpolation
 POSCAR, INCAR and KPOINTS ok, starting setup
 FFT: planning ...
 WAVECAR not read
 WARNING: random wavefunctions but no delay for mixing, default for NELMDL
 entering main loop
       N       E                     dE             d eps       ncg     rms          rms(c)
DAV:   1     0.275168213254E+01    0.27517E+01   -0.30514E+03 12880   0.791E+02
DAV:   2    -0.107626954008E+02   -0.13514E+02   -0.12838E+02 12816   0.103E+02
DAV:   3    -0.108230979737E+02   -0.60403E-01   -0.60382E-01 16752   0.877E+00
DAV:   4    -0.108233250729E+02   -0.22710E-03   -0.22710E-03 13952   0.393E-01
DAV:   5    -0.108233266700E+02   -0.15971E-05   -0.15978E-05 16424   0.244E-02    0.885E+00
DAV:   6    -0.940724500813E+01    0.14161E+01   -0.11956E+01 12424   0.587E+01    0.813E-01
DAV:   7    -0.933385141359E+01    0.73394E-01   -0.31477E-01 12480   0.961E+00    0.602E-01
DAV:   8    -0.930931418411E+01    0.24537E-01   -0.17752E-02 17552   0.109E+00    0.584E-02
DAV:   9    -0.930921210878E+01    0.10208E-03   -0.43458E-04 13296   0.396E-01    0.270E-02
DAV:  10    -0.930922562426E+01   -0.13515E-04   -0.13249E-05 15520   0.567E-02    0.775E-04
DAV:  11    -0.930922559509E+01    0.29164E-07   -0.40189E-08  6656   0.216E-03
   1 F= -.93092256E+01 E0= -.93093270E+01  d E =-.930923E+01
 curvature:   0.00 expect dE= 0.000E+00 dE for cont linesearch  0.000E+00
 trial: gam= 0.00000 g(F)=  0.235E-63 g(S)=  0.809E-01 ort = 0.000E+00 (trialstep = 0.100E+01)
 search vector abs. value=  0.809E-01
 bond charge predicted
       N       E                     dE             d eps       ncg     rms          rms(c)
DAV:   1    -0.100295824186E+02   -0.72036E+00   -0.22218E+01 12320   0.836E+01    0.669E+00
DAV:   2    -0.933825020988E+01    0.69133E+00   -0.76003E+00 12360   0.379E+01    0.135E+00
DAV:   3    -0.925723796135E+01    0.81012E-01   -0.43799E-01 12432   0.104E+01    0.679E-01
DAV:   4    -0.923956928871E+01    0.17669E-01   -0.18948E-02 15376   0.118E+00    0.378E-02
DAV:   5    -0.923960236942E+01   -0.33081E-04   -0.13470E-04 14408   0.144E-01    0.360E-02
DAV:   6    -0.923958505579E+01    0.17314E-04   -0.25600E-05 15192   0.563E-02    0.920E-04
DAV:   7    -0.923958507834E+01   -0.22541E-07   -0.96153E-08  6696   0.271E-03
   2 F= -.92395851E+01 E0= -.92397005E+01  d E =0.696405E-01
 trial-energy change:    0.069641  1 .order    0.069553   -0.080886    0.219993
 step:   0.2688(harm=  0.2688)  dis= 0.00000  next Energy=    -9.320098 (dE=-0.109E-01)
 bond charge predicted
       N       E                     dE             d eps       ncg     rms          rms(c)
DAV:   1    -0.972434251428E+01   -0.48476E+00   -0.11176E+01 12320   0.576E+01    0.471E+00
DAV:   2    -0.935704909399E+01    0.36729E+00   -0.32506E+00 12384   0.287E+01    0.762E-01
DAV:   3    -0.932860492833E+01    0.28444E-01   -0.11549E-01 12888   0.574E+00    0.523E-01
DAV:   4    -0.931966035065E+01    0.89446E-02   -0.11848E-02 16104   0.830E-01    0.639E-02
DAV:   5    -0.931961603137E+01    0.44319E-04   -0.19679E-04 12992   0.205E-01    0.201E-02
DAV:   6    -0.931961301627E+01    0.30151E-05   -0.29264E-06 14008   0.150E-02    0.557E-04
DAV:   7    -0.931961304740E+01   -0.31125E-07   -0.56166E-08  6296   0.356E-03
   3 F= -.93196130E+01 E0= -.93197220E+01  d E =-.103875E-01
 curvature:  -0.13 expect dE=-0.144E-04 dE for cont linesearch -0.144E-04
 ZBRENT: interpolating
 opt :   0.2594  next Energy=    -9.319627 (dE=-0.104E-01)
 bond charge predicted
       N       E                     dE             d eps       ncg     rms          rms(c)
DAV:   1    -0.931969527324E+01   -0.82257E-04   -0.19318E-03 12328   0.789E-01    0.619E-02
DAV:   2    -0.931963377006E+01    0.61503E-04   -0.57672E-04 12392   0.371E-01    0.103E-02
DAV:   3    -0.931962846333E+01    0.53067E-05   -0.23107E-05 12712   0.814E-02    0.658E-03
DAV:   4    -0.931962694686E+01    0.15165E-05   -0.18195E-06 11152   0.115E-02    0.532E-04
DAV:   5    -0.931962694475E+01    0.21065E-08   -0.17520E-08  6168   0.127E-03
   4 F= -.93196269E+01 E0= -.93197357E+01  d E =-.104013E-01
 curvature:  -0.13 expect dE=-0.233E-07 dE for cont linesearch -0.233E-07
 trial: gam= 0.00000 g(F)=  0.147E-64 g(S)=  0.179E-06 ort =-0.120E-03 (trialstep = 0.852E+00)
 search vector abs. value=  0.180E-06
 reached required accuracy - stopping structural energy minimisation
