bcc Fe                                  
   2.79000000000000     
    -0.500000    0.500000    0.500000
     0.500000   -0.500000    0.500000
     0.500000    0.500000   -0.500000
   Fe
     1
Direct
  0.000000  0.000000  0.000000
 
   20   20   20
  91.229      86.102      72.496      54.618      36.843      22.201      12.156      6.7943      4.8611      4.2459    
  4.0421      4.2459      4.8611      6.7943      12.156      22.201      36.843      54.618      72.496      86.102    
  86.102      84.419      73.743      57.552      40.206      25.111      14.134      7.7526      5.1289      4.3335    
  4.0041      4.0700      4.5292      5.6928      9.4037      17.306      29.801      45.958      63.380      78.199    
  72.496      73.743      66.697      53.764      38.735      24.977      14.534      8.1195      5.2370      4.3155    
  3.8975      3.8396      4.1430      4.8261      6.8674      12.072      21.344      34.342      49.379      63.380    
  54.618      57.552      53.764      44.624      33.036      21.921      13.220      7.7051      5.0988      4.1958    
  3.7409      3.5944      3.7542      4.2288      5.1718      7.9052      13.714      22.852      34.342      45.958    
  36.843      40.206      38.735      33.036      25.085      17.130      10.776      6.7068      4.7484      3.9976    
  3.5580      3.3680      3.4205      3.7262      4.2907      5.4193      8.3124      13.714      21.344      29.801    
  22.201      25.111      24.977      21.921      17.130      12.136      8.1086      5.5504      4.3209      3.7551    
  3.3707      3.1796      3.1697      3.3413      3.7232      4.3139      5.4193      7.9052      12.072      17.306    
  12.156      14.134      14.534      13.220      10.776      8.1086      5.9507      4.6070      3.9355      3.5035    
  3.1962      3.0342      3.0017      3.0898      3.3201      3.7232      4.2907      5.1718      6.8674      9.4037    
  6.7943      7.7526      8.1195      7.7051      6.7068      5.5504      4.6070      4.0046      3.6001      3.2722    
  3.0475      2.9294      2.9014      2.9519      3.0898      3.3413      3.7262      4.2288      4.8261      5.6928    
  4.8611      5.1289      5.2370      5.0988      4.7484      4.3209      3.9355      3.6001      3.3077      3.0817    
  2.9343      2.8631      2.8557      2.9014      3.0017      3.1697      3.4205      3.7542      4.1430      4.5292    
  4.2459      4.3335      4.3155      4.1958      3.9976      3.7551      3.5035      3.2722      3.0817      2.9439    
  2.8636      2.8388      2.8631      2.9294      3.0342      3.1796      3.3680      3.5944      3.8396      4.0700    
  4.0421      4.0041      3.8975      3.7409      3.5580      3.3707      3.1962      3.0475      2.9343      2.8636    
  2.8395      2.8636      2.9343      3.0475      3.1962      3.3707      3.5580      3.7409      3.8975      4.0041    
  4.2459      4.0700      3.8396      3.5944      3.3680      3.1796      3.0342      2.9294      2.8631      2.8388    
  2.8636      2.9439      3.0817      3.2722      3.5035      3.7551      3.9976      4.1958      4.3155      4.3335    
  4.8611      4.5292      4.1430      3.7542      3.4205      3.1697      3.0017      2.9014      2.8557      2.8631    
  2.9343      3.0817      3.3077      3.6001      3.9355      4.3209      4.7484      5.0988      5.2370      5.1289    
  6.7943      5.6928      4.8261      4.2288      3.7262      3.3413      3.0898      2.9519      2.9014      2.9294    
  3.0475      3.2722      3.6001      4.0046      4.6070      5.5504      6.7068      7.7051      8.1195      7.7526    
  12.156      9.4037      6.8674      5.1718      4.2907      3.7232      3.3201      3.0898      3.0017      3.0342    
  3.1962      3.5035      3.9355      4.6070      5.9507      8.1086      10.776      13.220      14.534      14.134    
  22.201      17.306      12.072      7.9052      5.4193      4.3139      3.7232      3.3413      3.1697      3.1796    
  3.3707      3.7551      4.3209      5.5504      8.1086      12.136      17.130      21.921      24.977      25.111    
  36.843      29.801      21.344      13.714      8.3124      5.4193      4.2907      3.7262      3.4205      3.3680    
  3.5580      3.9976      4.7484      6.7068      10.776      17.130      25.085      33.036      38.735      40.206    
  54.618      45.958      34.342      22.852      13.714      7.9052      5.1718      4.2288      3.7542      3.5944    
  3.7409      4.1958      5.0988      7.7051      13.220      21.921      33.036      44.624      53.764      57.552    
  72.496      63.380      49.379      34.342      21.344      12.072      6.8674      4.8261      4.1430      3.8396    
  3.8975      4.3155      5.2370      8.1195      14.534      24.977      38.735      53.764      66.697      73.743    
  86.102      78.199      63.380      45.958      29.801      17.306      9.4037      5.6928      4.5292      4.0700    
  4.0041      4.3335      5.1289      7.7526      14.134      25.111      40.206      57.552      73.743      84.419    
  86.102      84.419      73.743      57.552      40.206      25.111      14.134      7.7526      5.1289      4.3335    
  4.0041      4.0700      4.5292      5.6928      9.4037      17.306      29.801      45.958      63.380      78.199    
  84.419      86.097      78.191      63.372      45.953      29.800      17.306      9.4039      5.6933      4.5298    
  4.0701      4.0037      4.3331      5.1289      7.7530      14.135      25.113      40.210      57.558      73.748    
  73.743      78.191      73.739      61.934      46.453      31.152      18.709      10.373      6.0955      4.6096    
  4.0566      3.8707      4.0565      4.6095      6.0954      10.373      18.709      31.154      46.459      61.940    
  57.552      63.372      61.934      53.764      41.570      28.715      17.813      10.224      6.1144      4.5617    
  3.9657      3.6948      3.7517      4.1398      4.9135      7.1940      12.515      21.457      33.404      46.456    
  40.206      45.953      46.453      41.570      33.038      23.450      15.033      9.0404      5.7136      4.3869    
  3.8128      3.5035      3.4667      3.7005      4.2153      5.2076      7.9120      13.327      21.456      31.152    
  25.111      29.800      31.152      28.715      23.450      17.131      11.432      7.3430      5.0726      4.1267    
  3.6212      3.3198      3.2324      3.3484      3.6890      4.2573      5.3315      7.9122      12.515      18.708    
  14.134      17.306      18.709      17.813      15.033      11.432      8.1090      5.7395      4.4428      3.8360    
  3.4170      3.1579      3.0590      3.1035      3.3032      3.6893      4.2576      5.2079      7.1939      10.372    
  7.7526      9.4039      10.373      10.224      9.0404      7.3430      5.7395      4.6066      3.9676      3.5471    
  3.2239      3.0246      2.9410      2.9550      3.0674      3.3035      3.6893      4.2154      4.9131      6.0948    
  5.1289      5.6933      6.0955      6.1144      5.7136      5.0726      4.4428      3.9676      3.6000      3.2887    
  3.0603      2.9238      2.8692      2.8811      2.9550      3.1036      3.3483      3.7002      4.1393      4.6092    
  4.3335      4.5298      4.6096      4.5617      4.3869      4.1267      3.8360      3.5471      3.2887      3.0818    
  2.9381      2.8599      2.8403      2.8692      2.9409      3.0588      3.2322      3.4664      3.7516      4.0567    
  4.0041      4.0701      4.0566      3.9657      3.8128      3.6212      3.4170      3.2239      3.0603      2.9381    
  2.8636      2.8382      2.8598      2.9237      3.0245      3.1578      3.3198      3.5036      3.6951      3.8712    
  4.0700      4.0037      3.8707      3.6948      3.5035      3.3198      3.1579      3.0246      2.9238      2.8599    
  2.8382      2.8635      2.9380      3.0602      3.2239      3.4172      3.6215      3.8132      3.9661      4.0567    
  4.5292      4.3331      4.0565      3.7517      3.4667      3.2324      3.0590      2.9410      2.8692      2.8403    
  2.8598      2.9380      3.0817      3.2888      3.5474      3.8364      4.1271      4.3871      4.5616      4.6092    
  5.6928      5.1289      4.6095      4.1398      3.7005      3.3484      3.1035      2.9550      2.8811      2.8692    
  2.9237      3.0602      3.2888      3.6003      3.9681      4.4431      5.0725      5.7131      6.1137      6.0948    
  9.4037      7.7530      6.0954      4.9135      4.2153      3.6890      3.3032      3.0674      2.9550      2.9409    
  3.0245      3.2239      3.5474      3.9681      4.6069      5.7392      7.3421      9.0392      10.223      10.372    
  17.306      14.135      10.373      7.1940      5.2076      4.2573      3.6893      3.3035      3.1036      3.0588    
  3.1578      3.4172      3.8364      4.4431      5.7392      8.1079      11.430      15.031      17.811      18.708    
  29.801      25.113      18.709      12.515      7.9120      5.3315      4.2576      3.6893      3.3483      3.2322    
  3.3198      3.6215      4.1271      5.0725      7.3421      11.430      17.129      23.447      28.713      31.152    
  45.958      40.210      31.154      21.457      13.327      7.9122      5.2079      4.2154      3.7002      3.4664    
  3.5036      3.8132      4.3871      5.7131      9.0392      15.031      23.447      33.036      41.570      46.456    
  63.380      57.558      46.459      33.404      21.456      12.515      7.1939      4.9131      4.1393      3.7516    
  3.6951      3.9661      4.5616      6.1137      10.223      17.811      28.713      41.570      53.767      61.940    
  78.199      73.748      61.940      46.456      31.152      18.708      10.372      6.0948      4.6092      4.0567    
  3.8712      4.0567      4.6092      6.0948      10.372      18.708      31.152      46.456      61.940      73.748    
  72.496      73.743      66.697      53.764      38.735      24.977      14.534      8.1195      5.2370      4.3155    
  3.8975      3.8396      4.1430      4.8261      6.8674      12.072      21.344      34.342      49.379      63.380    
  73.743      78.191      73.739      61.934      46.453      31.152      18.709      10.373      6.0955      4.6096    
  4.0566      3.8707      4.0565      4.6095      6.0954      10.373      18.709      31.154      46.459      61.940    
  66.697      73.739      72.489      63.372      49.374      34.340      21.345      12.072      6.8679      4.8263    
  4.1430      3.8396      3.8975      4.3155      5.2370      8.1197      14.534      24.979      38.739      53.767    
  53.764      61.934      63.372      57.552      46.456      33.405      21.458      12.516      7.1946      4.9133    
  4.1394      3.7516      3.6951      3.9661      4.5617      6.1138      10.223      17.812      28.715      41.570    
  38.735      46.453      49.374      46.456      38.739      28.718      19.038      11.528      6.9007      4.8092    
  4.0455      3.6208      3.4825      3.6208      4.0456      4.8092      6.9002      11.527      19.036      28.713    
  24.977      31.152      34.340      33.405      28.718      21.925      15.033      9.5509      6.1238      4.5364    
  3.8784      3.4656      3.2870      3.3279      3.5962      4.1029      4.9843      7.2111      11.527      17.811    
  14.534      18.709      21.345      21.458      19.038      15.033      10.777      7.3423      5.2028      4.1933    
  3.6666      3.3040      3.1246      3.1098      3.2573      3.5940      4.1227      4.9843      6.9001      10.223    
  8.1195      10.373      12.072      12.516      11.528      9.5509      7.3423      5.5493      4.4423      3.8612    
  3.4423      3.1519      2.9993      2.9650      3.0386      3.2387      3.5940      4.1029      4.8091      6.1137    
  5.2370      6.0955      6.8679      7.1946      6.9007      6.1238      5.2028      4.4423      3.9350      3.5471    
  3.2335      3.0214      2.9094      2.8799      2.9206      3.0386      3.2573      3.5962      4.0456      4.5616    
  4.3155      4.6096      4.8263      4.9133      4.8092      4.5364      4.1933      3.8612      3.5471      3.2724    
  3.0603      2.9219      2.8536      2.8429      2.8799      2.9650      3.1098      3.3279      3.6208      3.9661    
  3.8975      4.0566      4.1430      4.1394      4.0455      3.8784      3.6666      3.4423      3.2335      3.0603    
  2.9344      2.8598      2.8349      2.8536      2.9094      2.9993      3.1246      3.2870      3.4825      3.6951    
  3.8396      3.8707      3.8396      3.7516      3.6208      3.4656      3.3040      3.1519      3.0214      2.9219    
  2.8598      2.8387      2.8598      2.9219      3.0214      3.1519      3.3041      3.4656      3.6208      3.7516    
  4.1430      4.0565      3.8975      3.6951      3.4825      3.2870      3.1246      2.9993      2.9094      2.8536    
  2.8349      2.8598      2.9343      3.0603      3.2336      3.4424      3.6668      3.8785      4.0456      4.1393    
  4.8261      4.6095      4.3155      3.9661      3.6208      3.3279      3.1098      2.9650      2.8799      2.8429    
  2.8536      2.9219      3.0603      3.2724      3.5474      3.8615      4.1937      4.5366      4.8091      4.9131    
  6.8674      6.0954      5.2370      4.5617      4.0456      3.5962      3.2573      3.0386      2.9206      2.8799    
  2.9094      3.0214      3.2336      3.5474      3.9354      4.4428      5.2031      6.1236      6.9001      7.1939    
  12.072      10.373      8.1197      6.1138      4.8092      4.1029      3.5940      3.2387      3.0386      2.9650    
  2.9993      3.1519      3.4424      3.8615      4.4428      5.5497      7.3419      9.5497      11.527      12.515    
  21.344      18.709      14.534      10.223      6.9002      4.9843      4.1227      3.5940      3.2573      3.1098    
  3.1246      3.3041      3.6668      4.1937      5.2031      7.3419      10.775      15.031      19.036      21.456    
  34.342      31.154      24.979      17.812      11.527      7.2111      4.9843      4.1029      3.5962      3.3279    
  3.2870      3.4656      3.8785      4.5366      6.1236      9.5497      15.031      21.921      28.715      33.404    
  49.379      46.459      38.739      28.715      19.036      11.527      6.9001      4.8091      4.0456      3.6208    
  3.4825      3.6208      4.0456      4.8091      6.9001      11.527      19.036      28.715      38.739      46.459    
  63.380      61.940      53.767      41.570      28.713      17.811      10.223      6.1137      4.5616      3.9661    
  3.6951      3.7516      4.1393      4.9131      7.1939      12.515      21.456      33.404      46.459      57.558    
  54.618      57.552      53.764      44.624      33.036      21.921      13.220      7.7051      5.0988      4.1958    
  3.7409      3.5944      3.7542      4.2288      5.1718      7.9052      13.714      22.852      34.342      45.958    
  57.552      63.372      61.934      53.764      41.570      28.715      17.813      10.224      6.1144      4.5617    
  3.9657      3.6948      3.7517      4.1398      4.9135      7.1940      12.515      21.457      33.404      46.456    
  53.764      61.934      63.372      57.552      46.456      33.405      21.458      12.516      7.1946      4.9133    
  4.1394      3.7516      3.6951      3.9661      4.5617      6.1138      10.223      17.812      28.715      41.570    
  44.624      53.764      57.552      54.619      45.959      34.344      22.854      13.716      7.9055      5.1714    
  4.2284      3.7543      3.5948      3.7411      4.1955      5.0983      7.7048      13.220      21.921      33.036    
  33.036      41.570      46.456      45.959      40.212      31.157      21.459      13.328      7.9120      5.2073    
  4.2151      3.7005      3.4667      3.5035      3.8128      4.3868      5.7132      9.0394      15.031      23.447    
  21.921      28.715      33.405      34.344      31.157      24.981      17.814      11.527      7.2103      4.9835    
  4.1027      3.5965      3.3280      3.2868      3.4653      3.8786      4.5369      6.1238      9.5497      15.031    
  13.220      17.813      21.458      22.854      21.459      17.814      13.220      9.0383      6.1224      4.5968    
  3.9139      3.4570      3.1936      3.1113      3.1936      3.4570      3.9142      4.5977      6.1236      9.0392    
  7.7051      10.224      12.516      13.716      13.328      11.527      9.0383      6.7046      5.0710      4.1931    
  3.6821      3.3017      3.0738      2.9829      3.0087      3.1575      3.4568      3.9140      4.5366      5.7131    
  5.0988      6.1144      7.1946      7.9055      7.9120      7.2103      6.1224      5.0710      4.3199      3.8360    
  3.4424      3.1509      2.9744      2.8971      2.8994      2.9796      3.1574      3.4568      3.8785      4.3871    
  4.1958      4.5617      4.9133      5.1714      5.2073      4.9835      4.5968      4.1931      3.8360      3.5037    
  3.2241      3.0214      2.8997      2.8470      2.8486      2.8994      3.0086      3.1937      3.4656      3.8132    
  3.7409      3.9657      4.1394      4.2284      4.2151      4.1027      3.9139      3.6821      3.4424      3.2241    
  3.0477      2.9238      2.8536      2.8309      2.8471      2.8971      2.9830      3.1115      3.2870      3.5036    
  3.5944      3.6948      3.7516      3.7543      3.7005      3.5965      3.4570      3.3017      3.1509      3.0214    
  2.9238      2.8630      2.8403      2.8536      2.8998      2.9745      3.0738      3.1937      3.3279      3.4664    
  3.7542      3.7517      3.6951      3.5948      3.4667      3.3280      3.1936      3.0738      2.9744      2.8997    
  2.8536      2.8403      2.8631      2.9238      3.0214      3.1509      3.3015      3.4568      3.5962      3.7002    
  4.2288      4.1398      3.9661      3.7411      3.5035      3.2868      3.1113      2.9829      2.8971      2.8470    
  2.8309      2.8536      2.9238      3.0476      3.2239      3.4422      3.6820      3.9140      4.1029      4.2154    
  5.1718      4.9135      4.5617      4.1955      3.8128      3.4653      3.1936      3.0087      2.8994      2.8486    
  2.8471      2.8998      3.0214      3.2239      3.5035      3.8361      4.1937      4.5977      4.9843      5.2079    
  7.9052      7.1940      6.1138      5.0983      4.3868      3.8786      3.4570      3.1575      2.9796      2.8994    
  2.8971      2.9745      3.1509      3.4422      3.8361      4.3207      5.0724      6.1238      7.2111      7.9122    
  13.714      12.515      10.223      7.7048      5.7132      4.5369      3.9142      3.4568      3.1574      3.0086    
  2.9830      3.0738      3.3015      3.6820      4.1937      5.0724      6.7063      9.0394      11.527      13.327    
  22.852      21.457      17.812      13.220      9.0394      6.1238      4.5977      3.9140      3.4568      3.1937    
  3.1115      3.1937      3.4568      3.9140      4.5977      6.1238      9.0394      13.220      17.812      21.457    
  34.342      33.404      28.715      21.921      15.031      9.5497      6.1236      4.5366      3.8785      3.4656    
  3.2870      3.3279      3.5962      4.1029      4.9843      7.2111      11.527      17.812      24.979      31.154    
  45.958      46.456      41.570      33.036      23.447      15.031      9.0392      5.7131      4.3871      3.8132    
  3.5036      3.4664      3.7002      4.2154      5.2079      7.9122      13.327      21.457      31.154      40.210    
  36.843      40.206      38.735      33.036      25.085      17.130      10.776      6.7068      4.7484      3.9976    
  3.5580      3.3680      3.4205      3.7262      4.2907      5.4193      8.3124      13.714      21.344      29.801    
  40.206      45.953      46.453      41.570      33.038      23.450      15.033      9.0404      5.7136      4.3869    
  3.8128      3.5035      3.4667      3.7005      4.2153      5.2076      7.9120      13.327      21.456      31.152    
  38.735      46.453      49.374      46.456      38.739      28.718      19.038      11.528      6.9007      4.8092    
  4.0455      3.6208      3.4825      3.6208      4.0456      4.8092      6.9002      11.527      19.036      28.713    
  33.036      41.570      46.456      45.959      40.212      31.157      21.459      13.328      7.9120      5.2073    
  4.2151      3.7005      3.4667      3.5035      3.8128      4.3868      5.7132      9.0394      15.031      23.447    
  25.085      33.038      38.739      40.212      36.849      29.805      21.346      13.714      8.3114      5.4185    
  4.2903      3.7260      3.4205      3.3680      3.5580      3.9976      4.7482      6.7063      10.775      17.129    
  17.130      23.450      28.718      31.157      29.805      25.115      18.709      12.513      7.9100      5.3301    
  4.2570      3.6892      3.3483      3.2322      3.3197      3.6215      4.1270      5.0724      7.3419      11.430    
  10.776      15.033      19.038      21.459      21.346      18.709      14.532      10.220      6.8978      4.9830    
  4.1223      3.5940      3.2573      3.1097      3.1245      3.3041      3.6668      4.1937      5.2031      7.3421    
  6.7068      9.0404      11.528      13.328      13.714      12.513      10.220      7.7018      5.7111      4.5360    
  3.9142      3.4569      3.1575      3.0086      2.9830      3.0739      3.3015      3.6820      4.1937      5.0725    
  4.7484      5.7136      6.9007      7.9120      8.3114      7.9100      6.8978      5.7111      4.7472      4.1269    
  3.6671      3.3019      3.0597      2.9312      2.8923      2.9312      3.0596      3.3015      3.6668      4.1271    
  3.9976      4.3869      4.8092      5.2073      5.4185      5.3301      4.9830      4.5360      4.1269      3.7557    
  3.4176      3.1520      2.9745      2.8773      2.8428      2.8596      2.9312      3.0738      3.3041      3.6215    
  3.5580      3.8128      4.0455      4.2151      4.2903      4.2570      4.1223      3.9142      3.6671      3.4176    
  3.1967      3.0247      2.9095      2.8471      2.8276      2.8428      2.8922      2.9830      3.1246      3.3198    
  3.3680      3.5035      3.6208      3.7005      3.7260      3.6892      3.5940      3.4569      3.3019      3.1520    
  3.0247      2.9294      2.8692      2.8430      2.8471      2.8773      2.9312      3.0086      3.1098      3.2322    
  3.4205      3.4667      3.4825      3.4667      3.4205      3.3483      3.2573      3.1575      3.0597      2.9745    
  2.9095      2.8692      2.8556      2.8692      2.9094      2.9744      3.0596      3.1574      3.2573      3.3483    
  3.7262      3.7005      3.6208      3.5035      3.3680      3.2322      3.1097      3.0086      2.9312      2.8773    
  2.8471      2.8430      2.8692      2.9293      3.0245      3.1517      3.3015      3.4568      3.5940      3.6893    
  4.2907      4.2153      4.0456      3.8128      3.5580      3.3197      3.1245      2.9830      2.8923      2.8428    
  2.8276      2.8471      2.9094      3.0245      3.1962      3.4171      3.6668      3.9142      4.1227      4.2576    
  5.4193      5.2076      4.8092      4.3868      3.9976      3.6215      3.3041      3.0739      2.9312      2.8596    
  2.8428      2.8773      2.9744      3.1517      3.4171      3.7552      4.1270      4.5369      4.9843      5.3315    
  8.3124      7.9120      6.9002      5.7132      4.7482      4.1270      3.6668      3.3015      3.0596      2.9312    
  2.8922      2.9312      3.0596      3.3015      3.6668      4.1270      4.7482      5.7132      6.9002      7.9120    
  13.714      13.327      11.527      9.0394      6.7063      5.0724      4.1937      3.6820      3.3015      3.0738    
  2.9830      3.0086      3.1574      3.4568      3.9142      4.5369      5.7132      7.7048      10.223      12.515    
  21.344      21.456      19.036      15.031      10.775      7.3419      5.2031      4.1937      3.6668      3.3041    
  3.1246      3.1098      3.2573      3.5940      4.1227      4.9843      6.9002      10.223      14.534      18.709    
  29.801      31.152      28.713      23.447      17.129      11.430      7.3421      5.0725      4.1271      3.6215    
  3.3198      3.2322      3.3483      3.6893      4.2576      5.3315      7.9120      12.515      18.709      25.113    
  22.201      25.111      24.977      21.921      17.130      12.136      8.1086      5.5504      4.3209      3.7551    
  3.3707      3.1796      3.1697      3.3413      3.7232      4.3139      5.4193      7.9052      12.072      17.306    
  25.111      29.800      31.152      28.715      23.450      17.131      11.432      7.3430      5.0726      4.1267    
  3.6212      3.3198      3.2324      3.3484      3.6890      4.2573      5.3315      7.9122      12.515      18.708    
  24.977      31.152      34.340      33.405      28.718      21.925      15.033      9.5509      6.1238      4.5364    
  3.8784      3.4656      3.2870      3.3279      3.5962      4.1029      4.9843      7.2111      11.527      17.811    
  21.921      28.715      33.405      34.344      31.157      24.981      17.814      11.527      7.2103      4.9835    
  4.1027      3.5965      3.3280      3.2868      3.4653      3.8786      4.5369      6.1238      9.5497      15.031    
  17.130      23.450      28.718      31.157      29.805      25.115      18.709      12.513      7.9100      5.3301    
  4.2570      3.6892      3.3483      3.2322      3.3197      3.6215      4.1270      5.0724      7.3419      11.430    
  12.136      17.131      21.925      24.981      25.115      22.203      17.304      12.068      7.9020      5.4178    
  4.3137      3.7233      3.3412      3.1695      3.1796      3.3710      3.7552      4.3207      5.5497      8.1079    
  8.1086      11.432      15.033      17.814      18.709      17.304      14.130      10.368      7.1910      5.2067    
  4.2575      3.6896      3.3034      3.1035      3.0590      3.1580      3.4171      3.8361      4.4428      5.7392    
  5.5504      7.3430      9.5509      11.527      12.513      12.068      10.368      8.1160      6.1122      4.8094    
  4.1038      3.5945      3.2387      3.0387      2.9651      2.9993      3.1517      3.4422      3.8615      4.4431    
  4.3209      5.0726      6.1238      7.2103      7.9100      7.9020      7.1910      6.1122      5.0985      4.3881    
  3.8798      3.4576      3.1577      2.9797      2.8994      2.8971      2.9744      3.1509      3.4424      3.8364    
  3.7551      4.1267      4.5364      4.9835      5.3301      5.4178      5.2067      4.8094      4.3881      3.9992    
  3.6226      3.3045      3.0740      2.9312      2.8596      2.8428      2.8773      2.9745      3.1519      3.4172    
  3.3707      3.6212      3.8784      4.1027      4.2570      4.3137      4.2575      4.1038      3.8798      3.6226    
  3.3716      3.1581      2.9993      2.8970      2.8428      2.8262      2.8428      2.8971      2.9993      3.1578    
  3.1796      3.3198      3.4656      3.5965      3.6892      3.7233      3.6896      3.5945      3.4576      3.3045    
  3.1581      3.0342      2.9409      2.8798      2.8486      2.8428      2.8596      2.8994      2.9650      3.0588    
  3.1697      3.2324      3.2870      3.3280      3.3483      3.3412      3.3034      3.2387      3.1577      3.0740    
  2.9993      2.9409      2.9013      2.8811      2.8799      2.8971      2.9312      2.9796      3.0386      3.1036    
  3.3413      3.3484      3.3279      3.2868      3.2322      3.1695      3.1035      3.0387      2.9797      2.9312    
  2.8970      2.8798      2.8811      2.9014      2.9410      2.9993      3.0739      3.1575      3.2387      3.3035    
  3.7232      3.6890      3.5962      3.4653      3.3197      3.1796      3.0590      2.9651      2.8994      2.8596    
  2.8428      2.8486      2.8799      2.9410      3.0343      3.1580      3.3041      3.4570      3.5940      3.6893    
  4.3139      4.2573      4.1029      3.8786      3.6215      3.3710      3.1580      2.9993      2.8971      2.8428    
  2.8262      2.8428      2.8971      2.9993      3.1580      3.3710      3.6215      3.8786      4.1029      4.2573    
  5.4193      5.3315      4.9843      4.5369      4.1270      3.7552      3.4171      3.1517      2.9744      2.8773    
  2.8428      2.8596      2.9312      3.0739      3.3041      3.6215      3.9976      4.3868      4.8092      5.2076    
  7.9052      7.9122      7.2111      6.1238      5.0724      4.3207      3.8361      3.4422      3.1509      2.9745    
  2.8971      2.8994      2.9796      3.1575      3.4570      3.8786      4.3868      5.0983      6.1138      7.1940    
  12.072      12.515      11.527      9.5497      7.3419      5.5497      4.4428      3.8615      3.4424      3.1519    
  2.9993      2.9650      3.0386      3.2387      3.5940      4.1029      4.8092      6.1138      8.1197      10.373    
  17.306      18.708      17.811      15.031      11.430      8.1079      5.7392      4.4431      3.8364      3.4172    
  3.1578      3.0588      3.1036      3.3035      3.6893      4.2573      5.2076      7.1940      10.373      14.135    
  12.156      14.134      14.534      13.220      10.776      8.1086      5.9507      4.6070      3.9355      3.5035    
  3.1962      3.0342      3.0017      3.0898      3.3201      3.7232      4.2907      5.1718      6.8674      9.4037    
  14.134      17.306      18.709      17.813      15.033      11.432      8.1090      5.7395      4.4428      3.8360    
  3.4170      3.1579      3.0590      3.1035      3.3032      3.6893      4.2576      5.2079      7.1939      10.372    
  14.534      18.709      21.345      21.458      19.038      15.033      10.777      7.3423      5.2028      4.1933    