bcc Fe                                  
   2.79000000000000     
    -0.500000    0.500000    0.500000
     0.500000   -0.500000    0.500000
     0.500000    0.500000   -0.500000
   Fe
     1
Direct
  0.000000  0.000000  0.000000
 
   20   20   20
 0.91228779148E+02 0.86102185151E+02 0.72496428980E+02 0.54618014336E+02 0.36842911870E+02
 0.22201385928E+02 0.12156063121E+02 0.67943317854E+01 0.48610587566E+01 0.42458900532E+01
 0.40421116467E+01 0.42458900532E+01 0.48610587566E+01 0.67943317854E+01 0.12156063121E+02
 0.22201385928E+02 0.36842911870E+02 0.54618014336E+02 0.72496428980E+02 0.86102185151E+02
 0.86102185151E+02 0.84419253851E+02 0.73743139720E+02 0.57552252531E+02 0.40206109302E+02
 0.25110691940E+02 0.14133914036E+02 0.77526129003E+01 0.51289191647E+01 0.43335421294E+01
 0.40041363680E+01 0.40699548017E+01 0.45291932371E+01 0.56928460839E+01 0.94037314813E+01
 0.17306010743E+02 0.29801129169E+02 0.45957754189E+02 0.63379578164E+02 0.78199071141E+02
 0.72496428980E+02 0.73743139720E+02 0.66697483575E+02 0.53763798912E+02 0.38735015919E+02
 0.24976612553E+02 0.14533557354E+02 0.81195156834E+01 0.52369811521E+01 0.43155121132E+01
 0.38974729065E+01 0.38395861058E+01 0.41429570794E+01 0.48261194885E+01 0.68674109279E+01
 0.12071540980E+02 0.21344164279E+02 0.34341812528E+02 0.49378572714E+02 0.63379578164E+02
 0.54618014336E+02 0.57552252531E+02 0.53763798912E+02 0.44624415400E+02 0.33036232191E+02
 0.21921301512E+02 0.13219641478E+02 0.77051008277E+01 0.50987843623E+01 0.41958311274E+01
 0.37409328318E+01 0.35944396813E+01 0.37542242830E+01 0.42287943423E+01 0.51717683062E+01
 0.79051707824E+01 0.13714490173E+02 0.22851731949E+02 0.34341812528E+02 0.45957754189E+02
 0.36842911870E+02 0.40206109302E+02 0.38735015919E+02 0.33036232191E+02 0.25085319952E+02
 0.17129635528E+02 0.10776171062E+02 0.67067754395E+01 0.47484268163E+01 0.39976356429E+01
 0.35580376568E+01 0.33679798680E+01 0.34205137479E+01 0.37261519786E+01 0.42907467201E+01
 0.54193342277E+01 0.83123611648E+01 0.13714490173E+02 0.21344164279E+02 0.29801129169E+02
 0.22201385928E+02 0.25110691940E+02 0.24976612553E+02 0.21921301512E+02 0.17129635528E+02
 0.12136047982E+02 0.81086139471E+01 0.55503777191E+01 0.43209392902E+01 0.37550750069E+01
 0.33706754211E+01 0.31795563692E+01 0.31697293555E+01 0.33412773876E+01 0.37231573717E+01
 0.43138814034E+01 0.54193342277E+01 0.79051707824E+01 0.12071540980E+02 0.17306010743E+02
 0.12156063121E+02 0.14133914036E+02 0.14533557354E+02 0.13219641478E+02 0.10776171062E+02
 0.81086139471E+01 0.59506953990E+01 0.46069628524E+01 0.39354996031E+01 0.35034930337E+01
 0.31961782994E+01 0.30342117579E+01 0.30016743780E+01 0.30898334210E+01 0.33201042951E+01
 0.37231573717E+01 0.42907467201E+01 0.51717683062E+01 0.68674109279E+01 0.94037314813E+01
 0.67943317854E+01 0.77526129003E+01 0.81195156834E+01 0.77051008277E+01 0.67067754395E+01
 0.55503777191E+01 0.46069628524E+01 0.40045644037E+01 0.36001042606E+01 0.32721913989E+01
 0.30474956817E+01 0.29293543168E+01 0.29014256350E+01 0.29518948305E+01 0.30898334210E+01
 0.33412773876E+01 0.37261519786E+01 0.42287943423E+01 0.48261194885E+01 0.56928460839E+01
 0.48610587566E+01 0.51289191647E+01 0.52369811521E+01 0.50987843623E+01 0.47484268163E+01
 0.43209392902E+01 0.39354996031E+01 0.36001042606E+01 0.33077290321E+01 0.30816504881E+01
 0.29343068693E+01 0.28631205829E+01 0.28556578999E+01 0.29014256350E+01 0.30016743780E+01
 0.31697293555E+01 0.34205137479E+01 0.37542242830E+01 0.41429570794E+01 0.45291932371E+01
 0.42458900532E+01 0.43335421294E+01 0.43155121132E+01 0.41958311274E+01 0.39976356429E+01
 0.37550750069E+01 0.35034930337E+01 0.32721913989E+01 0.30816504881E+01 0.29438981753E+01
 0.28635745762E+01 0.28388112151E+01 0.28631205829E+01 0.29293543168E+01 0.30342117579E+01
 0.31795563692E+01 0.33679798680E+01 0.35944396813E+01 0.38395861058E+01 0.40699548017E+01
 0.40421116467E+01 0.40041363680E+01 0.38974729065E+01 0.37409328318E+01 0.35580376568E+01
 0.33706754211E+01 0.31961782994E+01 0.30474956817E+01 0.29343068693E+01 0.28635745762E+01
 0.28395266470E+01 0.28635745762E+01 0.29343068693E+01 0.30474956817E+01 0.31961782994E+01
 0.33706754211E+01 0.35580376568E+01 0.37409328318E+01 0.38974729065E+01 0.40041363680E+01
 0.42458900532E+01 0.40699548017E+01 0.38395861058E+01 0.35944396813E+01 0.33679798680E+01
 0.31795563692E+01 0.30342117579E+01 0.29293543168E+01 0.28631205829E+01 0.28388112151E+01
 0.28635745762E+01 0.29438981753E+01 0.30816504881E+01 0.32721913989E+01 0.35034930337E+01
 0.37550750069E+01 0.39976356429E+01 0.41958311274E+01 0.43155121132E+01 0.43335421294E+01
 0.48610587566E+01 0.45291932371E+01 0.41429570794E+01 0.37542242830E+01 0.34205137479E+01
 0.31697293555E+01 0.30016743780E+01 0.29014256350E+01 0.28556578999E+01 0.28631205829E+01
 0.29343068693E+01 0.30816504881E+01 0.33077290321E+01 0.36001042606E+01 0.39354996031E+01
 0.43209392902E+01 0.47484268163E+01 0.50987843623E+01 0.52369811521E+01 0.51289191647E+01
 0.67943317854E+01 0.56928460839E+01 0.48261194885E+01 0.42287943423E+01 0.37261519786E+01
 0.33412773876E+01 0.30898334210E+01 0.29518948305E+01 0.29014256350E+01 0.29293543168E+01
 0.30474956817E+01 0.32721913989E+01 0.36001042606E+01 0.40045644037E+01 0.46069628524E+01
 0.55503777191E+01 0.67067754395E+01 0.77051008277E+01 0.81195156834E+01 0.77526129003E+01
 0.12156063121E+02 0.94037314813E+01 0.68674109279E+01 0.51717683062E+01 0.42907467201E+01
 0.37231573717E+01 0.33201042951E+01 0.30898334210E+01 0.30016743780E+01 0.30342117579E+01
 0.31961782994E+01 0.35034930337E+01 0.39354996031E+01 0.46069628524E+01 0.59506953990E+01
 0.81086139471E+01 0.10776171062E+02 0.13219641478E+02 0.14533557354E+02 0.14133914036E+02
 0.22201385928E+02 0.17306010743E+02 0.12071540980E+02 0.79051707824E+01 0.54193342277E+01
 0.43138814034E+01 0.37231573717E+01 0.33412773876E+01 0.31697293555E+01 0.31795563692E+01
 0.33706754211E+01 0.37550750069E+01 0.43209392902E+01 0.55503777191E+01 0.81086139471E+01
 0.12136047982E+02 0.17129635528E+02 0.21921301512E+02 0.24976612553E+02 0.25110691940E+02
 0.36842911870E+02 0.29801129169E+02 0.21344164279E+02 0.13714490173E+02 0.83123611648E+01
 0.54193342277E+01 0.42907467201E+01 0.37261519786E+01 0.34205137479E+01 0.33679798680E+01
 0.35580376568E+01 0.39976356429E+01 0.47484268163E+01 0.67067754395E+01 0.10776171062E+02
 0.17129635528E+02 0.25085319952E+02 0.33036232191E+02 0.38735015919E+02 0.40206109302E+02
 0.54618014336E+02 0.45957754189E+02 0.34341812528E+02 0.22851731949E+02 0.13714490173E+02
 0.79051707824E+01 0.51717683062E+01 0.42287943423E+01 0.37542242830E+01 0.35944396813E+01
 0.37409328318E+01 0.41958311274E+01 0.50987843623E+01 0.77051008277E+01 0.13219641478E+02
 0.21921301512E+02 0.33036232191E+02 0.44624415400E+02 0.53763798912E+02 0.57552252531E+02
 0.72496428980E+02 0.63379578164E+02 0.49378572714E+02 0.34341812528E+02 0.21344164279E+02
 0.12071540980E+02 0.68674109279E+01 0.48261194885E+01 0.41429570794E+01 0.38395861058E+01
 0.38974729065E+01 0.43155121132E+01 0.52369811521E+01 0.81195156834E+01 0.14533557354E+02
 0.24976612553E+02 0.38735015919E+02 0.53763798912E+02 0.66697483575E+02 0.73743139720E+02
 0.86102185151E+02 0.78199071141E+02 0.63379578164E+02 0.45957754189E+02 0.29801129169E+02
 0.17306010743E+02 0.94037314813E+01 0.56928460839E+01 0.45291932371E+01 0.40699548017E+01
 0.40041363680E+01 0.43335421294E+01 0.51289191647E+01 0.77526129003E+01 0.14133914036E+02
 0.25110691940E+02 0.40206109302E+02 0.57552252531E+02 0.73743139720E+02 0.84419253851E+02
 0.86102185151E+02 0.84419253851E+02 0.73743139720E+02 0.57552252531E+02 0.40206109302E+02
 0.25110691940E+02 0.14133914036E+02 0.77526129003E+01 0.51289191647E+01 0.43335421294E+01
 0.40041363680E+01 0.40699548017E+01 0.45291932371E+01 0.56928460839E+01 0.94037314813E+01
 0.17306010743E+02 0.29801129169E+02 0.45957754189E+02 0.63379578164E+02 0.78199071141E+02
 0.84419253851E+02 0.86096774041E+02 0.78190766031E+02 0.63372195043E+02 0.45953465237E+02
 0.29799562249E+02 0.17305726204E+02 0.94038880670E+01 0.56933201485E+01 0.45297591775E+01
 0.40701018287E+01 0.40037173197E+01 0.43330566813E+01 0.51288863793E+01 0.77530382829E+01
 0.14134794343E+02 0.25112771042E+02 0.40210332864E+02 0.57558048472E+02 0.73747683778E+02
 0.73743139720E+02 0.78190766031E+02 0.73738876655E+02 0.61933736181E+02 0.46453475739E+02
 0.31151665838E+02 0.18708596998E+02 0.10372929214E+02 0.60955101430E+01 0.46095975706E+01
 0.40565720664E+01 0.38706899793E+01 0.40565434960E+01 0.46095421133E+01 0.60953717052E+01
 0.10372833363E+02 0.18709276446E+02 0.31154293549E+02 0.46458528161E+02 0.61939840698E+02
 0.57552252531E+02 0.63372195043E+02 0.61933736181E+02 0.53763871734E+02 0.41569810164E+02
 0.28714999126E+02 0.17812893386E+02 0.10223785140E+02 0.61144170596E+01 0.45617247767E+01
 0.39657369513E+01 0.36947855193E+01 0.37517183249E+01 0.41398178025E+01 0.49134543202E+01
 0.71940406716E+01 0.12514939413E+02 0.21456537808E+02 0.33404168180E+02 0.46455945922E+02
 0.40206109302E+02 0.45953465237E+02 0.46453475739E+02 0.41569810164E+02 0.33038221697E+02
 0.23449795938E+02 0.15032659625E+02 0.90404371047E+01 0.57135903287E+01 0.43869029012E+01
 0.38128151586E+01 0.35035095323E+01 0.34666699509E+01 0.37005367112E+01 0.42152838720E+01
 0.52075668667E+01 0.79120431809E+01 0.13326802049E+02 0.21455760215E+02 0.31151720171E+02
 0.25110691940E+02 0.29799562249E+02 0.31151665838E+02 0.28714999126E+02 0.23449795938E+02
 0.17131227353E+02 0.11431516319E+02 0.73430234048E+01 0.50726326990E+01 0.41267296441E+01
 0.36212451985E+01 0.33198195442E+01 0.32324207610E+01 0.33483561548E+01 0.36889896167E+01
 0.42572609484E+01 0.53314551651E+01 0.79121944654E+01 0.12514537494E+02 0.18707831908E+02
 0.14133914036E+02 0.17305726204E+02 0.18708596998E+02 0.17812893386E+02 0.15032659625E+02
 0.11431516319E+02 0.81089965120E+01 0.57394610855E+01 0.44428429416E+01 0.38359892104E+01
 0.34170398686E+01 0.31579272518E+01 0.30589628150E+01 0.31035170243E+01 0.33032454183E+01
 0.36893499319E+01 0.42575953583E+01 0.52079140546E+01 0.71939091559E+01 0.10372094911E+02
 0.77526129003E+01 0.94038880670E+01 0.10372929214E+02 0.10223785140E+02 0.90404371047E+01
 0.73430234048E+01 0.57394610855E+01 0.46065923379E+01 0.39676039643E+01 0.35471119874E+01
 0.32239393577E+01 0.30246463329E+01 0.29410002843E+01 0.29549901903E+01 0.30674483024E+01
 0.33034571812E+01 0.36892988422E+01 0.42153694808E+01 0.49131136316E+01 0.60947669411E+01
 0.51289191647E+01 0.56933201485E+01 0.60955101430E+01 0.61144170596E+01 0.57135903287E+01
 0.50726326990E+01 0.44428429416E+01 0.39676039643E+01 0.35999634113E+01 0.32887495660E+01
 0.30603111610E+01 0.29238344799E+01 0.28692221960E+01 0.28811224926E+01 0.29550451295E+01
 0.31036101038E+01 0.33483198304E+01 0.37002381895E+01 0.41393476538E+01 0.46091889353E+01
 0.43335421294E+01 0.45297591775E+01 0.46095975706E+01 0.45617247767E+01 0.43869029012E+01
 0.41267296441E+01 0.38359892104E+01 0.35471119874E+01 0.32887495660E+01 0.30817699701E+01
 0.29381336757E+01 0.28598850931E+01 0.28402611866E+01 0.28691684171E+01 0.29409258553E+01
 0.30588253075E+01 0.32321764986E+01 0.34663930946E+01 0.37516001801E+01 0.40567412054E+01
 0.40041363680E+01 0.40701018287E+01 0.40565720664E+01 0.39657369513E+01 0.38128151586E+01
 0.36212451985E+01 0.34170398686E+01 0.32239393577E+01 0.30603111610E+01 0.29381336757E+01
 0.28635869020E+01 0.28381887601E+01 0.28597821902E+01 0.29236810415E+01 0.30244846125E+01
 0.31577869086E+01 0.33197615044E+01 0.35036308282E+01 0.36951370656E+01 0.38711823468E+01
 0.40699548017E+01 0.40037173197E+01 0.38706899793E+01 0.36947855193E+01 0.35035095323E+01
 0.33198195442E+01 0.31579272518E+01 0.30246463329E+01 0.29238344799E+01 0.28598850931E+01
 0.28381887601E+01 0.28634735341E+01 0.29379668438E+01 0.30601853602E+01 0.32239276211E+01
 0.34171750206E+01 0.36215279969E+01 0.38132001456E+01 0.39661018083E+01 0.40567412054E+01
 0.45291932371E+01 0.43330566813E+01 0.40565434960E+01 0.37517183249E+01 0.34666699509E+01
 0.32324207610E+01 0.30589628150E+01 0.29410002843E+01 0.28692221960E+01 0.28402611866E+01
 0.28597821902E+01 0.29379668438E+01 0.30816725994E+01 0.32888433037E+01 0.35474062241E+01
 0.38363805629E+01 0.41270707921E+01 0.43870588272E+01 0.45616021098E+01 0.46091889353E+01
 0.56928460839E+01 0.51288863793E+01 0.46095421133E+01 0.41398178025E+01 0.37005367112E+01
 0.33483561548E+01 0.31035170243E+01 0.29549901903E+01 0.28811224926E+01 0.28691684171E+01
 0.29236810415E+01 0.30601853602E+01 0.32888433037E+01 0.36003264513E+01 0.39680649539E+01
 0.44431275712E+01 0.50725453219E+01 0.57131083301E+01 0.61136802301E+01 0.60947669411E+01
 0.94037314813E+01 0.77530382829E+01 0.60953717052E+01 0.49134543202E+01 0.42152838720E+01
 0.36889896167E+01 0.33032454183E+01 0.30674483024E+01 0.29550451295E+01 0.29409258553E+01
 0.30244846125E+01 0.32239276211E+01 0.35474062241E+01 0.39680649539E+01 0.46068522170E+01
 0.57391869137E+01 0.73421369140E+01 0.90391549051E+01 0.10222514485E+02 0.10372094911E+02
 0.17306010743E+02 0.14134794343E+02 0.10372833363E+02 0.71940406716E+01 0.52075668667E+01
 0.42572609484E+01 0.36893499319E+01 0.33034571812E+01 0.31036101038E+01 0.30588253075E+01
 0.31577869086E+01 0.34171750206E+01 0.38363805629E+01 0.44431275712E+01 0.57391869137E+01
 0.81079152428E+01 0.11429726655E+02 0.15030598692E+02 0.17811201489E+02 0.18707831908E+02
 0.29801129169E+02 0.25112771042E+02 0.18709276446E+02 0.12514939413E+02 0.79120431809E+01
 0.53314551651E+01 0.42575953583E+01 0.36892988422E+01 0.33483198304E+01 0.32321764986E+01
 0.33197615044E+01 0.36215279969E+01 0.41270707921E+01 0.50725453219E+01 0.73421369140E+01
 0.11429726655E+02 0.17128765479E+02 0.23447307050E+02 0.28713423310E+02 0.31151720171E+02
 0.45957754189E+02 0.40210332864E+02 0.31154293549E+02 0.21456537808E+02 0.13326802049E+02
 0.79121944654E+01 0.52079140546E+01 0.42153694808E+01 0.37002381895E+01 0.34663930946E+01
 0.35036308282E+01 0.38132001456E+01 0.43870588272E+01 0.57131083301E+01 0.90391549051E+01
 0.15030598692E+02 0.23447307050E+02 0.33036263261E+02 0.41569708028E+02 0.46455945922E+02
 0.63379578164E+02 0.57558048472E+02 0.46458528161E+02 0.33404168180E+02 0.21455760215E+02
 0.12514537494E+02 0.71939091559E+01 0.49131136316E+01 0.41393476538E+01 0.37516001801E+01
 0.36951370656E+01 0.39661018083E+01 0.45616021098E+01 0.61136802301E+01 0.10222514485E+02
 0.17811201489E+02 0.28713423310E+02 0.41569708028E+02 0.53766776924E+02 0.61939840698E+02
 0.78199071141E+02 0.73747683778E+02 0.61939840698E+02 0.46455945922E+02 0.31151720171E+02
 0.18707831908E+02 0.10372094911E+02 0.60947669411E+01 0.46091889353E+01 0.40567412054E+01
 0.38711823468E+01 0.40567412054E+01 0.46091889353E+01 0.60947669411E+01 0.10372094911E+02
 0.18707831908E+02 0.31151720171E+02 0.46455945922E+02 0.61939840698E+02 0.73747683778E+02
 0.72496428980E+02 0.73743139720E+02 0.66697483575E+02 0.53763798912E+02 0.38735015919E+02
 0.24976612553E+02 0.14533557354E+02 0.81195156834E+01 0.52369811521E+01 0.43155121132E+01
 0.38974729065E+01 0.38395861058E+01 0.41429570794E+01 0.48261194885E+01 0.68674109279E+01
 0.12071540980E+02 0.21344164279E+02 0.34341812528E+02 0.49378572714E+02 0.63379578164E+02
 0.73743139720E+02 0.78190766031E+02 0.73738876655E+02 0.61933736181E+02 0.46453475739E+02
 0.31151665838E+02 0.18708596998E+02 0.10372929214E+02 0.60955101430E+01 0.46095975706E+01
 0.40565720664E+01 0.38706899793E+01 0.40565434960E+01 0.46095421133E+01 0.60953717052E+01
 0.10372833363E+02 0.18709276446E+02 0.31154293549E+02 0.46458528161E+02 0.61939840698E+02
 0.66697483575E+02 0.73738876655E+02 0.72489142705E+02 0.63372307916E+02 0.49373933038E+02
 0.34340342375E+02 0.21344599328E+02 0.12072337826E+02 0.68678559619E+01 0.48262603437E+01
 0.41429927979E+01 0.38395818955E+01 0.38974551945E+01 0.43155185260E+01 0.52370182666E+01
 0.81197263084E+01 0.14534480732E+02 0.24978909560E+02 0.38738505370E+02 0.53766776924E+02
 0.53763798912E+02 0.61933736181E+02 0.63372307916E+02 0.57552485848E+02 0.46456389518E+02
 0.33404983242E+02 0.21457700316E+02 0.12516052940E+02 0.71945802054E+01 0.49132806420E+01
 0.41393715713E+01 0.37515964345E+01 0.36951305149E+01 0.39661232833E+01 0.45616543223E+01
 0.61138381052E+01 0.10223073642E+02 0.17812409507E+02 0.28714784325E+02 0.41569708028E+02
 0.38735015919E+02 0.46453475739E+02 0.49373933038E+02 0.46456389518E+02 0.38739486515E+02
 0.28717671148E+02 0.19038488331E+02 0.11528335690E+02 0.69006807382E+01 0.48092112888E+01
 0.40455349998E+01 0.36208087328E+01 0.34825277770E+01 0.36208268834E+01 0.40455654779E+01
 0.48091643153E+01 0.69002431912E+01 0.11526936567E+02 0.19035604641E+02 0.28713423310E+02
 0.24976612553E+02 0.31151665838E+02 0.34340342375E+02 0.33404983242E+02 0.28717671148E+02
 0.21924921258E+02 0.15033413592E+02 0.95509288734E+01 0.61237659346E+01 0.45364131061E+01
 0.38783981859E+01 0.34655541912E+01 0.32870422214E+01 0.33278911003E+01 0.35962286466E+01
 0.41028934172E+01 0.49843378278E+01 0.72111454185E+01 0.11526616978E+02 0.17811201489E+02
 0.14533557354E+02 0.18708596998E+02 0.21344599328E+02 0.21457700316E+02 0.19038488331E+02
 0.15033413592E+02 0.10776858985E+02 0.73422607436E+01 0.52027731607E+01 0.41933338496E+01
 0.36666207952E+01 0.33040439186E+01 0.31245531323E+01 0.31097527378E+01 0.32573145662E+01
 0.35939824236E+01 0.41227083996E+01 0.49843496259E+01 0.69000944648E+01 0.10222514485E+02
 0.81195156834E+01 0.10372929214E+02 0.12072337826E+02 0.12516052940E+02 0.11528335690E+02
 0.95509288734E+01 0.73422607436E+01 0.55493305132E+01 0.44422577037E+01 0.38611739781E+01
 0.34423118083E+01 0.31518816849E+01 0.29993374624E+01 0.29649509503E+01 0.30386461363E+01
 0.32386561336E+01 0.35940011020E+01 0.41029320663E+01 0.48091491774E+01 0.61136802301E+01
 0.52369811521E+01 0.60955101430E+01 0.68678559619E+01 0.71945802054E+01 0.69006807382E+01
 0.61237659346E+01 0.52027731607E+01 0.44422577037E+01 0.39349635110E+01 0.35471346438E+01
 0.32335318573E+01 0.30214269186E+01 0.29094413323E+01 0.28798850984E+01 0.29205679000E+01
 0.30386482218E+01 0.32573210617E+01 0.35962401834E+01 0.40455569530E+01 0.45616021098E+01
 0.43155121132E+01 0.46095975706E+01 0.48262603437E+01 0.49132806420E+01 0.48092112888E+01
 0.45364131061E+01 0.41933338496E+01 0.38611739781E+01 0.35471346438E+01 0.32723508058E+01
 0.30603422200E+01 0.29219445500E+01 0.28535715448E+01 0.28429459218E+01 0.28798893200E+01
 0.29649553813E+01 0.31097510576E+01 0.33278834703E+01 0.36208123749E+01 0.39661018083E+01
 0.38974729065E+01 0.40565720664E+01 0.41429927979E+01 0.41393715713E+01 0.40455349998E+01
 0.38783981859E+01 0.36666207952E+01 0.34423118083E+01 0.32335318573E+01 0.30603422200E+01
 0.29343538567E+01 0.28598086177E+01 0.28348582681E+01 0.28535643340E+01 0.29094412757E+01
 0.29993412502E+01 0.31245511227E+01 0.32870346567E+01 0.34825238962E+01 0.36951370656E+01
 0.38395861058E+01 0.38706899793E+01 0.38395818955E+01 0.37515964345E+01 0.36208087328E+01
 0.34655541912E+01 0.33040439186E+01 0.31518816849E+01 0.30214269186E+01 0.29219445500E+01
 0.28598086177E+01 0.28386901341E+01 0.28597850729E+01 0.29219211748E+01 0.30214254169E+01
 0.31519007164E+01 0.33040654066E+01 0.34655654152E+01 0.36208123749E+01 0.37516001801E+01
 0.41429570794E+01 0.40565434960E+01 0.38974551945E+01 0.36951305149E+01 0.34825277770E+01
 0.32870422214E+01 0.31245531323E+01 0.29993374624E+01 0.29094413323E+01 0.28535715448E+01
 0.28348582681E+01 0.28597850729E+01 0.29343180032E+01 0.30603373376E+01 0.32335974917E+01
 0.34424414875E+01 0.36667602946E+01 0.38784887349E+01 0.40455569530E+01 0.41393476538E+01
 0.48261194885E+01 0.46095421133E+01 0.43155185260E+01 0.39661232833E+01 0.36208268834E+01
 0.33278911003E+01 0.31097527378E+01 0.29649509503E+01 0.28798850984E+01 0.28429459218E+01
 0.28535643340E+01 0.29219211748E+01 0.30603373376E+01 0.32724459323E+01 0.35473887645E+01
 0.38615402028E+01 0.41936622079E+01 0.45365587230E+01 0.48091491774E+01 0.49131136316E+01
 0.68674109279E+01 0.60953717052E+01 0.52370182666E+01 0.45616543223E+01 0.40455654779E+01
 0.35962286466E+01 0.32573145662E+01 0.30386461363E+01 0.29205679000E+01 0.28798893200E+01
 0.29094412757E+01 0.30214254169E+01 0.32335974917E+01 0.35473887645E+01 0.39354490892E+01
 0.44428100118E+01 0.52030738956E+01 0.61235874104E+01 0.69000944648E+01 0.71939091559E+01
 0.12071540980E+02 0.10372833363E+02 0.81197263084E+01 0.61138381052E+01 0.48091643153E+01
 0.41028934172E+01 0.35939824236E+01 0.32386561336E+01 0.30386482218E+01 0.29649553813E+01
 0.29993412502E+01 0.31519007164E+01 0.34424414875E+01 0.38615402028E+01 0.44428100118E+01
 0.55496983584E+01 0.73419399624E+01 0.95497220175E+01 0.11526616978E+02 0.12514537494E+02
 0.21344164279E+02 0.18709276446E+02 0.14534480732E+02 0.10223073642E+02 0.69002431912E+01
 0.49843378278E+01 0.41227083996E+01 0.35940011020E+01 0.32573210617E+01 0.31097510576E+01
 0.31245511227E+01 0.33040654066E+01 0.36667602946E+01 0.41936622079E+01 0.52030738956E+01
 0.73419399624E+01 0.10775337767E+02 0.15030757690E+02 0.19035604641E+02 0.21455760215E+02
 0.34341812528E+02 0.31154293549E+02 0.24978909560E+02 0.17812409507E+02 0.11526936567E+02
 0.72111454185E+01 0.49843496259E+01 0.41029320663E+01 0.35962401834E+01 0.33278834703E+01
 0.32870346567E+01 0.34655654152E+01 0.38784887349E+01 0.45365587230E+01 0.61235874104E+01
 0.95497220175E+01 0.15030757690E+02 0.21921391408E+02 0.28714784325E+02 0.33404168180E+02
 0.49378572714E+02 0.46458528161E+02 0.38738505370E+02 0.28714784325E+02 0.19035604641E+02
 0.11526616978E+02 0.69000944648E+01 0.48091491774E+01 0.40455569530E+01 0.36208123749E+01
 0.34825238962E+01 0.36208123749E+01 0.40455569530E+01 0.48091491774E+01 0.69000944648E+01
 0.11526616978E+02 0.19035604641E+02 0.28714784325E+02 0.38738505370E+02 0.46458528161E+02
 0.63379578164E+02 0.61939840698E+02 0.53766776924E+02 0.41569708028E+02 0.28713423310E+02
 0.17811201489E+02 0.10222514485E+02 0.61136802301E+01 0.45616021098E+01 0.39661018083E+01
 0.36951370656E+01 0.37516001801E+01 0.41393476538E+01 0.49131136316E+01 0.71939091559E+01
 0.12514537494E+02 0.21455760215E+02 0.33404168180E+02 0.46458528161E+02 0.57558048472E+02
 0.54618014336E+02 0.57552252531E+02 0.53763798912E+02 0.44624415400E+02 0.33036232191E+02
 0.21921301512E+02 0.13219641478E+02 0.77051008277E+01 0.50987843623E+01 0.41958311274E+01
 0.37409328318E+01 0.35944396813E+01 0.37542242830E+01 0.42287943423E+01 0.51717683062E+01
 0.79051707824E+01 0.13714490173E+02 0.22851731949E+02 0.34341812528E+02 0.45957754189E+02
 0.57552252531E+02 0.63372195043E+02 0.61933736181E+02 0.53763871734E+02 0.41569810164E+02
 0.28714999126E+02 0.17812893386E+02 0.10223785140E+02 0.61144170596E+01 0.45617247767E+01
 0.39657369513E+01 0.36947855193E+01 0.37517183249E+01 0.41398178025E+01 0.49134543202E+01
 0.71940406716E+01 0.12514939413E+02 0.21456537808E+02 0.33404168180E+02 0.46455945922E+02
 0.53763798912E+02 0.61933736181E+02 0.63372307916E+02 0.57552485848E+02 0.46456389518E+02
 0.33404983242E+02 0.21457700316E+02 0.12516052940E+02 0.71945802054E+01 0.49132806420E+01
 0.41393715713E+01 0.37515964345E+01 0.36951305149E+01 0.39661232833E+01 0.45616543223E+01
 0.61138381052E+01 0.10223073642E+02 0.17812409507E+02 0.28714784325E+02 0.41569708028E+02
 0.44624415400E+02 0.53763871734E+02 0.57552485848E+02 0.54618560772E+02 0.45958849931E+02
 0.34343513838E+02 0.22853621004E+02 0.13715828253E+02 0.79055076720E+01 0.51713842987E+01
 0.42284303153E+01 0.37543472187E+01 0.35948447925E+01 0.37410904302E+01 0.41955207005E+01
 0.50982835954E+01 0.77048007725E+01 0.13219631502E+02 0.21921391408E+02 0.33036263261E+02
 0.33036232191E+02 0.41569810164E+02 0.46456389518E+02 0.45958849931E+02 0.40212282428E+02
 0.31156790604E+02 0.21458721555E+02 0.13327847647E+02 0.79120360607E+01 0.52072960337E+01
 0.42151105048E+01 0.37004910175E+01 0.34666812663E+01 0.35035264607E+01 0.38128062384E+01
 0.43867980796E+01 0.57131935299E+01 0.90394116004E+01 0.15030757690E+02 0.23447307050E+02
 0.21921301512E+02 0.28714999126E+02 0.33404983242E+02 0.34343513838E+02 0.31156790604E+02
 0.24981464067E+02 0.17813987443E+02 0.11527036386E+02 0.72102631241E+01 0.49835113074E+01
 0.41027492646E+01 0.35964899056E+01 0.33279911679E+01 0.32868043453E+01 0.34653144204E+01
 0.38785561086E+01 0.45368854382E+01 0.61238459848E+01 0.95497220175E+01 0.15030598692E+02
 0.13219641478E+02 0.17812893386E+02 0.21457700316E+02 0.22853621004E+02 0.21458721555E+02
 0.17813987443E+02 0.13219844248E+02 0.90383408577E+01 0.61224071785E+01 0.45968273632E+01
 0.39138814654E+01 0.34569569034E+01 0.31936354969E+01 0.31113479107E+01 0.31936326306E+01
 0.34570249494E+01 0.39142404791E+01 0.45976885722E+01 0.61235874104E+01 0.90391549051E+01
 0.77051008277E+01 0.10223785140E+02 0.12516052940E+02 0.13715828253E+02 0.13327847647E+02
 0.11527036386E+02 0.90383408577E+01 0.67046036888E+01 0.50710250719E+01 0.41930952007E+01
 0.36821140235E+01 0.33016567270E+01 0.30737740900E+01 0.29829286944E+01 0.30086605320E+01
 0.31575497319E+01 0.34567914297E+01 0.39139666055E+01 0.45365587230E+01 0.57131083301E+01
 0.50987843623E+01 0.61144170596E+01 0.71945802054E+01 0.79055076720E+01 0.79120360607E+01
 0.72102631241E+01 0.61224071785E+01 0.50710250719E+01 0.43198519774E+01 0.38359507547E+01
 0.34424122750E+01 0.31509391185E+01 0.29744191136E+01 0.28970643713E+01 0.28993964979E+01
 0.29796441290E+01 0.31573653066E+01 0.34567668359E+01 0.38784887349E+01 0.43870588272E+01
 0.41958311274E+01 0.45617247767E+01 0.49132806420E+01 0.51713842987E+01 0.52072960337E+01
 0.49835113074E+01 0.45968273632E+01 0.41930952007E+01 0.38359507547E+01 0.35036966296E+01
 0.32241024861E+01 0.30214138138E+01 0.28996785211E+01 0.28470269709E+01 0.28486060533E+01
 0.28993503926E+01 0.30085723245E+01 0.31936544765E+01 0.34655654152E+01 0.38132001456E+01
 0.37409328318E+01 0.39657369513E+01 0.41393715713E+01 0.42284303153E+01 0.42151105048E+01
 0.41027492646E+01 0.39138814654E+01 0.36821140235E+01 0.34424122750E+01 0.32241024861E+01
 0.30476571665E+01 0.29237625048E+01 0.28535725351E+01 0.28308880676E+01 0.28470748426E+01
 0.28971238559E+01 0.29830292587E+01 0.31115388105E+01 0.32870346567E+01 0.35036308282E+01
 0.35944396813E+01 0.36947855193E+01 0.37515964345E+01 0.37543472187E+01 0.37004910175E+01
 0.35964899056E+01 0.34569569034E+01 0.33016567270E+01 0.31509391185E+01 0.30214138138E+01
 0.29237625048E+01 0.28630487244E+01 0.28402500261E+01 0.28536382209E+01 0.28997704764E+01
 0.29745048964E+01 0.30738429643E+01 0.31936544765E+01 0.33278834703E+01 0.34663930946E+01
 0.37542242830E+01 0.37517183249E+01 0.36951305149E+01 0.35948447925E+01 0.34666812663E+01
 0.33279911679E+01 0.31936354969E+01 0.30737740900E+01 0.29744191136E+01 0.28996785211E+01
 0.28535725351E+01 0.28402500261E+01 0.28631072465E+01 0.29238175983E+01 0.30214058656E+01
 0.31508583651E+01 0.33015214060E+01 0.34567668359E+01 0.35962401834E+01 0.37002381895E+01
 0.42287943423E+01 0.41398178025E+01 0.39661232833E+01 0.37410904302E+01 0.35035264607E+01
 0.32868043453E+01 0.31113479107E+01 0.29829286944E+01 0.28970643713E+01 0.28470269709E+01
 0.28308880676E+01 0.28536382209E+01 0.29238175983E+01 0.30475938320E+01 0.32239141165E+01
 0.34422204610E+01 0.36820486267E+01 0.39139666055E+01 0.41029320663E+01 0.42153694808E+01
 0.51717683062E+01 0.49134543202E+01 0.45616543223E+01 0.41955207005E+01 0.38128062384E+01
 0.34653144204E+01 0.31936326306E+01 0.30086605320E+01 0.28993964979E+01 0.28486060533E+01
 0.28470748426E+01 0.28997704764E+01 0.30214058656E+01 0.32239141165E+01 0.35034982542E+01
 0.38360584915E+01 0.41936624451E+01 0.45976885722E+01 0.49843496259E+01 0.52079140546E+01
 0.79051707824E+01 0.71940406716E+01 0.61138381052E+01 0.50982835954E+01 0.43867980796E+01
 0.38785561086E+01 0.34570249494E+01 0.31575497319E+01 0.29796441290E+01 0.28993503926E+01
 0.28971238559E+01 0.29745048964E+01 0.31508583651E+01 0.34422204610E+01 0.38360584915E+01
 0.43206528282E+01 0.50724322114E+01 0.61238459848E+01 0.72111454185E+01 0.79121944654E+01
 0.13714490173E+02 0.12514939413E+02 0.10223073642E+02 0.77048007725E+01 0.57131935299E+01
 0.45368854382E+01 0.39142404791E+01 0.34567914297E+01 0.31573653066E+01 0.30085723245E+01
 0.29830292587E+01 0.30738429643E+01 0.33015214060E+01 0.36820486267E+01 0.41936624451E+01
 0.50724322114E+01 0.67063066369E+01 0.90394116004E+01 0.11526936567E+02 0.13326802049E+02
 0.22851731949E+02 0.21456537808E+02 0.17812409507E+02 0.13219631502E+02 0.90394116004E+01
 0.61238459848E+01 0.45976885722E+01 0.39139666055E+01 0.34567668359E+01 0.31936544765E+01
 0.31115388105E+01 0.31936544765E+01 0.34567668359E+01 0.39139666055E+01 0.45976885722E+01
 0.61238459848E+01 0.90394116004E+01 0.13219631502E+02 0.17812409507E+02 0.21456537808E+02
 0.34341812528E+02 0.33404168180E+02 0.28714784325E+02 0.21921391408E+02 0.15030757690E+02
 0.95497220175E+01 0.61235874104E+01 0.45365587230E+01 0.38784887349E+01 0.34655654152E+01
 0.32870346567E+01 0.33278834703E+01 0.35962401834E+01 0.41029320663E+01 0.49843496259E+01
 0.72111454185E+01 0.11526936567E+02 0.17812409507E+02 0.24978909560E+02 0.31154293549E+02
 0.45957754189E+02 0.46455945922E+02 0.41569708028E+02 0.33036263261E+02 0.23447307050E+02
 0.15030598692E+02 0.90391549051E+01 0.57131083301E+01 0.43870588272E+01 0.38132001456E+01
 0.35036308282E+01 0.34663930946E+01 0.37002381895E+01 0.42153694808E+01 0.52079140546E+01
 0.79121944654E+01 0.13326802049E+02 0.21456537808E+02 0.31154293549E+02 0.40210332864E+02
 0.36842911870E+02 0.40206109302E+02 0.38735015919E+02 0.33036232191E+02 0.25085319952E+02
 0.17129635528E+02 0.10776171062E+02 0.67067754395E+01 0.47484268163E+01 0.39976356429E+01
 0.35580376568E+01 0.33679798680E+01 0.34205137479E+01 0.37261519786E+01 0.42907467201E+01
 0.54193342277E+01 0.83123611648E+01 0.13714490173E+02 0.21344164279E+02 0.29801129169E+02
 0.40206109302E+02 0.45953465237E+02 0.46453475739E+02 0.41569810164E+02 0.33038221697E+02
 0.23449795938E+02 0.15032659625E+02 0.90404371047E+01 0.57135903287E+01 0.43869029012E+01