   1   1   0   0
  0.1085882E+02  0.2416211E-09  0.2416211E-09  0.2416211E-09  0.5000000E-15
  1.000000000000000E-004
  CAR 
 bcc Fe                                  
     33.55166005     -4.39758865  301      6.17503300      1.00000000
     -4.398  0.0000E+00  0.0000E+00
     -4.271  0.0000E+00  0.0000E+00
     -4.145  0.0000E+00  0.0000E+00
     -4.018 -0.8339E-30 -0.1055E-30
     -3.892 -0.1457E-25 -0.1843E-26
     -3.765 -0.1136E-21 -0.1437E-22
     -3.639 -0.3945E-18 -0.4991E-19
     -3.512 -0.5903E-15 -0.7473E-16
     -3.386 -0.4012E-12 -0.5082E-13
     -3.259 -0.1202E-09 -0.1526E-10
     -3.133 -0.1579E-07 -0.2012E-08
     -3.006 -0.8975E-06 -0.1155E-06
     -2.880 -0.2162E-04 -0.2851E-05
     -2.753 -0.2093E-03 -0.2933E-04
     -2.627 -0.6605E-03 -0.1129E-03
     -2.500  0.7137E-03 -0.2260E-04
     -2.374  0.8693E-02  0.1077E-02
     -2.247  0.2286E-01  0.3969E-02
     -2.121  0.3156E-01  0.7962E-02
     -1.994  0.3913E-01  0.1291E-01
     -1.868  0.5371E-01  0.1971E-01
     -1.741  0.5041E-01  0.2608E-01
     -1.615  0.4920E-01  0.3231E-01
     -1.488  0.7455E-01  0.4174E-01
     -1.362  0.8216E-01  0.5213E-01
     -1.235  0.6105E-01  0.5985E-01
     -1.109  0.6766E-01  0.6841E-01
     -0.982  0.1018E+00  0.8129E-01
     -0.856  0.1034E+00  0.9437E-01
     -0.729  0.9653E-01  0.1066E+00
     -0.603  0.8741E-01  0.1176E+00
     -0.476  0.9546E-01  0.1297E+00
     -0.350  0.1379E+00  0.1472E+00
     -0.223  0.1352E+00  0.1643E+00
     -0.097  0.1202E+00  0.1795E+00
      0.030  0.1386E+00  0.1970E+00
      0.156  0.1287E+00  0.2133E+00
      0.283  0.1468E+00  0.2319E+00
      0.409  0.1884E+00  0.2557E+00
      0.536  0.1869E+00  0.2793E+00
      0.662  0.2008E+00  0.3047E+00
      0.789  0.1893E+00  0.3287E+00
      0.915  0.1745E+00  0.3508E+00
      1.042  0.2610E+00  0.3838E+00
      1.168  0.3381E+00  0.4266E+00
      1.295  0.3465E+00  0.4704E+00
      1.421  0.3786E+00  0.5183E+00
      1.548  0.5759E+00  0.5911E+00
      1.674  0.8344E+00  0.6967E+00
      1.801  0.9401E+00  0.8156E+00
      1.927  0.9240E+00  0.9325E+00
      2.054  0.1040E+01  0.1064E+01
      2.180  0.1251E+01  0.1222E+01
      2.307  0.1520E+01  0.1415E+01
      2.433  0.1671E+01  0.1626E+01
      2.560  0.1419E+01  0.1805E+01
      2.686  0.1168E+01  0.1953E+01
      2.813  0.9247E+00  0.2070E+01
      2.939  0.6819E+00  0.2156E+01
      3.066  0.7252E+00  0.2248E+01
      3.192  0.1528E+01  0.2441E+01
      3.319  0.2551E+01  0.2764E+01
      3.445  0.2685E+01  0.3104E+01
      3.572  0.2286E+01  0.3393E+01
      3.698  0.2011E+01  0.3647E+01
      3.825  0.2004E+01  0.3901E+01
      3.951  0.2095E+01  0.4166E+01
      4.078  0.2404E+01  0.4470E+01
      4.204  0.2653E+01  0.4805E+01
      4.331  0.2376E+01  0.5106E+01
      4.457  0.1782E+01  0.5331E+01
      4.584  0.1176E+01  0.5480E+01
      4.710  0.8425E+00  0.5587E+01
      4.837  0.7413E+00  0.5681E+01
      4.963  0.6088E+00  0.5758E+01
      5.090  0.5957E+00  0.5833E+01
      5.216  0.7419E+00  0.5927E+01
      5.343  0.9690E+00  0.6049E+01
      5.469  0.1244E+01  0.6207E+01
      5.596  0.1495E+01  0.6396E+01
      5.722  0.1902E+01  0.6637E+01
      5.849  0.2571E+01  0.6962E+01
      5.975  0.3078E+01  0.7351E+01
      6.102  0.3182E+01  0.7754E+01
      6.228  0.3482E+01  0.8194E+01
      6.355  0.4098E+01  0.8712E+01
      6.481  0.3907E+01  0.9207E+01
      6.608  0.2571E+01  0.9532E+01
      6.734  0.1551E+01  0.9728E+01
      6.861  0.1417E+01  0.9907E+01
      6.987  0.1669E+01  0.1012E+02
      7.114  0.1564E+01  0.1032E+02
      7.240  0.1129E+01  0.1046E+02
      7.367  0.7475E+00  0.1055E+02
      7.493  0.4723E+00  0.1061E+02
      7.620  0.3668E+00  0.1066E+02
      7.746  0.4111E+00  0.1071E+02
      7.873  0.3849E+00  0.1076E+02
      7.999  0.3020E+00  0.1080E+02
      8.126  0.2630E+00  0.1083E+02
      8.252  0.2115E+00  0.1086E+02
      8.379  0.2615E+00  0.1089E+02
      8.505  0.3991E+00  0.1094E+02
      8.632  0.4013E+00  0.1099E+02
      8.758  0.2936E+00  0.1103E+02
      8.885  0.2472E+00  0.1106E+02
      9.011  0.2366E+00  0.1109E+02
      9.138  0.2611E+00  0.1112E+02
      9.264  0.2294E+00  0.1115E+02
      9.391  0.2128E+00  0.1118E+02
      9.517  0.3554E+00  0.1123E+02
      9.644  0.3937E+00  0.1128E+02
      9.770  0.2529E+00  0.1131E+02
      9.897  0.2145E+00  0.1133E+02
     10.023  0.2209E+00  0.1136E+02
     10.150  0.1683E+00  0.1138E+02
     10.276  0.1832E+00  0.1141E+02
     10.403  0.2445E+00  0.1144E+02
     10.529  0.2557E+00  0.1147E+02
     10.656  0.2439E+00  0.1150E+02
     10.782  0.2769E+00  0.1154E+02
     10.909  0.2681E+00  0.1157E+02
     11.035  0.1959E+00  0.1159E+02
     11.162  0.1636E+00  0.1162E+02
     11.288  0.1430E+00  0.1163E+02
     11.415  0.1081E+00  0.1165E+02
     11.541  0.1427E+00  0.1167E+02
     11.668  0.1830E+00  0.1169E+02
     11.794  0.2251E+00  0.1172E+02
     11.921  0.2378E+00  0.1175E+02
     12.047  0.1833E+00  0.1177E+02
     12.174  0.1722E+00  0.1179E+02
     12.300  0.1311E+00  0.1181E+02
     12.427  0.7723E-01  0.1182E+02
     12.553  0.9352E-01  0.1183E+02
     12.680  0.1171E+00  0.1184E+02
     12.806  0.1112E+00  0.1186E+02
     12.933  0.7577E-01  0.1187E+02
     13.059  0.7878E-01  0.1188E+02
     13.186  0.1534E+00  0.1190E+02
     13.312  0.1712E+00  0.1192E+02
     13.439  0.8657E-01  0.1193E+02
     13.565  0.4456E-01  0.1194E+02
     13.692  0.5332E-01  0.1194E+02
     13.818  0.4372E-01  0.1195E+02
     13.945  0.3753E-01  0.1195E+02
     14.071  0.2533E-01  0.1196E+02
     14.198  0.2732E-01  0.1196E+02
     14.324  0.7998E-01  0.1197E+02
     14.451  0.2185E+00  0.1200E+02
     14.577  0.4413E+00  0.1205E+02
     14.704  0.5745E+00  0.1213E+02
     14.830  0.5441E+00  0.1219E+02
     14.957  0.5170E+00  0.1226E+02
     15.083  0.5048E+00  0.1232E+02
     15.210  0.3895E+00  0.1237E+02
     15.336  0.3690E+00  0.1242E+02
     15.463  0.4443E+00  0.1248E+02
     15.589  0.3541E+00  0.1252E+02
     15.716  0.2800E+00  0.1256E+02
     15.842  0.3520E+00  0.1260E+02
     15.969  0.3684E+00  0.1265E+02
     16.095  0.2926E+00  0.1268E+02
     16.222  0.2713E+00  0.1272E+02
     16.348  0.2964E+00  0.1276E+02
     16.474  0.3710E+00  0.1280E+02
     16.601  0.4370E+00  0.1286E+02
     16.727  0.3871E+00  0.1291E+02
     16.854  0.3193E+00  0.1295E+02
     16.980  0.4084E+00  0.1300E+02
     17.107  0.4604E+00  0.1306E+02
     17.233  0.3414E+00  0.1310E+02
     17.360  0.3327E+00  0.1314E+02
     17.486  0.3998E+00  0.1319E+02
     17.613  0.4018E+00  0.1324E+02
     17.739  0.4403E+00  0.1330E+02
     17.866  0.3978E+00  0.1335E+02
     17.992  0.3315E+00  0.1339E+02
     18.119  0.3510E+00  0.1344E+02
     18.245  0.3567E+00  0.1348E+02
     18.372  0.3348E+00  0.1352E+02
     18.498  0.3399E+00  0.1357E+02
     18.625  0.3643E+00  0.1361E+02
     18.751  0.3293E+00  0.1366E+02
     18.878  0.3651E+00  0.1370E+02
     19.004  0.4446E+00  0.1376E+02
     19.131  0.3540E+00  0.1380E+02
     19.257  0.2646E+00  0.1384E+02
     19.384  0.3058E+00  0.1387E+02
     19.510  0.3141E+00  0.1391E+02
     19.637  0.2713E+00  0.1395E+02
     19.763  0.3847E+00  0.1400E+02
     19.890  0.4959E+00  0.1406E+02
     20.016  0.3520E+00  0.1410E+02
     20.143  0.2828E+00  0.1414E+02
     20.269  0.3265E+00  0.1418E+02
     20.396  0.2324E+00  0.1421E+02
     20.522  0.2038E+00  0.1424E+02
     20.649  0.3329E+00  0.1428E+02
     20.775  0.4377E+00  0.1433E+02
     20.902  0.4081E+00  0.1439E+02
     21.028  0.3177E+00  0.1443E+02
     21.155  0.2419E+00  0.1446E+02
     21.281  0.2156E+00  0.1448E+02
     21.408  0.2143E+00  0.1451E+02
     21.534  0.2227E+00  0.1454E+02
     21.661  0.3297E+00  0.1458E+02
     21.787  0.4292E+00  0.1464E+02
     21.914  0.4223E+00  0.1469E+02
     22.040  0.3178E+00  0.1473E+02
     22.167  0.2382E+00  0.1476E+02
     22.293  0.2219E+00  0.1479E+02
     22.420  0.2043E+00  0.1481E+02
     22.546  0.1921E+00  0.1484E+02
     22.673  0.2092E+00  0.1486E+02
     22.799  0.2790E+00  0.1490E+02
     22.926  0.3831E+00  0.1495E+02
     23.052  0.4487E+00  0.1500E+02
     23.179  0.3135E+00  0.1504E+02
     23.305  0.1387E+00  0.1506E+02
     23.432  0.1385E+00  0.1508E+02
     23.558  0.2107E+00  0.1511E+02
     23.685  0.2305E+00  0.1513E+02
     23.811  0.2425E+00  0.1517E+02
     23.938  0.3071E+00  0.1520E+02
     24.064  0.3354E+00  0.1525E+02
     24.191  0.2343E+00  0.1528E+02
     24.317  0.1796E+00  0.1530E+02
     24.444  0.2356E+00  0.1533E+02
     24.570  0.2480E+00  0.1536E+02
     24.697  0.2118E+00  0.1539E+02
     24.823  0.1840E+00  0.1541E+02
     24.950  0.1919E+00  0.1543E+02
     25.076  0.2533E+00  0.1547E+02
     25.203  0.3529E+00  0.1551E+02
     25.329  0.3283E+00  0.1555E+02
     25.456  0.1754E+00  0.1557E+02
     25.582  0.6220E-01  0.1558E+02
     25.709  0.6102E-01  0.1559E+02
     25.835  0.1259E+00  0.1561E+02
     25.962  0.1516E+00  0.1563E+02
     26.088  0.1539E+00  0.1564E+02
     26.215  0.2236E+00  0.1567E+02
     26.341  0.2106E+00  0.1570E+02
     26.468  0.1275E+00  0.1572E+02
     26.594  0.1069E+00  0.1573E+02
     26.721  0.8590E-01  0.1574E+02
     26.847  0.4668E-01  0.1575E+02
     26.974  0.4887E-01  0.1575E+02
     27.100  0.9967E-01  0.1577E+02
     27.227  0.1394E+00  0.1578E+02
     27.353  0.1862E+00  0.1581E+02
     27.480  0.1501E+00  0.1583E+02
     27.606  0.6155E-01  0.1583E+02
     27.733  0.4290E-01  0.1584E+02
     27.859  0.3632E-01  0.1584E+02
     27.986  0.4611E-01  0.1585E+02
     28.112  0.9994E-01  0.1586E+02
     28.239  0.8813E-01  0.1587E+02
     28.365  0.6309E-01  0.1588E+02
     28.492  0.8198E-01  0.1589E+02
     28.618  0.5447E-01  0.1590E+02
     28.745  0.2619E-01  0.1590E+02
     28.871  0.4310E-01  0.1591E+02
     28.998  0.5328E-01  0.1591E+02
     29.124  0.6623E-01  0.1592E+02
     29.251  0.8096E-01  0.1593E+02
     29.377  0.7088E-01  0.1594E+02
     29.504  0.5985E-01  0.1595E+02
     29.630  0.3836E-01  0.1595E+02
     29.757  0.1304E-01  0.1596E+02
     29.883  0.1262E-02  0.1596E+02
     30.010  0.1375E-02  0.1596E+02
     30.136  0.2294E-01  0.1596E+02
     30.263  0.6049E-01  0.1597E+02
     30.389  0.7410E-01  0.1598E+02
     30.516  0.4834E-01  0.1598E+02
     30.642  0.2423E-01  0.1598E+02
     30.769  0.1107E-01  0.1599E+02
     30.895  0.1177E-01  0.1599E+02
     31.022  0.1300E-01  0.1599E+02
     31.148  0.1517E-01  0.1599E+02
     31.275  0.2999E-01  0.1599E+02
     31.401  0.2642E-01  0.1600E+02
     31.528  0.9835E-02  0.1600E+02
     31.654  0.4163E-02  0.1600E+02
     31.781  0.1285E-02  0.1600E+02
     31.907 -0.2832E-03  0.1600E+02
     32.034 -0.1633E-03  0.1600E+02
     32.160 -0.1948E-04  0.1600E+02
     32.287 -0.8555E-06  0.1600E+02
     32.413 -0.1543E-07  0.1600E+02
     32.540 -0.1189E-09  0.1600E+02
     32.666 -0.3989E-12  0.1600E+02
     32.793 -0.5898E-15  0.1600E+02
     32.919  0.0000E+00  0.1600E+02
     33.046  0.0000E+00  0.1600E+02
     33.172  0.0000E+00  0.1600E+02
     33.299  0.0000E+00  0.1600E+02
     33.425  0.0000E+00  0.1600E+02
     33.552  0.0000E+00  0.1600E+02
