    1    1    1    1
  0.1085882E+02  0.2416211E-09  0.2416211E-09  0.2416211E-09  0.5000000E-15
  1.000000000000000E-004
  CAR 
 bcc Fe                                  
      8    250      8
 
  0.2500000E-01  0.2500000E-01  0.2500000E-01  0.1000000E-02
    1       -2.290188   1.000000
    2        4.442663   1.000000
    3        4.442663   1.000000
    4        4.586113   1.000000
    5        6.096810   0.804591
    6        6.096810   0.804591
    7       30.898867   0.000000
    8       30.898867   0.000000
 
  0.7500000E-01  0.2500000E-01  0.2500000E-01  0.3000000E-02
    1       -1.973183   1.000000
    2        4.343873   1.000000
    3        4.408023   1.000000
    4        4.777915   1.000000
    5        6.010426   0.995708
    6        6.108566   0.764767
    7       29.343027   0.000000
    8       30.266495   0.000000
 
  0.1250000E+00  0.2500000E-01  0.2500000E-01  0.3000000E-02
    1       -1.463714   1.000000
    2        4.193471   1.000000
    3        4.351461   1.000000
    4        5.074301   1.000000
    5        5.916037   1.034768
    6        6.129883   0.685755
    7       27.326302   0.000000
    8       29.423286   0.000000
 
  0.1750000E+00  0.2500000E-01  0.2500000E-01  0.3000000E-02
    1       -0.796662   1.000000
    2        4.011626   1.000000
    3        4.268769   1.000000
    4        5.463293   1.000003
    5        5.864173   1.025180
    6        6.159877   0.563927
    7       25.085058   0.000000
    8       28.445805   0.000000
 
  0.2250000E+00  0.2500000E-01  0.2500000E-01  0.3000000E-02
    1       -0.039287   1.000000
    2        3.817149   1.000000
    3        4.209519   1.000000
    4        5.865861   1.025569
    5        5.925363   1.035375
    6        6.197357   0.406190
    7       22.769001   0.000000
    8       27.443577   0.000000
 
  0.2750000E+00  0.2500000E-01  0.2500000E-01  0.3000000E-02
    1        0.683044   1.000000
    2        3.629063   1.000000
    3        4.299587   1.000000
    4        5.928841   1.035452
    5        6.235921   0.255120
    6        6.406292  -0.034667
    7       20.483230   0.000000
    8       26.511386   0.000000
 
  0.3250000E+00  0.2500000E-01  0.2500000E-01  0.3000000E-02
    1        1.198094   1.000000
    2        3.462346   1.000000
    3        4.696076   1.000000
    4        6.009199   0.997138
    5        6.278436   0.120701
    6        6.888894  -0.000003
    7       18.327122   0.000000
    8       25.722081   0.000000
 
  0.3750000E+00  0.2500000E-01  0.2500000E-01  0.3000000E-02
    1        1.439292   1.000000
    2        3.334530   1.000000
    3        5.381281   1.000000
    4        6.091531   0.821491
    5        6.316673   0.037296
    6        7.332210  -0.000000
    7       16.425430   0.000000
    8       25.128915   0.000000
 
  0.4250000E+00  0.2500000E-01  0.2500000E-01  0.3000000E-02
    1        1.511960   1.000000
    2        3.253679   1.000000
    3        5.997229   1.009449
    4        6.210961   0.350661
    5        6.342884   0.000580
    6        7.700256  -0.000000
    7       15.008287   0.000000
    8       24.759455   0.000000
 
  0.4750000E+00  0.2500000E-01  0.2500000E-01  0.1500000E-02
    1        1.523603   1.000000
    2        3.225930   1.000000
    3        6.104774   0.777930
    4        6.348738  -0.005561
    5        6.402995  -0.034213
    6        7.871728  -0.000000
    7       14.444523   0.000000
    8       24.634500   0.000000
 
 -0.2500000E-01  0.2500000E-01  0.2500000E-01  0.7500000E-03
    1       -2.397589   1.000000
    2        4.476022   1.000000
    3        4.476091   1.000000
    4        4.503202   1.000000
    5        6.092250   0.819229
    6        6.132649   0.674953
    7       31.228091   0.000000
    8       31.551660   0.000000
 
  0.7500000E-01  0.7500000E-01  0.2500000E-01  0.3000000E-02
    1       -1.562828   1.000000
    2        4.246286   1.000000
    3        4.297385   1.000000
    4        5.054800   1.000000
    5        5.951507   1.033422
    6        6.110274   0.758744
    7       28.092792   0.000000
    8       28.871989   0.000000
 
  0.1250000E+00  0.7500000E-01  0.2500000E-01  0.6000000E-02
    1       -0.976316   1.000000
    2        4.085450   1.000000
    3        4.193627   1.000000
    4        5.426147   1.000001
    5        5.881437   1.029053
    6        6.148564   0.610920
    7       26.200137   0.000000
    8       27.732578   0.000000
 
  0.1750000E+00  0.7500000E-01  0.2500000E-01  0.6000000E-02
    1       -0.260237   1.000000
    2        3.893335   1.000000
    3        4.092398   1.000000
    4        5.843015   1.020317
    5        5.885938   1.029999
    6        6.196821   0.408409
    7       23.988199   0.000000
    8       26.731856   0.000000
 
  0.2250000E+00  0.7500000E-01  0.2500000E-01  0.6000000E-02
    1        0.495237   1.000000
    2        3.701311   1.000000
    3        4.060545   1.000000
    4        5.884275   1.029654
    5        6.237244   0.250349
    6        6.393202  -0.032168
    7       21.705871   0.000000
    8       25.824575   0.000000
 
  0.2750000E+00  0.7500000E-01  0.2500000E-01  0.6000000E-02
    1        1.131844   1.000000
    2        3.526402   1.000000
    3        4.234170   1.000000
    4        5.953011   1.033104
    5        6.288580   0.094989
    6        6.935920  -0.000001
    7       19.476807   0.000000
    8       25.035823   0.000000
 
  0.3250000E+00  0.7500000E-01  0.2500000E-01  0.6000000E-02
    1        1.497676   1.000000
    2        3.383800   1.000000
    3        4.702748   1.000000
    4        6.034358   0.961046
    5        6.340943   0.002774
    6        7.500893  -0.000000
    7       17.416933   0.000000
    8       24.403822   0.000000
 
  0.3750000E+00  0.7500000E-01  0.2500000E-01  0.6000000E-02
    1        1.626946   1.000000
    2        3.283228   1.000000
    3        5.287737   1.000000
    4        6.095196   0.809824
    5        6.409884  -0.035037
    6        8.064960  -0.000000
    7       15.695580   0.000000
    8       23.959875   0.000000
 
  0.4250000E+00  0.7500000E-01  0.2500000E-01  0.6000000E-02
    1        1.653350   1.000000
    2        3.231160   1.000000
    3        5.662761   1.000876
    4        6.112269   0.751634
    5        6.484267  -0.025555
    6        8.504080  -0.000000
    7       14.616210   0.000000
    8       23.730091   0.000000
 
 -0.7500000E-01  0.7500000E-01  0.2500000E-01  0.3000000E-02
    1       -2.183552   1.000000
    2        4.419051   1.000000
    3        4.468201   1.000000
    4        4.609361   1.000000
    5        6.012852   0.992785
    6        6.146940   0.617583
    7       30.143430   0.000000
    8       31.280729   0.000000
 
  0.1250000E+00  0.1250000E+00  0.2500000E-01  0.3000000E-02
    1       -0.335527   1.000000
    2        3.963098   1.000000
    3        4.005258   1.000000
    4        5.838491   1.019307
    5        5.869066   1.026304
    6        6.208337   0.361224
    7       24.875854   0.000000
    8       25.956197   0.000000
 
  0.1750000E+00  0.1250000E+00  0.2500000E-01  0.6000000E-02
    1        0.398252   1.000000
    2        3.779398   1.000000
    3        3.885838   1.000000
    4        5.835064   1.018554
    5        6.246081   0.219368
    6        6.415534  -0.035379
    7       22.946997   0.000000
    8       24.684180   0.000000
 
  0.2250000E+00  0.1250000E+00  0.2500000E-01  0.6000000E-02
    1        1.108180   1.000000
    2        3.590320   1.000000
    3        3.890632   1.000000
    4        5.884468   1.029694
    5        6.312505   0.044616
    6        7.002969  -0.000000
    7       20.746502   0.000000
    8       23.784266   0.000000
 
  0.2750000E+00  0.1250000E+00  0.2500000E-01  0.6000000E-02
    1        1.613644   1.000000
    2        3.437322   1.000000
    3        4.118775   1.000000
    4        5.964956   1.029597
    5        6.366296  -0.019980
    6        7.661802  -0.000000
    7       18.590481   0.000000
    8       23.072594   0.000000
 
  0.3250000E+00  0.1250000E+00  0.2500000E-01  0.6000000E-02
    1        1.829930   1.000000
    2        3.326478   1.000000
    3        4.556719   1.000000
    4        6.046371   0.938504
    5        6.425038  -0.035363
    6        8.378803  -0.000000
    7       16.639346   0.000000
    8       22.536700   0.000000
 
  0.3750000E+00  0.1250000E+00  0.2500000E-01  0.6000000E-02
    1        1.878838   1.000000
    2        3.258922   1.000000
    3        4.955934   1.000000
    4        6.097459   0.802470
    5        6.500473  -0.021813
    6        9.082410  -0.000000
    7       15.124864   0.000000
    8       22.202463   0.000000
 
  0.4250000E+00  0.1250000E+00  0.2500000E-01  0.3000000E-02
    1        1.882442   1.000000
    2        3.236004   1.000000
    3        5.107998   1.000000
    4        6.110805   0.756857
    5        6.537120  -0.014033
    6        9.431495  -0.000000
    7       14.493998   0.000000
    8       22.087017   0.000000
 
 -0.1250000E+00  0.1250000E+00  0.2500000E-01  0.3000000E-02
    1       -1.766409   1.000000
    2        4.295251   1.000000
    3        4.437382   1.000000
    4        4.845184   1.000000
    5        5.906903   1.033698
    6        6.162299   0.553761
    7       28.375379   0.000000
    8       30.567134   0.000000
 
 -0.7500000E-01  0.1250000E+00  0.2500000E-01  0.3000000E-02
    1       -1.868883   1.000000
    2        4.367861   1.000000
    3        4.421372   1.000000
    4        4.770349   1.000000
    5        5.892130   1.031229
    6        6.182452   0.468632
    7       28.985826   0.000000
    8       30.363421   0.000000
 
  0.1750000E+00  0.1750000E+00  0.2500000E-01  0.3000000E-02
    1        1.104253   1.000000
    2        3.630987   1.000000
    3        3.752103   1.000000
    4        5.853069   1.022612
    5        6.322266   0.028132
    6        7.032149  -0.000000
    7       21.769574   0.000000
    8       22.716715   0.000000
 
  0.2250000E+00  0.1750000E+00  0.2500000E-01  0.6000000E-02
    1        1.719204   1.000000
    2        3.464916   1.000000
    3        3.780773   1.000000
    4        5.910405   1.034157
    5        6.378197  -0.026692
    6        7.753480  -0.000000
    7       19.877609   0.000000
    8       21.604973   0.000000
 
  0.2750000E+00  0.1750000E+00  0.2500000E-01  0.6000000E-02
    1        2.071984   1.000000
    2        3.352413   1.000000
    3        4.006325   1.000000
    4        5.997435   1.009261
    5        6.424864  -0.035369
    6        8.580776  -0.000000
    7       17.817425   0.000000
    8       20.937621   0.000000
 
  0.3250000E+00  0.1750000E+00  0.2500000E-01  0.6000000E-02
    1        2.173269   1.000000
    2        3.287543   1.000000
    3        4.336173   1.000000
    4        6.076246   0.866749
    5        6.475168  -0.027621
    6        9.488964  -0.000000
    7       15.992444   0.000000
    8       20.490626   0.000000
 
  0.3750000E+00  0.1750000E+00  0.2500000E-01  0.6000000E-02
    1        2.180299   1.000000
    2        3.257616   1.000000
    3        4.555436   1.000000
    4        6.120046   0.723206
    5        6.516110  -0.018313
    6       10.256310  -0.000000
    7       14.742691   0.000000
    8       20.263777   0.000000
 
 -0.1750000E+00  0.1750000E+00  0.2500000E-01  0.3000000E-02
    1       -1.171432   1.000000
    2        4.128534   1.000000
    3        4.371286   1.000000
    4        5.183764   1.000000
    5        5.824118   1.016237
    6        6.184847   0.458527
    7       26.225153   0.000000
    8       29.546840   0.000000
 
 -0.1250000E+00  0.1750000E+00  0.2500000E-01  0.6000000E-02
    1       -1.363402   1.000000
    2        4.240540   1.000000
    3        4.364615   1.000000
    4        5.061156   1.000000
    5        5.776276   1.008156
    6        6.219938   0.315197
    7       27.271578   0.000000
    8       29.180761   0.000000
 
  0.2250000E+00  0.2250000E+00  0.2500000E-01  0.3000000E-02
    1        2.202878   1.000000
    2        3.344132   1.000000
    3        3.794095   1.000000
    4        5.973485   1.025912
    5        6.423649  -0.035407
    6        8.650764  -0.000000
    7       18.871939   0.000000
    8       19.734497   0.000000
 
  0.2750000E+00  0.2250000E+00  0.2500000E-01  0.6000000E-02
    1        2.443573   1.000000
    2        3.285753   1.000000
    3        3.924721   1.000000
    4        6.058560   0.911944
    5        6.454613  -0.031849
    6        9.691264  -0.000000
    7       17.122978   0.000000
    8       18.916830   0.000000
 
  0.3250000E+00  0.2250000E+00  0.2500000E-01  0.6000000E-02
    1        2.494664   1.000000
    2        3.276694   1.000000
    3        4.081824   1.000000
    4        6.136919   0.658070
    5        6.472554  -0.028201
    6       10.788260  -0.000000
    7       15.435923   0.000000
    8       18.542141   0.000000
 
  0.3750000E+00  0.2250000E+00  0.2500000E-01  0.3000000E-02
    1        2.495363   1.000000
    2        3.277458   1.000000
    3        4.147623   1.000000
    4        6.167823   0.530486
    5        6.476685  -0.027282
    6       11.421190  -0.000000
    7       14.598025   0.000000
    8       18.419738   0.000000
 
 -0.2250000E+00  0.2250000E+00  0.2500000E-01  0.3000000E-02
    1       -0.447642   1.000000
    2        3.940180   1.000000
    3        4.290257   1.000000
    4        5.603971   1.000205
    5        5.805705   1.012704
    6        6.216328   0.329327
    7       23.927657   0.000000
    8       28.435061   0.000000
 
 -0.1750000E+00  0.2250000E+00  0.2500000E-01  0.6000000E-02
    1       -0.702114   1.000000
    2        4.067354   1.000000
    3        4.280821   1.000000
    4        5.448847   1.000002
    5        5.714786   1.002686
    6        6.262103   0.167448
    7       25.132237   0.000000
    8       28.076919   0.000000
 
 -0.1250000E+00  0.2250000E+00  0.2500000E-01  0.3000000E-02
    1       -0.788442   1.000000
    2        4.157151   1.000000
    3        4.224051   1.000000
    4        5.409893   1.000000
    5        5.670067   1.001036
    6        6.281279   0.113234
    7       25.947323   0.000000
    8       27.352859   0.000000
 
  0.2750000E+00  0.2750000E+00  0.2500000E-01  0.3000000E-02
    1        2.662662   1.000000
    2        3.284520   1.000000
    3        3.861207   1.000000
    4        6.147929   0.613526
    5        6.448171  -0.032950
    6       10.962771  -0.000000
    7       16.168873   0.000000
    8       17.468582   0.000000
 
  0.3250000E+00  0.2750000E+00  0.2500000E-01  0.6000000E-02
    1        2.732183   1.000000
    2        3.344384   1.000000
    3        3.808433   1.000000
    4        6.226430   0.290279
    5        6.418148  -0.035445
    6       12.225380   0.000000
    7       14.804197   0.000000
    8       16.990431   0.000000
 
 -0.2750000E+00  0.2750000E+00  0.2500000E-01  0.3000000E-02
    1        0.311381   1.000000
    2        3.746785   1.000000
    3        4.282680   1.000000
    4        5.850052   1.021918
    5        6.067216   0.890806
    6        6.253523   0.194538
    7       21.605945   0.000000
    8       27.374918   0.000000
 
 -0.2250000E+00  0.2750000E+00  0.2500000E-01  0.6000000E-02
    1        0.048083   1.000000
    2        3.875631   1.000000
    3        4.204720   1.000000
    4        5.726243   1.003364
    5        5.905924   1.033560
    6        6.308205   0.052616
    7       22.838309   0.000000
    8       27.062415   0.000000
 
 -0.1750000E+00  0.2750000E+00  0.2500000E-01  0.6000000E-02
    1       -0.088128   1.000000
    2        3.995276   1.000000
    3        4.103139   1.000000
    4        5.631476   1.000414
    5        5.849034   1.021685
    6        6.349010  -0.005830
    7       24.058076   0.000000
    8       25.937225   0.000000
 
  0.3250000E+00  0.3250000E+00  0.2500000E-01  0.1000000E-02
    1        2.813211   1.000000
    2        3.540896   1.000000
    3        3.540953   1.000000
    4        6.326627   0.021500
    5        6.326670   0.021437
    6       13.683549   0.000000
    7       13.683629   0.000000
    8       16.401899   0.000000
 
 -0.3250000E+00  0.3250000E+00  0.2500000E-01  0.3000000E-02
    1        0.949000   1.000000
    2        3.567999   1.000000
    3        4.507553   1.000000
    4        5.939275   1.035112
    5        6.301615   0.065765
    6        6.535914  -0.014263
    7       19.372460   0.000000
    8       26.453235   0.000000
 
 -0.2750000E+00  0.3250000E+00  0.2500000E-01  0.6000000E-02
    1        0.763705   1.000000
    2        3.689843   1.000000
    3        4.251032   1.000000
    4        5.813153   1.014073
    5        6.316734   0.037192
    6        6.444240  -0.033546
    7       20.554084   0.000000
    8       26.158499   0.000000
 
 -0.2250000E+00  0.3250000E+00  0.2500000E-01  0.6000000E-02
    1        0.649844   1.000000
    2        3.798011   1.000000
    3        4.049021   1.000000
    4        5.677637   1.001227
    5        6.271660   0.139306
    6        6.508886  -0.019905
    7       21.835521   0.000000
    8       24.929220   0.000000
 
 -0.1750000E+00  0.3250000E+00  0.2500000E-01  0.3000000E-02
    1        0.611555   1.000000
    2        3.851734   1.000000
    3        3.965596   1.000000
    4        5.621167   1.000320
    5        6.257496   0.181786
    6        6.537660  -0.013932
    7       22.832853   0.000000
    8       23.890221   0.000000
 
 -0.3750000E+00  0.3750000E+00  0.2500000E-01  0.3000000E-02
    1        1.323348   1.000000
    2        3.419247   1.000000
    3        5.050310   1.000000
    4        6.042760   0.945654
    5        6.383479  -0.028973
    6        6.959910  -0.000000
    7       17.324379   0.000000
    8       25.723313   0.000000
 
 -0.3250000E+00  0.3750000E+00  0.2500000E-01  0.6000000E-02
    1        1.274759   1.000000
    2        3.527643   1.000000
    3        4.550593   1.000000
    4        5.932867   1.035427
    5        6.433453  -0.034821
    6        6.913714  -0.000001
    7       18.393543   0.000000
    8       25.398607   0.000000
 
 -0.2750000E+00  0.3750000E+00  0.2500000E-01  0.6000000E-02
    1        1.274519   1.000000
    2        3.624313   1.000000
    3        4.138443   1.000000
    4        5.788513   1.009879
    5        6.416329  -0.035405
    6        7.015833  -0.000000
    7       19.608683   0.000000
    8       24.117962   0.000000
 
 -0.2250000E+00  0.3750000E+00  0.2500000E-01  0.6000000E-02
    1        1.290290   1.000000
    2        3.651365   1.000000
    3        3.946212   1.000000
    4        5.683794   1.001405
    5        6.402601  -0.034152
    6        7.090482  -0.000000
    7       20.912854   0.000000
    8       22.663620   0.000000
 
 -0.4250000E+00  0.4250000E+00  0.2500000E-01  0.3000000E-02
    1        1.465534   1.000000
    2        3.313045   1.000000
    3        5.676037   1.001184
    4        6.114318   0.744251
    5        6.608290  -0.004505
    6        7.285126  -0.000000
    7       15.629067   0.000000
    8       25.217784   0.000000
 
 -0.3750000E+00  0.4250000E+00  0.2500000E-01  0.6000000E-02
    1        1.512917   1.000000
    2        3.402402   1.000000
    3        5.042094   1.000000
    4        6.028416   0.970895
    5        6.625681  -0.003245
    6        7.394408  -0.000000
    7       16.476490   0.000000
    8       24.823448   0.000000
 
 -0.3250000E+00  0.4250000E+00  0.2500000E-01  0.6000000E-02
    1        1.636354   1.000000
    2        3.491359   1.000000
    3        4.437208   1.000000
    4        5.912970   1.034456
    5        6.537648  -0.013934
    6        7.644242  -0.000000
    7       17.530550   0.000000
    8       23.474881   0.000000
 
 -0.2750000E+00  0.4250000E+00  0.2500000E-01  0.6000000E-02
    1        1.787919   1.000000
    2        3.511755   1.000000
    3        4.041702   1.000000
    4        5.798424   1.011450
    5        6.483517  -0.025727
    6        7.816493  -0.000000
    7       18.773543   0.000000
    8       21.896577   0.000000
 
 -0.2250000E+00  0.4250000E+00  0.2500000E-01  0.3000000E-02
    1        1.864070   1.000000
    2        3.468605   1.000000
    3        3.938690   1.000000
    4        5.750079   1.005233
    5        6.467112  -0.029376
    6        7.874947  -0.000000
    7       19.858527   0.000000
    8       20.685629   0.000000
 
 -0.4750000E+00  0.4750000E+00  0.2500000E-01  0.3000000E-02
    1        1.499991   1.000000
    2        3.257534   1.000000
    3        5.996033   1.010522
    4        6.107076   0.769973
    5        6.982827  -0.000000
    6        7.460994  -0.000000
    7       14.588645   0.000000
    8       24.958986   0.000000
 
 -0.4250000E+00  0.4750000E+00  0.2500000E-01  0.6000000E-02
    1        1.582445   1.000000
    2        3.323256   1.000000
    3        5.440770   1.000001
    4        6.052054   0.926585
    5        6.902898  -0.000002
    6        7.843693  -0.000000
    7       15.032039   0.000000
    8       24.463015   0.000000
 
 -0.3750000E+00  0.4750000E+00  0.2500000E-01  0.6000000E-02
    1        1.761876   1.000000
    2        3.400436   1.000000
    3        4.803804   1.000000
    4        5.987143   1.017649
    5        6.718342  -0.000417
    6        8.322441  -0.000000
    7       15.770728   0.000000
    8       23.020529   0.000000
 
 -0.3250000E+00  0.4750000E+00  0.2500000E-01  0.6000000E-02
    1        2.010845   1.000000
    2        3.436791   1.000000
    3        4.264482   1.000000
    4        5.914427   1.034611
    5        6.588444  -0.006399
    6        8.653147  -0.000000
    7       16.792332   0.000000
    8       21.340225   0.000000
 
 -0.2750000E+00  0.4750000E+00  0.2500000E-01  0.6000000E-02
    1        2.240385   1.000000
    2        3.362047   1.000000
    3        3.990678   1.000000
    4        5.863535   1.025033
    5        6.521516  -0.017158
    6        8.816843  -0.000000
    7       18.017833   0.000000
    8       19.761197   0.000000
 
 -0.4750000E+00 -0.4750000E+00  0.2500000E-01  0.3000000E-02
    1        1.593517   1.000000
    2        3.296290   1.000000
    3        5.583117   1.000117
    4        6.044053   0.943131
    5        7.036239  -0.000000
    6        8.074171  -0.000000
    7       14.457329   0.000000
    8       24.339760   0.000000
 
 -0.4250000E+00 -0.4750000E+00  0.2500000E-01  0.6000000E-02
    1        1.785396   1.000000
    2        3.353875   1.000000
    3        5.031022   1.000000
    4        6.004768   1.002038
    5        6.869596  -0.000005
    6        8.878726  -0.000000
    7       14.644264   0.000000
    8       22.784332   0.000000
 
 -0.3750000E+00 -0.4750000E+00  0.2500000E-01  0.6000000E-02
    1        2.059936   1.000000
    2        3.398421   1.000000
    3        4.483370   1.000000
    4        5.980755   1.021898
    5        6.708744  -0.000528
    6        9.506615  -0.000000
    7       15.207856   0.000000
    8       20.992421   0.000000
 
 -0.3250000E+00 -0.4750000E+00  0.2500000E-01  0.6000000E-02
    1        2.376045   1.000000
    2        3.361280   1.000000
    3        4.072092   1.000000
    4        5.976001   1.024618
    5        6.583159  -0.006996
    6        9.880430  -0.000000
    7       16.155572   0.000000
    8       19.279123   0.000000
 
 -0.2750000E+00 -0.4750000E+00  0.2500000E-01  0.3000000E-02
    1        2.565491   1.000000
    2        3.264037   1.000000
    3        3.934879   1.000000
    4        5.977954   1.023545
    5        6.534629  -0.014509
    6        9.998759  -0.000000
    7       17.057441   0.000000
    8       18.117662   0.000000
 
 -0.4250000E+00 -0.4250000E+00  0.2500000E-01  0.3000000E-02
    1        2.062672   1.000000
    2        3.387158   1.000000
    3        4.568537   1.000000
    4        5.998008   1.008736
    5        6.765844  -0.000120
    6        9.945107  -0.000000
    7       14.523975   0.000000
    8       20.877308   0.000000
 
 -0.3750000E+00 -0.4250000E+00  0.2500000E-01  0.6000000E-02
    1        2.391358   1.000000
    2        3.385490   1.000000
    3        4.132150   1.000000
    4        6.037552   0.955400
    5        6.635234  -0.002689
    6       10.814130  -0.000000
    7       14.796743   0.000000
    8       19.035521   0.000000
 
 -0.3250000E+00 -0.4250000E+00  0.2500000E-01  0.6000000E-02
    1        2.701299   1.000000
    2        3.302770   1.000000
    3        3.849859   1.000000
    4        6.097797   0.801361
    5        6.523892  -0.016661
    6       11.276688  -0.000000
    7       15.503953   0.000000
    8       17.509605   0.000000
 
 -0.3750000E+00 -0.3750000E+00  0.2500000E-01  0.3000000E-02
    1        2.720746   1.000000
    2        3.367170   1.000000
    3        3.792939   1.000000
    4        6.150784   0.601777
    5        6.517585  -0.017995
    6       12.086964   0.000000
    7       14.548746   0.000000
    8       17.358893   0.000000
 
 -0.3250000E+00 -0.3750000E+00  0.2500000E-01  0.3000000E-02
    1        2.905086   1.000000
    2        3.356579   1.000000
    3        3.608824   1.000000
    4        6.248283   0.211897
    5        6.423399  -0.035414
    6       12.761655   0.000000
    7       14.464340   0.000000
    8       16.549072   0.000000
 
  0.7500000E-01  0.7500000E-01  0.7500000E-01  0.1000000E-02
    1       -1.069571   1.000000
    2        4.124190   1.000000
    3        4.124190   1.000000
    4        5.426809   1.000001
    5        6.028200   0.971238
    6        6.028200   0.971238
    7       27.123496   0.000000
    8       27.123496   0.000000
 
  0.1250000E+00  0.7500000E-01  0.7500000E-01  0.3000000E-02
    1       -0.420235   1.000000
    2        3.927377   1.000000
    3        3.991851   1.000000
    4        5.878566   1.028432
    5        5.969734   1.027663
    6        6.103538   0.782158
    7       25.120500   0.000000
    8       26.168534   0.000000
 
  0.1750000E+00  0.7500000E-01  0.7500000E-01  0.3000000E-02
    1        0.324341   1.000000
    2        3.728673   1.000000
    3        3.882862   1.000000
    4        5.960546   1.031103
    5        6.172268   0.511697
    6        6.401010  -0.033886
    7       22.925771   0.000000
    8       25.272755   0.000000
 
  0.2250000E+00  0.7500000E-01  0.7500000E-01  0.3000000E-02
    1        1.044015   1.000000
    2        3.548448   1.000000
    3        3.894896   1.000000
    4        5.994853   1.011553
    5        6.231922   0.269741
    6        6.984830  -0.000000
    7       20.687899   0.000000
    8       24.481297   0.000000
 
  0.2750000E+00  0.7500000E-01  0.7500000E-01  0.3000000E-02
    1        1.551942   1.000000
    2        3.394072   1.000000
    3        4.170157   1.000000
    4        6.050000   0.930987
    5        6.283914   0.106496
    6        7.616396  -0.000000
    7       18.528285   0.000000
    8       23.820279   0.000000
 
  0.3250000E+00  0.7500000E-01  0.7500000E-01  0.3000000E-02
    1        1.766812   1.000000
    2        3.277810   1.000000
    3        4.696344   1.000000
    4        6.107258   0.769342
    5        6.325223   0.023587
    6        8.290284  -0.000000
    7       16.589774   0.000000
    8       23.325332   0.000000
 
  0.3750000E+00  0.7500000E-01  0.7500000E-01  0.3000000E-02
    1        1.815825   1.000000
    2        3.205330   1.000000
    3        5.196159   1.000000
    4        6.145030   0.625383
    5        6.350735  -0.007497
    6        8.936802  -0.000000
    7       15.100691   0.000000
    8       23.016746   0.000000
 
  0.4250000E+00  0.7500000E-01  0.7500000E-01  0.1500000E-02
    1        1.819272   1.000000
    2        3.180681   1.000000
    3        5.395893   1.000000
    4        6.156444   0.578283
    5        6.356947  -0.013019
    6        9.252578  -0.000000
    7       14.484281   0.000000
    8       22.912213   0.000000
 
 -0.7500000E-01  0.7500000E-01  0.7500000E-01  0.7500000E-03
    1       -1.972423   1.000000
    2        4.467070   1.000000
    3        4.467148   1.000000
    4        4.614896   1.000000
    5        5.869089   1.026309
    6        6.211204   0.349689
    7       29.457606   0.000000
    8       31.147981   0.000000
 
  0.1250000E+00  0.1250000E+00  0.7500000E-01  0.3000000E-02
    1        0.265778   1.000000
    2        3.769426   1.000000
    3        3.788478   1.000000
    4        5.992739   1.013333
    5        6.145061   0.625256
    6        6.413470  -0.035287
    7       23.877922   0.000000
    8       24.561984   0.000000
 
  0.1750000E+00  0.1250000E+00  0.7500000E-01  0.6000000E-02
    1        1.003970   1.000000
    2        3.584720   1.000000
    3        3.676082   1.000000
    4        6.005409   1.001354
    5        6.216752   0.327659
    6        7.021852  -0.000000
    7       21.941695   0.000000
    8       23.502814   0.000000
 
  0.2250000E+00  0.1250000E+00  0.7500000E-01  0.6000000E-02
    1        1.638908   1.000000
    2        3.420853   1.000000
    3        3.735133   1.000000
    4        6.046972   0.937280
    5        6.279958   0.116678
    6        7.706304  -0.000000
    7       19.785265   0.000000
    8       22.739668   0.000000
 
  0.2750000E+00  0.1250000E+00  0.7500000E-01  0.6000000E-02
    1        1.981053   1.000000
    2        3.295353   1.000000
    3        4.071790   1.000000
    4        6.104363   0.779338
    5        6.329669   0.017136
    6        8.467623  -0.000000
    7       17.709598   0.000000
    8       22.151223   0.000000
 
  0.3250000E+00  0.1250000E+00  0.7500000E-01  0.6000000E-02
    1        2.068577   1.000000
    2        3.211223   1.000000
    3        4.542471   1.000000
    4        6.156003   0.580118
    5        6.366348  -0.020014
    6        9.285074  -0.000000
    7       15.913009   0.000000
    8       21.744547   0.000000
 