<?xml version="1.0" encoding="ISO-8859-1"?>
<modeling>
 <generator>
  <i name="program" type="string">vasp </i>
  <i name="version" type="string">5.4.4.18Apr17-6-g9f103f2a35  </i>
  <i name="subversion" type="string">(build May 20 2018 16:52:39) complex            parallel </i>
  <i name="platform" type="string">LinuxIFC </i>
  <i name="date" type="string">2022 10 31 </i>
  <i name="time" type="string">00:16:30 </i>
 </generator>
 <incar>
  <i type="string" name="SYSTEM"> bcc Fe</i>
  <i type="string" name="PREC">normal</i>
  <i name="EDIFF">      0.00000100</i>
  <i type="logical" name="LWAVE"> F  </i>
  <v type="int" name="KPOINT_BSE">    -1     0     0     0</v>
 </incar>
 <structure name="primitive_cell" >
  <crystal>
   <varray name="basis" >
    <v>      -1.39500000       1.39500000       1.39500000 </v>
    <v>       1.39500000      -1.39500000       1.39500000 </v>
    <v>       1.39500000       1.39500000      -1.39500000 </v>
   </varray>
   <i name="volume">     10.85881950 </i>
   <varray name="rec_basis" >
    <v>       0.00000000       0.35842294       0.35842294 </v>
    <v>       0.35842294       0.00000000       0.35842294 </v>
    <v>       0.35842294       0.35842294       0.00000000 </v>
   </varray>
  </crystal>
  <varray name="positions" >
   <v>       0.00000000       0.00000000       0.00000000 </v>
  </varray>
 </structure>
 <varray name="primitive_index" >
  <v type="int" >        1 </v>
 </varray>
 <kpoints>
  <generation param="Monkhorst-Pack">
   <v type="int" name="divisions">      20       20       20 </v>
   <v name="usershift">      0.00000000       0.00000000       0.00000000 </v>
   <v name="genvec1">      0.05000000       0.00000000       0.00000000 </v>
   <v name="genvec2">      0.00000000       0.05000000       0.00000000 </v>
   <v name="genvec3">      0.00000000       0.00000000       0.05000000 </v>
   <v name="shift">      0.50000000       0.50000000       0.50000000 </v>
  </generation>
  <varray name="kpointlist" >
   <v>       0.02500000       0.02500000       0.02500000 </v>
   <v>       0.07500000       0.02500000       0.02500000 </v>
   <v>       0.12500000       0.02500000       0.02500000 </v>
   <v>       0.17500000       0.02500000       0.02500000 </v>
   <v>       0.22500000       0.02500000       0.02500000 </v>
   <v>       0.27500000       0.02500000       0.02500000 </v>
   <v>       0.32500000       0.02500000       0.02500000 </v>
   <v>       0.37500000       0.02500000       0.02500000 </v>
   <v>       0.42500000       0.02500000       0.02500000 </v>
   <v>       0.47500000       0.02500000       0.02500000 </v>
   <v>      -0.02500000       0.02500000       0.02500000 </v>
   <v>       0.07500000       0.07500000       0.02500000 </v>
   <v>       0.12500000       0.07500000       0.02500000 </v>
   <v>       0.17500000       0.07500000       0.02500000 </v>
   <v>       0.22500000       0.07500000       0.02500000 </v>
   <v>       0.27500000       0.07500000       0.02500000 </v>
   <v>       0.32500000       0.07500000       0.02500000 </v>
   <v>       0.37500000       0.07500000       0.02500000 </v>
   <v>       0.42500000       0.07500000       0.02500000 </v>
   <v>      -0.07500000       0.07500000       0.02500000 </v>
   <v>       0.12500000       0.12500000       0.02500000 </v>
   <v>       0.17500000       0.12500000       0.02500000 </v>
   <v>       0.22500000       0.12500000       0.02500000 </v>
   <v>       0.27500000       0.12500000       0.02500000 </v>
   <v>       0.32500000       0.12500000       0.02500000 </v>
   <v>       0.37500000       0.12500000       0.02500000 </v>
   <v>       0.42500000       0.12500000       0.02500000 </v>
   <v>      -0.12500000       0.12500000       0.02500000 </v>
   <v>      -0.07500000       0.12500000       0.02500000 </v>
   <v>       0.17500000       0.17500000       0.02500000 </v>
   <v>       0.22500000       0.17500000       0.02500000 </v>
   <v>       0.27500000       0.17500000       0.02500000 </v>
   <v>       0.32500000       0.17500000       0.02500000 </v>
   <v>       0.37500000       0.17500000       0.02500000 </v>
   <v>      -0.17500000       0.17500000       0.02500000 </v>
   <v>      -0.12500000       0.17500000       0.02500000 </v>
   <v>       0.22500000       0.22500000       0.02500000 </v>
   <v>       0.27500000       0.22500000       0.02500000 </v>
   <v>       0.32500000       0.22500000       0.02500000 </v>
   <v>       0.37500000       0.22500000       0.02500000 </v>
   <v>      -0.22500000       0.22500000       0.02500000 </v>
   <v>      -0.17500000       0.22500000       0.02500000 </v>
   <v>      -0.12500000       0.22500000       0.02500000 </v>
   <v>       0.27500000       0.27500000       0.02500000 </v>
   <v>       0.32500000       0.27500000       0.02500000 </v>
   <v>      -0.27500000       0.27500000       0.02500000 </v>
   <v>      -0.22500000       0.27500000       0.02500000 </v>
   <v>      -0.17500000       0.27500000       0.02500000 </v>
   <v>       0.32500000       0.32500000       0.02500000 </v>
   <v>      -0.32500000       0.32500000       0.02500000 </v>
   <v>      -0.27500000       0.32500000       0.02500000 </v>
   <v>      -0.22500000       0.32500000       0.02500000 </v>
   <v>      -0.17500000       0.32500000       0.02500000 </v>
   <v>      -0.37500000       0.37500000       0.02500000 </v>
   <v>      -0.32500000       0.37500000       0.02500000 </v>
   <v>      -0.27500000       0.37500000       0.02500000 </v>
   <v>      -0.22500000       0.37500000       0.02500000 </v>
   <v>      -0.42500000       0.42500000       0.02500000 </v>
   <v>      -0.37500000       0.42500000       0.02500000 </v>
   <v>      -0.32500000       0.42500000       0.02500000 </v>
   <v>      -0.27500000       0.42500000       0.02500000 </v>
   <v>      -0.22500000       0.42500000       0.02500000 </v>
   <v>      -0.47500000       0.47500000       0.02500000 </v>
   <v>      -0.42500000       0.47500000       0.02500000 </v>
   <v>      -0.37500000       0.47500000       0.02500000 </v>
   <v>      -0.32500000       0.47500000       0.02500000 </v>
   <v>      -0.27500000       0.47500000       0.02500000 </v>
   <v>      -0.47500000      -0.47500000       0.02500000 </v>
   <v>      -0.42500000      -0.47500000       0.02500000 </v>
   <v>      -0.37500000      -0.47500000       0.02500000 </v>
   <v>      -0.32500000      -0.47500000       0.02500000 </v>
   <v>      -0.27500000      -0.47500000       0.02500000 </v>
   <v>      -0.42500000      -0.42500000       0.02500000 </v>
   <v>      -0.37500000      -0.42500000       0.02500000 </v>
   <v>      -0.32500000      -0.42500000       0.02500000 </v>
   <v>      -0.37500000      -0.37500000       0.02500000 </v>
   <v>      -0.32500000      -0.37500000       0.02500000 </v>
   <v>       0.07500000       0.07500000       0.07500000 </v>
   <v>       0.12500000       0.07500000       0.07500000 </v>
   <v>       0.17500000       0.07500000       0.07500000 </v>
   <v>       0.22500000       0.07500000       0.07500000 </v>
   <v>       0.27500000       0.07500000       0.07500000 </v>
   <v>       0.32500000       0.07500000       0.07500000 </v>
   <v>       0.37500000       0.07500000       0.07500000 </v>
   <v>       0.42500000       0.07500000       0.07500000 </v>
   <v>      -0.07500000       0.07500000       0.07500000 </v>
   <v>       0.12500000       0.12500000       0.07500000 </v>
   <v>       0.17500000       0.12500000       0.07500000 </v>
   <v>       0.22500000       0.12500000       0.07500000 </v>
   <v>       0.27500000       0.12500000       0.07500000 </v>
   <v>       0.32500000       0.12500000       0.07500000 </v>
   <v>       0.37500000       0.12500000       0.07500000 </v>
   <v>      -0.12500000       0.12500000       0.07500000 </v>
   <v>       0.17500000       0.17500000       0.07500000 </v>
   <v>       0.22500000       0.17500000       0.07500000 </v>
   <v>       0.27500000       0.17500000       0.07500000 </v>
   <v>       0.32500000       0.17500000       0.07500000 </v>
   <v>       0.37500000       0.17500000       0.07500000 </v>
   <v>      -0.17500000       0.17500000       0.07500000 </v>
   <v>      -0.12500000       0.17500000       0.07500000 </v>
   <v>       0.22500000       0.22500000       0.07500000 </v>
   <v>       0.27500000       0.22500000       0.07500000 </v>
   <v>       0.32500000       0.22500000       0.07500000 </v>
   <v>      -0.22500000       0.22500000       0.07500000 </v>
   <v>      -0.17500000       0.22500000       0.07500000 </v>
   <v>       0.27500000       0.27500000       0.07500000 </v>
   <v>       0.32500000       0.27500000       0.07500000 </v>
   <v>      -0.27500000       0.27500000       0.07500000 </v>
   <v>      -0.22500000       0.27500000       0.07500000 </v>
   <v>      -0.17500000       0.27500000       0.07500000 </v>
   <v>      -0.32500000       0.32500000       0.07500000 </v>
   <v>      -0.27500000       0.32500000       0.07500000 </v>
   <v>      -0.22500000       0.32500000       0.07500000 </v>
   <v>      -0.37500000       0.37500000       0.07500000 </v>
   <v>      -0.32500000       0.37500000       0.07500000 </v>
   <v>      -0.27500000       0.37500000       0.07500000 </v>
   <v>      -0.22500000       0.37500000       0.07500000 </v>
   <v>      -0.42500000       0.42500000       0.07500000 </v>
   <v>      -0.37500000       0.42500000       0.07500000 </v>
   <v>      -0.32500000       0.42500000       0.07500000 </v>
   <v>      -0.27500000       0.42500000       0.07500000 </v>
   <v>      -0.47500000       0.47500000       0.07500000 </v>
   <v>      -0.42500000       0.47500000       0.07500000 </v>
   <v>      -0.37500000       0.47500000       0.07500000 </v>
   <v>      -0.32500000       0.47500000       0.07500000 </v>
   <v>      -0.27500000       0.47500000       0.07500000 </v>
   <v>      -0.47500000      -0.47500000       0.07500000 </v>
   <v>      -0.42500000      -0.47500000       0.07500000 </v>
   <v>      -0.37500000      -0.47500000       0.07500000 </v>
   <v>      -0.32500000      -0.47500000       0.07500000 </v>
   <v>      -0.42500000      -0.42500000       0.07500000 </v>
   <v>      -0.37500000      -0.42500000       0.07500000 </v>
   <v>      -0.32500000      -0.42500000       0.07500000 </v>
   <v>      -0.37500000      -0.37500000       0.07500000 </v>
   <v>       0.12500000       0.12500000       0.12500000 </v>
   <v>       0.17500000       0.12500000       0.12500000 </v>
   <v>       0.22500000       0.12500000       0.12500000 </v>
   <v>       0.27500000       0.12500000       0.12500000 </v>
   <v>       0.32500000       0.12500000       0.12500000 </v>
   <v>       0.37500000       0.12500000       0.12500000 </v>
   <v>      -0.12500000       0.12500000       0.12500000 </v>
   <v>       0.17500000       0.17500000       0.12500000 </v>
   <v>       0.22500000       0.17500000       0.12500000 </v>
   <v>       0.27500000       0.17500000       0.12500000 </v>
   <v>       0.32500000       0.17500000       0.12500000 </v>
   <v>      -0.17500000       0.17500000       0.12500000 </v>
   <v>       0.22500000       0.22500000       0.12500000 </v>
   <v>       0.27500000       0.22500000       0.12500000 </v>
   <v>       0.32500000       0.22500000       0.12500000 </v>
   <v>      -0.22500000       0.22500000       0.12500000 </v>
   <v>      -0.17500000       0.22500000       0.12500000 </v>
   <v>       0.27500000       0.27500000       0.12500000 </v>
   <v>      -0.27500000       0.27500000       0.12500000 </v>
   <v>      -0.22500000       0.27500000       0.12500000 </v>
   <v>      -0.32500000       0.32500000       0.12500000 </v>
   <v>      -0.27500000       0.32500000       0.12500000 </v>
   <v>      -0.22500000       0.32500000       0.12500000 </v>
   <v>      -0.37500000       0.37500000       0.12500000 </v>
   <v>      -0.32500000       0.37500000       0.12500000 </v>
   <v>      -0.27500000       0.37500000       0.12500000 </v>
   <v>      -0.42500000       0.42500000       0.12500000 </v>
   <v>      -0.37500000       0.42500000       0.12500000 </v>
   <v>      -0.32500000       0.42500000       0.12500000 </v>
   <v>      -0.27500000       0.42500000       0.12500000 </v>
   <v>      -0.47500000       0.47500000       0.12500000 </v>
   <v>      -0.42500000       0.47500000       0.12500000 </v>
   <v>      -0.37500000       0.47500000       0.12500000 </v>
   <v>      -0.32500000       0.47500000       0.12500000 </v>
   <v>      -0.47500000      -0.47500000       0.12500000 </v>
   <v>      -0.42500000      -0.47500000       0.12500000 </v>
   <v>      -0.37500000      -0.47500000       0.12500000 </v>
   <v>      -0.32500000      -0.47500000       0.12500000 </v>
   <v>      -0.42500000      -0.42500000       0.12500000 </v>
   <v>      -0.37500000      -0.42500000       0.12500000 </v>
   <v>      -0.37500000      -0.37500000       0.12500000 </v>
   <v>       0.17500000       0.17500000       0.17500000 </v>
   <v>       0.22500000       0.17500000       0.17500000 </v>
   <v>       0.27500000       0.17500000       0.17500000 </v>
   <v>       0.32500000       0.17500000       0.17500000 </v>
   <v>      -0.17500000       0.17500000       0.17500000 </v>
   <v>       0.22500000       0.22500000       0.17500000 </v>
   <v>       0.27500000       0.22500000       0.17500000 </v>
   <v>      -0.22500000       0.22500000       0.17500000 </v>
   <v>       0.27500000       0.27500000       0.17500000 </v>
   <v>      -0.27500000       0.27500000       0.17500000 </v>
   <v>      -0.22500000       0.27500000       0.17500000 </v>
   <v>      -0.32500000       0.32500000       0.17500000 </v>
   <v>      -0.27500000       0.32500000       0.17500000 </v>
   <v>      -0.37500000       0.37500000       0.17500000 </v>
   <v>      -0.32500000       0.37500000       0.17500000 </v>
   <v>      -0.27500000       0.37500000       0.17500000 </v>
   <v>      -0.42500000       0.42500000       0.17500000 </v>
   <v>      -0.37500000       0.42500000       0.17500000 </v>
   <v>      -0.32500000       0.42500000       0.17500000 </v>
   <v>      -0.47500000       0.47500000       0.17500000 </v>
   <v>      -0.42500000       0.47500000       0.17500000 </v>
   <v>      -0.37500000       0.47500000       0.17500000 </v>
   <v>      -0.32500000       0.47500000       0.17500000 </v>
   <v>      -0.47500000      -0.47500000       0.17500000 </v>
   <v>      -0.42500000      -0.47500000       0.17500000 </v>
   <v>      -0.37500000      -0.47500000       0.17500000 </v>
   <v>      -0.42500000      -0.42500000       0.17500000 </v>
   <v>      -0.37500000      -0.42500000       0.17500000 </v>
   <v>       0.22500000       0.22500000       0.22500000 </v>
   <v>       0.27500000       0.22500000       0.22500000 </v>
   <v>      -0.22500000       0.22500000       0.22500000 </v>
   <v>      -0.27500000       0.27500000       0.22500000 </v>
   <v>      -0.32500000       0.32500000       0.22500000 </v>
   <v>      -0.27500000       0.32500000       0.22500000 </v>
   <v>      -0.37500000       0.37500000       0.22500000 </v>
   <v>      -0.32500000       0.37500000       0.22500000 </v>
   <v>      -0.42500000       0.42500000       0.22500000 </v>
   <v>      -0.37500000       0.42500000       0.22500000 </v>
   <v>      -0.32500000       0.42500000       0.22500000 </v>
   <v>      -0.47500000       0.47500000       0.22500000 </v>
   <v>      -0.42500000       0.47500000       0.22500000 </v>
   <v>      -0.37500000       0.47500000       0.22500000 </v>
   <v>      -0.47500000      -0.47500000       0.22500000 </v>
   <v>      -0.42500000      -0.47500000       0.22500000 </v>
   <v>      -0.37500000      -0.47500000       0.22500000 </v>
   <v>      -0.42500000      -0.42500000       0.22500000 </v>
   <v>      -0.27500000       0.27500000       0.27500000 </v>
   <v>      -0.32500000       0.32500000       0.27500000 </v>
   <v>      -0.37500000       0.37500000       0.27500000 </v>
   <v>      -0.32500000       0.37500000       0.27500000 </v>
   <v>      -0.42500000       0.42500000       0.27500000 </v>
   <v>      -0.37500000       0.42500000       0.27500000 </v>
   <v>      -0.47500000       0.47500000       0.27500000 </v>
   <v>      -0.42500000       0.47500000       0.27500000 </v>
   <v>      -0.37500000       0.47500000       0.27500000 </v>
   <v>      -0.47500000      -0.47500000       0.27500000 </v>
   <v>      -0.42500000      -0.47500000       0.27500000 </v>
   <v>      -0.42500000      -0.42500000       0.27500000 </v>
   <v>      -0.32500000       0.32500000       0.32500000 </v>
   <v>      -0.37500000       0.37500000       0.32500000 </v>
   <v>      -0.42500000       0.42500000       0.32500000 </v>
   <v>      -0.37500000       0.42500000       0.32500000 </v>
   <v>      -0.47500000       0.47500000       0.32500000 </v>
   <v>      -0.42500000       0.47500000       0.32500000 </v>
   <v>      -0.47500000      -0.47500000       0.32500000 </v>
   <v>      -0.42500000      -0.47500000       0.32500000 </v>
   <v>      -0.37500000       0.37500000       0.37500000 </v>
   <v>      -0.42500000       0.42500000       0.37500000 </v>
   <v>      -0.47500000       0.47500000       0.37500000 </v>
   <v>      -0.42500000       0.47500000       0.37500000 </v>
   <v>      -0.47500000      -0.47500000       0.37500000 </v>
   <v>      -0.42500000       0.42500000       0.42500000 </v>
   <v>      -0.47500000       0.47500000       0.42500000 </v>
   <v>      -0.47500000      -0.47500000       0.42500000 </v>
   <v>      -0.47500000       0.47500000       0.47500000 </v>
  </varray>
  <varray name="weights" >
   <v>       0.00100000 </v>
   <v>       0.00300000 </v>
   <v>       0.00300000 </v>
   <v>       0.00300000 </v>
   <v>       0.00300000 </v>
   <v>       0.00300000 </v>
   <v>       0.00300000 </v>
   <v>       0.00300000 </v>
   <v>       0.00300000 </v>
   <v>       0.00150000 </v>
   <v>       0.00075000 </v>
   <v>       0.00300000 </v>
   <v>       0.00600000 </v>
   <v>       0.00600000 </v>
   <v>       0.00600000 </v>
   <v>       0.00600000 </v>
   <v>       0.00600000 </v>
   <v>       0.00600000 </v>
   <v>       0.00600000 </v>
   <v>       0.00300000 </v>
   <v>       0.00300000 </v>
   <v>       0.00600000 </v>
   <v>       0.00600000 </v>
   <v>       0.00600000 </v>
   <v>       0.00600000 </v>
   <v>       0.00600000 </v>
   <v>       0.00300000 </v>
   <v>       0.00300000 </v>
   <v>       0.00300000 </v>
   <v>       0.00300000 </v>
   <v>       0.00600000 </v>
   <v>       0.00600000 </v>
   <v>       0.00600000 </v>
   <v>       0.00600000 </v>
   <v>       0.00300000 </v>
   <v>       0.00600000 </v>
   <v>       0.00300000 </v>
   <v>       0.00600000 </v>
   <v>       0.00600000 </v>
   <v>       0.00300000 </v>
   <v>       0.00300000 </v>
   <v>       0.00600000 </v>
   <v>       0.00300000 </v>
   <v>       0.00300000 </v>
   <v>       0.00600000 </v>
   <v>       0.00300000 </v>
   <v>       0.00600000 </v>
   <v>       0.00600000 </v>
   <v>       0.00100000 </v>
   <v>       0.00300000 </v>
   <v>       0.00600000 </v>
   <v>       0.00600000 </v>
   <v>       0.00300000 </v>
   <v>       0.00300000 </v>
   <v>       0.00600000 </v>
   <v>       0.00600000 </v>
   <v>       0.00600000 </v>
   <v>       0.00300000 </v>
   <v>       0.00600000 </v>
   <v>       0.00600000 </v>
   <v>       0.00600000 </v>
   <v>       0.00300000 </v>
   <v>       0.00300000 </v>
   <v>       0.00600000 </v>
   <v>       0.00600000 </v>
   <v>       0.00600000 </v>
   <v>       0.00600000 </v>
   <v>       0.00300000 </v>
   <v>       0.00600000 </v>
   <v>       0.00600000 </v>
   <v>       0.00600000 </v>
   <v>       0.00300000 </v>
   <v>       0.00300000 </v>
   <v>       0.00600000 </v>
   <v>       0.00600000 </v>
   <v>       0.00300000 </v>
   <v>       0.00300000 </v>
   <v>       0.00100000 </v>
   <v>       0.00300000 </v>
   <v>       0.00300000 </v>
   <v>       0.00300000 </v>
   <v>       0.00300000 </v>
   <v>       0.00300000 </v>
   <v>       0.00300000 </v>
   <v>       0.00150000 </v>
   <v>       0.00075000 </v>
   <v>       0.00300000 </v>
   <v>       0.00600000 </v>
   <v>       0.00600000 </v>
   <v>       0.00600000 </v>
   <v>       0.00600000 </v>
   <v>       0.00600000 </v>
   <v>       0.00300000 </v>
   <v>       0.00300000 </v>
   <v>       0.00600000 </v>
   <v>       0.00600000 </v>
   <v>       0.00600000 </v>
   <v>       0.00300000 </v>
   <v>       0.00300000 </v>
   <v>       0.00300000 </v>
   <v>       0.00300000 </v>
   <v>       0.00600000 </v>
   <v>       0.00600000 </v>
   <v>       0.00300000 </v>
   <v>       0.00600000 </v>
   <v>       0.00300000 </v>
   <v>       0.00300000 </v>
   <v>       0.00300000 </v>
   <v>       0.00600000 </v>
   <v>       0.00300000 </v>
   <v>       0.00300000 </v>
   <v>       0.00600000 </v>
   <v>       0.00600000 </v>
   <v>       0.00300000 </v>
   <v>       0.00600000 </v>
   <v>       0.00600000 </v>
   <v>       0.00300000 </v>
   <v>       0.00300000 </v>
   <v>       0.00600000 </v>
   <v>       0.00600000 </v>
   <v>       0.00600000 </v>
   <v>       0.00300000 </v>
   <v>       0.00600000 </v>
   <v>       0.00600000 </v>
   <v>       0.00600000 </v>
   <v>       0.00300000 </v>
   <v>       0.00300000 </v>
   <v>       0.00600000 </v>
   <v>       0.00600000 </v>
   <v>       0.00600000 </v>
   <v>       0.00300000 </v>
   <v>       0.00600000 </v>
   <v>       0.00300000 </v>
   <v>       0.00300000 </v>
   <v>       0.00100000 </v>
   <v>       0.00300000 </v>
   <v>       0.00300000 </v>
   <v>       0.00300000 </v>
   <v>       0.00300000 </v>
   <v>       0.00150000 </v>
   <v>       0.00075000 </v>
   <v>       0.00300000 </v>
   <v>       0.00600000 </v>
   <v>       0.00600000 </v>
   <v>       0.00600000 </v>
   <v>       0.00300000 </v>
   <v>       0.00300000 </v>
   <v>       0.00600000 </v>
   <v>       0.00300000 </v>
   <v>       0.00300000 </v>
   <v>       0.00300000 </v>
   <v>       0.00300000 </v>
   <v>       0.00300000 </v>
   <v>       0.00600000 </v>
   <v>       0.00300000 </v>
   <v>       0.00600000 </v>
   <v>       0.00300000 </v>
   <v>       0.00300000 </v>
   <v>       0.00600000 </v>
   <v>       0.00600000 </v>
   <v>       0.00300000 </v>
   <v>       0.00600000 </v>
   <v>       0.00600000 </v>
   <v>       0.00300000 </v>
   <v>       0.00300000 </v>
   <v>       0.00600000 </v>
   <v>       0.00600000 </v>
   <v>       0.00600000 </v>
   <v>       0.00300000 </v>
   <v>       0.00600000 </v>
   <v>       0.00600000 </v>
   <v>       0.00300000 </v>
   <v>       0.00300000 </v>
   <v>       0.00600000 </v>
   <v>       0.00100000 </v>
   <v>       0.00100000 </v>
   <v>       0.00300000 </v>
   <v>       0.00300000 </v>
   <v>       0.00150000 </v>
   <v>       0.00075000 </v>
   <v>       0.00300000 </v>
   <v>       0.00600000 </v>
   <v>       0.00300000 </v>
   <v>       0.00100000 </v>
   <v>       0.00300000 </v>
   <v>       0.00300000 </v>
   <v>       0.00300000 </v>
   <v>       0.00600000 </v>
   <v>       0.00300000 </v>
   <v>       0.00600000 </v>
   <v>       0.00300000 </v>
   <v>       0.00300000 </v>
   <v>       0.00600000 </v>
   <v>       0.00600000 </v>
   <v>       0.00300000 </v>
   <v>       0.00600000 </v>
   <v>       0.00600000 </v>
   <v>       0.00300000 </v>
   <v>       0.00300000 </v>
   <v>       0.00600000 </v>
   <v>       0.00600000 </v>
   <v>       0.00300000 </v>
   <v>       0.00300000 </v>
   <v>       0.00100000 </v>
   <v>       0.00150000 </v>
   <v>       0.00075000 </v>
   <v>       0.00300000 </v>
   <v>       0.00300000 </v>
   <v>       0.00300000 </v>
   <v>       0.00300000 </v>
   <v>       0.00600000 </v>
   <v>       0.00300000 </v>
   <v>       0.00600000 </v>
   <v>       0.00300000 </v>
   <v>       0.00300000 </v>
   <v>       0.00600000 </v>
   <v>       0.00600000 </v>
   <v>       0.00300000 </v>
   <v>       0.00600000 </v>
   <v>       0.00300000 </v>
   <v>       0.00300000 </v>
   <v>       0.00075000 </v>
   <v>       0.00300000 </v>
   <v>       0.00300000 </v>
   <v>       0.00300000 </v>
   <v>       0.00300000 </v>
   <v>       0.00600000 </v>
   <v>       0.00300000 </v>
   <v>       0.00600000 </v>
   <v>       0.00300000 </v>
   <v>       0.00300000 </v>
   <v>       0.00600000 </v>
   <v>       0.00100000 </v>
   <v>       0.00075000 </v>
   <v>       0.00300000 </v>
   <v>       0.00300000 </v>
   <v>       0.00300000 </v>
   <v>       0.00300000 </v>
   <v>       0.00600000 </v>
   <v>       0.00300000 </v>
   <v>       0.00300000 </v>
   <v>       0.00075000 </v>
   <v>       0.00300000 </v>
   <v>       0.00300000 </v>
   <v>       0.00300000 </v>
   <v>       0.00300000 </v>
   <v>       0.00075000 </v>
   <v>       0.00300000 </v>
   <v>       0.00100000 </v>
   <v>       0.00075000 </v>
  </varray>
 </kpoints>
 <parameters>
  <separator name="general" >
   <i type="string" name="SYSTEM">bcc Fe</i>
   <i type="logical" name="LCOMPAT"> F  </i>
  </separator>
  <separator name="electronic" >
   <i type="string" name="PREC">normal</i>
   <i name="ENMAX">    267.96900000</i>
   <i name="ENAUG">    511.36800000</i>
   <i name="EDIFF">      0.00000100</i>
   <i type="int" name="IALGO">    38</i>
   <i type="int" name="IWAVPR">    10</i>
   <i type="int" name="NBANDS">     8</i>
   <i name="NELECT">      8.00000000</i>
   <i type="int" name="TURBO">     0</i>
   <i type="int" name="IRESTART">     0</i>
   <i type="int" name="NREBOOT">     0</i>
   <i type="int" name="NMIN">     0</i>
   <i name="EREF">      0.00000000</i>
   <separator name="electronic smearing" >
    <i type="int" name="ISMEAR">     1</i>
    <i name="SIGMA">      0.20000000</i>
    <i name="KSPACING">      0.50000000</i>
    <i type="logical" name="KGAMMA"> T  </i>
   </separator>
   <separator name="electronic projectors" >
    <i type="logical" name="LREAL"> F  </i>
    <v name="ROPT">      0.00000000</v>
    <i type="int" name="LMAXPAW">  -100</i>
    <i type="int" name="LMAXMIX">     2</i>
    <i type="logical" name="NLSPLINE"> F  </i>
   </separator>
   <separator name="electronic startup" >
    <i type="int" name="ISTART">     0</i>
    <i type="int" name="ICHARG">     2</i>
    <i type="int" name="INIWAV">     1</i>
   </separator>
   <separator name="electronic spin" >
    <i type="int" name="ISPIN">     1</i>
    <i type="logical" name="LNONCOLLINEAR"> F  </i>
    <v name="MAGMOM">      1.00000000</v>
    <i name="NUPDOWN">     -1.00000000</i>
    <i type="logical" name="LSORBIT"> F  </i>
    <v name="SAXIS">      0.00000000      0.00000000      1.00000000</v>
    <i type="logical" name="LSPIRAL"> F  </i>
    <v name="QSPIRAL">      0.00000000      0.00000000      0.00000000</v>
    <i type="logical" name="LZEROZ"> F  </i>
   </separator>
   <separator name="electronic exchange-correlation" >
    <i type="logical" name="LASPH"> F  </i>
    <i type="logical" name="LMETAGGA"> F  </i>
   </separator>
   <separator name="electronic convergence" >
    <i type="int" name="NELM">    60</i>
    <i type="int" name="NELMDL">    -5</i>
    <i type="int" name="NELMIN">     2</i>
    <i name="ENINI">    267.96900000</i>
    <separator name="electronic convergence detail" >
     <i type="logical" name="LDIAG"> T  </i>
     <i type="logical" name="LSUBROT"> F  </i>
     <i name="WEIMIN">      0.00000000</i>
     <i name="EBREAK">      0.00000003</i>
     <i name="DEPER">      0.30000000</i>
     <i type="int" name="NRMM">     4</i>
     <i name="TIME">      0.40000000</i>
    </separator>
   </separator>
   <separator name="electronic mixer" >
    <i name="AMIX">      0.40000000</i>
    <i name="BMIX">      1.00000000</i>
    <i name="AMIN">      0.10000000</i>
    <i name="AMIX_MAG">      1.60000000</i>
    <i name="BMIX_MAG">      1.00000000</i>
    <separator name="electronic mixer details" >
     <i type="int" name="IMIX">     4</i>
     <i type="logical" name="MIXFIRST"> F  </i>
     <i type="int" name="MAXMIX">   -45</i>
     <i name="WC">    100.00000000</i>
     <i type="int" name="INIMIX">     1</i>
     <i type="int" name="MIXPRE">     1</i>
     <i type="int" name="MREMOVE">     5</i>
    </separator>
   </separator>
   <separator name="electronic dipolcorrection" >
    <i type="logical" name="LDIPOL"> F  </i>
    <i type="logical" name="LMONO"> F  </i>
    <i type="int" name="IDIPOL">     0</i>
    <i name="EPSILON">      1.00000000</i>
    <v name="DIPOL">   -100.00000000   -100.00000000   -100.00000000</v>
    <i name="EFIELD">      0.00000000</i>
   </separator>
  </separator>
  <separator name="grids" >
   <i type="int" name="NGX">    10</i>
   <i type="int" name="NGY">    10</i>
   <i type="int" name="NGZ">    10</i>
   <i type="int" name="NGXF">    20</i>
   <i type="int" name="NGYF">    20</i>
   <i type="int" name="NGZF">    20</i>
   <i type="logical" name="ADDGRID"> F  </i>
  </separator>
  <separator name="ionic" >
   <i type="int" name="NSW">     0</i>
   <i type="int" name="IBRION">    -1</i>
   <i type="int" name="MDALGO">     0</i>
   <i type="int" name="ISIF">     2</i>
   <i name="PSTRESS">      0.00000000</i>
   <i name="EDIFFG">      0.00001000</i>
   <i type="int" name="NFREE">     0</i>
   <i name="POTIM">      0.50000000</i>
   <i name="SMASS">     -3.00000000</i>
   <i name="SCALEE">      1.00000000</i>
  </separator>
  <separator name="ionic md" >
   <i name="TEBEG">      0.00010000</i>
   <i name="TEEND">      0.00010000</i>
   <i type="int" name="NBLOCK">     1</i>
   <i type="int" name="KBLOCK">     1</i>
   <i type="int" name="NPACO">   256</i>
   <i name="APACO">     16.00000000</i>
  </separator>
  <separator name="symmetry" >
   <i type="int" name="ISYM">     2</i>
   <i name="SYMPREC">      0.00001000</i>
  </separator>
  <separator name="dos" >
   <i type="int" name="LORBIT">     0</i>
   <v name="RWIGS">     -1.00000000</v>
   <i type="int" name="NEDOS">   301</i>
   <i name="EMIN">     10.00000000</i>
   <i name="EMAX">    -10.00000000</i>
   <i name="EFERMI">      0.00000000</i>
  </separator>
  <separator name="writing" >
   <i type="int" name="NWRITE">     2</i>
   <i type="logical" name="LWAVE"> F  </i>
   <i type="logical" name="LDOWNSAMPLE"> F  </i>
   <i type="logical" name="LCHARG"> T  </i>
   <i type="logical" name="LPARD"> F  </i>
   <i type="logical" name="LVTOT"> F  </i>
   <i type="logical" name="LVHAR"> F  </i>
   <i type="logical" name="LELF"> F  </i>
   <i type="logical" name="LOPTICS"> F  </i>
   <v name="STM">      0.00000000      0.00000000      0.00000000      0.00000000      0.00000000      0.00000000      0.00000000</v>
  </separator>
  <separator name="performance" >
   <i type="int" name="NPAR">     1</i>
   <i type="int" name="NSIM">     4</i>
   <i type="int" name="NBLK">    -1</i>
   <i type="logical" name="LPLANE"> T  </i>
   <i type="logical" name="LSCALAPACK"> T  </i>
   <i type="logical" name="LSCAAWARE"> F  </i>
   <i type="logical" name="LSCALU"> F  </i>
   <i type="logical" name="LASYNC"> F  </i>
   <i type="logical" name="LORBITALREAL"> F  </i>
  </separator>
  <separator name="miscellaneous" >
   <i type="int" name="IDIOT">     3</i>
   <i type="int" name="ISPECIAL">     0</i>
   <i type="logical" name="LMUSIC"> F  </i>
   <v name="POMASS">     55.84700000</v>
   <v name="DARWINR">      0.00000000</v>
   <v name="DARWINV">      1.00000000</v>
   <i type="logical" name="LCORR"> T  </i>
  </separator>
  <i type="logical" name="GGA_COMPAT"> T  </i>
  <i type="logical" name="LBERRY"> F  </i>
  <i type="int" name="ICORELEVEL">     0</i>
  <i type="logical" name="LDAU"> F  </i>
  <i type="int" name="I_CONSTRAINED_M">     0</i>
  <separator name="electronic exchange-correlation" >
   <i type="string" name="GGA">--</i>
   <i type="int" name="VOSKOWN">     0</i>
   <i type="logical" name="LHFCALC"> F  </i>
   <i type="string" name="PRECFOCK"></i>
   <i type="logical" name="LSYMGRAD"> F  </i>
   <i type="logical" name="LHFONE"> F  </i>
   <i type="logical" name="LRHFCALC"> F  </i>
   <i type="logical" name="LTHOMAS"> F  </i>
   <i type="logical" name="LMODELHF"> F  </i>
   <i name="ENCUT4O">     -1.00000000</i>
   <i type="int" name="EXXOEP">     0</i>
   <i type="int" name="FOURORBIT">     0</i>
   <i name="AEXX">      0.00000000</i>
   <i name="HFALPHA">      0.00000000</i>
   <i name="MCALPHA">      0.00000000</i>
   <i name="ALDAX">      1.00000000</i>
   <i name="AGGAX">      1.00000000</i>
   <i name="ALDAC">      1.00000000</i>
   <i name="AGGAC">      1.00000000</i>
   <i type="int" name="NKREDX">     1</i>
   <i type="int" name="NKREDY">     1</i>
   <i type="int" name="NKREDZ">     1</i>
   <i type="logical" name="SHIFTRED"> F  </i>
   <i type="logical" name="ODDONLY"> F  </i>
   <i type="logical" name="EVENONLY"> F  </i>
   <i type="int" name="LMAXFOCK">     0</i>
   <i type="int" name="NMAXFOCKAE">     0</i>
   <i type="logical" name="LFOCKAEDFT"> F  </i>
   <i name="HFSCREEN">      0.00000000</i>
   <i name="HFSCREENC">      0.00000000</i>
   <i type="int" name="NBANDSGWLOW">     0</i>
  </separator>
  <separator name="vdW DFT" >
   <i type="logical" name="LUSE_VDW"> F  </i>
   <i name="Zab_VDW">     -0.84910000</i>
   <i name="PARAM1">      0.12340000</i>
   <i name="PARAM2">      1.00000000</i>
   <i name="PARAM3">      0.00000000</i>
  </separator>
  <separator name="model GW" >
   <i type="int" name="MODEL_GW">     0</i>
   <i name="MODEL_EPS0">      6.51529170</i>
   <i name="MODEL_ALPHA">      1.00000000</i>
  </separator>
  <separator name="linear response parameters" >
   <i type="logical" name="LEPSILON"> F  </i>
   <i type="logical" name="LRPA"> F  </i>
   <i type="logical" name="LNABLA"> F  </i>
   <i type="logical" name="LVEL"> F  </i>
   <i type="int" name="KINTER">     0</i>
   <i name="CSHIFT">      0.10000000</i>
   <i name="OMEGAMAX">     -1.00000000</i>
   <i name="DEG_THRESHOLD">      0.00200000</i>
   <i name="RTIME">     -0.10000000</i>
   <i name="WPLASMAI">      0.00000000</i>
   <v name="DFIELD">      0.00000000      0.00000000      0.00000000</v>
   <v name="WPLASMA">      0.00000000      0.00000000      0.00000000      0.00000000      0.00000000      0.00000000      0.00000000      0.00000000      0.00000000</v>
  </separator>
  <separator name="orbital magnetization" >
   <i type="logical" name="NUCIND"> F  </i>
   <v name="MAGPOS">      0.00000000      0.00000000      0.00000000</v>
   <i type="logical" name="LNICSALL"> T  </i>
   <i type="logical" name="ORBITALMAG"> F  </i>
   <i type="logical" name="LMAGBLOCH"> F  </i>
   <i type="logical" name="LCHIMAG"> F  </i>
   <i type="logical" name="LGAUGE"> T  </i>
   <i type="int" name="MAGATOM">     0</i>
   <v name="MAGDIPOL">      0.00000000      0.00000000      0.00000000</v>
   <v name="AVECCONST">      0.00000000      0.00000000      0.00000000</v>
  </separator>
  <separator name="response functions" >
   <i type="logical" name="LADDER"> F  </i>
   <i type="logical" name="LRPAFORCE"> F  </i>
   <i type="logical" name="LFXC"> F  </i>
   <i type="logical" name="LHARTREE"> T  </i>
   <i type="int" name="IBSE">     0</i>
   <v type="int" name="KPOINT">    -1     0     0     0</v>
   <i type="logical" name="LTCTE"> F  </i>
   <i type="logical" name="LTETE"> F  </i>
   <i type="logical" name="LTRIPLET"> F  </i>
   <i type="logical" name="LFXCEPS"> F  </i>
   <i type="logical" name="LFXHEG"> F  </i>
   <i type="int" name="NATURALO">     2</i>
   <i type="logical" name="L2ORDER"> F  </i>
   <i type="logical" name="LMP2LT"> F  </i>
   <i type="logical" name="LUSEW"> F  </i>
   <i name="ENCUTGW">     -2.00000000</i>
   <i name="ENCUTGWSOFT">     -2.00000000</i>
   <i name="ENCUTLF">     -1.00000000</i>
   <i type="int" name="LMAXMP2">    -1</i>
   <i name="SCISSOR">      0.00000000</i>
   <i type="int" name="NOMEGA">     0</i>
   <i type="int" name="NOMEGAR">     0</i>
   <i type="int" name="NBANDSGW">    -1</i>
   <i type="int" name="NBANDSO">    -1</i>
   <i type="int" name="NBANDSV">    -1</i>
   <i type="int" name="NELM">     1</i>
   <i type="int" name="NELMHF">     1</i>
   <i type="int" name="DIM">     3</i>
   <i type="int" name="ANTIRES">     0</i>
   <i name="OMEGAMAX">    -30.00000000</i>
   <i name="OMEGAMIN">    -30.00000000</i>
   <i name="OMEGATL">   -200.00000000</i>
   <i type="int" name="OMEGAGRID">   140</i>
   <i name="CSHIFT">     -0.10000000</i>
   <i type="logical" name="SELFENERGY"> F  </i>
   <i type="logical" name="LSPECTRAL"> F  </i>
   <i type="logical" name="LSPECTRALGW"> F  </i>
   <i type="logical" name="LSINGLES"> F  </i>
   <i type="logical" name="LFERMIGW"> F  </i>
   <i type="logical" name="ODDONLYGW"> F  </i>
   <i type="logical" name="EVENONLYGW"> F  </i>
   <i type="int" name="NKREDLFX">     1</i>
   <i type="int" name="NKREDLFY">     1</i>
   <i type="int" name="NKREDLFZ">     1</i>
   <i type="int" name="MAXMEM">  2800</i>
   <i type="int" name="TELESCOPE">     0</i>
   <i type="int" name="TAUPAR">     1</i>
   <i type="int" name="OMEGAPAR">    -1</i>
   <i name="LAMBDA">      1.00000000</i>
  </separator>
  <separator name="External order field" >
   <i name="OFIELD_KAPPA">      0.00000000</i>
   <v name="OFIELD_K">      0.00000000      0.00000000      0.00000000</v>
   <i name="OFIELD_Q6_NEAR">      0.00000000</i>
   <i name="OFIELD_Q6_FAR">      0.00000000</i>
   <i name="OFIELD_A">      0.00000000</i>
  </separator>
 </parameters>
 <atominfo>
  <atoms>       1 </atoms>
  <types>       1 </types>
  <array name="atoms" >
   <dimension dim="1">ion</dimension>
   <field type="string">element</field>
   <field type="int">atomtype</field>
   <set>
    <rc><c>Fe</c><c>   1</c></rc>
   </set>
  </array>
  <array name="atomtypes" >
   <dimension dim="1">type</dimension>
   <field type="int">atomspertype</field>
   <field type="string">element</field>
   <field>mass</field>
   <field>valence</field>
   <field type="string">pseudopotential</field>
   <set>
    <rc><c>   1</c><c>Fe</c><c>     55.84700000</c><c>      8.00000000</c><c>  PAW Fe                                </c></rc>
   </set>
  </array>
 </atominfo>
 <structure name="initialpos" >
  <crystal>
   <varray name="basis" >
    <v>      -1.39500000       1.39500000       1.39500000 </v>
    <v>       1.39500000      -1.39500000       1.39500000 </v>
    <v>       1.39500000       1.39500000      -1.39500000 </v>
   </varray>
   <i name="volume">     10.85881950 </i>
   <varray name="rec_basis" >
    <v>       0.00000000       0.35842294       0.35842294 </v>
    <v>       0.35842294       0.00000000       0.35842294 </v>
    <v>       0.35842294       0.35842294       0.00000000 </v>
   </varray>
  </crystal>
  <varray name="positions" >
   <v>       0.00000000       0.00000000       0.00000000 </v>
  </varray>
 </structure>
 <calculation>
  <scstep>
   <time name="dav">    0.21    0.43</time>
   <time name="total">    0.22    0.44</time>
   <energy>
    <i name="alphaZ">     61.67214180 </i>
    <i name="ewald">   -601.05160851 </i>
    <i name="hartreedc">   -107.61692506 </i>
    <i name="XCdc">      4.56644269 </i>
    <i name="pawpsdc">    479.09899362 </i>
    <i name="pawaedc">   -488.38466797 </i>
    <i name="eentropy">     -0.00127600 </i>
    <i name="bandstr">     58.48576438 </i>
    <i name="atom">    597.33035224 </i>
    <i name="e_fr_energy">      4.09921719 </i>
    <i name="e_wo_entrp">      4.10049319 </i>
    <i name="e_0_energy">      4.09964252 </i>
   </energy>
  </scstep>
  <scstep>
   <time name="dav">    0.21    0.41</time>
   <time name="total">    0.21    0.42</time>
   <energy>
    <i name="e_fr_energy">    -10.37572819 </i>
    <i name="e_wo_entrp">    -10.37845460 </i>
    <i name="e_0_energy">    -10.37663700 </i>
   </energy>
  </scstep>
  <scstep>
   <time name="dav">    0.29    0.58</time>
   <time name="total">    0.30    0.60</time>
   <energy>
    <i name="e_fr_energy">    -10.45172450 </i>
    <i name="e_wo_entrp">    -10.45454688 </i>
    <i name="e_0_energy">    -10.45266529 </i>
   </energy>
  </scstep>
  <scstep>
   <time name="dav">    0.22    0.24</time>
   <time name="total">    0.23    0.25</time>
   <energy>
    <i name="e_fr_energy">    -10.45206041 </i>
    <i name="e_wo_entrp">    -10.45488413 </i>
    <i name="e_0_energy">    -10.45300165 </i>
   </energy>
  </scstep>
  <scstep>
   <time name="dav">    0.27    0.27</time>
   <time name="total">    0.29    0.29</time>
   <energy>
    <i name="e_fr_energy">    -10.45206359 </i>
    <i name="e_wo_entrp">    -10.45488735 </i>
    <i name="e_0_energy">    -10.45300484 </i>
   </energy>
  </scstep>
  <scstep>
   <time name="dav">    0.20    0.20</time>
   <time name="total">    0.23    0.23</time>
   <energy>
    <i name="e_fr_energy">     -9.03535881 </i>
    <i name="e_wo_entrp">     -9.03345359 </i>
    <i name="e_0_energy">     -9.03472374 </i>
   </energy>
  </scstep>
  <scstep>
   <time name="dav">    0.20    0.28</time>
   <time name="total">    0.23    0.31</time>
   <energy>
    <i name="e_fr_energy">     -8.90950013 </i>
    <i name="e_wo_entrp">     -8.91018796 </i>
    <i name="e_0_energy">     -8.90972940 </i>
   </energy>
  </scstep>
  <scstep>
   <time name="dav">    0.26    0.27</time>
   <time name="total">    0.29    0.29</time>
   <energy>
    <i name="e_fr_energy">     -8.89003792 </i>
    <i name="e_wo_entrp">     -8.89011139 </i>
    <i name="e_0_energy">     -8.89006241 </i>
   </energy>
  </scstep>
  <scstep>
   <time name="dav">    0.21    0.21</time>
   <time name="total">    0.23    0.23</time>
   <energy>
    <i name="e_fr_energy">     -8.88932952 </i>
    <i name="e_wo_entrp">     -8.88961611 </i>
    <i name="e_0_energy">     -8.88942505 </i>
   </energy>
  </scstep>
  <scstep>
   <time name="dav">    0.25    0.25</time>
   <time name="total">    0.27    0.28</time>
   <energy>
    <i name="e_fr_energy">     -8.88933930 </i>
    <i name="e_wo_entrp">     -8.88960816 </i>
    <i name="e_0_energy">     -8.88942892 </i>
   </energy>
  </scstep>
  <scstep>
   <time name="dav">    0.13    0.13</time>
   <time name="total">    0.15    0.15</time>
   <energy>
    <i name="alphaZ">     61.67214180 </i>
    <i name="ewald">   -601.05160851 </i>
    <i name="hartreedc">    -90.95313924 </i>
    <i name="XCdc">      3.67712873 </i>
    <i name="pawpsdc">    524.18447044 </i>
    <i name="pawaedc">   -534.26206096 </i>
    <i name="eentropy">      0.00027302 </i>
    <i name="bandstr">     30.51310403 </i>
    <i name="atom">    597.33035224 </i>
    <i name="e_fr_energy">     -8.88933843 </i>
    <i name="e_wo_entrp">     -8.88961146 </i>
    <i name="e_0_energy">     -8.88942944 </i>
   </energy>
  </scstep>
  <structure>
   <crystal>
    <varray name="basis" >
     <v>      -1.39500000       1.39500000       1.39500000 </v>
     <v>       1.39500000      -1.39500000       1.39500000 </v>
     <v>       1.39500000       1.39500000      -1.39500000 </v>
    </varray>
    <i name="volume">     10.85881950 </i>
    <varray name="rec_basis" >
     <v>       0.00000000       0.35842294       0.35842294 </v>
     <v>       0.35842294       0.00000000       0.35842294 </v>
     <v>       0.35842294       0.35842294       0.00000000 </v>
    </varray>
   </crystal>
   <varray name="positions" >
    <v>       0.00000000       0.00000000       0.00000000 </v>
   </varray>
  </structure>
  <varray name="forces" >
   <v>       0.00000000       0.00000000      -0.00000000 </v>
  </varray>
  <varray name="stress" >
   <v>    -303.38871972      -0.00000000       0.00000000 </v>
   <v>      -0.00000000    -303.38871972      -0.00000000 </v>
   <v>       0.00000000       0.00000000    -303.38871972 </v>
  </varray>
  <energy>
   <i name="e_fr_energy">     -8.88933843 </i>
   <i name="e_wo_entrp">     -8.88942944 </i>
   <i name="e_0_energy">      0.00027302 </i>
  </energy>
  <time name="totalsc">    2.90    3.75</time>
  <eigenvalues>
   <array>
    <dimension dim="1">band</dimension>
    <dimension dim="2">kpoint</dimension>
    <dimension dim="3">spin</dimension>
    <field>eigene</field>
    <field>occ</field>
    <set>
     <set comment="spin 1">
      <set comment="kpoint 1">
       <r>   -2.2902    1.0000 </r>
       <r>    4.4427    1.0000 </r>
       <r>    4.4427    1.0000 </r>
       <r>    4.5861    1.0000 </r>
       <r>    6.0968    0.8046 </r>
       <r>    6.0968    0.8046 </r>
       <r>   30.8989    0.0000 </r>
       <r>   30.8989    0.0000 </r>
      </set>
      <set comment="kpoint 2">
       <r>   -1.9732    1.0000 </r>
       <r>    4.3439    1.0000 </r>
       <r>    4.4080    1.0000 </r>
       <r>    4.7779    1.0000 </r>
       <r>    6.0104    0.9957 </r>
       <r>    6.1086    0.7648 </r>
       <r>   29.3430    0.0000 </r>
       <r>   30.2665    0.0000 </r>
      </set>
      <set comment="kpoint 3">
       <r>   -1.4637    1.0000 </r>
       <r>    4.1935    1.0000 </r>
       <r>    4.3515    1.0000 </r>
       <r>    5.0743    1.0000 </r>
       <r>    5.9160    1.0348 </r>
       <r>    6.1299    0.6858 </r>
       <r>   27.3263    0.0000 </r>
       <r>   29.4233    0.0000 </r>
      </set>
      <set comment="kpoint 4">
       <r>   -0.7967    1.0000 </r>
       <r>    4.0116    1.0000 </r>
       <r>    4.2688    1.0000 </r>
       <r>    5.4633    1.0000 </r>
       <r>    5.8642    1.0252 </r>
       <r>    6.1599    0.5639 </r>
       <r>   25.0851    0.0000 </r>
       <r>   28.4458    0.0000 </r>
      </set>
      <set comment="kpoint 5">
       <r>   -0.0393    1.0000 </r>
       <r>    3.8171    1.0000 </r>
       <r>    4.2095    1.0000 </r>
       <r>    5.8659    1.0256 </r>
       <r>    5.9254    1.0354 </r>
       <r>    6.1974    0.4062 </r>
       <r>   22.7690    0.0000 </r>
       <r>   27.4436    0.0000 </r>
      </set>
      <set comment="kpoint 6">
       <r>    0.6830    1.0000 </r>
       <r>    3.6291    1.0000 </r>
       <r>    4.2996    1.0000 </r>
       <r>    5.9288    1.0355 </r>
       <r>    6.2359    0.2551 </r>
       <r>    6.4063   -0.0347 </r>
       <r>   20.4832    0.0000 </r>
       <r>   26.5114    0.0000 </r>
      </set>
      <set comment="kpoint 7">
       <r>    1.1981    1.0000 </r>
       <r>    3.4623    1.0000 </r>
       <r>    4.6961    1.0000 </r>
       <r>    6.0092    0.9971 </r>
       <r>    6.2784    0.1207 </r>
       <r>    6.8889   -0.0000 </r>
       <r>   18.3271    0.0000 </r>
       <r>   25.7221    0.0000 </r>
      </set>
      <set comment="kpoint 8">
       <r>    1.4393    1.0000 </r>
       <r>    3.3345    1.0000 </r>
       <r>    5.3813    1.0000 </r>
       <r>    6.0915    0.8215 </r>
       <r>    6.3167    0.0373 </r>
       <r>    7.3322   -0.0000 </r>
       <r>   16.4254    0.0000 </r>
       <r>   25.1289    0.0000 </r>
      </set>
      <set comment="kpoint 9">
       <r>    1.5120    1.0000 </r>
       <r>    3.2537    1.0000 </r>
       <r>    5.9972    1.0094 </r>
       <r>    6.2110    0.3507 </r>
       <r>    6.3429    0.0006 </r>
       <r>    7.7003   -0.0000 </r>
       <r>   15.0083    0.0000 </r>
       <r>   24.7595    0.0000 </r>
      </set>
      <set comment="kpoint 10">
       <r>    1.5236    1.0000 </r>
       <r>    3.2259    1.0000 </r>
       <r>    6.1048    0.7779 </r>
       <r>    6.3487   -0.0056 </r>
       <r>    6.4030   -0.0342 </r>
       <r>    7.8717   -0.0000 </r>
       <r>   14.4445    0.0000 </r>
       <r>   24.6345    0.0000 </r>
      </set>
      <set comment="kpoint 11">
       <r>   -2.3976    1.0000 </r>
       <r>    4.4760    1.0000 </r>
       <r>    4.4761    1.0000 </r>
       <r>    4.5032    1.0000 </r>
       <r>    6.0922    0.8192 </r>
       <r>    6.1326    0.6750 </r>
       <r>   31.2281    0.0000 </r>
       <r>   31.5517    0.0000 </r>
      </set>
      <set comment="kpoint 12">
       <r>   -1.5628    1.0000 </r>
       <r>    4.2463    1.0000 </r>
       <r>    4.2974    1.0000 </r>
       <r>    5.0548    1.0000 </r>
       <r>    5.9515    1.0334 </r>
       <r>    6.1103    0.7587 </r>
       <r>   28.0928    0.0000 </r>
       <r>   28.8720    0.0000 </r>
      </set>
      <set comment="kpoint 13">
       <r>   -0.9763    1.0000 </r>
       <r>    4.0855    1.0000 </r>
       <r>    4.1936    1.0000 </r>
       <r>    5.4261    1.0000 </r>
       <r>    5.8814    1.0291 </r>
       <r>    6.1486    0.6109 </r>
       <r>   26.2001    0.0000 </r>
       <r>   27.7326    0.0000 </r>
      </set>
      <set comment="kpoint 14">
       <r>   -0.2602    1.0000 </r>
       <r>    3.8933    1.0000 </r>
       <r>    4.0924    1.0000 </r>
       <r>    5.8430    1.0203 </r>
       <r>    5.8859    1.0300 </r>
       <r>    6.1968    0.4084 </r>
       <r>   23.9882    0.0000 </r>
       <r>   26.7319    0.0000 </r>
      </set>
      <set comment="kpoint 15">
       <r>    0.4952    1.0000 </r>
       <r>    3.7013    1.0000 </r>
       <r>    4.0605    1.0000 </r>
       <r>    5.8843    1.0297 </r>
       <r>    6.2372    0.2503 </r>
       <r>    6.3932   -0.0322 </r>
       <r>   21.7059    0.0000 </r>
       <r>   25.8246    0.0000 </r>
      </set>
      <set comment="kpoint 16">
       <r>    1.1318    1.0000 </r>
       <r>    3.5264    1.0000 </r>
       <r>    4.2342    1.0000 </r>
       <r>    5.9530    1.0331 </r>
       <r>    6.2886    0.0950 </r>
       <r>    6.9359   -0.0000 </r>
       <r>   19.4768    0.0000 </r>
       <r>   25.0358    0.0000 </r>
      </set>
      <set comment="kpoint 17">
       <r>    1.4977    1.0000 </r>
       <r>    3.3838    1.0000 </r>
       <r>    4.7027    1.0000 </r>
       <r>    6.0344    0.9610 </r>
       <r>    6.3409    0.0028 </r>
       <r>    7.5009   -0.0000 </r>
       <r>   17.4169    0.0000 </r>
       <r>   24.4038    0.0000 </r>
      </set>
      <set comment="kpoint 18">
       <r>    1.6269    1.0000 </r>
       <r>    3.2832    1.0000 </r>
       <r>    5.2877    1.0000 </r>
       <r>    6.0952    0.8098 </r>
       <r>    6.4099   -0.0350 </r>
       <r>    8.0650   -0.0000 </r>
       <r>   15.6956    0.0000 </r>
       <r>   23.9599    0.0000 </r>
      </set>
      <set comment="kpoint 19">
       <r>    1.6533    1.0000 </r>
       <r>    3.2312    1.0000 </r>
       <r>    5.6628    1.0009 </r>
       <r>    6.1123    0.7516 </r>
       <r>    6.4843   -0.0256 </r>
       <r>    8.5041   -0.0000 </r>
       <r>   14.6162    0.0000 </r>
       <r>   23.7301    0.0000 </r>
      </set>
      <set comment="kpoint 20">
       <r>   -2.1836    1.0000 </r>
       <r>    4.4191    1.0000 </r>
       <r>    4.4682    1.0000 </r>
       <r>    4.6094    1.0000 </r>
       <r>    6.0129    0.9928 </r>
       <r>    6.1469    0.6176 </r>
       <r>   30.1434    0.0000 </r>
       <r>   31.2807    0.0000 </r>
      </set>
      <set comment="kpoint 21">
       <r>   -0.3355    1.0000 </r>
       <r>    3.9631    1.0000 </r>
       <r>    4.0053    1.0000 </r>
       <r>    5.8385    1.0193 </r>
       <r>    5.8691    1.0263 </r>
       <r>    6.2083    0.3612 </r>
       <r>   24.8759    0.0000 </r>
       <r>   25.9562    0.0000 </r>
      </set>
      <set comment="kpoint 22">
       <r>    0.3983    1.0000 </r>
       <r>    3.7794    1.0000 </r>
       <r>    3.8858    1.0000 </r>
       <r>    5.8351    1.0186 </r>
       <r>    6.2461    0.2194 </r>
       <r>    6.4155   -0.0354 </r>
       <r>   22.9470    0.0000 </r>
       <r>   24.6842    0.0000 </r>
      </set>
      <set comment="kpoint 23">
       <r>    1.1082    1.0000 </r>
       <r>    3.5903    1.0000 </r>
       <r>    3.8906    1.0000 </r>
       <r>    5.8845    1.0297 </r>
       <r>    6.3125    0.0446 </r>
       <r>    7.0030   -0.0000 </r>
       <r>   20.7465    0.0000 </r>
       <r>   23.7843    0.0000 </r>
      </set>
      <set comment="kpoint 24">
       <r>    1.6136    1.0000 </r>
       <r>    3.4373    1.0000 </r>
       <r>    4.1188    1.0000 </r>
       <r>    5.9650    1.0296 </r>
       <r>    6.3663   -0.0200 </r>
       <r>    7.6618   -0.0000 </r>
       <r>   18.5905    0.0000 </r>
       <r>   23.0726    0.0000 </r>
      </set>
      <set comment="kpoint 25">
       <r>    1.8299    1.0000 </r>
       <r>    3.3265    1.0000 </r>
       <r>    4.5567    1.0000 </r>
       <r>    6.0464    0.9385 </r>
       <r>    6.4250   -0.0354 </r>
       <r>    8.3788   -0.0000 </r>
       <r>   16.6393    0.0000 </r>
       <r>   22.5367    0.0000 </r>
      </set>
      <set comment="kpoint 26">
       <r>    1.8788    1.0000 </r>
       <r>    3.2589    1.0000 </r>
       <r>    4.9559    1.0000 </r>
       <r>    6.0975    0.8025 </r>
       <r>    6.5005   -0.0218 </r>
       <r>    9.0824   -0.0000 </r>
       <r>   15.1249    0.0000 </r>
       <r>   22.2025    0.0000 </r>
      </set>
      <set comment="kpoint 27">
       <r>    1.8824    1.0000 </r>
       <r>    3.2360    1.0000 </r>
       <r>    5.1080    1.0000 </r>
       <r>    6.1108    0.7569 </r>
       <r>    6.5371   -0.0140 </r>
       <r>    9.4315   -0.0000 </r>
       <r>   14.4940    0.0000 </r>
       <r>   22.0870    0.0000 </r>
      </set>
      <set comment="kpoint 28">
       <r>   -1.7664    1.0000 </r>
       <r>    4.2953    1.0000 </r>
       <r>    4.4374    1.0000 </r>
       <r>    4.8452    1.0000 </r>
       <r>    5.9069    1.0337 </r>
       <r>    6.1623    0.5538 </r>
       <r>   28.3754    0.0000 </r>
       <r>   30.5671    0.0000 </r>
      </set>
      <set comment="kpoint 29">
       <r>   -1.8689    1.0000 </r>
       <r>    4.3679    1.0000 </r>
       <r>    4.4214    1.0000 </r>
       <r>    4.7703    1.0000 </r>
       <r>    5.8921    1.0312 </r>
       <r>    6.1825    0.4686 </r>
       <r>   28.9858    0.0000 </r>
       <r>   30.3634    0.0000 </r>
      </set>
      <set comment="kpoint 30">
       <r>    1.1043    1.0000 </r>
       <r>    3.6310    1.0000 </r>
       <r>    3.7521    1.0000 </r>
       <r>    5.8531    1.0226 </r>
       <r>    6.3223    0.0281 </r>
       <r>    7.0321   -0.0000 </r>
       <r>   21.7696    0.0000 </r>
       <r>   22.7167    0.0000 </r>
      </set>
      <set comment="kpoint 31">
       <r>    1.7192    1.0000 </r>
       <r>    3.4649    1.0000 </r>
       <r>    3.7808    1.0000 </r>
       <r>    5.9104    1.0342 </r>
       <r>    6.3782   -0.0267 </r>
       <r>    7.7535   -0.0000 </r>
       <r>   19.8776    0.0000 </r>
       <r>   21.6050    0.0000 </r>
      </set>
      <set comment="kpoint 32">
       <r>    2.0720    1.0000 </r>
       <r>    3.3524    1.0000 </r>
       <r>    4.0063    1.0000 </r>
       <r>    5.9974    1.0093 </r>
       <r>    6.4249   -0.0354 </r>
       <r>    8.5808   -0.0000 </r>
       <r>   17.8174    0.0000 </r>
       <r>   20.9376    0.0000 </r>
      </set>
      <set comment="kpoint 33">
       <r>    2.1733    1.0000 </r>
       <r>    3.2875    1.0000 </r>
       <r>    4.3362    1.0000 </r>
       <r>    6.0762    0.8667 </r>
       <r>    6.4752   -0.0276 </r>
       <r>    9.4890   -0.0000 </r>
       <r>   15.9924    0.0000 </r>
       <r>   20.4906    0.0000 </r>
      </set>
      <set comment="kpoint 34">
       <r>    2.1803    1.0000 </r>
       <r>    3.2576    1.0000 </r>
       <r>    4.5554    1.0000 </r>
       <r>    6.1200    0.7232 </r>
       <r>    6.5161   -0.0183 </r>
       <r>   10.2563   -0.0000 </r>
       <r>   14.7427    0.0000 </r>
       <r>   20.2638    0.0000 </r>
      </set>
      <set comment="kpoint 35">
       <r>   -1.1714    1.0000 </r>
       <r>    4.1285    1.0000 </r>
       <r>    4.3713    1.0000 </r>
       <r>    5.1838    1.0000 </r>
       <r>    5.8241    1.0162 </r>
       <r>    6.1848    0.4585 </r>
       <r>   26.2252    0.0000 </r>
       <r>   29.5468    0.0000 </r>
      </set>
      <set comment="kpoint 36">
       <r>   -1.3634    1.0000 </r>
       <r>    4.2405    1.0000 </r>
       <r>    4.3646    1.0000 </r>
       <r>    5.0612    1.0000 </r>
       <r>    5.7763    1.0082 </r>
       <r>    6.2199    0.3152 </r>
       <r>   27.2716    0.0000 </r>
       <r>   29.1808    0.0000 </r>
      </set>
      <set comment="kpoint 37">
       <r>    2.2029    1.0000 </r>
       <r>    3.3441    1.0000 </r>
       <r>    3.7941    1.0000 </r>
       <r>    5.9735    1.0259 </r>
       <r>    6.4236   -0.0354 </r>
       <r>    8.6508   -0.0000 </r>
       <r>   18.8719    0.0000 </r>
       <r>   19.7345    0.0000 </r>
      </set>
      <set comment="kpoint 38">
       <r>    2.4436    1.0000 </r>
       <r>    3.2858    1.0000 </r>
       <r>    3.9247    1.0000 </r>
       <r>    6.0586    0.9119 </r>
       <r>    6.4546   -0.0318 </r>
       <r>    9.6913   -0.0000 </r>
       <r>   17.1230    0.0000 </r>
       <r>   18.9168    0.0000 </r>
      </set>
      <set comment="kpoint 39">
       <r>    2.4947    1.0000 </r>
       <r>    3.2767    1.0000 </r>
       <r>    4.0818    1.0000 </r>
       <r>    6.1369    0.6581 </r>
       <r>    6.4726   -0.0282 </r>
       <r>   10.7883   -0.0000 </r>
       <r>   15.4359    0.0000 </r>
       <r>   18.5421    0.0000 </r>
      </set>
      <set comment="kpoint 40">
       <r>    2.4954    1.0000 </r>
       <r>    3.2775    1.0000 </r>
       <r>    4.1476    1.0000 </r>
       <r>    6.1678    0.5305 </r>
       <r>    6.4767   -0.0273 </r>
       <r>   11.4212   -0.0000 </r>
       <r>   14.5980    0.0000 </r>
       <r>   18.4197    0.0000 </r>
      </set>
      <set comment="kpoint 41">
       <r>   -0.4476    1.0000 </r>
       <r>    3.9402    1.0000 </r>
       <r>    4.2903    1.0000 </r>
       <r>    5.6040    1.0002 </r>
       <r>    5.8057    1.0127 </r>
       <r>    6.2163    0.3293 </r>
       <r>   23.9277    0.0000 </r>
       <r>   28.4351    0.0000 </r>
      </set>
      <set comment="kpoint 42">
       <r>   -0.7021    1.0000 </r>
       <r>    4.0674    1.0000 </r>
       <r>    4.2808    1.0000 </r>
       <r>    5.4488    1.0000 </r>
       <r>    5.7148    1.0027 </r>
       <r>    6.2621    0.1674 </r>
       <r>   25.1322    0.0000 </r>
       <r>   28.0769    0.0000 </r>
      </set>
      <set comment="kpoint 43">
       <r>   -0.7884    1.0000 </r>
       <r>    4.1572    1.0000 </r>
       <r>    4.2241    1.0000 </r>
       <r>    5.4099    1.0000 </r>
       <r>    5.6701    1.0010 </r>
       <r>    6.2813    0.1132 </r>
       <r>   25.9473    0.0000 </r>
       <r>   27.3529    0.0000 </r>
      </set>
      <set comment="kpoint 44">
       <r>    2.6627    1.0000 </r>
       <r>    3.2845    1.0000 </r>
       <r>    3.8612    1.0000 </r>
       <r>    6.1479    0.6135 </r>
       <r>    6.4482   -0.0329 </r>
       <r>   10.9628   -0.0000 </r>
       <r>   16.1689    0.0000 </r>
       <r>   17.4686    0.0000 </r>
      </set>
      <set comment="kpoint 45">
       <r>    2.7322    1.0000 </r>
       <r>    3.3444    1.0000 </r>
       <r>    3.8084    1.0000 </r>
       <r>    6.2264    0.2903 </r>
       <r>    6.4181   -0.0354 </r>
       <r>   12.2254    0.0000 </r>
       <r>   14.8042    0.0000 </r>
       <r>   16.9904    0.0000 </r>
      </set>
      <set comment="kpoint 46">
       <r>    0.3114    1.0000 </r>
       <r>    3.7468    1.0000 </r>
       <r>    4.2827    1.0000 </r>
       <r>    5.8501    1.0219 </r>
       <r>    6.0672    0.8908 </r>
       <r>    6.2535    0.1945 </r>
       <r>   21.6059    0.0000 </r>
       <r>   27.3749    0.0000 </r>
      </set>
      <set comment="kpoint 47">
       <r>    0.0481    1.0000 </r>
       <r>    3.8756    1.0000 </r>
       <r>    4.2047    1.0000 </r>
       <r>    5.7262    1.0034 </r>
       <r>    5.9059    1.0336 </r>
       <r>    6.3082    0.0526 </r>
       <r>   22.8383    0.0000 </r>
       <r>   27.0624    0.0000 </r>
      </set>
      <set comment="kpoint 48">
       <r>   -0.0881    1.0000 </r>
       <r>    3.9953    1.0000 </r>
       <r>    4.1031    1.0000 </r>
       <r>    5.6315    1.0004 </r>
       <r>    5.8490    1.0217 </r>
       <r>    6.3490   -0.0058 </r>
       <r>   24.0581    0.0000 </r>
       <r>   25.9372    0.0000 </r>
      </set>
      <set comment="kpoint 49">
       <r>    2.8132    1.0000 </r>
       <r>    3.5409    1.0000 </r>
       <r>    3.5410    1.0000 </r>
       <r>    6.3266    0.0215 </r>
       <r>    6.3267    0.0214 </r>
       <r>   13.6835    0.0000 </r>
       <r>   13.6836    0.0000 </r>
       <r>   16.4019    0.0000 </r>
      </set>
      <set comment="kpoint 50">
       <r>    0.9490    1.0000 </r>
       <r>    3.5680    1.0000 </r>
       <r>    4.5076    1.0000 </r>
       <r>    5.9393    1.0351 </r>
       <r>    6.3016    0.0658 </r>
       <r>    6.5359   -0.0143 </r>
       <r>   19.3725    0.0000 </r>
       <r>   26.4532    0.0000 </r>
      </set>
      <set comment="kpoint 51">
       <r>    0.7637    1.0000 </r>
       <r>    3.6898    1.0000 </r>
       <r>    4.2510    1.0000 </r>
       <r>    5.8132    1.0141 </r>
       <r>    6.3167    0.0372 </r>
       <r>    6.4442   -0.0335 </r>
       <r>   20.5541    0.0000 </r>
       <r>   26.1585    0.0000 </r>
      </set>
      <set comment="kpoint 52">
       <r>    0.6498    1.0000 </r>
       <r>    3.7980    1.0000 </r>
       <r>    4.0490    1.0000 </r>
       <r>    5.6776    1.0012 </r>
       <r>    6.2717    0.1393 </r>
       <r>    6.5089   -0.0199 </r>
       <r>   21.8355    0.0000 </r>
       <r>   24.9292    0.0000 </r>
      </set>
      <set comment="kpoint 53">
       <r>    0.6116    1.0000 </r>
       <r>    3.8517    1.0000 </r>
       <r>    3.9656    1.0000 </r>
       <r>    5.6212    1.0003 </r>
       <r>    6.2575    0.1818 </r>
       <r>    6.5377   -0.0139 </r>
       <r>   22.8329    0.0000 </r>
       <r>   23.8902    0.0000 </r>
      </set>
      <set comment="kpoint 54">
       <r>    1.3233    1.0000 </r>
       <r>    3.4192    1.0000 </r>
       <r>    5.0503    1.0000 </r>
       <r>    6.0428    0.9457 </r>
       <r>    6.3835   -0.0290 </r>
       <r>    6.9599   -0.0000 </r>
       <r>   17.3244    0.0000 </r>
       <r>   25.7233    0.0000 </r>
      </set>
      <set comment="kpoint 55">
       <r>    1.2748    1.0000 </r>
       <r>    3.5276    1.0000 </r>
       <r>    4.5506    1.0000 </r>
       <r>    5.9329    1.0354 </r>
       <r>    6.4335   -0.0348 </r>
       <r>    6.9137   -0.0000 </r>
       <r>   18.3935    0.0000 </r>
       <r>   25.3986    0.0000 </r>
      </set>
      <set comment="kpoint 56">
       <r>    1.2745    1.0000 </r>
       <r>    3.6243    1.0000 </r>
       <r>    4.1384    1.0000 </r>
       <r>    5.7885    1.0099 </r>
       <r>    6.4163   -0.0354 </r>
       <r>    7.0158   -0.0000 </r>
       <r>   19.6087    0.0000 </r>
       <r>   24.1180    0.0000 </r>
      </set>
      <set comment="kpoint 57">
       <r>    1.2903    1.0000 </r>
       <r>    3.6514    1.0000 </r>
       <r>    3.9462    1.0000 </r>
       <r>    5.6838    1.0014 </r>
       <r>    6.4026   -0.0342 </r>
       <r>    7.0905   -0.0000 </r>
       <r>   20.9129    0.0000 </r>
       <r>   22.6636    0.0000 </r>
      </set>
      <set comment="kpoint 58">
       <r>    1.4655    1.0000 </r>
       <r>    3.3130    1.0000 </r>
       <r>    5.6760    1.0012 </r>
       <r>    6.1143    0.7443 </r>
       <r>    6.6083   -0.0045 </r>
       <r>    7.2851   -0.0000 </r>
       <r>   15.6291    0.0000 </r>
       <r>   25.2178    0.0000 </r>
      </set>
      <set comment="kpoint 59">
       <r>    1.5129    1.0000 </r>
       <r>    3.4024    1.0000 </r>
       <r>    5.0421    1.0000 </r>
       <r>    6.0284    0.9709 </r>
       <r>    6.6257   -0.0032 </r>
       <r>    7.3944   -0.0000 </r>
       <r>   16.4765    0.0000 </r>
       <r>   24.8234    0.0000 </r>
      </set>
      <set comment="kpoint 60">
       <r>    1.6364    1.0000 </r>
       <r>    3.4914    1.0000 </r>
       <r>    4.4372    1.0000 </r>
       <r>    5.9130    1.0345 </r>
       <r>    6.5376   -0.0139 </r>
       <r>    7.6442   -0.0000 </r>
       <r>   17.5305    0.0000 </r>
       <r>   23.4749    0.0000 </r>
      </set>
      <set comment="kpoint 61">
       <r>    1.7879    1.0000 </r>
       <r>    3.5118    1.0000 </r>
       <r>    4.0417    1.0000 </r>
       <r>    5.7984    1.0114 </r>
       <r>    6.4835   -0.0257 </r>
       <r>    7.8165   -0.0000 </r>
       <r>   18.7735    0.0000 </r>
       <r>   21.8966    0.0000 </r>
      </set>
      <set comment="kpoint 62">
       <r>    1.8641    1.0000 </r>
       <r>    3.4686    1.0000 </r>
       <r>    3.9387    1.0000 </r>
       <r>    5.7501    1.0052 </r>
       <r>    6.4671   -0.0294 </r>
       <r>    7.8749   -0.0000 </r>
       <r>   19.8585    0.0000 </r>
       <r>   20.6856    0.0000 </r>
      </set>
      <set comment="kpoint 63">
       <r>    1.5000    1.0000 </r>
       <r>    3.2575    1.0000 </r>
       <r>    5.9960    1.0105 </r>
       <r>    6.1071    0.7700 </r>
       <r>    6.9828   -0.0000 </r>
       <r>    7.4610   -0.0000 </r>
       <r>   14.5886    0.0000 </r>
       <r>   24.9590    0.0000 </r>
      </set>
      <set comment="kpoint 64">
       <r>    1.5824    1.0000 </r>
       <r>    3.3233    1.0000 </r>
       <r>    5.4408    1.0000 </r>
       <r>    6.0521    0.9266 </r>
       <r>    6.9029   -0.0000 </r>
       <r>    7.8437   -0.0000 </r>
       <r>   15.0320    0.0000 </r>
       <r>   24.4630    0.0000 </r>
      </set>
      <set comment="kpoint 65">
       <r>    1.7619    1.0000 </r>
       <r>    3.4004    1.0000 </r>
       <r>    4.8038    1.0000 </r>
       <r>    5.9871    1.0176 </r>
       <r>    6.7183   -0.0004 </r>
       <r>    8.3224   -0.0000 </r>
       <r>   15.7707    0.0000 </r>
       <r>   23.0205    0.0000 </r>
      </set>
      <set comment="kpoint 66">
       <r>    2.0108    1.0000 </r>
       <r>    3.4368    1.0000 </r>
       <r>    4.2645    1.0000 </r>
       <r>    5.9144    1.0346 </r>
       <r>    6.5884   -0.0064 </r>
       <r>    8.6531   -0.0000 </r>
       <r>   16.7923    0.0000 </r>
       <r>   21.3402    0.0000 </r>
      </set>
      <set comment="kpoint 67">
       <r>    2.2404    1.0000 </r>
       <r>    3.3620    1.0000 </r>
       <r>    3.9907    1.0000 </r>
       <r>    5.8635    1.0250 </r>
       <r>    6.5215   -0.0172 </r>
       <r>    8.8168   -0.0000 </r>
       <r>   18.0178    0.0000 </r>
       <r>   19.7612    0.0000 </r>
      </set>
      <set comment="kpoint 68">
       <r>    1.5935    1.0000 </r>
       <r>    3.2963    1.0000 </r>
       <r>    5.5831    1.0001 </r>
       <r>    6.0441    0.9431 </r>
       <r>    7.0362   -0.0000 </r>
       <r>    8.0742   -0.0000 </r>
       <r>   14.4573    0.0000 </r>
       <r>   24.3398    0.0000 </r>
      </set>
      <set comment="kpoint 69">
       <r>    1.7854    1.0000 </r>
       <r>    3.3539    1.0000 </r>
       <r>    5.0310    1.0000 </r>
       <r>    6.0048    1.0020 </r>
       <r>    6.8696   -0.0000 </r>
       <r>    8.8787   -0.0000 </r>
       <r>   14.6443    0.0000 </r>
       <r>   22.7843    0.0000 </r>
      </set>
      <set comment="kpoint 70">
       <r>    2.0599    1.0000 </r>
       <r>    3.3984    1.0000 </r>
       <r>    4.4834    1.0000 </r>
       <r>    5.9808    1.0219 </r>
       <r>    6.7087   -0.0005 </r>
       <r>    9.5066   -0.0000 </r>
       <r>   15.2079    0.0000 </r>
       <r>   20.9924    0.0000 </r>
      </set>
      <set comment="kpoint 71">
       <r>    2.3760    1.0000 </r>
       <r>    3.3613    1.0000 </r>
       <r>    4.0721    1.0000 </r>
       <r>    5.9760    1.0246 </r>
       <r>    6.5832   -0.0070 </r>
       <r>    9.8804   -0.0000 </r>
       <r>   16.1556    0.0000 </r>
       <r>   19.2791    0.0000 </r>
      </set>
      <set comment="kpoint 72">
       <r>    2.5655    1.0000 </r>
       <r>    3.2640    1.0000 </r>
       <r>    3.9349    1.0000 </r>
       <r>    5.9780    1.0235 </r>
       <r>    6.5346   -0.0145 </r>
       <r>    9.9988   -0.0000 </r>
       <r>   17.0574    0.0000 </r>
       <r>   18.1177    0.0000 </r>
      </set>
      <set comment="kpoint 73">
       <r>    2.0627    1.0000 </r>
       <r>    3.3872    1.0000 </r>
       <r>    4.5685    1.0000 </r>
       <r>    5.9980    1.0087 </r>
       <r>    6.7658   -0.0001 </r>
       <r>    9.9451   -0.0000 </r>
       <r>   14.5240    0.0000 </r>
       <r>   20.8773    0.0000 </r>
      </set>
      <set comment="kpoint 74">
       <r>    2.3914    1.0000 </r>
       <r>    3.3855    1.0000 </r>
       <r>    4.1322    1.0000 </r>
       <r>    6.0376    0.9554 </r>
       <r>    6.6352   -0.0027 </r>
       <r>   10.8141   -0.0000 </r>
       <r>   14.7967    0.0000 </r>
       <r>   19.0355    0.0000 </r>
      </set>
      <set comment="kpoint 75">
       <r>    2.7013    1.0000 </r>
       <r>    3.3028    1.0000 </r>
       <r>    3.8499    1.0000 </r>
       <r>    6.0978    0.8014 </r>
       <r>    6.5239   -0.0167 </r>
       <r>   11.2767   -0.0000 </r>
       <r>   15.5040    0.0000 </r>
       <r>   17.5096    0.0000 </r>
      </set>
      <set comment="kpoint 76">
       <r>    2.7207    1.0000 </r>
       <r>    3.3672    1.0000 </r>
       <r>    3.7929    1.0000 </r>
       <r>    6.1508    0.6018 </r>
       <r>    6.5176   -0.0180 </r>
       <r>   12.0870    0.0000 </r>
       <r>   14.5487    0.0000 </r>
       <r>   17.3589    0.0000 </r>
      </set>
      <set comment="kpoint 77">
       <r>    2.9051    1.0000 </r>
       <r>    3.3566    1.0000 </r>
       <r>    3.6088    1.0000 </r>
       <r>    6.2483    0.2119 </r>
       <r>    6.4234   -0.0354 </r>
       <r>   12.7617    0.0000 </r>
       <r>   14.4643    0.0000 </r>
       <r>   16.5491    0.0000 </r>
      </set>
      <set comment="kpoint 78">
       <r>   -1.0696    1.0000 </r>
       <r>    4.1242    1.0000 </r>
       <r>    4.1242    1.0000 </r>
       <r>    5.4268    1.0000 </r>
       <r>    6.0282    0.9712 </r>
       <r>    6.0282    0.9712 </r>
       <r>   27.1235    0.0000 </r>
       <r>   27.1235    0.0000 </r>
      </set>
      <set comment="kpoint 79">
       <r>   -0.4202    1.0000 </r>
       <r>    3.9274    1.0000 </r>
       <r>    3.9919    1.0000 </r>
       <r>    5.8786    1.0284 </r>
       <r>    5.9697    1.0277 </r>
       <r>    6.1035    0.7822 </r>
       <r>   25.1205    0.0000 </r>
       <r>   26.1685    0.0000 </r>
      </set>
      <set comment="kpoint 80">
       <r>    0.3243    1.0000 </r>
       <r>    3.7287    1.0000 </r>
       <r>    3.8829    1.0000 </r>
       <r>    5.9605    1.0311 </r>
       <r>    6.1723    0.5117 </r>
       <r>    6.4010   -0.0339 </r>
       <r>   22.9258    0.0000 </r>
       <r>   25.2728    0.0000 </r>
      </set>
      <set comment="kpoint 81">
       <r>    1.0440    1.0000 </r>
       <r>    3.5484    1.0000 </r>
       <r>    3.8949    1.0000 </r>
       <r>    5.9949    1.0116 </r>
       <r>    6.2319    0.2697 </r>
       <r>    6.9848   -0.0000 </r>
       <r>   20.6879    0.0000 </r>
       <r>   24.4813    0.0000 </r>
      </set>
      <set comment="kpoint 82">
       <r>    1.5519    1.0000 </r>
       <r>    3.3941    1.0000 </r>
       <r>    4.1702    1.0000 </r>
       <r>    6.0500    0.9310 </r>
       <r>    6.2839    0.1065 </r>
       <r>    7.6164   -0.0000 </r>
       <r>   18.5283    0.0000 </r>
       <r>   23.8203    0.0000 </r>
      </set>
      <set comment="kpoint 83">
       <r>    1.7668    1.0000 </r>
       <r>    3.2778    1.0000 </r>
       <r>    4.6963    1.0000 </r>
       <r>    6.1073    0.7693 </r>
       <r>    6.3252    0.0236 </r>
       <r>    8.2903   -0.0000 </r>
       <r>   16.5898    0.0000 </r>
       <r>   23.3253    0.0000 </r>
      </set>
      <set comment="kpoint 84">
       <r>    1.8158    1.0000 </r>
       <r>    3.2053    1.0000 </r>
       <r>    5.1962    1.0000 </r>
       <r>    6.1450    0.6254 </r>
       <r>    6.3507   -0.0075 </r>
       <r>    8.9368   -0.0000 </r>
       <r>   15.1007    0.0000 </r>
       <r>   23.0167    0.0000 </r>
      </set>
      <set comment="kpoint 85">
       <r>    1.8193    1.0000 </r>
       <r>    3.1807    1.0000 </r>
       <r>    5.3959    1.0000 </r>
       <r>    6.1564    0.5783 </r>
       <r>    6.3569   -0.0130 </r>
       <r>    9.2526   -0.0000 </r>
       <r>   14.4843    0.0000 </r>
       <r>   22.9122    0.0000 </r>
      </set>
      <set comment="kpoint 86">
       <r>   -1.9724    1.0000 </r>
       <r>    4.4671    1.0000 </r>
       <r>    4.4671    1.0000 </r>
       <r>    4.6149    1.0000 </r>
       <r>    5.8691    1.0263 </r>
       <r>    6.2112    0.3497 </r>
       <r>   29.4576    0.0000 </r>
       <r>   31.1480    0.0000 </r>
      </set>
      <set comment="kpoint 87">
       <r>    0.2658    1.0000 </r>
       <r>    3.7694    1.0000 </r>
       <r>    3.7885    1.0000 </r>
       <r>    5.9927    1.0133 </r>
       <r>    6.1451    0.6253 </r>
       <r>    6.4135   -0.0353 </r>
       <r>   23.8779    0.0000 </r>
       <r>   24.5620    0.0000 </r>
      </set>
      <set comment="kpoint 88">
       <r>    1.0040    1.0000 </r>
       <r>    3.5847    1.0000 </r>
       <r>    3.6761    1.0000 </r>
       <r>    6.0054    1.0014 </r>
       <r>    6.2168    0.3277 </r>
       <r>    7.0219   -0.0000 </r>
       <r>   21.9417    0.0000 </r>
       <r>   23.5028    0.0000 </r>
      </set>
      <set comment="kpoint 89">
       <r>    1.6389    1.0000 </r>
       <r>    3.4209    1.0000 </r>
       <r>    3.7351    1.0000 </r>
       <r>    6.0470    0.9373 </r>
       <r>    6.2800    0.1167 </r>
       <r>    7.7063   -0.0000 </r>
       <r>   19.7853    0.0000 </r>
       <r>   22.7397    0.0000 </r>
      </set>
      <set comment="kpoint 90">
       <r>    1.9811    1.0000 </r>
       <r>    3.2954    1.0000 </r>
       <r>    4.0718    1.0000 </r>
       <r>    6.1044    0.7793 </r>
       <r>    6.3297    0.0171 </r>
       <r>    8.4676   -0.0000 </r>
       <r>   17.7096    0.0000 </r>
       <r>   22.1512    0.0000 </r>
      </set>
      <set comment="kpoint 91">
       <r>    2.0686    1.0000 </r>
       <r>    3.2112    1.0000 </r>
       <r>    4.5425    1.0000 </r>
       <r>    6.1560    0.5801 </r>
       <r>    6.3663   -0.0200 </r>
       <r>    9.2851   -0.0000 </r>
       <r>   15.9130    0.0000 </r>
       <r>   21.7445    0.0000 </r>
      </set>
      <set comment="kpoint 92">
       <r>    2.0711    1.0000 </r>
       <r>    3.1684    1.0000 </r>
       <r>    4.8562    1.0000 </r>
       <r>    6.1848    0.4586 </r>
       <r>    6.3885   -0.0308 </r>
       <r>    9.9581   -0.0000 </r>
       <r>   14.7152    0.0000 </r>
       <r>   21.5347    0.0000 </r>
      </set>
      <set comment="kpoint 93">
       <r>   -1.5613    1.0000 </r>
       <r>    4.3891    1.0000 </r>
       <r>    4.4565    1.0000 </r>
       <r>    4.8174    1.0000 </r>
       <r>    5.7040    1.0022 </r>
       <r>    6.2680    0.1500 </r>
       <r>   28.1742    0.0000 </r>
       <r>   30.3269    0.0000 </r>
      </set>
      <set comment="kpoint 94">
       <r>    1.6848    1.0000 </r>
       <r>    3.4519    1.0000 </r>
       <r>    3.5476    1.0000 </r>
       <r>    6.0389    0.9529 </r>
       <r>    6.2858    0.1019 </r>
       <r>    7.7405   -0.0000 </r>
       <r>   20.8374    0.0000 </r>
       <r>   21.6687    0.0000 </r>
      </set>
      <set comment="kpoint 95">
       <r>    2.1852    1.0000 </r>
       <r>    3.3230    1.0000 </r>
       <r>    3.6368    1.0000 </r>
       <r>    6.0910    0.8231 </r>
       <r>    6.3416    0.0020 </r>
       <r>    8.5656   -0.0000 </r>
       <r>   18.9855    0.0000 </r>
       <r>   20.6943    0.0000 </r>
      </set>
      <set comment="kpoint 96">
       <r>    2.3660    1.0000 </r>
       <r>    3.2358    1.0000 </r>
       <r>    3.9652    1.0000 </r>
       <r>    6.1498    0.6058 </r>
       <r>    6.3779   -0.0265 </r>
       <r>    9.4999   -0.0000 </r>
       <r>   17.0173    0.0000 </r>
       <r>   20.1441    0.0000 </r>
      </set>
      <set comment="kpoint 97">
       <r>    2.3780    1.0000 </r>
       <r>    3.1874    1.0000 </r>
       <r>    4.3003    1.0000 </r>
       <r>    6.1992    0.3987 </r>
       <r>    6.4028   -0.0342 </r>
       <r>   10.4669   -0.0000 </r>
       <r>   15.3766    0.0000 </r>
       <r>   19.8194    0.0000 </r>
      </set>
      <set comment="kpoint 98">
       <r>    2.3686    1.0000 </r>
       <r>    3.1703    1.0000 </r>
       <r>    4.4311    1.0000 </r>
       <r>    6.2182    0.3220 </r>
       <r>    6.4089   -0.0349 </r>
       <r>   10.9948   -0.0000 </r>
       <r>   14.6098    0.0000 </r>
       <r>   19.7052    0.0000 </r>
      </set>
      <set comment="kpoint 99">
       <r>   -0.9758    1.0000 </r>
       <r>    4.2396    1.0000 </r>
       <r>    4.4038    1.0000 </r>
       <r>    5.1527    1.0000 </r>
       <r>    5.5782    1.0001 </r>
       <r>    6.3210    0.0302 </r>
       <r>   26.2884    0.0000 </r>
       <r>   29.1471    0.0000 </r>
      </set>
      <set comment="kpoint 100">
       <r>   -1.0684    1.0000 </r>
       <r>    4.3553    1.0000 </r>
       <r>    4.4072    1.0000 </r>
       <r>    5.0429    1.0000 </r>
       <r>    5.5184    1.0000 </r>
       <r>    6.3429    0.0005 </r>
       <r>   27.0032    0.0000 </r>
       <r>   28.7824    0.0000 </r>
      </set>
      <set comment="kpoint 101">
       <r>    2.5364    1.0000 </r>
       <r>    3.2656    1.0000 </r>
       <r>    3.6814    1.0000 </r>
       <r>    6.1452    0.6247 </r>
       <r>    6.3825   -0.0286 </r>
       <r>    9.5730   -0.0000 </r>
       <r>   18.0398    0.0000 </r>
       <r>   18.9422    0.0000 </r>
      </set>
      <set comment="kpoint 102">
       <r>    2.6403    1.0000 </r>
       <r>    3.2411    1.0000 </r>
       <r>    3.8641    1.0000 </r>
       <r>    6.2065    0.3687 </r>
       <r>    6.4027   -0.0342 </r>
       <r>   10.7134   -0.0000 </r>
       <r>   16.3853    0.0000 </r>
       <r>   18.2414    0.0000 </r>
      </set>
      <set comment="kpoint 103">
       <r>    2.6429    1.0000 </r>
       <r>    3.2326    1.0000 </r>
       <r>    4.0130    1.0000 </r>
       <r>    6.2512    0.2023 </r>
       <r>    6.4037   -0.0343 </r>
       <r>   11.7877    0.0000 </r>
       <r>   14.9401    0.0000 </r>
       <r>   17.9851    0.0000 </r>
      </set>
      <set comment="kpoint 104">
       <r>   -0.2650    1.0000 </r>
       <r>    4.0588    1.0000 </r>
       <r>    4.3042    1.0000 </r>
       <r>    5.5520    1.0000 </r>
       <r>    5.5726    1.0001 </r>
       <r>    6.3728   -0.0239 </r>
       <r>   24.0629    0.0000 </r>
       <r>   28.0425    0.0000 </r>
      </set>
      <set comment="kpoint 105">
       <r>   -0.4257    1.0000 </r>
       <r>    4.2216    1.0000 </r>
       <r>    4.3191    1.0000 </r>
       <r>    5.4048    1.0000 </r>
       <r>    5.4246    1.0000 </r>
       <r>    6.4144   -0.0353 </r>
       <r>   25.2436    0.0000 </r>
       <r>   27.2939    0.0000 </r>
      </set>
      <set comment="kpoint 106">
       <r>    2.7582    1.0000 </r>
       <r>    3.3329    1.0000 </r>
       <r>    3.7704    1.0000 </r>
       <r>    6.2678    0.1503 </r>
       <r>    6.3938   -0.0323 </r>
       <r>   12.0674    0.0000 </r>
       <r>   15.4505    0.0000 </r>
       <r>   16.9915    0.0000 </r>
      </set>
      <set comment="kpoint 107">
       <r>    2.7810    1.0000 </r>
       <r>    3.4030    1.0000 </r>
       <r>    3.7178    1.0000 </r>
       <r>    6.3084    0.0523 </r>
       <r>    6.3706   -0.0227 </r>
       <r>   13.0942    0.0000 </r>
       <r>   14.4520    0.0000 </r>
       <r>   16.6838    0.0000 </r>
      </set>
      <set comment="kpoint 108">
       <r>    0.4795    1.0000 </r>
[...]
      <set comment="kpoint 239">
       <r>    2.1838    1.0000 </r>
       <r>    2.2333    1.0000 </r>
       <r>    5.8921    1.0312 </r>
       <r>    6.4281   -0.0352 </r>
       <r>    7.1074   -0.0000 </r>
       <r>   13.1487    0.0000 </r>
       <r>   16.7634    0.0000 </r>
       <r>   17.9969    0.0000 </r>
      </set>
      <set comment="kpoint 240">
       <r>    2.1466    1.0000 </r>
       <r>    2.2005    1.0000 </r>
       <r>    5.8946    1.0317 </r>
       <r>    6.5012   -0.0216 </r>
       <r>    7.1930   -0.0000 </r>
       <r>   14.3120    0.0000 </r>
       <r>   15.4912    0.0000 </r>
       <r>   17.8159    0.0000 </r>
      </set>
      <set comment="kpoint 241">
       <r>    2.1327    1.0000 </r>
       <r>    2.1353    1.0000 </r>
       <r>    5.8992    1.0325 </r>
       <r>    6.7887   -0.0001 </r>
       <r>    7.0636   -0.0000 </r>
       <r>   14.5999    0.0000 </r>
       <r>   16.1220    0.0000 </r>
       <r>   16.7799    0.0000 </r>
      </set>
      <set comment="kpoint 242">
       <r>    2.1934    1.0000 </r>
       <r>    2.3439    1.0000 </r>
       <r>    6.1831    0.4660 </r>
       <r>    6.1832    0.4655 </r>
       <r>    6.7666   -0.0001 </r>
       <r>   11.5857   -0.0000 </r>
       <r>   18.8785    0.0000 </r>
       <r>   18.8785    0.0000 </r>
      </set>
      <set comment="kpoint 243">
       <r>    2.0921    1.0000 </r>
       <r>    2.1503    1.0000 </r>
       <r>    6.3453   -0.0021 </r>
       <r>    6.4306   -0.0351 </r>
       <r>    6.9993   -0.0000 </r>
       <r>   12.8832    0.0000 </r>
       <r>   17.6683    0.0000 </r>
       <r>   18.1670    0.0000 </r>
      </set>
      <set comment="kpoint 244">
       <r>    2.0284    1.0000 </r>
       <r>    2.0562    1.0000 </r>
       <r>    6.3744   -0.0248 </r>
       <r>    6.5572   -0.0105 </r>
       <r>    7.1980   -0.0000 </r>
       <r>   14.3067    0.0000 </r>
       <r>   16.1566    0.0000 </r>
       <r>   17.7845    0.0000 </r>
      </set>
      <set comment="kpoint 245">
       <r>    1.9899    1.0000 </r>
       <r>    2.0045    1.0000 </r>
       <r>    6.4498   -0.0327 </r>
       <r>    6.7627   -0.0001 </r>
       <r>    7.1127   -0.0000 </r>
       <r>   14.2015    0.0000 </r>
       <r>   17.0320    0.0000 </r>
       <r>   17.2164    0.0000 </r>
      </set>
      <set comment="kpoint 246">
       <r>    1.9505    1.0000 </r>
       <r>    1.9575    1.0000 </r>
       <r>    6.4635   -0.0301 </r>
       <r>    6.8982   -0.0000 </r>
       <r>    7.1566   -0.0000 </r>
       <r>   15.3896    0.0000 </r>
       <r>   15.9426    0.0000 </r>
       <r>   16.9610    0.0000 </r>
      </set>
      <set comment="kpoint 247">
       <r>    1.9392    1.0000 </r>
       <r>    1.9614    1.0000 </r>
       <r>    6.7531   -0.0002 </r>
       <r>    6.7532   -0.0002 </r>
       <r>    7.0260   -0.0000 </r>
       <r>   14.0502    0.0000 </r>
       <r>   17.4211    0.0000 </r>
       <r>   17.4211    0.0000 </r>
      </set>
      <set comment="kpoint 248">
       <r>    1.8569    1.0000 </r>
       <r>    1.8614    1.0000 </r>
       <r>    6.8569   -0.0000 </r>
       <r>    6.9238   -0.0000 </r>
       <r>    7.1690   -0.0000 </r>
       <r>   15.2884    0.0000 </r>
       <r>   16.5544    0.0000 </r>
       <r>   17.0153    0.0000 </r>
      </set>
      <set comment="kpoint 249">
       <r>    1.8116    1.0000 </r>
       <r>    1.8116    1.0000 </r>
       <r>    6.9075   -0.0000 </r>
       <r>    7.1350   -0.0000 </r>
       <r>    7.1351   -0.0000 </r>
       <r>   16.2446    0.0000 </r>
       <r>   16.2446    0.0000 </r>
       <r>   16.4984    0.0000 </r>
      </set>
      <set comment="kpoint 250">
       <r>    1.7621    1.0000 </r>
       <r>    1.7630    1.0000 </r>
       <r>    7.1275   -0.0000 </r>
       <r>    7.1276   -0.0000 </r>
       <r>    7.1632   -0.0000 </r>
       <r>   16.1198    0.0000 </r>
       <r>   16.5956    0.0000 </r>
       <r>   16.5956    0.0000 </r>
      </set>
     </set>
    </set>
   </array>
  </eigenvalues>
  <separator name="orbital magnetization" >
   <v name="MAGDIPOLOUT">      0.00000000      0.00000000      0.00000000</v>
  </separator>
  <dos>
   <i name="efermi">      6.17503300 </i>
   <total>
    <array>
     <dimension dim="1">gridpoints</dimension>
     <dimension dim="2">spin</dimension>
     <field>energy</field>
     <field>total</field>
     <field>integrated</field>
     <set>
      <set comment="spin 1">
       <r>    -4.3976     0.0000     0.0000 </r>
       <r>    -4.2711     0.0000     0.0000 </r>
       <r>    -4.1446     0.0000     0.0000 </r>
       <r>    -4.0181    -0.0000    -0.0000 </r>
       <r>    -3.8916    -0.0000    -0.0000 </r>
       <r>    -3.7651    -0.0000    -0.0000 </r>
       <r>    -3.6386    -0.0000    -0.0000 </r>
       <r>    -3.5121    -0.0000    -0.0000 </r>
       <r>    -3.3856    -0.0000    -0.0000 </r>
       <r>    -3.2591    -0.0000    -0.0000 </r>
       <r>    -3.1326    -0.0000    -0.0000 </r>
       <r>    -3.0061    -0.0000    -0.0000 </r>
       <r>    -2.8796    -0.0000    -0.0000 </r>
       <r>    -2.7531    -0.0002    -0.0000 </r>
       <r>    -2.6266    -0.0007    -0.0001 </r>
       <r>    -2.5001     0.0007    -0.0000 </r>
       <r>    -2.3736     0.0087     0.0011 </r>
       <r>    -2.2471     0.0229     0.0040 </r>
       <r>    -2.1206     0.0316     0.0080 </r>
       <r>    -1.9941     0.0391     0.0129 </r>
       <r>    -1.8676     0.0537     0.0197 </r>
       <r>    -1.7411     0.0504     0.0261 </r>
       <r>    -1.6146     0.0492     0.0323 </r>
       <r>    -1.4881     0.0746     0.0417 </r>
       <r>    -1.3616     0.0822     0.0521 </r>
       <r>    -1.2352     0.0610     0.0599 </r>
       <r>    -1.1087     0.0677     0.0684 </r>
       <r>    -0.9822     0.1018     0.0813 </r>
       <r>    -0.8557     0.1034     0.0944 </r>
       <r>    -0.7292     0.0965     0.1066 </r>
       <r>    -0.6027     0.0874     0.1176 </r>
       <r>    -0.4762     0.0955     0.1297 </r>
       <r>    -0.3497     0.1379     0.1472 </r>
       <r>    -0.2232     0.1352     0.1643 </r>
       <r>    -0.0967     0.1202     0.1795 </r>
       <r>     0.0298     0.1386     0.1970 </r>
       <r>     0.1563     0.1287     0.2133 </r>
       <r>     0.2828     0.1468     0.2319 </r>
       <r>     0.4093     0.1884     0.2557 </r>
       <r>     0.5358     0.1869     0.2793 </r>
       <r>     0.6623     0.2008     0.3047 </r>
       <r>     0.7888     0.1893     0.3287 </r>
       <r>     0.9153     0.1745     0.3508 </r>
       <r>     1.0418     0.2610     0.3838 </r>
       <r>     1.1683     0.3381     0.4266 </r>
       <r>     1.2948     0.3465     0.4704 </r>
       <r>     1.4213     0.3786     0.5183 </r>
       <r>     1.5478     0.5759     0.5911 </r>
       <r>     1.6743     0.8344     0.6967 </r>
       <r>     1.8008     0.9401     0.8156 </r>
       <r>     1.9273     0.9240     0.9325 </r>
       <r>     2.0538     1.0400     1.0640 </r>
       <r>     2.1803     1.2505     1.2222 </r>
       <r>     2.3068     1.5203     1.4145 </r>
       <r>     2.4333     1.6709     1.6259 </r>
       <r>     2.5598     1.4186     1.8054 </r>
       <r>     2.6863     1.1680     1.9531 </r>
       <r>     2.8128     0.9247     2.0701 </r>
       <r>     2.9393     0.6819     2.1563 </r>
       <r>     3.0658     0.7252     2.2481 </r>
       <r>     3.1923     1.5285     2.4414 </r>
       <r>     3.3188     2.5511     2.7641 </r>
       <r>     3.4453     2.6849     3.1038 </r>
       <r>     3.5718     2.2860     3.3929 </r>
       <r>     3.6983     2.0105     3.6473 </r>
       <r>     3.8247     2.0042     3.9008 </r>
       <r>     3.9512     2.0949     4.1658 </r>
       <r>     4.0777     2.4036     4.4698 </r>
       <r>     4.2042     2.6530     4.8054 </r>
       <r>     4.3307     2.3765     5.1061 </r>
       <r>     4.4572     1.7821     5.3315 </r>
       <r>     4.5837     1.1765     5.4803 </r>
       <r>     4.7102     0.8425     5.5869 </r>
       <r>     4.8367     0.7413     5.6807 </r>
       <r>     4.9632     0.6088     5.7577 </r>
       <r>     5.0897     0.5957     5.8330 </r>
       <r>     5.2162     0.7419     5.9269 </r>
       <r>     5.3427     0.9690     6.0495 </r>
       <r>     5.4692     1.2441     6.2068 </r>
       <r>     5.5957     1.4954     6.3960 </r>
       <r>     5.7222     1.9016     6.6365 </r>
       <r>     5.8487     2.5710     6.9618 </r>
       <r>     5.9752     3.0776     7.3511 </r>
       <r>     6.1017     3.1817     7.7536 </r>
       <r>     6.2282     3.4822     8.1940 </r>
       <r>     6.3547     4.0984     8.7125 </r>
       <r>     6.4812     3.9074     9.2068 </r>
       <r>     6.6077     2.5713     9.5320 </r>
       <r>     6.7342     1.5508     9.7282 </r>
       <r>     6.8607     1.4169     9.9075 </r>
       <r>     6.9872     1.6686    10.1185 </r>
       <r>     7.1137     1.5642    10.3164 </r>
       <r>     7.2402     1.1289    10.4592 </r>
       <r>     7.3667     0.7475    10.5538 </r>
       <r>     7.4932     0.4723    10.6135 </r>
       <r>     7.6197     0.3668    10.6599 </r>
       <r>     7.7462     0.4111    10.7119 </r>
       <r>     7.8727     0.3849    10.7606 </r>
       <r>     7.9992     0.3020    10.7988 </r>
       <r>     8.1257     0.2630    10.8321 </r>
       <r>     8.2522     0.2115    10.8588 </r>
       <r>     8.3787     0.2615    10.8919 </r>
       <r>     8.5052     0.3991    10.9424 </r>
       <r>     8.6317     0.4013    10.9931 </r>
       <r>     8.7582     0.2936    11.0303 </r>
       <r>     8.8846     0.2472    11.0616 </r>
       <r>     9.0111     0.2366    11.0915 </r>
       <r>     9.1376     0.2611    11.1245 </r>
       <r>     9.2641     0.2294    11.1535 </r>
       <r>     9.3906     0.2128    11.1805 </r>
       <r>     9.5171     0.3554    11.2254 </r>
       <r>     9.6436     0.3937    11.2752 </r>
       <r>     9.7701     0.2529    11.3072 </r>
       <r>     9.8966     0.2145    11.3343 </r>
       <r>    10.0231     0.2209    11.3623 </r>
       <r>    10.1496     0.1683    11.3836 </r>
       <r>    10.2761     0.1832    11.4067 </r>
       <r>    10.4026     0.2445    11.4377 </r>
       <r>    10.5291     0.2557    11.4700 </r>
       <r>    10.6556     0.2439    11.5009 </r>
       <r>    10.7821     0.2769    11.5359 </r>
       <r>    10.9086     0.2681    11.5698 </r>
       <r>    11.0351     0.1959    11.5946 </r>
       <r>    11.1616     0.1636    11.6153 </r>
       <r>    11.2881     0.1430    11.6334 </r>
       <r>    11.4146     0.1081    11.6470 </r>
       <r>    11.5411     0.1427    11.6651 </r>
       <r>    11.6676     0.1830    11.6882 </r>
       <r>    11.7941     0.2251    11.7167 </r>
       <r>    11.9206     0.2378    11.7468 </r>
       <r>    12.0471     0.1833    11.7700 </r>
       <r>    12.1736     0.1722    11.7918 </r>
       <r>    12.3001     0.1311    11.8083 </r>
       <r>    12.4266     0.0772    11.8181 </r>
       <r>    12.5531     0.0935    11.8299 </r>
       <r>    12.6796     0.1171    11.8448 </r>
       <r>    12.8061     0.1112    11.8588 </r>
       <r>    12.9326     0.0758    11.8684 </r>
       <r>    13.0591     0.0788    11.8784 </r>
       <r>    13.1856     0.1534    11.8978 </r>
       <r>    13.3121     0.1712    11.9194 </r>
       <r>    13.4386     0.0866    11.9304 </r>
       <r>    13.5651     0.0446    11.9360 </r>
       <r>    13.6916     0.0533    11.9428 </r>
       <r>    13.8181     0.0437    11.9483 </r>
       <r>    13.9445     0.0375    11.9531 </r>
       <r>    14.0710     0.0253    11.9563 </r>
       <r>    14.1975     0.0273    11.9597 </r>
       <r>    14.3240     0.0800    11.9698 </r>
       <r>    14.4505     0.2185    11.9975 </r>
       <r>    14.5770     0.4413    12.0533 </r>
       <r>    14.7035     0.5745    12.1260 </r>
       <r>    14.8300     0.5441    12.1948 </r>
       <r>    14.9565     0.5170    12.2602 </r>
       <r>    15.0830     0.5048    12.3241 </r>
       <r>    15.2095     0.3895    12.3733 </r>
       <r>    15.3360     0.3690    12.4200 </r>
       <r>    15.4625     0.4443    12.4762 </r>
       <r>    15.5890     0.3541    12.5210 </r>
       <r>    15.7155     0.2800    12.5564 </r>
       <r>    15.8420     0.3520    12.6010 </r>
       <r>    15.9685     0.3684    12.6476 </r>
       <r>    16.0950     0.2926    12.6846 </r>
       <r>    16.2215     0.2713    12.7189 </r>
       <r>    16.3480     0.2964    12.7564 </r>
       <r>    16.4745     0.3710    12.8033 </r>
       <r>    16.6010     0.4370    12.8586 </r>
       <r>    16.7275     0.3871    12.9076 </r>
       <r>    16.8540     0.3193    12.9480 </r>
       <r>    16.9805     0.4084    12.9996 </r>
       <r>    17.1070     0.4604    13.0579 </r>
       <r>    17.2335     0.3414    13.1010 </r>
       <r>    17.3600     0.3327    13.1431 </r>
       <r>    17.4865     0.3998    13.1937 </r>
       <r>    17.6130     0.4018    13.2445 </r>
       <r>    17.7395     0.4403    13.3002 </r>
       <r>    17.8660     0.3978    13.3506 </r>
       <r>    17.9925     0.3315    13.3925 </r>
       <r>    18.1190     0.3510    13.4369 </r>
       <r>    18.2455     0.3567    13.4820 </r>
       <r>    18.3720     0.3348    13.5244 </r>
       <r>    18.4985     0.3399    13.5674 </r>
       <r>    18.6250     0.3643    13.6134 </r>
       <r>    18.7515     0.3293    13.6551 </r>
       <r>    18.8780     0.3651    13.7013 </r>
       <r>    19.0044     0.4446    13.7575 </r>
       <r>    19.1309     0.3540    13.8023 </r>
       <r>    19.2574     0.2646    13.8358 </r>
       <r>    19.3839     0.3058    13.8745 </r>
       <r>    19.5104     0.3141    13.9142 </r>
       <r>    19.6369     0.2713    13.9485 </r>
       <r>    19.7634     0.3847    13.9972 </r>
       <r>    19.8899     0.4959    14.0599 </r>
       <r>    20.0164     0.3520    14.1044 </r>
       <r>    20.1429     0.2828    14.1402 </r>
       <r>    20.2694     0.3265    14.1815 </r>
       <r>    20.3959     0.2324    14.2109 </r>
       <r>    20.5224     0.2038    14.2367 </r>
       <r>    20.6489     0.3329    14.2788 </r>
       <r>    20.7754     0.4377    14.3342 </r>
       <r>    20.9019     0.4081    14.3858 </r>
       <r>    21.0284     0.3177    14.4260 </r>
       <r>    21.1549     0.2419    14.4566 </r>
       <r>    21.2814     0.2156    14.4839 </r>
       <r>    21.4079     0.2143    14.5110 </r>
       <r>    21.5344     0.2227    14.5391 </r>
       <r>    21.6609     0.3297    14.5808 </r>
       <r>    21.7874     0.4292    14.6351 </r>
       <r>    21.9139     0.4223    14.6885 </r>
       <r>    22.0404     0.3178    14.7287 </r>
       <r>    22.1669     0.2382    14.7589 </r>
       <r>    22.2934     0.2219    14.7869 </r>
       <r>    22.4199     0.2043    14.8128 </r>
       <r>    22.5464     0.1921    14.8371 </r>
       <r>    22.6729     0.2092    14.8636 </r>
       <r>    22.7994     0.2790    14.8988 </r>
       <r>    22.9259     0.3831    14.9473 </r>
       <r>    23.0524     0.4487    15.0041 </r>
       <r>    23.1789     0.3135    15.0437 </r>
       <r>    23.3054     0.1387    15.0613 </r>
       <r>    23.4319     0.1385    15.0788 </r>
       <r>    23.5584     0.2107    15.1054 </r>
       <r>    23.6849     0.2305    15.1346 </r>
       <r>    23.8114     0.2425    15.1653 </r>
       <r>    23.9379     0.3071    15.2041 </r>
       <r>    24.0643     0.3354    15.2466 </r>
       <r>    24.1908     0.2343    15.2762 </r>
       <r>    24.3173     0.1796    15.2989 </r>
       <r>    24.4438     0.2356    15.3287 </r>
       <r>    24.5703     0.2480    15.3601 </r>
       <r>    24.6968     0.2118    15.3869 </r>
       <r>    24.8233     0.1840    15.4101 </r>
       <r>    24.9498     0.1919    15.4344 </r>
       <r>    25.0763     0.2533    15.4664 </r>
       <r>    25.2028     0.3529    15.5111 </r>
       <r>    25.3293     0.3283    15.5526 </r>
       <r>    25.4558     0.1754    15.5748 </r>
       <r>    25.5823     0.0622    15.5827 </r>
       <r>    25.7088     0.0610    15.5904 </r>
       <r>    25.8353     0.1259    15.6063 </r>
       <r>    25.9618     0.1516    15.6255 </r>
       <r>    26.0883     0.1539    15.6450 </r>
       <r>    26.2148     0.2236    15.6732 </r>
       <r>    26.3413     0.2106    15.6999 </r>
       <r>    26.4678     0.1275    15.7160 </r>
       <r>    26.5943     0.1069    15.7295 </r>
       <r>    26.7208     0.0859    15.7404 </r>
       <r>    26.8473     0.0467    15.7463 </r>
       <r>    26.9738     0.0489    15.7525 </r>
       <r>    27.1003     0.0997    15.7651 </r>
       <r>    27.2268     0.1394    15.7827 </r>
       <r>    27.3533     0.1862    15.8063 </r>
       <r>    27.4798     0.1501    15.8253 </r>
       <r>    27.6063     0.0615    15.8330 </r>
       <r>    27.7328     0.0429    15.8385 </r>
       <r>    27.8593     0.0363    15.8431 </r>
       <r>    27.9858     0.0461    15.8489 </r>
       <r>    28.1123     0.0999    15.8615 </r>
       <r>    28.2388     0.0881    15.8727 </r>
       <r>    28.3653     0.0631    15.8807 </r>
       <r>    28.4918     0.0820    15.8910 </r>
       <r>    28.6183     0.0545    15.8979 </r>
       <r>    28.7448     0.0262    15.9012 </r>
       <r>    28.8713     0.0431    15.9067 </r>
       <r>    28.9978     0.0533    15.9134 </r>
       <r>    29.1242     0.0662    15.9218 </r>
       <r>    29.2507     0.0810    15.9321 </r>
       <r>    29.3772     0.0709    15.9410 </r>
       <r>    29.5037     0.0599    15.9486 </r>
       <r>    29.6302     0.0384    15.9534 </r>
       <r>    29.7567     0.0130    15.9551 </r>
       <r>    29.8832     0.0013    15.9553 </r>
       <r>    30.0097     0.0014    15.9554 </r>
       <r>    30.1362     0.0229    15.9583 </r>
       <r>    30.2627     0.0605    15.9660 </r>
       <r>    30.3892     0.0741    15.9754 </r>
       <r>    30.5157     0.0483    15.9815 </r>
       <r>    30.6422     0.0242    15.9845 </r>
       <r>    30.7687     0.0111    15.9859 </r>
       <r>    30.8952     0.0118    15.9874 </r>
       <r>    31.0217     0.0130    15.9891 </r>
       <r>    31.1482     0.0152    15.9910 </r>
       <r>    31.2747     0.0300    15.9948 </r>
       <r>    31.4012     0.0264    15.9981 </r>
       <r>    31.5277     0.0098    15.9994 </r>
       <r>    31.6542     0.0042    15.9999 </r>
       <r>    31.7807     0.0013    16.0001 </r>
       <r>    31.9072    -0.0003    16.0000 </r>
       <r>    32.0337    -0.0002    16.0000 </r>
       <r>    32.1602    -0.0000    16.0000 </r>
       <r>    32.2867    -0.0000    16.0000 </r>
       <r>    32.4132    -0.0000    16.0000 </r>
       <r>    32.5397    -0.0000    16.0000 </r>
       <r>    32.6662    -0.0000    16.0000 </r>
       <r>    32.7927    -0.0000    16.0000 </r>
       <r>    32.9192     0.0000    16.0000 </r>
       <r>    33.0457     0.0000    16.0000 </r>
       <r>    33.1722     0.0000    16.0000 </r>
       <r>    33.2987     0.0000    16.0000 </r>
       <r>    33.4252     0.0000    16.0000 </r>
       <r>    33.5517     0.0000    16.0000 </r>
      </set>
     </set>
    </array>
   </total>
  </dos>
 </calculation>
 <structure name="finalpos" >
  <crystal>
   <varray name="basis" >
    <v>      -1.39500000       1.39500000       1.39500000 </v>
    <v>       1.39500000      -1.39500000       1.39500000 </v>
    <v>       1.39500000       1.39500000      -1.39500000 </v>
   </varray>
   <i name="volume">     10.85881950 </i>
   <varray name="rec_basis" >
    <v>       0.00000000       0.35842294       0.35842294 </v>
    <v>       0.35842294       0.00000000       0.35842294 </v>
    <v>       0.35842294       0.35842294       0.00000000 </v>
   </varray>
  </crystal>
  <varray name="positions" >
   <v>       0.00000000       0.00000000       0.00000000 </v>
  </varray>
 </structure>
</modeling>
