bcc Fe                                  
           1
    -1.395000    1.395000    1.395000
     1.395000   -1.395000    1.395000
     1.395000    1.395000   -1.395000
   Fe
   1
Direct configuration=     1
   0.00000000  0.00000000  0.00000000
