Nb                                      
   3.30080000000000     
     1.000000    0.000000    0.000000
     0.000000    1.000000    0.000000
     0.000000    0.000000    1.000000
   Nb
     2
Direct
  0.000000  0.000000  0.000000
  0.500000  0.500000  0.500000
 
   28   28   28
  168.88      165.65      155.75      139.02      116.20      89.683      63.210      40.682      24.598      15.197    
  10.743      8.7051      7.7387      7.3555      7.2601      7.3555      7.7387      8.7051      10.743      15.197    
  24.598      40.682      63.210      89.683      116.20      139.02      155.75      165.65      165.65      162.44    
  152.62      136.06      113.53      87.445      61.515      39.560      23.979      14.932      10.659      8.6784    
  7.7381      7.3654      7.2726      7.3654      7.7381      8.6784      10.659      14.932      23.979      39.560    
  61.515      87.445      113.53      136.06      152.62      162.44      155.75      152.62      143.09      127.09    
  105.52      80.806      56.555      36.331      22.231      14.200      10.424      8.6029      7.7379      7.3949    
  7.3095      7.3949      7.7379      8.6029      10.424      14.200      22.231      36.331      56.555      80.806    
  105.52      127.09      143.09      152.62      139.02      136.06      127.09      112.20      92.437      70.192    
  48.826      31.446      19.676      13.166      10.074      8.4919      7.7410      7.4422      7.3676      7.4422    
  7.7410      8.4919      10.074      13.166      19.676      31.446      48.826      70.192      92.437      112.20    
  127.09      136.06      116.20      113.53      105.52      92.437      75.428      56.772      39.378      25.713    
  16.819      12.049      9.6508      8.3624      7.7483      7.5010      7.4385      7.5010      7.7483      8.3624    
  9.6508      12.049      16.819      25.713      39.378      56.772      75.428      92.437      105.52      113.53    
  89.683      87.445      80.806      70.192      56.772      42.530      29.755      20.159      14.194      11.005    
  9.2098      8.2307      7.7564      7.5594      7.5082      7.5594      7.7564      8.2307      9.2098      11.005    
  14.194      20.159      29.755      42.530      56.772      70.192      80.806      87.445      63.210      61.515    
  56.555      48.826      39.378      29.755      21.529      15.667      12.138      10.063      8.8033      8.1074    
  7.7570      7.6022      7.5596      7.6022      7.7570      8.1074      8.8033      10.063      12.138      15.667    
  21.529      29.755      39.378      48.826      56.555      61.515      40.682      39.560      36.331      31.446    
  25.713      20.159      15.667      12.592      10.607      9.2800      8.4639      7.9955      7.7408      7.6160    
  7.5786      7.6160      7.7408      7.9955      8.4639      9.2800      10.607      12.592      15.667      20.159    
  25.713      31.446      36.331      39.560      24.598      23.979      22.231      19.676      16.819      14.194    
  12.138      10.607      9.4667      8.6918      8.1982      7.8908      7.7011      7.5945      7.5596      7.5945    
  7.7011      7.8908      8.1982      8.6918      9.4667      10.607      12.138      14.194      16.819      19.676    
  22.231      23.979      15.197      14.932      14.200      13.166      12.049      11.005      10.063      9.2800    
  8.6918      8.2785      7.9918      7.7861      7.6368      7.5415      7.5082      7.5415      7.6368      7.7861    
  7.9918      8.2785      8.6918      9.2800      10.063      11.005      12.049      13.166      14.200      14.932    
  10.743      10.659      10.424      10.074      9.6508      9.2098      8.8033      8.4639      8.1982      7.9918    
  7.8228      7.6766      7.5540      7.4692      7.4385      7.4692      7.5540      7.6766      7.8228      7.9918    
  8.1982      8.4639      8.8033      9.2098      9.6508      10.074      10.424      10.659      8.7051      8.6784    
  8.6029      8.4919      8.3624      8.2307      8.1074      7.9955      7.8908      7.7861      7.6766      7.5653    
  7.4649      7.3935      7.3676      7.3935      7.4649      7.5653      7.6766      7.7861      7.8908      7.9955    
  8.1074      8.2307      8.3624      8.4919      8.6029      8.6784      7.7387      7.7381      7.7379      7.7410    
  7.7483      7.7564      7.7570      7.7408      7.7011      7.6368      7.5540      7.4649      7.3849      7.3294    
  7.3095      7.3294      7.3849      7.4649      7.5540      7.6368      7.7011      7.7408      7.7570      7.7564    
  7.7483      7.7410      7.7379      7.7381      7.3555      7.3654      7.3949      7.4422      7.5010      7.5594    
  7.6022      7.6160      7.5945      7.5415      7.4692      7.3935      7.3294      7.2872      7.2726      7.2872    
  7.3294      7.3935      7.4692      7.5415      7.5945      7.6160      7.6022      7.5594      7.5010      7.4422    
  7.3949      7.3654      7.2601      7.2726      7.3095      7.3676      7.4385      7.5082      7.5596      7.5786    
  7.5596      7.5082      7.4385      7.3676      7.3095      7.2726      7.2601      7.2726      7.3095      7.3676    
  7.4385      7.5082      7.5596      7.5786      7.5596      7.5082      7.4385      7.3676      7.3095      7.2726    
  7.3555      7.3654      7.3949      7.4422      7.5010      7.5594      7.6022      7.6160      7.5945      7.5415    
  7.4692      7.3935      7.3294      7.2872      7.2726      7.2872      7.3294      7.3935      7.4692      7.5415    
  7.5945      7.6160      7.6022      7.5594      7.5010      7.4422      7.3949      7.3654      7.7387      7.7381    
  7.7379      7.7410      7.7483      7.7564      7.7570      7.7408      7.7011      7.6368      7.5540      7.4649    
  7.3849      7.3294      7.3095      7.3294      7.3849      7.4649      7.5540      7.6368      7.7011      7.7408    
  7.7570      7.7564      7.7483      7.7410      7.7379      7.7381      8.7051      8.6784      8.6029      8.4919    
  8.3624      8.2307      8.1074      7.9955      7.8908      7.7861      7.6766      7.5653      7.4649      7.3935    
  7.3676      7.3935      7.4649      7.5653      7.6766      7.7861      7.8908      7.9955      8.1074      8.2307    
  8.3624      8.4919      8.6029      8.6784      10.743      10.659      10.424      10.074      9.6508      9.2098    
  8.8033      8.4639      8.1982      7.9918      7.8228      7.6766      7.5540      7.4692      7.4385      7.4692    
  7.5540      7.6766      7.8228      7.9918      8.1982      8.4639      8.8033      9.2098      9.6508      10.074    
  10.424      10.659      15.197      14.932      14.200      13.166      12.049      11.005      10.063      9.2800    
  8.6918      8.2785      7.9918      7.7861      7.6368      7.5415      7.5082      7.5415      7.6368      7.7861    
  7.9918      8.2785      8.6918      9.2800      10.063      11.005      12.049      13.166      14.200      14.932    
  24.598      23.979      22.231      19.676      16.819      14.194      12.138      10.607      9.4667      8.6918    
  8.1982      7.8908      7.7011      7.5945      7.5596      7.5945      7.7011      7.8908      8.1982      8.6918    
  9.4667      10.607      12.138      14.194      16.819      19.676      22.231      23.979      40.682      39.560    
  36.331      31.446      25.713      20.159      15.667      12.592      10.607      9.2800      8.4639      7.9955    
  7.7408      7.6160      7.5786      7.6160      7.7408      7.9955      8.4639      9.2800      10.607      12.592    
  15.667      20.159      25.713      31.446      36.331      39.560      63.210      61.515      56.555      48.826    
  39.378      29.755      21.529      15.667      12.138      10.063      8.8033      8.1074      7.7570      7.6022    
  7.5596      7.6022      7.7570      8.1074      8.8033      10.063      12.138      15.667      21.529      29.755    
  39.378      48.826      56.555      61.515      89.683      87.445      80.806      70.192      56.772      42.530    
  29.755      20.159      14.194      11.005      9.2098      8.2307      7.7564      7.5594      7.5082      7.5594    
  7.7564      8.2307      9.2098      11.005      14.194      20.159      29.755      42.530      56.772      70.192    
  80.806      87.445      116.20      113.53      105.52      92.437      75.428      56.772      39.378      25.713    
  16.819      12.049      9.6508      8.3624      7.7483      7.5010      7.4385      7.5010      7.7483      8.3624    
  9.6508      12.049      16.819      25.713      39.378      56.772      75.428      92.437      105.52      113.53    
  139.02      136.06      127.09      112.20      92.437      70.192      48.826      31.446      19.676      13.166    
  10.074      8.4919      7.7410      7.4422      7.3676      7.4422      7.7410      8.4919      10.074      13.166    
  19.676      31.446      48.826      70.192      92.437      112.20      127.09      136.06      155.75      152.62    
  143.09      127.09      105.52      80.806      56.555      36.331      22.231      14.200      10.424      8.6029    
  7.7379      7.3949      7.3095      7.3949      7.7379      8.6029      10.424      14.200      22.231      36.331    
  56.555      80.806      105.52      127.09      143.09      152.62      165.65      162.44      152.62      136.06    
  113.53      87.445      61.515      39.560      23.979      14.932      10.659      8.6784      7.7381      7.3654    
  7.2726      7.3654      7.7381      8.6784      10.659      14.932      23.979      39.560      61.515      87.445    
  113.53      136.06      152.62      162.44      165.65      162.44      152.62      136.06      113.53      87.445    
  61.515      39.560      23.979      14.932      10.659      8.6784      7.7381      7.3654      7.2726      7.3654    
  7.7381      8.6784      10.659      14.932      23.979      39.560      61.515      87.445      113.53      136.06    
  152.62      162.44      162.44      159.25      149.51      133.12      110.89      85.234      59.850      38.467    
  23.382      14.681      10.580      8.6547      7.7400      7.3775      7.2872      7.3775      7.7400      8.6547    
  10.580      14.681      23.382      38.467      59.850      85.234      110.89      133.12      149.51      159.25    
  152.62      149.51      140.05      124.22      102.96      78.689      54.987      35.324      21.698      13.985    
  10.359      8.5876      7.7462      7.4125      7.3294      7.4125      7.7462      8.5876      10.359      13.985    
  21.698      35.324      54.987      78.689      102.96      124.22      140.05      149.51      136.06      133.12    
  124.22      109.51      90.059      68.266      47.436      30.586      19.244      13.005      10.026      8.4877    
  7.7573      7.4663      7.3935      7.4663      7.7573      8.4877      10.026      13.005      19.244      30.586    
  47.436      68.266      90.059      109.51      124.22      133.12      113.53      110.89      102.96      90.059    
  73.367      55.148      38.251      25.051      16.511      11.944      9.6218      8.3695      7.7718      7.5303    
  7.4692      7.5303      7.7718      8.3695      9.6218      11.944      16.511      25.051      38.251      55.148    
  73.367      90.059      102.96      110.89      87.445      85.234      78.689      68.266      55.148      41.299    
  28.943      19.715      14.008      10.944      9.1993      8.2473      7.7848      7.5919      7.5415      7.5919    
  7.7848      8.2473      9.1993      10.944      14.008      19.715      28.943      41.299      55.148      68.266    
  78.689      85.234      61.515      59.850      54.987      47.436      38.251      28.943      21.031      15.421    
  12.043      10.033      8.8089      8.1316      7.7890      7.6367      7.5945      7.6367      7.7890      8.1316    
  8.8089      10.033      12.043      15.421      21.031      28.943      38.251      47.436      54.987      59.850    
  39.560      38.467      35.324      30.586      25.051      19.715      15.421      12.482      10.563      9.2755    
  8.4826      8.0261      7.7763      7.6531      7.6160      7.6531      7.7763      8.0261      8.4826      9.2755    
  10.563      12.482      15.421      19.715      25.051      30.586      35.324      38.467      23.979      23.382    
  21.698      19.244      16.511      14.008      12.043      10.563      9.4581      8.7068      8.2274      7.9276    
  7.7416      7.6367      7.6022      7.6367      7.7416      7.9276      8.2274      8.7068      9.4581      10.563    
  12.043      14.008      16.511      19.244      21.698      23.382      14.932      14.681      13.985      13.005    
  11.944      10.944      10.033      9.2755      8.7068      8.3071      8.0295      7.8299      7.6848      7.5919    
  7.5594      7.5919      7.6848      7.8299      8.0295      8.3071      8.7068      9.2755      10.033      10.944    
  11.944      13.005      13.985      14.681      10.659      10.580      10.359      10.026      9.6218      9.1993    
  8.8089      8.4826      8.2274      8.0295      7.8679      7.7284      7.6114      7.5303      7.5010      7.5303    
  7.6114      7.7284      7.8679      8.0295      8.2274      8.4826      8.8089      9.1993      9.6218      10.026    
  10.359      10.580      8.6784      8.6547      8.5876      8.4877      8.3695      8.2473      8.1316      8.0261    
  7.9276      7.8299      7.7284      7.6255      7.5325      7.4663      7.4422      7.4663      7.5325      7.6255    
  7.7284      7.8299      7.9276      8.0261      8.1316      8.2473      8.3695      8.4877      8.5876      8.6547    
  7.7381      7.7400      7.7462      7.7573      7.7718      7.7848      7.7890      7.7763      7.7416      7.6848    
  7.6114      7.5325      7.4617      7.4125      7.3949      7.4125      7.4617      7.5325      7.6114      7.6848    
  7.7416      7.7763      7.7890      7.7848      7.7718      7.7573      7.7462      7.7400      7.3654      7.3775    
  7.4125      7.4663      7.5303      7.5919      7.6367      7.6531      7.6367      7.5919      7.5303      7.4663    
  7.4125      7.3775      7.3654      7.3775      7.4125      7.4663      7.5303      7.5919      7.6367      7.6531    
  7.6367      7.5919      7.5303      7.4663      7.4125      7.3775      7.2726      7.2872      7.3294      7.3935    
  7.4692      7.5415      7.5945      7.6160      7.6022      7.5594      7.5010      7.4422      7.3949      7.3654    
  7.3555      7.3654      7.3949      7.4422      7.5010      7.5594      7.6022      7.6160      7.5945      7.5415    
  7.4692      7.3935      7.3294      7.2872      7.3654      7.3775      7.4125      7.4663      7.5303      7.5919    
  7.6367      7.6531      7.6367      7.5919      7.5303      7.4663      7.4125      7.3775      7.3654      7.3775    
  7.4125      7.4663      7.5303      7.5919      7.6367      7.6531      7.6367      7.5919      7.5303      7.4663    
  7.4125      7.3775      7.7381      7.7400      7.7462      7.7573      7.7718      7.7848      7.7890      7.7763    
  7.7416      7.6848      7.6114      7.5325      7.4617      7.4125      7.3949      7.4125      7.4617      7.5325    
  7.6114      7.6848      7.7416      7.7763      7.7890      7.7848      7.7718      7.7573      7.7462      7.7400    
  8.6784      8.6547      8.5876      8.4877      8.3695      8.2473      8.1316      8.0261      7.9276      7.8299    
  7.7284      7.6255      7.5325      7.4663      7.4422      7.4663      7.5325      7.6255      7.7284      7.8299    
  7.9276      8.0261      8.1316      8.2473      8.3695      8.4877      8.5876      8.6547      10.659      10.580    
  10.359      10.026      9.6218      9.1993      8.8089      8.4826      8.2274      8.0295      7.8679      7.7284    
  7.6114      7.5303      7.5010      7.5303      7.6114      7.7284      7.8679      8.0295      8.2274      8.4826    
  8.8089      9.1993      9.6218      10.026      10.359      10.580      14.932      14.681      13.985      13.005    
  11.944      10.944      10.033      9.2755      8.7068      8.3071      8.0295      7.8299      7.6848      7.5919    
  7.5594      7.5919      7.6848      7.8299      8.0295      8.3071      8.7068      9.2755      10.033      10.944    
  11.944      13.005      13.985      14.681      23.979      23.382      21.698      19.244      16.511      14.008    
  12.043      10.563      9.4581      8.7068      8.2274      7.9276      7.7416      7.6367      7.6022      7.6367    
  7.7416      7.9276      8.2274      8.7068      9.4581      10.563      12.043      14.008      16.511      19.244    
  21.698      23.382      39.560      38.467      35.324      30.586      25.051      19.715      15.421      12.482    
  10.563      9.2755      8.4826      8.0261      7.7763      7.6531      7.6160      7.6531      7.7763      8.0261    
  8.4826      9.2755      10.563      12.482      15.421      19.715      25.051      30.586      35.324      38.467    
  61.515      59.850      54.987      47.436      38.251      28.943      21.031      15.421      12.043      10.033    
  8.8089      8.1316      7.7890      7.6367      7.5945      7.6367      7.7890      8.1316      8.8089      10.033    
  12.043      15.421      21.031      28.943      38.251      47.436      54.987      59.850      87.445      85.234    
  78.689      68.266      55.148      41.299      28.943      19.715      14.008      10.944      9.1993      8.2473    
  7.7848      7.5919      7.5415      7.5919      7.7848      8.2473      9.1993      10.944      14.008      19.715    
  28.943      41.299      55.148      68.266      78.689      85.234      113.53      110.89      102.96      90.059    
  73.367      55.148      38.251      25.051      16.511      11.944      9.6218      8.3695      7.7718      7.5303    
  7.4692      7.5303      7.7718      8.3695      9.6218      11.944      16.511      25.051      38.251      55.148    
  73.367      90.059      102.96      110.89      136.06      133.12      124.22      109.51      90.059      68.266    
  47.436      30.586      19.244      13.005      10.026      8.4877      7.7573      7.4663      7.3935      7.4663    
  7.7573      8.4877      10.026      13.005      19.244      30.586      47.436      68.266      90.059      109.51    
  124.22      133.12      152.62      149.51      140.05      124.22      102.96      78.689      54.987      35.324    
  21.698      13.985      10.359      8.5876      7.7462      7.4125      7.3294      7.4125      7.7462      8.5876    
  10.359      13.985      21.698      35.324      54.987      78.689      102.96      124.22      140.05      149.51    
  162.44      159.25      149.51      133.12      110.89      85.234      59.850      38.467      23.382      14.681    
  10.580      8.6547      7.7400      7.3775      7.2872      7.3775      7.7400      8.6547      10.580      14.681    
  23.382      38.467      59.850      85.234      110.89      133.12      149.51      159.25      155.75      152.62    
  143.09      127.09      105.52      80.806      56.555      36.331      22.231      14.200      10.424      8.6029    
  7.7379      7.3949      7.3095      7.3949      7.7379      8.6029      10.424      14.200      22.231      36.331    
  56.555      80.806      105.52      127.09      143.09      152.62      152.62      149.51      140.05      124.22    
  102.96      78.689      54.987      35.324      21.698      13.985      10.359      8.5876      7.7462      7.4125    
  7.3294      7.4125      7.7462      8.5876      10.359      13.985      21.698      35.324      54.987      78.689    
  102.96      124.22      140.05      149.51      143.09      140.05      130.86      115.61      95.326      72.461    
  50.434      32.446      20.201      13.393      10.174      8.5430      7.7692      7.4617      7.3849      7.4617    
  7.7692      8.5430      10.174      13.393      20.201      32.446      50.434      72.461      95.326      115.61    
  130.86      140.05      127.09      124.22      115.61      101.49      83.042      62.649      43.439      28.149    
  18.040      12.560      9.8870      8.4735      7.8015      7.5325      7.4649      7.5325      7.8015      8.4735    
  9.8870      12.560      18.040      28.149      43.439      62.649      83.042      101.49      115.61      124.22    
  105.52      102.96      95.326      83.042      67.351      50.464      35.041      23.193      15.657      11.651    
  9.5360      8.3869      7.8360      7.6114      7.5540      7.6114      7.8360      8.3869      9.5360      11.651    
  15.657      23.193      35.041      50.464      67.351      83.042      95.326      102.96      80.806      78.689    
  72.461      62.649      50.464      37.788      26.658      18.484      13.492      10.765      9.1674      8.2939    
  7.8659      7.6848      7.6368      7.6848      7.8659      8.2939      9.1674      10.765      13.492      18.484    
  26.658      37.788      50.464      62.649      72.461      78.689      56.555      54.987      50.434      43.439    
  35.041      26.658      19.645      14.741      11.777      9.9449      8.8267      8.2046      7.8859      7.7416    
  7.7011      7.7416      7.8859      8.2046      8.8267      9.9449      11.777      14.741      19.645      26.658    
  35.041      43.439      50.434      54.987      36.331      35.324      32.446      28.149      23.193      18.484    
  14.741      12.176      10.438      9.2668      8.5442      8.1252      7.8929      7.7763      7.7408      7.7763    
  7.8929      8.1252      8.5442      9.2668      10.438      12.176      14.741      18.484      23.193      28.149    
  32.446      35.324      22.231      21.698      20.201      18.040      15.657      13.492      11.777      10.438    
  9.4386      8.7605      8.3276      8.0559      7.8859      7.7890      7.7570      7.7890      7.8859      8.0559    
  8.3276      8.7605      9.4386      10.438      11.777      13.492      15.657      18.040      20.201      21.698    
  14.200      13.985      13.393      12.560      11.651      10.765      9.9449      9.2668      8.7605      8.4076    
  8.1651      7.9919      7.8659      7.7848      7.7564      7.7848      7.8659      7.9919      8.1651      8.4076    
  8.7605      9.2668      9.9449      10.765      11.651      12.560      13.393      13.985      10.424      10.359    
  10.174      9.8870      9.5360      9.1674      8.8267      8.5442      8.3276      8.1651      8.0368      7.9277    
  7.8360      7.7718      7.7483      7.7718      7.8360      7.9277      8.0368      8.1651      8.3276      8.5442    
  8.8267      9.1674      9.5360      9.8870      10.174      10.359      8.6029      8.5876      8.5430      8.4735    
  8.3869      8.2939      8.2046      8.1252      8.0559      7.9919      7.9277      7.8622      7.8015      7.7573    
  7.7410      7.7573      7.8015      7.8622      7.9277      7.9919      8.0559      8.1252      8.2046      8.2939    
  8.3869      8.4735      8.5430      8.5876      7.7379      7.7462      7.7692      7.8015      7.8360      7.8659    
  7.8859      7.8929      7.8859      7.8659      7.8360      7.8015      7.7692      7.7462      7.7379      7.7462    
  7.7692      7.8015      7.8360      7.8659      7.8859      7.8929      7.8859      7.8659      7.8360      7.8015    
  7.7692      7.7462      7.3949      7.4125      7.4617      7.5325      7.6114      7.6848      7.7416      7.7763    
  7.7890      7.7848      7.7718      7.7573      7.7462      7.7400      7.7381      7.7400      7.7462      7.7573    
  7.7718      7.7848      7.7890      7.7763      7.7416      7.6848      7.6114      7.5325      7.4617      7.4125    
  7.3095      7.3294      7.3849      7.4649      7.5540      7.6368      7.7011      7.7408      7.7570      7.7564    
  7.7483      7.7410      7.7379      7.7381      7.7387      7.7381      7.7379      7.7410      7.7483      7.7564    
  7.7570      7.7408      7.7011      7.6368      7.5540      7.4649      7.3849      7.3294      7.3949      7.4125    
  7.4617      7.5325      7.6114      7.6848      7.7416      7.7763      7.7890      7.7848      7.7718      7.7573    
  7.7462      7.7400      7.7381      7.7400      7.7462      7.7573      7.7718      7.7848      7.7890      7.7763    
  7.7416      7.6848      7.6114      7.5325      7.4617      7.4125      7.7379      7.7462      7.7692      7.8015    
  7.8360      7.8659      7.8859      7.8929      7.8859      7.8659      7.8360      7.8015      7.7692      7.7462    
  7.7379      7.7462      7.7692      7.8015      7.8360      7.8659      7.8859      7.8929      7.8859      7.8659    
  7.8360      7.8015      7.7692      7.7462      8.6029      8.5876      8.5430      8.4735      8.3869      8.2939    
  8.2046      8.1252      8.0559      7.9919      7.9277      7.8622      7.8015      7.7573      7.7410      7.7573    
  7.8015      7.8622      7.9277      7.9919      8.0559      8.1252      8.2046      8.2939      8.3869      8.4735    
  8.5430      8.5876      10.424      10.359      10.174      9.8870      9.5360      9.1674      8.8267      8.5442    
  8.3276      8.1651      8.0368      7.9277      7.8360      7.7718      7.7483      7.7718      7.8360      7.9277    
  8.0368      8.1651      8.3276      8.5442      8.8267      9.1674      9.5360      9.8870      10.174      10.359    
  14.200      13.985      13.393      12.560      11.651      10.765      9.9449      9.2668      8.7605      8.4076    
  8.1651      7.9919      7.8659      7.7848      7.7564      7.7848      7.8659      7.9919      8.1651      8.4076    
  8.7605      9.2668      9.9449      10.765      11.651      12.560      13.393      13.985      22.231      21.698    
  20.201      18.040      15.657      13.492      11.777      10.438      9.4386      8.7605      8.3276      8.0559    
  7.8859      7.7890      7.7570      7.7890      7.8859      8.0559      8.3276      8.7605      9.4386      10.438    
  11.777      13.492      15.657      18.040      20.201      21.698      36.331      35.324      32.446      28.149    
  23.193      18.484      14.741      12.176      10.438      9.2668      8.5442      8.1252      7.8929      7.7763    
  7.7408      7.7763      7.8929      8.1252      8.5442      9.2668      10.438      12.176      14.741      18.484    
  23.193      28.149      32.446      35.324      56.555      54.987      50.434      43.439      35.041      26.658    
  19.645      14.741      11.777      9.9449      8.8267      8.2046      7.8859      7.7416      7.7011      7.7416    
  7.8859      8.2046      8.8267      9.9449      11.777      14.741      19.645      26.658      35.041      43.439    
  50.434      54.987      80.806      78.689      72.461      62.649      50.464      37.788      26.658      18.484    
  13.492      10.765      9.1674      8.2939      7.8659      7.6848      7.6368      7.6848      7.8659      8.2939    
  9.1674      10.765      13.492      18.484      26.658      37.788      50.464      62.649      72.461      78.689    
  105.52      102.96      95.326      83.042      67.351      50.464      35.041      23.193      15.657      11.651    
  9.5360      8.3869      7.8360      7.6114      7.5540      7.6114      7.8360      8.3869      9.5360      11.651    
  15.657      23.193      35.041      50.464      67.351      83.042      95.326      102.96      127.09      124.22    
  115.61      101.49      83.042      62.649      43.439      28.149      18.040      12.560      9.8870      8.4735    
  7.8015      7.5325      7.4649      7.5325      7.8015      8.4735      9.8870      12.560      18.040      28.149    
  43.439      62.649      83.042      101.49      115.61      124.22      143.09      140.05      130.86      115.61    
  95.326      72.461      50.434      32.446      20.201      13.393      10.174      8.5430      7.7692      7.4617    
  7.3849      7.4617      7.7692      8.5430      10.174      13.393      20.201      32.446      50.434      72.461    
  95.326      115.61      130.86      140.05      152.62      149.51      140.05      124.22      102.96      78.689    
  54.987      35.324      21.698      13.985      10.359      8.5876      7.7462      7.4125      7.3294      7.4125    
  7.7462      8.5876      10.359      13.985      21.698      35.324      54.987      78.689      102.96      124.22    
  140.05      149.51      139.02      136.06      127.09      112.20      92.437      70.192      48.826      31.446    
  19.676      13.166      10.074      8.4919      7.7410      7.4422      7.3676      7.4422      7.7410      8.4919    
  10.074      13.166      19.676      31.446      48.826      70.192      92.437      112.20      127.09      136.06    
  136.06      133.12      124.22      109.51      90.059      68.266      47.436      30.586      19.244      13.005    
  10.026      8.4877      7.7573      7.4663      7.3935      7.4663      7.7573      8.4877      10.026      13.005    
  19.244      30.586      47.436      68.266      90.059      109.51      124.22      133.12      127.09      124.22    
  115.61      101.49      83.042      62.649      43.439      28.149      18.040      12.560      9.8870      8.4735    
  7.8015      7.5325      7.4649      7.5325      7.8015      8.4735      9.8870      12.560      18.040      28.149    
  43.439      62.649      83.042      101.49      115.61      124.22      112.20      109.51      101.49      88.540    
  71.923      53.939      37.391      24.564      16.323      11.930      9.6692      8.4465      7.8622      7.6255    