Nb                                      
   3.30080000000000     
     1.000000    0.000000    0.000000
     0.000000    1.000000    0.000000
     0.000000    0.000000    1.000000
   Nb
     2
Direct
  0.000000  0.000000  0.000000
  0.500000  0.500000  0.500000
 
   28   28   28
 0.16888173799E+03 0.16564716886E+03 0.15575035833E+03 0.13901673299E+03 0.11620313472E+03
 0.89682778589E+02 0.63210016056E+02 0.40682042073E+02 0.24598112444E+02 0.15197042764E+02
 0.10742538358E+02 0.87051429081E+01 0.77386880234E+01 0.73555339771E+01 0.72600703681E+01
 0.73555339771E+01 0.77386880234E+01 0.87051429081E+01 0.10742538358E+02 0.15197042764E+02
 0.24598112444E+02 0.40682042073E+02 0.63210016056E+02 0.89682778589E+02 0.11620313472E+03
 0.13901673299E+03 0.15575035833E+03 0.16564716886E+03 0.16564716886E+03 0.16243652900E+03
 0.15262161887E+03 0.13605652133E+03 0.11353417143E+03 0.87445248821E+02 0.61514983753E+02
 0.39560432248E+02 0.23979294569E+02 0.14932386455E+02 0.10658662130E+02 0.86783731605E+01
 0.77381037714E+01 0.73654277356E+01 0.72726056069E+01 0.73654277356E+01 0.77381037714E+01
 0.86783731605E+01 0.10658662130E+02 0.14932386455E+02 0.23979294569E+02 0.39560432248E+02
 0.61514983753E+02 0.87445248821E+02 0.11353417143E+03 0.13605652133E+03 0.15262161887E+03
 0.16243652900E+03 0.15575035833E+03 0.15262161887E+03 0.14308613504E+03 0.12708782732E+03
 0.10552064278E+03 0.80805869245E+02 0.56555336396E+02 0.36331014683E+02 0.22230539927E+02
 0.14199586232E+02 0.10423896400E+02 0.86029362120E+01 0.77378695645E+01 0.73949384381E+01
 0.73095363216E+01 0.73949384381E+01 0.77378695645E+01 0.86029362120E+01 0.10423896400E+02
 0.14199586232E+02 0.22230539927E+02 0.36331014683E+02 0.56555336396E+02 0.80805869245E+02
 0.10552064278E+03 0.12708782732E+03 0.14308613504E+03 0.15262161887E+03 0.13901673299E+03
 0.13605652133E+03 0.12708782732E+03 0.11220425306E+03 0.92436703066E+02 0.70192035962E+02
 0.48825532984E+02 0.31445606130E+02 0.19676309069E+02 0.13166317758E+02 0.10074143175E+02
 0.84918960886E+01 0.77409604433E+01 0.74422113996E+01 0.73675963809E+01 0.74422113996E+01
 0.77409604433E+01 0.84918960886E+01 0.10074143175E+02 0.13166317758E+02 0.19676309069E+02
 0.31445606130E+02 0.48825532984E+02 0.70192035962E+02 0.92436703066E+02 0.11220425306E+03
 0.12708782732E+03 0.13605652133E+03 0.11620313472E+03 0.11353417143E+03 0.10552064278E+03
 0.92436703066E+02 0.75428255010E+02 0.56771850988E+02 0.39377588716E+02 0.25712938310E+02
 0.16819188920E+02 0.12048739591E+02 0.96508188323E+01 0.83624328210E+01 0.77483416085E+01
 0.75009976249E+01 0.74385072952E+01 0.75009976249E+01 0.77483416085E+01 0.83624328210E+01
 0.96508188323E+01 0.12048739591E+02 0.16819188920E+02 0.25712938310E+02 0.39377588716E+02
 0.56771850988E+02 0.75428255010E+02 0.92436703066E+02 0.10552064278E+03 0.11353417143E+03
 0.89682778589E+02 0.87445248821E+02 0.80805869245E+02 0.70192035962E+02 0.56771850988E+02
 0.42529874948E+02 0.29754575600E+02 0.20158693416E+02 0.14194450766E+02 0.11004970831E+02
 0.92098431196E+01 0.82307113958E+01 0.77563591563E+01 0.75594223054E+01 0.75081972089E+01
 0.75594223054E+01 0.77563591563E+01 0.82307113958E+01 0.92098431196E+01 0.11004970831E+02
 0.14194450766E+02 0.20158693416E+02 0.29754575600E+02 0.42529874948E+02 0.56771850988E+02
 0.70192035962E+02 0.80805869245E+02 0.87445248821E+02 0.63210016056E+02 0.61514983753E+02
 0.56555336396E+02 0.48825532984E+02 0.39377588716E+02 0.29754575600E+02 0.21528989707E+02
 0.15667454718E+02 0.12137511934E+02 0.10063123036E+02 0.88032869480E+01 0.81074293484E+01
 0.77569830397E+01 0.76022282869E+01 0.75596301150E+01 0.76022282869E+01 0.77569830397E+01
 0.81074293484E+01 0.88032869480E+01 0.10063123036E+02 0.12137511934E+02 0.15667454718E+02
 0.21528989707E+02 0.29754575600E+02 0.39377588716E+02 0.48825532984E+02 0.56555336396E+02
 0.61514983753E+02 0.40682042073E+02 0.39560432248E+02 0.36331014683E+02 0.31445606130E+02
 0.25712938310E+02 0.20158693416E+02 0.15667454718E+02 0.12591901703E+02 0.10607002403E+02
 0.92800104510E+01 0.84638830484E+01 0.79955088226E+01 0.77408052726E+01 0.76159776794E+01
 0.75786194381E+01 0.76159776794E+01 0.77408052726E+01 0.79955088226E+01 0.84638830484E+01
 0.92800104510E+01 0.10607002403E+02 0.12591901703E+02 0.15667454718E+02 0.20158693416E+02
 0.25712938310E+02 0.31445606130E+02 0.36331014683E+02 0.39560432248E+02 0.24598112444E+02
 0.23979294569E+02 0.22230539927E+02 0.19676309069E+02 0.16819188920E+02 0.14194450766E+02
 0.12137511934E+02 0.10607002403E+02 0.94667056621E+01 0.86917599235E+01 0.81982241808E+01
 0.78908333616E+01 0.77010666135E+01 0.75944927807E+01 0.75596301150E+01 0.75944927807E+01
 0.77010666135E+01 0.78908333616E+01 0.81982241808E+01 0.86917599235E+01 0.94667056621E+01
 0.10607002403E+02 0.12137511934E+02 0.14194450766E+02 0.16819188920E+02 0.19676309069E+02
 0.22230539927E+02 0.23979294569E+02 0.15197042764E+02 0.14932386455E+02 0.14199586232E+02
 0.13166317758E+02 0.12048739591E+02 0.11004970831E+02 0.10063123036E+02 0.92800104510E+01
 0.86917599235E+01 0.82784741460E+01 0.79918127368E+01 0.77860908964E+01 0.76368018195E+01
 0.75415091966E+01 0.75081972089E+01 0.75415091966E+01 0.76368018195E+01 0.77860908964E+01
 0.79918127368E+01 0.82784741460E+01 0.86917599235E+01 0.92800104510E+01 0.10063123036E+02
 0.11004970831E+02 0.12048739591E+02 0.13166317758E+02 0.14199586232E+02 0.14932386455E+02
 0.10742538358E+02 0.10658662130E+02 0.10423896400E+02 0.10074143175E+02 0.96508188323E+01
 0.92098431196E+01 0.88032869480E+01 0.84638830484E+01 0.81982241808E+01 0.79918127368E+01
 0.78227722109E+01 0.76765574690E+01 0.75540366665E+01 0.74691886940E+01 0.74385072952E+01
 0.74691886940E+01 0.75540366665E+01 0.76765574690E+01 0.78227722109E+01 0.79918127368E+01
 0.81982241808E+01 0.84638830484E+01 0.88032869480E+01 0.92098431196E+01 0.96508188323E+01
 0.10074143175E+02 0.10423896400E+02 0.10658662130E+02 0.87051429081E+01 0.86783731605E+01
 0.86029362120E+01 0.84918960886E+01 0.83624328210E+01 0.82307113958E+01 0.81074293484E+01
 0.79955088226E+01 0.78908333616E+01 0.77860908964E+01 0.76765574690E+01 0.75653149882E+01
 0.74648835785E+01 0.73935470828E+01 0.73675963809E+01 0.73935470828E+01 0.74648835785E+01
 0.75653149882E+01 0.76765574690E+01 0.77860908964E+01 0.78908333616E+01 0.79955088226E+01
 0.81074293484E+01 0.82307113958E+01 0.83624328210E+01 0.84918960886E+01 0.86029362120E+01
 0.86783731605E+01 0.77386880234E+01 0.77381037714E+01 0.77378695645E+01 0.77409604433E+01
 0.77483416085E+01 0.77563591563E+01 0.77569830397E+01 0.77408052726E+01 0.77010666135E+01
 0.76368018195E+01 0.75540366665E+01 0.74648835785E+01 0.73849051991E+01 0.73294008226E+01
 0.73095363216E+01 0.73294008226E+01 0.73849051991E+01 0.74648835785E+01 0.75540366665E+01
 0.76368018195E+01 0.77010666135E+01 0.77408052726E+01 0.77569830397E+01 0.77563591563E+01
 0.77483416085E+01 0.77409604433E+01 0.77378695645E+01 0.77381037714E+01 0.73555339771E+01
 0.73654277356E+01 0.73949384381E+01 0.74422113996E+01 0.75009976249E+01 0.75594223054E+01
 0.76022282869E+01 0.76159776794E+01 0.75944927807E+01 0.75415091966E+01 0.74691886940E+01
 0.73935470828E+01 0.73294008226E+01 0.72872210398E+01 0.72726056069E+01 0.72872210398E+01
 0.73294008226E+01 0.73935470828E+01 0.74691886940E+01 0.75415091966E+01 0.75944927807E+01
 0.76159776794E+01 0.76022282869E+01 0.75594223054E+01 0.75009976249E+01 0.74422113996E+01
 0.73949384381E+01 0.73654277356E+01 0.72600703681E+01 0.72726056069E+01 0.73095363216E+01
 0.73675963809E+01 0.74385072952E+01 0.75081972089E+01 0.75596301150E+01 0.75786194381E+01
 0.75596301150E+01 0.75081972089E+01 0.74385072952E+01 0.73675963809E+01 0.73095363216E+01
 0.72726056069E+01 0.72600703681E+01 0.72726056069E+01 0.73095363216E+01 0.73675963809E+01
 0.74385072952E+01 0.75081972089E+01 0.75596301150E+01 0.75786194381E+01 0.75596301150E+01
 0.75081972089E+01 0.74385072952E+01 0.73675963809E+01 0.73095363216E+01 0.72726056069E+01
 0.73555339771E+01 0.73654277356E+01 0.73949384381E+01 0.74422113996E+01 0.75009976249E+01
 0.75594223054E+01 0.76022282869E+01 0.76159776794E+01 0.75944927807E+01 0.75415091966E+01
 0.74691886940E+01 0.73935470828E+01 0.73294008226E+01 0.72872210398E+01 0.72726056069E+01
 0.72872210398E+01 0.73294008226E+01 0.73935470828E+01 0.74691886940E+01 0.75415091966E+01
 0.75944927807E+01 0.76159776794E+01 0.76022282869E+01 0.75594223054E+01 0.75009976249E+01
 0.74422113996E+01 0.73949384381E+01 0.73654277356E+01 0.77386880234E+01 0.77381037714E+01
 0.77378695645E+01 0.77409604433E+01 0.77483416085E+01 0.77563591563E+01 0.77569830397E+01
 0.77408052726E+01 0.77010666135E+01 0.76368018195E+01 0.75540366665E+01 0.74648835785E+01
 0.73849051991E+01 0.73294008226E+01 0.73095363216E+01 0.73294008226E+01 0.73849051991E+01
 0.74648835785E+01 0.75540366665E+01 0.76368018195E+01 0.77010666135E+01 0.77408052726E+01
 0.77569830397E+01 0.77563591563E+01 0.77483416085E+01 0.77409604433E+01 0.77378695645E+01
 0.77381037714E+01 0.87051429081E+01 0.86783731605E+01 0.86029362120E+01 0.84918960886E+01
 0.83624328210E+01 0.82307113958E+01 0.81074293484E+01 0.79955088226E+01 0.78908333616E+01
 0.77860908964E+01 0.76765574690E+01 0.75653149882E+01 0.74648835785E+01 0.73935470828E+01
 0.73675963809E+01 0.73935470828E+01 0.74648835785E+01 0.75653149882E+01 0.76765574690E+01
 0.77860908964E+01 0.78908333616E+01 0.79955088226E+01 0.81074293484E+01 0.82307113958E+01
 0.83624328210E+01 0.84918960886E+01 0.86029362120E+01 0.86783731605E+01 0.10742538358E+02
 0.10658662130E+02 0.10423896400E+02 0.10074143175E+02 0.96508188323E+01 0.92098431196E+01
 0.88032869480E+01 0.84638830484E+01 0.81982241808E+01 0.79918127368E+01 0.78227722109E+01
 0.76765574690E+01 0.75540366665E+01 0.74691886940E+01 0.74385072952E+01 0.74691886940E+01
 0.75540366665E+01 0.76765574690E+01 0.78227722109E+01 0.79918127368E+01 0.81982241808E+01
 0.84638830484E+01 0.88032869480E+01 0.92098431196E+01 0.96508188323E+01 0.10074143175E+02
 0.10423896400E+02 0.10658662130E+02 0.15197042764E+02 0.14932386455E+02 0.14199586232E+02
 0.13166317758E+02 0.12048739591E+02 0.11004970831E+02 0.10063123036E+02 0.92800104510E+01
 0.86917599235E+01 0.82784741460E+01 0.79918127368E+01 0.77860908964E+01 0.76368018195E+01
 0.75415091966E+01 0.75081972089E+01 0.75415091966E+01 0.76368018195E+01 0.77860908964E+01
 0.79918127368E+01 0.82784741460E+01 0.86917599235E+01 0.92800104510E+01 0.10063123036E+02
 0.11004970831E+02 0.12048739591E+02 0.13166317758E+02 0.14199586232E+02 0.14932386455E+02
 0.24598112444E+02 0.23979294569E+02 0.22230539927E+02 0.19676309069E+02 0.16819188920E+02
 0.14194450766E+02 0.12137511934E+02 0.10607002403E+02 0.94667056621E+01 0.86917599235E+01
 0.81982241808E+01 0.78908333616E+01 0.77010666135E+01 0.75944927807E+01 0.75596301150E+01
 0.75944927807E+01 0.77010666135E+01 0.78908333616E+01 0.81982241808E+01 0.86917599235E+01
 0.94667056621E+01 0.10607002403E+02 0.12137511934E+02 0.14194450766E+02 0.16819188920E+02
 0.19676309069E+02 0.22230539927E+02 0.23979294569E+02 0.40682042073E+02 0.39560432248E+02
 0.36331014683E+02 0.31445606130E+02 0.25712938310E+02 0.20158693416E+02 0.15667454718E+02
 0.12591901703E+02 0.10607002403E+02 0.92800104510E+01 0.84638830484E+01 0.79955088226E+01
 0.77408052726E+01 0.76159776794E+01 0.75786194381E+01 0.76159776794E+01 0.77408052726E+01
 0.79955088226E+01 0.84638830484E+01 0.92800104510E+01 0.10607002403E+02 0.12591901703E+02
 0.15667454718E+02 0.20158693416E+02 0.25712938310E+02 0.31445606130E+02 0.36331014683E+02
 0.39560432248E+02 0.63210016056E+02 0.61514983753E+02 0.56555336396E+02 0.48825532984E+02
 0.39377588716E+02 0.29754575600E+02 0.21528989707E+02 0.15667454718E+02 0.12137511934E+02
 0.10063123036E+02 0.88032869480E+01 0.81074293484E+01 0.77569830397E+01 0.76022282869E+01
 0.75596301150E+01 0.76022282869E+01 0.77569830397E+01 0.81074293484E+01 0.88032869480E+01
 0.10063123036E+02 0.12137511934E+02 0.15667454718E+02 0.21528989707E+02 0.29754575600E+02
 0.39377588716E+02 0.48825532984E+02 0.56555336396E+02 0.61514983753E+02 0.89682778589E+02
 0.87445248821E+02 0.80805869245E+02 0.70192035962E+02 0.56771850988E+02 0.42529874948E+02
 0.29754575600E+02 0.20158693416E+02 0.14194450766E+02 0.11004970831E+02 0.92098431196E+01
 0.82307113958E+01 0.77563591563E+01 0.75594223054E+01 0.75081972089E+01 0.75594223054E+01
 0.77563591563E+01 0.82307113958E+01 0.92098431196E+01 0.11004970831E+02 0.14194450766E+02
 0.20158693416E+02 0.29754575600E+02 0.42529874948E+02 0.56771850988E+02 0.70192035962E+02
 0.80805869245E+02 0.87445248821E+02 0.11620313472E+03 0.11353417143E+03 0.10552064278E+03
 0.92436703066E+02 0.75428255010E+02 0.56771850988E+02 0.39377588716E+02 0.25712938310E+02
 0.16819188920E+02 0.12048739591E+02 0.96508188323E+01 0.83624328210E+01 0.77483416085E+01
 0.75009976249E+01 0.74385072952E+01 0.75009976249E+01 0.77483416085E+01 0.83624328210E+01
 0.96508188323E+01 0.12048739591E+02 0.16819188920E+02 0.25712938310E+02 0.39377588716E+02
 0.56771850988E+02 0.75428255010E+02 0.92436703066E+02 0.10552064278E+03 0.11353417143E+03
 0.13901673299E+03 0.13605652133E+03 0.12708782732E+03 0.11220425306E+03 0.92436703066E+02
 0.70192035962E+02 0.48825532984E+02 0.31445606130E+02 0.19676309069E+02 0.13166317758E+02
 0.10074143175E+02 0.84918960886E+01 0.77409604433E+01 0.74422113996E+01 0.73675963809E+01
 0.74422113996E+01 0.77409604433E+01 0.84918960886E+01 0.10074143175E+02 0.13166317758E+02
 0.19676309069E+02 0.31445606130E+02 0.48825532984E+02 0.70192035962E+02 0.92436703066E+02
 0.11220425306E+03 0.12708782732E+03 0.13605652133E+03 0.15575035833E+03 0.15262161887E+03
 0.14308613504E+03 0.12708782732E+03 0.10552064278E+03 0.80805869245E+02 0.56555336396E+02
 0.36331014683E+02 0.22230539927E+02 0.14199586232E+02 0.10423896400E+02 0.86029362120E+01
 0.77378695645E+01 0.73949384381E+01 0.73095363216E+01 0.73949384381E+01 0.77378695645E+01
 0.86029362120E+01 0.10423896400E+02 0.14199586232E+02 0.22230539927E+02 0.36331014683E+02
 0.56555336396E+02 0.80805869245E+02 0.10552064278E+03 0.12708782732E+03 0.14308613504E+03
 0.15262161887E+03 0.16564716886E+03 0.16243652900E+03 0.15262161887E+03 0.13605652133E+03
 0.11353417143E+03 0.87445248821E+02 0.61514983753E+02 0.39560432248E+02 0.23979294569E+02
 0.14932386455E+02 0.10658662130E+02 0.86783731605E+01 0.77381037714E+01 0.73654277356E+01
 0.72726056069E+01 0.73654277356E+01 0.77381037714E+01 0.86783731605E+01 0.10658662130E+02
 0.14932386455E+02 0.23979294569E+02 0.39560432248E+02 0.61514983753E+02 0.87445248821E+02
 0.11353417143E+03 0.13605652133E+03 0.15262161887E+03 0.16243652900E+03 0.16564716886E+03
 0.16243652900E+03 0.15262161887E+03 0.13605652133E+03 0.11353417143E+03 0.87445248821E+02
 0.61514983753E+02 0.39560432248E+02 0.23979294569E+02 0.14932386455E+02 0.10658662130E+02
 0.86783731605E+01 0.77381037714E+01 0.73654277356E+01 0.72726056069E+01 0.73654277356E+01
 0.77381037714E+01 0.86783731605E+01 0.10658662130E+02 0.14932386455E+02 0.23979294569E+02
 0.39560432248E+02 0.61514983753E+02 0.87445248821E+02 0.11353417143E+03 0.13605652133E+03
 0.15262161887E+03 0.16243652900E+03 0.16243652900E+03 0.15924842972E+03 0.14951281320E+03
 0.13311554448E+03 0.11088723842E+03 0.85234406817E+02 0.59849536766E+02 0.38466762375E+02
 0.23382170800E+02 0.14680928913E+02 0.10580224565E+02 0.86547209218E+01 0.77400069809E+01
 0.73774951952E+01 0.72872210398E+01 0.73774951952E+01 0.77400069809E+01 0.86547209218E+01
 0.10580224565E+02 0.14680928913E+02 0.23382170800E+02 0.38466762375E+02 0.59849536766E+02
 0.85234406817E+02 0.11088723842E+03 0.13311554448E+03 0.14951281320E+03 0.15924842972E+03
 0.15262161887E+03 0.14951281320E+03 0.14005230006E+03 0.12422249119E+03 0.10295747884E+03
 0.78689044435E+02 0.54986885418E+02 0.35323907926E+02 0.21697558484E+02 0.13985260295E+02
 0.10359354122E+02 0.85876325424E+01 0.77462171936E+01 0.74125269147E+01 0.73294008226E+01
 0.74125269147E+01 0.77462171936E+01 0.85876325424E+01 0.10359354122E+02 0.13985260295E+02
 0.21697558484E+02 0.35323907926E+02 0.54986885418E+02 0.78689044435E+02 0.10295747884E+03
 0.12422249119E+03 0.14005230006E+03 0.14951281320E+03 0.13605652133E+03 0.13311554448E+03
 0.12422249119E+03 0.10951376293E+03 0.90058903508E+02 0.68265831016E+02 0.47436471913E+02
 0.30585958928E+02 0.19244478155E+02 0.13005260150E+02 0.10026448778E+02 0.84877076647E+01
 0.77572815388E+01 0.74663089975E+01 0.73935470828E+01 0.74663089975E+01 0.77572815388E+01
 0.84877076647E+01 0.10026448778E+02 0.13005260150E+02 0.19244478155E+02 0.30585958928E+02
 0.47436471913E+02 0.68265831016E+02 0.90058903508E+02 0.10951376293E+03 0.12422249119E+03
 0.13311554448E+03 0.11353417143E+03 0.11088723842E+03 0.10295747884E+03 0.90058903508E+02
 0.73367433690E+02 0.55148494334E+02 0.38250729520E+02 0.25051181473E+02 0.16510860858E+02
 0.11943956972E+02 0.96218365777E+01 0.83694578554E+01 0.77717548496E+01 0.75303448479E+01
 0.74691886940E+01 0.75303448479E+01 0.77717548496E+01 0.83694578554E+01 0.96218365777E+01
 0.11943956972E+02 0.16510860858E+02 0.25051181473E+02 0.38250729520E+02 0.55148494334E+02
 0.73367433690E+02 0.90058903508E+02 0.10295747884E+03 0.11088723842E+03 0.87445248821E+02
 0.85234406817E+02 0.78689044435E+02 0.68265831016E+02 0.55148494334E+02 0.41298971533E+02
 0.28943183155E+02 0.19715404574E+02 0.14007608175E+02 0.10943588915E+02 0.91992646722E+01
 0.82473200063E+01 0.77848443536E+01 0.75919203529E+01 0.75415091966E+01 0.75919203529E+01
 0.77848443536E+01 0.82473200063E+01 0.91992646722E+01 0.10943588915E+02 0.14007608175E+02
 0.19715404574E+02 0.28943183155E+02 0.41298971533E+02 0.55148494334E+02 0.68265831016E+02
 0.78689044435E+02 0.85234406817E+02 0.61514983753E+02 0.59849536766E+02 0.54986885418E+02
 0.47436471913E+02 0.38250729520E+02 0.28943183155E+02 0.21030786085E+02 0.15420753480E+02
 0.12043055859E+02 0.10032568160E+02 0.88088903480E+01 0.81316412605E+01 0.77890007628E+01
 0.76366703102E+01 0.75944927807E+01 0.76366703102E+01 0.77890007628E+01 0.81316412605E+01
 0.88088903480E+01 0.10032568160E+02 0.12043055859E+02 0.15420753480E+02 0.21030786085E+02
 0.28943183155E+02 0.38250729520E+02 0.47436471913E+02 0.54986885418E+02 0.59849536766E+02
 0.39560432248E+02 0.38466762375E+02 0.35323907926E+02 0.30585958928E+02 0.25051181473E+02
 0.19715404574E+02 0.15420753480E+02 0.12482038262E+02 0.10563187254E+02 0.92755050931E+01
 0.84826480370E+01 0.80260749680E+01 0.77763332287E+01 0.76530627902E+01 0.76159776794E+01
 0.76530627902E+01 0.77763332287E+01 0.80260749680E+01 0.84826480370E+01 0.92755050931E+01
 0.10563187254E+02 0.12482038262E+02 0.15420753480E+02 0.19715404574E+02 0.25051181473E+02
 0.30585958928E+02 0.35323907926E+02 0.38466762375E+02 0.23979294569E+02 0.23382170800E+02
 0.21697558484E+02 0.19244478155E+02 0.16510860858E+02 0.14007608175E+02 0.12043055859E+02
 0.10563187254E+02 0.94581299512E+01 0.87068300645E+01 0.82273943618E+01 0.79276469354E+01
 0.77416459063E+01 0.76366703102E+01 0.76022282869E+01 0.76366703102E+01 0.77416459063E+01
 0.79276469354E+01 0.82273943618E+01 0.87068300645E+01 0.94581299512E+01 0.10563187254E+02
 0.12043055859E+02 0.14007608175E+02 0.16510860858E+02 0.19244478155E+02 0.21697558484E+02
 0.23382170800E+02 0.14932386455E+02 0.14680928913E+02 0.13985260295E+02 0.13005260150E+02
 0.11943956972E+02 0.10943588915E+02 0.10032568160E+02 0.92755050931E+01 0.87068300645E+01
 0.83070846701E+01 0.80295013800E+01 0.78299303558E+01 0.76847712237E+01 0.75919203529E+01
 0.75594223054E+01 0.75919203529E+01 0.76847712237E+01 0.78299303558E+01 0.80295013800E+01
 0.83070846701E+01 0.87068300645E+01 0.92755050931E+01 0.10032568160E+02 0.10943588915E+02
 0.11943956972E+02 0.13005260150E+02 0.13985260295E+02 0.14680928913E+02 0.10658662130E+02
 0.10580224565E+02 0.10359354122E+02 0.10026448778E+02 0.96218365777E+01 0.91992646722E+01
 0.88088903480E+01 0.84826480370E+01 0.82273943618E+01 0.80295013800E+01 0.78679185268E+01
 0.77283873116E+01 0.76114326615E+01 0.75303448479E+01 0.75009976249E+01 0.75303448479E+01
 0.76114326615E+01 0.77283873116E+01 0.78679185268E+01 0.80295013800E+01 0.82273943618E+01
 0.84826480370E+01 0.88088903480E+01 0.91992646722E+01 0.96218365777E+01 0.10026448778E+02
 0.10359354122E+02 0.10580224565E+02 0.86783731605E+01 0.86547209218E+01 0.85876325424E+01
 0.84877076647E+01 0.83694578554E+01 0.82473200063E+01 0.81316412605E+01 0.80260749680E+01
 0.79276469354E+01 0.78299303558E+01 0.77283873116E+01 0.76254707101E+01 0.75324754389E+01
 0.74663089975E+01 0.74422113996E+01 0.74663089975E+01 0.75324754389E+01 0.76254707101E+01
 0.77283873116E+01 0.78299303558E+01 0.79276469354E+01 0.80260749680E+01 0.81316412605E+01
 0.82473200063E+01 0.83694578554E+01 0.84877076647E+01 0.85876325424E+01 0.86547209218E+01
 0.77381037714E+01 0.77400069809E+01 0.77462171936E+01 0.77572815388E+01 0.77717548496E+01
 0.77848443536E+01 0.77890007628E+01 0.77763332287E+01 0.77416459063E+01 0.76847712237E+01
 0.76114326615E+01 0.75324754389E+01 0.74616672006E+01 0.74125269147E+01 0.73949384381E+01
 0.74125269147E+01 0.74616672006E+01 0.75324754389E+01 0.76114326615E+01 0.76847712237E+01
 0.77416459063E+01 0.77763332287E+01 0.77890007628E+01 0.77848443536E+01 0.77717548496E+01
 0.77572815388E+01 0.77462171936E+01 0.77400069809E+01 0.73654277356E+01 0.73774951952E+01
 0.74125269147E+01 0.74663089975E+01 0.75303448479E+01 0.75919203529E+01 0.76366703102E+01
 0.76530627902E+01 0.76366703102E+01 0.75919203529E+01 0.75303448479E+01 0.74663089975E+01
 0.74125269147E+01 0.73774951952E+01 0.73654277356E+01 0.73774951952E+01 0.74125269147E+01
 0.74663089975E+01 0.75303448479E+01 0.75919203529E+01 0.76366703102E+01 0.76530627902E+01
 0.76366703102E+01 0.75919203529E+01 0.75303448479E+01 0.74663089975E+01 0.74125269147E+01
 0.73774951952E+01 0.72726056069E+01 0.72872210398E+01 0.73294008226E+01 0.73935470828E+01
 0.74691886940E+01 0.75415091966E+01 0.75944927807E+01 0.76159776794E+01 0.76022282869E+01
 0.75594223054E+01 0.75009976249E+01 0.74422113996E+01 0.73949384381E+01 0.73654277356E+01
 0.73555339771E+01 0.73654277356E+01 0.73949384381E+01 0.74422113996E+01 0.75009976249E+01
 0.75594223054E+01 0.76022282869E+01 0.76159776794E+01 0.75944927807E+01 0.75415091966E+01
 0.74691886940E+01 0.73935470828E+01 0.73294008226E+01 0.72872210398E+01 0.73654277356E+01
 0.73774951952E+01 0.74125269147E+01 0.74663089975E+01 0.75303448479E+01 0.75919203529E+01
 0.76366703102E+01 0.76530627902E+01 0.76366703102E+01 0.75919203529E+01 0.75303448479E+01
 0.74663089975E+01 0.74125269147E+01 0.73774951952E+01 0.73654277356E+01 0.73774951952E+01
 0.74125269147E+01 0.74663089975E+01 0.75303448479E+01 0.75919203529E+01 0.76366703102E+01
 0.76530627902E+01 0.76366703102E+01 0.75919203529E+01 0.75303448479E+01 0.74663089975E+01
 0.74125269147E+01 0.73774951952E+01 0.77381037714E+01 0.77400069809E+01 0.77462171936E+01
 0.77572815388E+01 0.77717548496E+01 0.77848443536E+01 0.77890007628E+01 0.77763332287E+01
 0.77416459063E+01 0.76847712237E+01 0.76114326615E+01 0.75324754389E+01 0.74616672006E+01
 0.74125269147E+01 0.73949384381E+01 0.74125269147E+01 0.74616672006E+01 0.75324754389E+01
 0.76114326615E+01 0.76847712237E+01 0.77416459063E+01 0.77763332287E+01 0.77890007628E+01
 0.77848443536E+01 0.77717548496E+01 0.77572815388E+01 0.77462171936E+01 0.77400069809E+01
 0.86783731605E+01 0.86547209218E+01 0.85876325424E+01 0.84877076647E+01 0.83694578554E+01
 0.82473200063E+01 0.81316412605E+01 0.80260749680E+01 0.79276469354E+01 0.78299303558E+01
 0.77283873116E+01 0.76254707101E+01 0.75324754389E+01 0.74663089975E+01 0.74422113996E+01
 0.74663089975E+01 0.75324754389E+01 0.76254707101E+01 0.77283873116E+01 0.78299303558E+01
 0.79276469354E+01 0.80260749680E+01 0.81316412605E+01 0.82473200063E+01 0.83694578554E+01
 0.84877076647E+01 0.85876325424E+01 0.86547209218E+01 0.10658662130E+02 0.10580224565E+02
 0.10359354122E+02 0.10026448778E+02 0.96218365777E+01 0.91992646722E+01 0.88088903480E+01
 0.84826480370E+01 0.82273943618E+01 0.80295013800E+01 0.78679185268E+01 0.77283873116E+01
 0.76114326615E+01 0.75303448479E+01 0.75009976249E+01 0.75303448479E+01 0.76114326615E+01
 0.77283873116E+01 0.78679185268E+01 0.80295013800E+01 0.82273943618E+01 0.84826480370E+01
 0.88088903480E+01 0.91992646722E+01 0.96218365777E+01 0.10026448778E+02 0.10359354122E+02
 0.10580224565E+02 0.14932386455E+02 0.14680928913E+02 0.13985260295E+02 0.13005260150E+02
 0.11943956972E+02 0.10943588915E+02 0.10032568160E+02 0.92755050931E+01 0.87068300645E+01
 0.83070846701E+01 0.80295013800E+01 0.78299303558E+01 0.76847712237E+01 0.75919203529E+01
 0.75594223054E+01 0.75919203529E+01 0.76847712237E+01 0.78299303558E+01 0.80295013800E+01
 0.83070846701E+01 0.87068300645E+01 0.92755050931E+01 0.10032568160E+02 0.10943588915E+02
 0.11943956972E+02 0.13005260150E+02 0.13985260295E+02 0.14680928913E+02 0.23979294569E+02
 0.23382170800E+02 0.21697558484E+02 0.19244478155E+02 0.16510860858E+02 0.14007608175E+02
 0.12043055859E+02 0.10563187254E+02 0.94581299512E+01 0.87068300645E+01 0.82273943618E+01
 0.79276469354E+01 0.77416459063E+01 0.76366703102E+01 0.76022282869E+01 0.76366703102E+01
 0.77416459063E+01 0.79276469354E+01 0.82273943618E+01 0.87068300645E+01 0.94581299512E+01
 0.10563187254E+02 0.12043055859E+02 0.14007608175E+02 0.16510860858E+02 0.19244478155E+02
 0.21697558484E+02 0.23382170800E+02 0.39560432248E+02 0.38466762375E+02 0.35323907926E+02
 0.30585958928E+02 0.25051181473E+02 0.19715404574E+02 0.15420753480E+02 0.12482038262E+02
 0.10563187254E+02 0.92755050931E+01 0.84826480370E+01 0.80260749680E+01 0.77763332287E+01
 0.76530627902E+01 0.76159776794E+01 0.76530627902E+01 0.77763332287E+01 0.80260749680E+01
 0.84826480370E+01 0.92755050931E+01 0.10563187254E+02 0.12482038262E+02 0.15420753480E+02
 0.19715404574E+02 0.25051181473E+02 0.30585958928E+02 0.35323907926E+02 0.38466762375E+02
 0.61514983753E+02 0.59849536766E+02 0.54986885418E+02 0.47436471913E+02 0.38250729520E+02
 0.28943183155E+02 0.21030786085E+02 0.15420753480E+02 0.12043055859E+02 0.10032568160E+02
 0.88088903480E+01 0.81316412605E+01 0.77890007628E+01 0.76366703102E+01 0.75944927807E+01
 0.76366703102E+01 0.77890007628E+01 0.81316412605E+01 0.88088903480E+01 0.10032568160E+02
 0.12043055859E+02 0.15420753480E+02 0.21030786085E+02 0.28943183155E+02 0.38250729520E+02
 0.47436471913E+02 0.54986885418E+02 0.59849536766E+02 0.87445248821E+02 0.85234406817E+02
 0.78689044435E+02 0.68265831016E+02 0.55148494334E+02 0.41298971533E+02 0.28943183155E+02
 0.19715404574E+02 0.14007608175E+02 0.10943588915E+02 0.91992646722E+01 0.82473200063E+01
 0.77848443536E+01 0.75919203529E+01 0.75415091966E+01 0.75919203529E+01 0.77848443536E+01
 0.82473200063E+01 0.91992646722E+01 0.10943588915E+02 0.14007608175E+02 0.19715404574E+02
 0.28943183155E+02 0.41298971533E+02 0.55148494334E+02 0.68265831016E+02 0.78689044435E+02
 0.85234406817E+02 0.11353417143E+03 0.11088723842E+03 0.10295747884E+03 0.90058903508E+02
 0.73367433690E+02 0.55148494334E+02 0.38250729520E+02 0.25051181473E+02 0.16510860858E+02
 0.11943956972E+02 0.96218365777E+01 0.83694578554E+01 0.77717548496E+01 0.75303448479E+01
 0.74691886940E+01 0.75303448479E+01 0.77717548496E+01 0.83694578554E+01 0.96218365777E+01
 0.11943956972E+02 0.16510860858E+02 0.25051181473E+02 0.38250729520E+02 0.55148494334E+02
 0.73367433690E+02 0.90058903508E+02 0.10295747884E+03 0.11088723842E+03 0.13605652133E+03
 0.13311554448E+03 0.12422249119E+03 0.10951376293E+03 0.90058903508E+02 0.68265831016E+02
 0.47436471913E+02 0.30585958928E+02 0.19244478155E+02 0.13005260150E+02 0.10026448778E+02
 0.84877076647E+01 0.77572815388E+01 0.74663089975E+01 0.73935470828E+01 0.74663089975E+01
 0.77572815388E+01 0.84877076647E+01 0.10026448778E+02 0.13005260150E+02 0.19244478155E+02
 0.30585958928E+02 0.47436471913E+02 0.68265831016E+02 0.90058903508E+02 0.10951376293E+03
 0.12422249119E+03 0.13311554448E+03 0.15262161887E+03 0.14951281320E+03 0.14005230006E+03
 0.12422249119E+03 0.10295747884E+03 0.78689044435E+02 0.54986885418E+02 0.35323907926E+02
 0.21697558484E+02 0.13985260295E+02 0.10359354122E+02 0.85876325424E+01 0.77462171936E+01
 0.74125269147E+01 0.73294008226E+01 0.74125269147E+01 0.77462171936E+01 0.85876325424E+01
 0.10359354122E+02 0.13985260295E+02 0.21697558484E+02 0.35323907926E+02 0.54986885418E+02
 0.78689044435E+02 0.10295747884E+03 0.12422249119E+03 0.14005230006E+03 0.14951281320E+03
 0.16243652900E+03 0.15924842972E+03 0.14951281320E+03 0.13311554448E+03 0.11088723842E+03
 0.85234406817E+02 0.59849536766E+02 0.38466762375E+02 0.23382170800E+02 0.14680928913E+02
 0.10580224565E+02 0.86547209218E+01 0.77400069809E+01 0.73774951952E+01 0.72872210398E+01
 0.73774951952E+01 0.77400069809E+01 0.86547209218E+01 0.10580224565E+02 0.14680928913E+02
 0.23382170800E+02 0.38466762375E+02 0.59849536766E+02 0.85234406817E+02 0.11088723842E+03
 0.13311554448E+03 0.14951281320E+03 0.15924842972E+03 0.15575035833E+03 0.15262161887E+03
 0.14308613504E+03 0.12708782732E+03 0.10552064278E+03 0.80805869245E+02 0.56555336396E+02
 0.36331014683E+02 0.22230539927E+02 0.14199586232E+02 0.10423896400E+02 0.86029362120E+01
 0.77378695645E+01 0.73949384381E+01 0.73095363216E+01 0.73949384381E+01 0.77378695645E+01
 0.86029362120E+01 0.10423896400E+02 0.14199586232E+02 0.22230539927E+02 0.36331014683E+02
 0.56555336396E+02 0.80805869245E+02 0.10552064278E+03 0.12708782732E+03 0.14308613504E+03
 0.15262161887E+03 0.15262161887E+03 0.14951281320E+03 0.14005230006E+03 0.12422249119E+03
 0.10295747884E+03 0.78689044435E+02 0.54986885418E+02 0.35323907926E+02 0.21697558484E+02
 0.13985260295E+02 0.10359354122E+02 0.85876325424E+01 0.77462171936E+01 0.74125269147E+01
 0.73294008226E+01 0.74125269147E+01 0.77462171936E+01 0.85876325424E+01 0.10359354122E+02
 0.13985260295E+02 0.21697558484E+02 0.35323907926E+02 0.54986885418E+02 0.78689044435E+02
 0.10295747884E+03 0.12422249119E+03 0.14005230006E+03 0.14951281320E+03 0.14308613504E+03
 0.14005230006E+03 0.13086147409E+03 0.11560612941E+03 0.95325792352E+02 0.72460917667E+02