   2   2   0   0
  0.1798157E+02  0.3300800E-09  0.3300800E-09  0.3300800E-09  0.5000000E-15
  1.000000000000000E-004
  CAR 
 Nb                                      
     49.75017461    -29.65969651  301      4.85226037      1.00000000
    -29.660  0.0000E+00  0.0000E+00
    -29.395  0.0000E+00  0.0000E+00
    -29.130  0.0000E+00  0.0000E+00
    -28.866  0.0000E+00  0.0000E+00
    -28.601  0.0000E+00  0.0000E+00
    -28.336  0.0000E+00  0.0000E+00
    -28.071  0.0000E+00  0.0000E+00
    -27.807  0.0000E+00  0.0000E+00
    -27.542  0.0000E+00  0.0000E+00
    -27.277  0.0000E+00  0.0000E+00
    -27.013  0.0000E+00  0.0000E+00
    -26.748  0.0000E+00  0.0000E+00
    -26.483  0.0000E+00  0.0000E+00
    -26.219  0.0000E+00  0.0000E+00
    -25.954  0.4435E+01  0.2697E+00
    -25.689  0.7188E+01  0.2758E+01
    -25.425  0.7451E+01  0.4287E+01
    -25.160  0.1041E+02  0.6466E+01
    -24.895  0.1329E+02  0.9130E+01
    -24.630  0.0000E+00  0.1200E+02
    -24.366  0.0000E+00  0.1200E+02
    -24.101  0.0000E+00  0.1200E+02
    -23.836  0.0000E+00  0.1200E+02
    -23.572  0.0000E+00  0.1200E+02
    -23.307  0.0000E+00  0.1200E+02
    -23.042  0.0000E+00  0.1200E+02
    -22.778  0.0000E+00  0.1200E+02
    -22.513  0.0000E+00  0.1200E+02
    -22.248  0.0000E+00  0.1200E+02
    -21.983  0.0000E+00  0.1200E+02
    -21.719  0.0000E+00  0.1200E+02
    -21.454  0.0000E+00  0.1200E+02
    -21.189  0.0000E+00  0.1200E+02
    -20.925  0.0000E+00  0.1200E+02
    -20.660  0.0000E+00  0.1200E+02
    -20.395  0.0000E+00  0.1200E+02
    -20.131  0.0000E+00  0.1200E+02
    -19.866  0.0000E+00  0.1200E+02
    -19.601  0.0000E+00  0.1200E+02
    -19.336  0.0000E+00  0.1200E+02
    -19.072  0.0000E+00  0.1200E+02
    -18.807  0.0000E+00  0.1200E+02
    -18.542  0.0000E+00  0.1200E+02
    -18.278  0.0000E+00  0.1200E+02
    -18.013  0.0000E+00  0.1200E+02
    -17.748  0.0000E+00  0.1200E+02
    -17.484  0.0000E+00  0.1200E+02
    -17.219  0.0000E+00  0.1200E+02
    -16.954  0.0000E+00  0.1200E+02
    -16.689  0.0000E+00  0.1200E+02
    -16.425  0.0000E+00  0.1200E+02
    -16.160  0.0000E+00  0.1200E+02
    -15.895  0.0000E+00  0.1200E+02
    -15.631  0.0000E+00  0.1200E+02
    -15.366  0.0000E+00  0.1200E+02
    -15.101  0.0000E+00  0.1200E+02
    -14.837  0.0000E+00  0.1200E+02
    -14.572  0.0000E+00  0.1200E+02
    -14.307  0.0000E+00  0.1200E+02
    -14.042  0.0000E+00  0.1200E+02
    -13.778  0.0000E+00  0.1200E+02
    -13.513  0.0000E+00  0.1200E+02
    -13.248  0.0000E+00  0.1200E+02
    -12.984  0.0000E+00  0.1200E+02
    -12.719  0.0000E+00  0.1200E+02
    -12.454  0.0000E+00  0.1200E+02
    -12.190  0.0000E+00  0.1200E+02
    -11.925  0.0000E+00  0.1200E+02
    -11.660  0.0000E+00  0.1200E+02
    -11.395  0.0000E+00  0.1200E+02
    -11.131  0.0000E+00  0.1200E+02
    -10.866  0.0000E+00  0.1200E+02
    -10.601  0.0000E+00  0.1200E+02
    -10.337  0.0000E+00  0.1200E+02
    -10.072  0.0000E+00  0.1200E+02
     -9.807  0.0000E+00  0.1200E+02
     -9.543  0.0000E+00  0.1200E+02
     -9.278  0.0000E+00  0.1200E+02
     -9.013  0.0000E+00  0.1200E+02
     -8.748  0.0000E+00  0.1200E+02
     -8.484  0.0000E+00  0.1200E+02
     -8.219  0.0000E+00  0.1200E+02
     -7.954  0.0000E+00  0.1200E+02
     -7.690  0.0000E+00  0.1200E+02
     -7.425  0.0000E+00  0.1200E+02
     -7.160  0.0000E+00  0.1200E+02
     -6.896  0.0000E+00  0.1200E+02
     -6.631  0.0000E+00  0.1200E+02
     -6.366  0.0000E+00  0.1200E+02
     -6.101  0.0000E+00  0.1200E+02
     -5.837  0.0000E+00  0.1200E+02
     -5.572  0.0000E+00  0.1200E+02
     -5.307  0.0000E+00  0.1200E+02
     -5.043  0.0000E+00  0.1200E+02
     -4.778  0.0000E+00  0.1200E+02
     -4.513  0.0000E+00  0.1200E+02
     -4.249  0.0000E+00  0.1200E+02
     -3.984  0.0000E+00  0.1200E+02
     -3.719  0.0000E+00  0.1200E+02
     -3.454  0.0000E+00  0.1200E+02
     -3.190  0.0000E+00  0.1200E+02
     -2.925  0.0000E+00  0.1200E+02
     -2.660  0.0000E+00  0.1200E+02
     -2.396  0.0000E+00  0.1200E+02
     -2.131  0.0000E+00  0.1200E+02
     -1.866  0.0000E+00  0.1200E+02
     -1.602  0.0000E+00  0.1200E+02
     -1.337  0.0000E+00  0.1200E+02
     -1.072  0.0000E+00  0.1200E+02
     -0.807  0.5114E-01  0.1201E+02
     -0.543  0.1099E+00  0.1203E+02
     -0.278  0.1325E+00  0.1206E+02
     -0.013  0.1682E+00  0.1210E+02
      0.251  0.2147E+00  0.1215E+02
      0.516  0.2617E+00  0.1221E+02
      0.781  0.3277E+00  0.1229E+02
      1.045  0.4368E+00  0.1239E+02
      1.310  0.1539E+01  0.1262E+02
      1.575  0.2132E+01  0.1314E+02
      1.840  0.2384E+01  0.1374E+02
      2.104  0.2695E+01  0.1446E+02
      2.369  0.3036E+01  0.1519E+02
      2.634  0.1601E+01  0.1598E+02
      2.898  0.9344E+00  0.1629E+02
      3.163  0.1838E+01  0.1655E+02
      3.428  0.4604E+01  0.1763E+02
      3.692  0.2560E+01  0.1872E+02
      3.957  0.1886E+01  0.1925E+02
      4.222  0.2094E+01  0.1980E+02
      4.487  0.3211E+01  0.2049E+02
      4.751  0.3335E+01  0.2165E+02
      5.016  0.2932E+01  0.2251E+02
      5.281  0.1306E+01  0.2298E+02
      5.545  0.1007E+01  0.2328E+02
      5.810  0.1076E+01  0.2356E+02
      6.075  0.9341E+00  0.2381E+02
      6.339  0.5772E+00  0.2404E+02
      6.604  0.1211E+01  0.2427E+02
      6.869  0.1857E+01  0.2471E+02
      7.134  0.1925E+01  0.2519E+02
      7.398  0.2477E+01  0.2577E+02
      7.663  0.2862E+01  0.2651E+02
      7.928  0.3171E+01  0.2724E+02
      8.192  0.2429E+01  0.2802E+02
      8.457  0.2702E+01  0.2865E+02
      8.722  0.3780E+01  0.2956E+02
      8.986  0.2779E+01  0.3105E+02
      9.251  0.1519E+01  0.3157E+02
      9.516  0.1885E+01  0.3204E+02
      9.781  0.1259E+01  0.3248E+02
     10.045  0.1107E+01  0.3279E+02
     10.310  0.1351E+01  0.3314E+02
     10.575  0.8448E+00  0.3343E+02
     10.839  0.6496E+00  0.3360E+02
     11.104  0.6584E+00  0.3378E+02
     11.369  0.8252E+00  0.3398E+02
     11.633  0.6966E+00  0.3418E+02
     11.898  0.6761E+00  0.3436E+02
     12.163  0.6392E+00  0.3454E+02
     12.428  0.6139E+00  0.3470E+02
     12.692  0.5958E+00  0.3486E+02
     12.957  0.6246E+00  0.3502E+02
     13.222  0.5611E+00  0.3518E+02
     13.486  0.5645E+00  0.3532E+02
     13.751  0.5282E+00  0.3547E+02
     14.016  0.4739E+00  0.3560E+02
     14.280  0.4135E+00  0.3572E+02
     14.545  0.3746E+00  0.3583E+02
     14.810  0.3895E+00  0.3594E+02
     15.075  0.9395E-01  0.3601E+02
     15.339  0.2810E+00  0.3607E+02
     15.604  0.6118E+00  0.3618E+02
     15.869  0.9444E+00  0.3638E+02
     16.133  0.1097E+01  0.3665E+02
     16.398  0.1162E+01  0.3695E+02
     16.663  0.1235E+01  0.3728E+02
     16.927  0.1236E+01  0.3762E+02
     17.192  0.1031E+01  0.3791E+02
     17.457  0.1136E+01  0.3821E+02
     17.722  0.1225E+01  0.3853E+02
     17.986  0.1584E+01  0.3890E+02
     18.251  0.1658E+01  0.3933E+02
     18.516  0.1838E+01  0.3984E+02
     18.780  0.1692E+01  0.4032E+02
     19.045  0.1555E+01  0.4075E+02
     19.310  0.1449E+01  0.4115E+02
     19.574  0.1367E+01  0.4152E+02
     19.839  0.1317E+01  0.4187E+02
     20.104  0.1333E+01  0.4222E+02
     20.369  0.1134E+01  0.4257E+02
     20.633  0.1199E+01  0.4287E+02
     20.898  0.1697E+01  0.4322E+02
     21.163  0.1454E+01  0.4364E+02
     21.427  0.1550E+01  0.4403E+02
     21.692  0.1798E+01  0.4447E+02
     21.957  0.2083E+01  0.4503E+02
     22.221  0.1267E+01  0.4547E+02
     22.486  0.1651E+01  0.4585E+02
     22.751  0.1592E+01  0.4628E+02
     23.016  0.8259E+00  0.4663E+02
     23.280  0.5033E+00  0.4677E+02
     23.545  0.6989E+00  0.4693E+02
     23.810  0.1220E+01  0.4715E+02
     24.074  0.1274E+01  0.4746E+02
     24.339  0.7888E+00  0.4784E+02
     24.604  0.1506E+01  0.4812E+02
     24.868  0.1750E+01  0.4858E+02
     25.133  0.1585E+01  0.4906E+02
     25.398  0.1421E+01  0.4946E+02
     25.663  0.1347E+01  0.4983E+02
     25.927  0.1289E+01  0.5017E+02
     26.192  0.1274E+01  0.5052E+02
     26.457  0.1178E+01  0.5084E+02
     26.721  0.1029E+01  0.5116E+02
     26.986  0.8265E+00  0.5140E+02
     27.251  0.8051E+00  0.5162E+02
     27.515  0.8727E+00  0.5184E+02
     27.780  0.1154E+01  0.5209E+02
     28.045  0.1298E+01  0.5246E+02
     28.310  0.1522E+01  0.5284E+02
     28.574  0.2110E+01  0.5330E+02
     28.839  0.1351E+01  0.5375E+02
     29.104  0.9286E+00  0.5402E+02
     29.368  0.1384E+01  0.5434E+02
     29.633  0.1316E+01  0.5471E+02
     29.898  0.1694E+01  0.5509E+02
     30.162  0.1404E+01  0.5559E+02
     30.427  0.1050E+01  0.5591E+02
     30.692  0.1552E+01  0.5627E+02
     30.957  0.1414E+01  0.5667E+02
     31.221  0.1099E+01  0.5701E+02
     31.486  0.7755E+00  0.5723E+02
     31.751  0.1334E+01  0.5754E+02
     32.015  0.1695E+01  0.5799E+02
     32.280  0.1787E+01  0.5846E+02
     32.545  0.1957E+01  0.5894E+02
     32.809  0.1708E+01  0.5943E+02
     33.074  0.1764E+01  0.5991E+02
     33.339  0.1713E+01  0.6041E+02
     33.604  0.1188E+01  0.6077E+02
     33.868  0.1365E+01  0.6113E+02
     34.133  0.1699E+01  0.6153E+02
     34.398  0.2447E+01  0.6205E+02
     34.662  0.1758E+01  0.6259E+02
     34.927  0.1550E+01  0.6303E+02
     35.192  0.1274E+01  0.6346E+02
     35.456  0.1144E+01  0.6380E+02
     35.721  0.8939E+00  0.6404E+02
     35.986  0.1022E+01  0.6429E+02
     36.250  0.1063E+01  0.6459E+02
     36.515  0.1039E+01  0.6487E+02
     36.780  0.1436E+01  0.6519E+02
     37.045  0.1845E+01  0.6561E+02
     37.309  0.2176E+01  0.6619E+02
     37.574  0.3190E+01  0.6686E+02
     37.839  0.2238E+01  0.6750E+02
     38.103  0.1943E+01  0.6805E+02
     38.368  0.1506E+01  0.6851E+02
     38.633  0.1045E+01  0.6885E+02
     38.897  0.1072E+01  0.6913E+02
     39.162  0.1033E+01  0.6940E+02
     39.427  0.2509E+01  0.6981E+02
     39.692  0.1731E+01  0.7027E+02
     39.956  0.1527E+01  0.7072E+02
     40.221  0.1644E+01  0.7112E+02
     40.486  0.2045E+01  0.7166E+02
     40.750  0.1625E+01  0.7220E+02
     41.015  0.1539E+01  0.7261E+02
     41.280  0.2092E+01  0.7309E+02
     41.544  0.2545E+01  0.7369E+02
     41.809  0.4115E+01  0.7458E+02
     42.074  0.4921E+01  0.7572E+02
     42.339  0.4807E+01  0.7721E+02
     42.603  0.3202E+01  0.7829E+02
     42.868  0.1712E+01  0.7890E+02
     43.133  0.1044E+01  0.7937E+02
     43.397  0.7133E+00  0.7960E+02
     43.662  0.4291E+00  0.7975E+02
     43.927  0.2850E+00  0.7984E+02
     44.191  0.1944E+00  0.7990E+02
     44.456  0.1188E+00  0.7995E+02
     44.721  0.6241E-01  0.7997E+02
     44.986  0.2297E-01  0.7998E+02
     45.250  0.1963E-01  0.7998E+02
     45.515  0.1652E-01  0.7999E+02
     45.780  0.1363E-01  0.7999E+02
     46.044  0.1098E-01  0.7999E+02
     46.309  0.0000E+00  0.8000E+02
     46.574  0.0000E+00  0.8000E+02
     46.838  0.0000E+00  0.8000E+02
     47.103  0.0000E+00  0.8000E+02
     47.368  0.0000E+00  0.8000E+02
     47.633  0.0000E+00  0.8000E+02
     47.897  0.0000E+00  0.8000E+02
     48.162  0.0000E+00  0.8000E+02
     48.427  0.0000E+00  0.8000E+02
     48.691  0.0000E+00  0.8000E+02
     48.956  0.0000E+00  0.8000E+02
     49.221  0.0000E+00  0.8000E+02
     49.485  0.0000E+00  0.8000E+02
     49.750  0.0000E+00  0.8000E+02
