    2    2    1    1
  0.1798157E+02  0.3300800E-09  0.3300800E-09  0.3300800E-09  0.5000000E-15
  1.000000000000000E-004
  CAR 
 Nb                                      
     22     35     40
 
  0.5000000E-01  0.5000000E-01  0.5000000E-01  0.8000000E-02
    1      -25.637042   1.000000
    2      -25.637042   1.000000
    3      -25.588812   1.000000
    4      -24.745763   1.000000
    5      -24.691362   1.000000
    6      -24.691362   1.000000
    7       -0.931908   1.000000
    8        1.190505   1.000000
    9        1.190505   1.000000
   10        5.100087  -0.023786
   11        5.100087  -0.003339
   12        5.350898   0.000000
   13        8.007599   0.000000
   14        8.007599   0.000000
   15        9.595175   0.000000
   16       10.275264   0.000000
   17       10.275264   0.000000
   18       14.445247   0.000000
   19       14.445247   0.000000
   20       14.719176   0.000000
   21       20.506791   0.000000
   22       20.706106   0.000000
   23       20.706106   0.000000
   24       23.827550   0.000000
   25       25.787675   0.000000
   26       25.787675   0.000000
   27       29.695805   0.000000
   28       29.695805   0.000000
   29       30.274712   0.000000
   30       33.308582   0.000000
   31       35.212212   0.000000
   32       35.212212   0.000000
   33       40.237607   0.000000
   34       40.362258   0.000000
   35       40.916339   0.000000
   36       40.916339   0.000000
   37       41.851246   0.000000
   38       41.959445   0.000000
   39       41.959445   0.000000
   40       42.246365   0.000000
 
  0.1500000E+00  0.5000000E-01  0.5000000E-01  0.2400000E-01
    1      -25.666448   1.000000
    2      -25.589467   1.000000
    3      -25.518819   1.000000
    4      -24.864205   1.000000
    5      -24.736051   1.000000
    6      -24.711711   1.000000
    7       -0.531583   1.000000
    8        1.411526   1.000000
    9        1.536524   1.000000
   10        4.959719   0.244436
   11        5.048527  -0.009318
   12        5.659944   0.000000
   13        7.495826   0.000000
   14        8.230696   0.000000
   15        8.478657   0.000000
   16        9.199809   0.000000
   17       10.225185   0.000000
   18       13.438967   0.000000
   19       15.920416   0.000000
   20       15.964254   0.000000
   21       20.890808   0.000000
   22       21.316587   0.000000
   23       21.412585   0.000000
   24       24.112481   0.000000
   25       25.594038   0.000000
   26       26.128918   0.000000
   27       27.087486   0.000000
   28       30.368109   0.000000
   29       30.823022   0.000000
   30       32.311868   0.000000
   31       34.417590   0.000000
   32       37.199450   0.000000
   33       38.576374   0.000000
   34       39.482331   0.000000
   35       39.931838   0.000000
   36       40.510136   0.000000
   37       40.608295   0.000000
   38       41.936197   0.000000
   39       42.117950   0.000000
   40       42.920523   0.000000
 
  0.2500000E+00  0.5000000E-01  0.5000000E-01  0.2400000E-01
    1      -25.673991   1.000000
    2      -25.499254   1.000000
    3      -25.421145   1.000000
    4      -25.041831   1.000000
    5      -24.821489   1.000000
    6      -24.781189   1.000000
    7        0.198256   1.000000
    8        1.846030   1.000000
    9        2.095300   1.000000
   10        4.914607   0.506560
   11        4.984883   0.119431
   12        6.103529  -0.000031
   13        6.662432   0.000000
   14        7.354264   0.000000
   15        8.003817   0.000000
   16        8.614010   0.000000
   17        9.694998   0.000000
   18       12.016565   0.000000
   19       17.767328   0.000000
   20       18.022312   0.000000
   21       21.609788   0.000000
   22       22.154591   0.000000
   23       22.569471   0.000000
   24       22.931856   0.000000
   25       24.579233   0.000000
   26       25.221476   0.000000
   27       28.366587   0.000000
   28       30.957452   0.000000
   29       31.185191   0.000000
   30       31.791923   0.000000
   31       33.485589   0.000000
   32       36.433148   0.000000
   33       37.191789   0.000000
   34       37.571071   0.000000
   35       39.465586   0.000000
   36       40.103510   0.000000
   37       40.678615   0.000000
   38       41.239934   0.000000
   39       42.266617   0.000000
   40       42.933005   0.000000
 
  0.3500000E+00  0.5000000E-01  0.5000000E-01  0.2400000E-01
    1      -25.644664   1.000000
    2      -25.375813   1.000000
    3      -25.298451   1.000000
    4      -25.241896   1.000000
    5      -24.940291   1.000000
    6      -24.887611   1.000000
    7        1.116765   1.000000
    8        2.478855   1.000000
    9        2.572590   1.000000
   10        4.830338   0.922717
   11        5.025990   0.155848
   12        5.872612  -0.001235
   13        6.439844   0.000000
   14        6.687532   0.000000
   15        6.983718   0.000000
   16        8.954602   0.000000
   17        9.039322   0.000000
   18       10.718911   0.000000
   19       19.589893   0.000000
   20       20.254249   0.000000
   21       21.302156   0.000000
   22       21.881173   0.000000
   23       22.392349   0.000000
   24       23.885028   0.000000
   25       24.518116   0.000000
   26       24.716998   0.000000
   27       29.361838   0.000000
   28       30.311479   0.000000
   29       31.273113   0.000000
   30       32.663573   0.000000
   31       34.297168   0.000000
   32       34.371077   0.000000
   33       34.823807   0.000000
   34       37.518491   0.000000
   35       38.221499   0.000000
   36       40.408206   0.000000
   37       40.715719   0.000000
   38       41.247380   0.000000
   39       42.303589   0.000000
   40       42.764959   0.000000
 
  0.4500000E+00  0.5000000E-01  0.5000000E-01  0.2400000E-01
    1      -25.563342   1.000000
    2      -25.425159   1.000000
    3      -25.231623   1.000000
    4      -25.159886   1.000000
    5      -25.081470   1.000000
    6      -25.018272   1.000000
    7        2.007797   1.000000
    8        2.578712   1.000000
    9        3.278725   1.000000
   10        4.166338   1.000000
   11        5.327115  -0.092595
   12        5.772793  -0.008422
   13        5.792070   0.000000
   14        6.221265   0.000000
   15        7.392436   0.000000
   16        8.166078   0.000000
   17        9.404845   0.000000
   18        9.849773   0.000000
   19       19.939845   0.000000
   20       20.147484   0.000000
   21       22.344454   0.000000
   22       22.861348   0.000000
   23       23.027790   0.000000
   24       24.189957   0.000000
   25       24.309499   0.000000
   26       24.508786   0.000000
   27       29.130772   0.000000
   28       29.961516   0.000000
   29       30.946098   0.000000
   30       31.651313   0.000000
   31       34.486611   0.000000
   32       35.023813   0.000000
   33       36.456458   0.000000
   34       37.264884   0.000000
   35       37.483325   0.000000
   36       39.630829   0.000000
   37       39.695083   0.000000
   38       40.581421   0.000000
   39       42.263304   0.000000
   40       42.405878   0.000000
 
  0.1500000E+00  0.1500000E+00  0.5000000E-01  0.2400000E-01
    1      -25.718380   1.000000
    2      -25.563528   1.000000
    3      -25.415019   1.000000
    4      -25.013003   1.000000
    5      -24.770524   1.000000
    6      -24.694206   1.000000
    7       -0.169003   1.000000
    8        1.651941   1.000000
    9        1.838145   1.000000
   10        4.649379   1.004758
   11        4.900864   0.364416
   12        6.183556  -0.002660
   13        7.354686   0.000000
   14        7.587324   0.000000
   15        8.083935   0.000000
   16        8.555541   0.000000
   17       10.410604   0.000000
   18       14.128563   0.000000
   19       15.373857   0.000000
   20       16.702793   0.000000
   21       20.932205   0.000000
   22       21.822652   0.000000
   23       21.907702   0.000000
   24       24.476473   0.000000
   25       25.208596   0.000000
   26       26.683320   0.000000
   27       27.244181   0.000000
   28       28.707473   0.000000
   29       31.192207   0.000000
   30       31.302160   0.000000
   31       34.592978   0.000000
   32       36.904373   0.000000
   33       37.796220   0.000000
   34       39.140120   0.000000
   35       39.613429   0.000000
   36       40.336448   0.000000
   37       41.157309   0.000000
   38       42.159319   0.000000
   39       42.227218   0.000000
   40       42.985384   0.000000
 
  0.2500000E+00  0.1500000E+00  0.5000000E-01  0.4800000E-01
    1      -25.762005   1.000000
    2      -25.480218   1.000000
    3      -25.294397   1.000000
    4      -25.209504   1.000000
    5      -24.847362   1.000000
    6      -24.721863   1.000000
    7        0.473616   1.000000
    8        2.006736   1.000000
    9        2.408638   1.000000
   10        4.428020   1.041179
   11        4.748313   0.921131
   12        6.325306  -0.029969
   13        6.821514   0.000000
   14        7.152543   0.000000
   15        7.564628   0.000000
   16        8.414075   0.000000
   17       10.235182   0.000000
   18       12.930200   0.000000
   19       16.648800   0.000000
   20       18.197107   0.000000
   21       21.037316   0.000000
   22       21.961674   0.000000
   23       23.009365   0.000000
   24       23.369736   0.000000
   25       24.992071   0.000000
   26       25.975955   0.000000
   27       28.784812   0.000000
   28       28.861443   0.000000
   29       30.422009   0.000000
   30       32.049348   0.000000
   31       33.709606   0.000000
   32       35.336316   0.000000
   33       36.828454   0.000000
   34       37.764382   0.000000
   35       39.732996   0.000000
   36       40.587702   0.000000
   37       41.946354   0.000000
   38       41.949659   0.000000
   39       42.458075   0.000000
   40       42.957022   0.000000
 
  0.3500000E+00  0.1500000E+00  0.5000000E-01  0.4800000E-01
    1      -25.763699   1.000000
    2      -25.412360   1.000000
    3      -25.363389   1.000000
    4      -25.163085   1.000000
    5      -24.955907   1.000000
    6      -24.795137   1.000000
    7        1.242142   1.000000
    8        2.386067   1.000000
    9        2.974627   1.000000
   10        4.353836   1.015224
   11        4.609715   0.993206
   12        5.565056  -0.090850
   13        6.633950   0.000000
   14        6.839678   0.000000
   15        7.555254   0.000000
   16        8.889857   0.000000
   17        9.659953   0.000000
   18       11.435026   0.000000
   19       18.139006   0.000000
   20       20.097246   0.000000
   21       20.413121   0.000000
   22       21.816896   0.000000
   23       22.328917   0.000000
   24       24.250257   0.000000
   25       24.762588   0.000000
   26       25.965173   0.000000
   27       27.924726   0.000000
   28       30.256007   0.000000
   29       31.071835   0.000000
   30       32.570846   0.000000
   31       33.849258   0.000000
   32       33.858820   0.000000
   33       35.890841   0.000000
   34       36.911834   0.000000
   35       38.702209   0.000000
   36       40.688352   0.000000
   37       41.317902   0.000000
   38       41.952144   0.000000
   39       42.507525   0.000000
   40       42.997829   0.000000
 
  0.4500000E+00  0.1500000E+00  0.5000000E-01  0.4800000E-01
    1      -25.706878   1.000000
    2      -25.586485   1.000000
    3      -25.227292   1.000000
    4      -25.086730   1.000000
    5      -25.028751   1.000000
    6      -24.901902   1.000000
    7        1.950484   1.000000
    8        2.411913   1.000000
    9        3.505346   1.000000
   10        4.068856   1.000000
   11        4.689821   0.888725
   12        5.049679  -0.023578
   13        6.458262   0.000000
   14        6.541912   0.000000
   15        8.306970   0.000000
   16        8.980357   0.000000
   17        9.384750   0.000000
   18       10.190924   0.000000
   19       18.945386   0.000000
   20       19.438023   0.000000
   21       21.606365   0.000000
   22       21.918903   0.000000
   23       22.699927   0.000000
   24       24.321093   0.000000
   25       24.801881   0.000000
   26       25.358299   0.000000
   27       28.519745   0.000000
   28       30.338100   0.000000
   29       30.371906   0.000000
   30       31.905956   0.000000
   31       34.383883   0.000000
   32       35.033510   0.000000
   33       36.077985   0.000000
   34       37.216971   0.000000
   35       38.030605   0.000000
   36       39.294377   0.000000
   37       40.847644   0.000000
   38       40.999954   0.000000
   39       42.389536   0.000000
   40       42.631376   0.000000
 
  0.2500000E+00  0.2500000E+00  0.5000000E-01  0.2400000E-01
    1      -25.847501   1.000000
    2      -25.417750   1.000000
    3      -25.411751   1.000000
    4      -25.156203   1.000000
    5      -24.905175   1.000000
    6      -24.698873   1.000000
    7        0.905697   1.000000
    8        2.124893   1.000000
    9        3.061621   1.000000
   10        4.023455   1.000000
   11        4.664842   1.008009
   12        5.403903  -0.039935
   13        6.915524   0.000000
   14        7.559870   0.000000
   15        7.712759   0.000000
   16        8.252671   0.000000
   17       10.608968   0.000000
   18       13.229051   0.000000
   19       16.018666   0.000000
   20       18.886302   0.000000
   21       20.295843   0.000000
   22       21.409274   0.000000
   23       22.655768   0.000000
   24       24.042388   0.000000
   25       25.079297   0.000000
   26       27.267734   0.000000
   27       27.558261   0.000000
   28       29.625427   0.000000
   29       29.952026   0.000000
   30       32.492083   0.000000
   31       32.662528   0.000000
   32       34.364852   0.000000
   33       36.692800   0.000000
   34       38.392221   0.000000
   35       40.114577   0.000000
   36       40.788818   0.000000
   37       41.058179   0.000000
   38       42.040799   0.000000
   39       42.200317   0.000000
   40       43.720221   0.000000
 
  0.3500000E+00  0.2500000E+00  0.5000000E-01  0.4800000E-01
    1      -25.889550   1.000000
    2      -25.617309   1.000000
    3      -25.315127   1.000000
    4      -25.021033   1.000000
    5      -24.988525   1.000000
    6      -24.725802   1.000000
    7        1.326885   1.000000
    8        2.118838   1.000000
    9        3.769975   1.000000
   10        3.825680   1.000000
   11        4.724212   0.944352
   12        4.783652   0.438758
   13        6.707465   0.000000
   14        7.452747   0.000000
   15        8.549272   0.000000
   16        8.660000   0.000000
   17       10.395794   0.000000
   18       12.057417   0.000000
   19       16.845568   0.000000
   20       19.460767   0.000000
   21       20.035813   0.000000
   22       20.555982   0.000000
   23       21.571532   0.000000
   24       25.190430   0.000000
   25       25.345051   0.000000
   26       26.483165   0.000000
   27       27.853717   0.000000
   28       30.028299   0.000000
   29       30.746267   0.000000
   30       31.916583   0.000000
   31       33.057525   0.000000
   32       33.711504   0.000000
   33       37.666220   0.000000
   34       37.805335   0.000000
   35       39.472422   0.000000
   36       40.574543   0.000000
   37       41.314579   0.000000
   38       41.568264   0.000000
   39       42.175799   0.000000
   40       42.346641   0.000000
 
  0.4500000E+00  0.2500000E+00  0.5000000E-01  0.4800000E-01
    1      -25.867789   1.000000
    2      -25.774736   1.000000
    3      -25.203901   1.000000
    4      -25.091176   1.000000
    5      -24.897607   1.000000
    6      -24.795618   1.000000
    7        1.665813   1.000000
    8        1.942946   1.000000
    9        3.855950   1.000000
   10        4.055071   1.000000
   11        4.530708   0.917065
   12        4.795030   0.497766
   13        7.001902   0.000000
   14        7.289685   0.000000
   15        9.061731   0.000000
   16        9.590267   0.000000
   17        9.734489   0.000000
   18       10.707920   0.000000
   19       17.800594   0.000000
   20       18.548414   0.000000
   21       20.169441   0.000000
   22       20.241694   0.000000
   23       22.229227   0.000000
   24       24.022042   0.000000
   25       25.890818   0.000000
   26       26.553537   0.000000
   27       28.590332   0.000000
   28       30.023795   0.000000
   29       30.572200   0.000000
   30       31.878492   0.000000
   31       33.064555   0.000000
   32       34.199607   0.000000
   33       37.546751   0.000000
   34       38.379546   0.000000
   35       39.191738   0.000000
   36       39.484663   0.000000
   37       41.725305   0.000000
   38       41.828299   0.000000
   39       42.438469   0.000000
   40       42.450763   0.000000
 
  0.3500000E+00  0.3500000E+00  0.5000000E-01  0.2400000E-01
    1      -25.973575   1.000000
    2      -25.801738   1.000000
    3      -25.248068   1.000000
    4      -25.037447   1.000000
    5      -24.894939   1.000000
    6      -24.703710   1.000000
    7        1.318678   1.000000
    8        1.784569   1.000000
    9        3.483360   1.000000
   10        4.034828   1.000000
   11        4.732585   0.664763
   12        5.417531  -0.100478
   13        6.945205   0.000000
   14        7.959749   0.000000
   15        8.517632   0.000000
   16        9.564849   0.000000
   17       10.586079   0.000000
   18       11.858439   0.000000
   19       16.508491   0.000000
   20       18.670319   0.000000
   21       19.098263   0.000000
   22       19.633981   0.000000
   23       21.123766   0.000000
   24       24.829509   0.000000
   25       26.031929   0.000000
   26       26.836728   0.000000
   27       29.768551   0.000000
   28       29.845659   0.000000
   29       30.518526   0.000000
   30       30.522977   0.000000
   31       32.567729   0.000000
   32       34.884243   0.000000
   33       38.266991   0.000000
   34       39.223114   0.000000
   35       39.436093   0.000000
   36       40.096576   0.000000
   37       40.200494   0.000000
   38       41.956711   0.000000
   39       42.112827   0.000000
   40       42.295457   0.000000
 
  0.4500000E+00  0.3500000E+00  0.5000000E-01  0.4800000E-01
    1      -25.991534   1.000000
    2      -25.932835   1.000000
    3      -25.173387   1.000000
    4      -25.100654   1.000000
    5      -24.794875   1.000000
    6      -24.728637   1.000000
    7        1.345774   1.000000
    8        1.500846   1.000000
    9        3.397686   1.000000
   10        3.586035   1.000000
   11        5.522331  -0.079333
   12        5.835754  -0.085888
   13        7.491220   0.000000
   14        7.925297   0.000000
   15        8.936125   0.000000
   16        9.882600   0.000000
   17       10.450038   0.000000
   18       11.192751   0.000000
   19       17.008286   0.000000
   20       17.783022   0.000000
   21       18.467865   0.000000
   22       18.754778   0.000000
   23       21.963286   0.000000
   24       23.322074   0.000000
   25       26.861394   0.000000
   26       27.845694   0.000000
   27       28.883060   0.000000
   28       29.965984   0.000000
   29       30.942583   0.000000
   30       31.751921   0.000000
   31       32.189525   0.000000
   32       34.539722   0.000000
   33       37.592611   0.000000
   34       38.614904   0.000000
   35       39.421035   0.000000
   36       40.407980   0.000000
   37       41.414889   0.000000
   38       41.714537   0.000000
   39       42.108568   0.000000
   40       42.179975   0.000000
 
  0.4500000E+00  0.4500000E+00  0.5000000E-01  0.2400000E-01
    1      -26.050157   1.000000
    2      -26.030109   1.000000
    3      -25.142930   1.000000
    4      -25.117781   1.000000
    5      -24.729708   1.000000
    6      -24.706728   1.000000
    7        1.178039   1.000000
    8        1.228871   1.000000
    9        3.180774   1.000000
   10        3.245153   1.000000
   11        6.582855  -0.012226
   12        6.807491  -0.000059
   13        7.930666   0.000000
   14        8.151556   0.000000
   15        8.753832   0.000000
   16        9.293966   0.000000
   17       11.121906   0.000000
   18       11.385735   0.000000
   19       16.812766   0.000000
   20       17.170118   0.000000
   21       17.548263   0.000000
   22       17.736123   0.000000
   23       22.052575   0.000000
   24       22.556293   0.000000
   25       27.572325   0.000000
   26       28.152320   0.000000
   27       29.410429   0.000000
   28       29.967012   0.000000
   29       31.245852   0.000000
   30       31.498881   0.000000
   31       33.183959   0.000000
   32       35.015217   0.000000
   33       36.128169   0.000000
   34       37.435157   0.000000
   35       38.884274   0.000000
   36       39.236964   0.000000
   37       42.163678   0.000000
   38       42.168253   0.000000
   39       42.246739   0.000000
   40       42.390261   0.000000
 
  0.1500000E+00  0.1500000E+00  0.1500000E+00  0.8000000E-02
    1      -25.667324   1.000000
    2      -25.667324   1.000000
    3      -25.294492   1.000000
    4      -25.143408   1.000000
    5      -24.743014   1.000000
    6      -24.743014   1.000000
    7        0.181497   1.000000
    8        2.010409   1.000000
    9        2.010409   1.000000
   10        4.515413   1.034167
   11        4.515413   1.093056
   12        6.198929  -0.034989
   13        6.792997   0.000000
   14        7.851938   0.000000
   15        7.851938   0.000000
   16        9.372796   0.000000
   17        9.372796   0.000000
   18       15.564946   0.000000
   19       15.564946   0.000000
   20       15.669479   0.000000
   21       21.329095   0.000000
   22       21.879801   0.000000
   23       21.879801   0.000000
   24       25.064455   0.000000
   25       25.064455   0.000000
   26       26.618971   0.000000
   27       28.364294   0.000000
   28       28.440596   0.000000
   29       28.440596   0.000000
   30       31.819965   0.000000
   31       35.651718   0.000000
   32       36.060627   0.000000
   33       37.129678   0.000000
   34       37.129678   0.000000
   35       40.884121   0.000000
   36       40.884121   0.000000
   37       42.094892   0.000000
   38       42.094892   0.000000
   39       42.158058   0.000000
   40       42.280880   0.000000
 
  0.2500000E+00  0.1500000E+00  0.1500000E+00  0.2400000E-01
    1      -25.748214   1.000000
    2      -25.570393   1.000000
    3      -25.324372   1.000000
    4      -25.169688   1.000000
    5      -24.836231   1.000000
    6      -24.743324   1.000000
    7        0.787205   1.000000
    8        2.338861   1.000000
    9        2.561862   1.000000
   10        4.265783   1.006947
   11        4.302942   1.045458
   12        5.256226   0.098977
   13        7.440461   0.000000
   14        7.558333   0.000000
   15        8.269862   0.000000
   16        8.300015   0.000000
   17        9.575610   0.000000
   18       14.037318   0.000000
   19       16.390638   0.000000
   20       17.418962   0.000000
   21       21.425879   0.000000
   22       21.478612   0.000000
   23       22.618623   0.000000
   24       24.134555   0.000000
   25       24.833369   0.000000
   26       26.600507   0.000000
   27       27.802971   0.000000
   28       28.137993   0.000000
   29       30.388615   0.000000
   30       32.671906   0.000000
   31       34.919262   0.000000
   32       34.973870   0.000000
   33       35.031799   0.000000
   34       38.251427   0.000000
   35       38.301879   0.000000
   36       41.730727   0.000000
   37       42.142919   0.000000
   38       42.271116   0.000000
   39       42.932709   0.000000
   40       43.357464   0.000000
 
  0.3500000E+00  0.1500000E+00  0.1500000E+00  0.2400000E-01
    1      -25.782708   1.000000
    2      -25.508605   1.000000
    3      -25.437366   1.000000
    4      -25.049737   1.000000
    5      -24.965586   1.000000
    6      -24.779882   1.000000
    7        1.471434   1.000000
    8        2.784935   1.000000
    9        2.855056   1.000000
   10        4.047826   1.001438
   11        4.318688   1.022809
   12        4.822013   0.494378
   13        6.996546   0.000000
   14        7.398726   0.000000
   15        8.360402   0.000000
   16        8.820224   0.000000
   17        9.278805   0.000000
   18       12.449182   0.000000
   19       17.443851   0.000000
   20       19.261556   0.000000
   21       20.181771   0.000000
   22       21.481370   0.000000
   23       23.150843   0.000000
   24       23.794389   0.000000
   25       24.633068   0.000000
   26       25.582865   0.000000
   27       27.629334   0.000000
   28       29.476239   0.000000
   29       31.930057   0.000000
   30       33.590064   0.000000
   31       34.128229   0.000000
   32       34.849680   0.000000
   33       35.058907   0.000000
   34       35.477239   0.000000
   35       37.879731   0.000000
   36       41.546402   0.000000
   37       42.084849   0.000000
   38       42.389622   0.000000
   39       42.732466   0.000000
   40       43.850222   0.000000
 
  0.4500000E+00  0.1500000E+00  0.1500000E+00  0.2400000E-01
    1      -25.755038   1.000000
    2      -25.660349   1.000000
    3      -25.281653   1.000000
    4      -25.118930   1.000000
    5      -24.940217   1.000000
    6      -24.847833   1.000000
    7        2.076871   1.000000
    8        2.578431   1.000000
    9        3.277635   1.000000
   10        3.718470   1.000000
   11        4.622116   0.983977
   12        4.824454   0.622749
   13        6.744788   0.000000
   14        6.868275   0.000000
   15        8.771322   0.000000
   16        8.941252   0.000000
   17        9.715074   0.000000
   18       10.979923   0.000000
   19       18.308648   0.000000
   20       19.041501   0.000000
   21       20.686888   0.000000
   22       21.349936   0.000000
   23       23.135743   0.000000
   24       24.202845   0.000000
   25       24.575548   0.000000
   26       24.618202   0.000000
   27       28.494693   0.000000
   28       29.436170   0.000000
   29       31.838453   0.000000
   30       33.085269   0.000000
   31       34.772543   0.000000
   32       35.169619   0.000000
   33       35.714087   0.000000
   34       36.472970   0.000000
   35       36.669190   0.000000
   36       39.459871   0.000000
   37       41.160940   0.000000
   38       41.811841   0.000000
   39       42.798193   0.000000
   40       43.624024   0.000000
 
  0.2500000E+00  0.2500000E+00  0.1500000E+00  0.2400000E-01
    1      -25.790967   1.000000
    2      -25.546240   1.000000
    3      -25.489117   1.000000
    4      -25.048041   1.000000
    5      -24.886203   1.000000
    6      -24.754340   1.000000
    7        1.275511   1.000000
    8        2.539708   1.000000
    9        3.132636   1.000000
   10        3.893624   1.000000
   11        4.164002   1.001432
   12        4.421639   0.821814
   13        7.762274   0.000000
   14        7.912854   0.000000
   15        8.229914   0.000000
   16        8.487764   0.000000
   17        9.602347   0.000000
   18       14.576991   0.000000
   19       15.764287   0.000000
   20       17.688018   0.000000
   21       20.683794   0.000000
   22       21.269285   0.000000
   23       23.057855   0.000000
   24       23.795962   0.000000
   25       24.964706   0.000000
   26       25.075736   0.000000
   27       27.891205   0.000000
   28       29.219243   0.000000
   29       30.803281   0.000000
   30       33.788252   0.000000
   31       34.072050   0.000000
   32       34.499194   0.000000
   33       34.817552   0.000000
   34       38.062520   0.000000
   35       38.430656   0.000000
   36       39.984195   0.000000
   37       42.169956   0.000000
   38       42.275696   0.000000
   39       43.693851   0.000000
   40       44.769044   0.000000
 
  0.3500000E+00  0.2500000E+00  0.1500000E+00  0.4800000E-01
    1      -25.844246   1.000000
    2      -25.652901   1.000000
    3      -25.432582   1.000000
    4      -24.995276   1.000000
    5      -24.943665   1.000000
    6      -24.767210   1.000000
    7        1.701501   1.000000
    8        2.506958   1.000000
    9        3.548829   1.000000
   10        3.695432   1.000000
   11        4.283272   1.011675
   12        4.293840   1.033114
   13        7.437861   0.000000
   14        7.601134   0.000000
   15        8.604021   0.000000
   16        9.457946   0.000000
   17        9.487521   0.000000
   18       13.304627   0.000000
   19       16.445300   0.000000
   20       18.760743   0.000000
   21       19.581180   0.000000
   22       20.494946   0.000000
   23       22.797528   0.000000
   24       23.827741   0.000000
   25       24.351277   0.000000
   26       25.273803   0.000000
   27       28.410245   0.000000
   28       29.462102   0.000000
   29       32.222403   0.000000
   30       32.663075   0.000000
   31       34.373799   0.000000
   32       35.190643   0.000000
   33       35.437975   0.000000
   34       36.860773   0.000000
   35       37.852420   0.000000
   36       40.312657   0.000000
   37       41.945383   0.000000
   38       42.161436   0.000000
   39       42.645701   0.000000
   40       44.221515   0.000000
 
  0.4500000E+00  0.2500000E+00  0.1500000E+00  0.4800000E-01
    1      -25.845276   1.000000
    2      -25.779346   1.000000
    3      -25.287416   1.000000
    4      -25.135258   1.000000
    5      -24.860769   1.000000
    6      -24.801699   1.000000
    7        1.985874   1.000000
    8        2.257718   1.000000
    9        3.566582   1.000000
   10        3.607943   1.000000
   11        4.603403   0.938073
   12        4.641798   0.877877
   13        7.318554   0.000000
   14        7.400534   0.000000
   15        8.899600   0.000000
   16        9.137591   0.000000
   17       10.546312   0.000000
   18       11.843273   0.000000
   19       17.369602   0.000000
   20       18.347789   0.000000
   21       19.658788   0.000000