Automatically generated mesh
      35
Reciprocal lattice
    0.05000000000000    0.05000000000000    0.05000000000000             8
    0.15000000000000    0.05000000000000    0.05000000000000            24
    0.25000000000000    0.05000000000000    0.05000000000000            24
    0.35000000000000    0.05000000000000    0.05000000000000            24
    0.45000000000000    0.05000000000000    0.05000000000000            24
    0.15000000000000    0.15000000000000    0.05000000000000            24
    0.25000000000000    0.15000000000000    0.05000000000000            48
    0.35000000000000    0.15000000000000    0.05000000000000            48
    0.45000000000000    0.15000000000000    0.05000000000000            48
    0.25000000000000    0.25000000000000    0.05000000000000            24
    0.35000000000000    0.25000000000000    0.05000000000000            48
    0.45000000000000    0.25000000000000    0.05000000000000            48
    0.35000000000000    0.35000000000000    0.05000000000000            24
    0.45000000000000    0.35000000000000    0.05000000000000            48
    0.45000000000000    0.45000000000000    0.05000000000000            24
    0.15000000000000    0.15000000000000    0.15000000000000             8
    0.25000000000000    0.15000000000000    0.15000000000000            24
    0.35000000000000    0.15000000000000    0.15000000000000            24
    0.45000000000000    0.15000000000000    0.15000000000000            24
    0.25000000000000    0.25000000000000    0.15000000000000            24
    0.35000000000000    0.25000000000000    0.15000000000000            48
    0.45000000000000    0.25000000000000    0.15000000000000            48
    0.35000000000000    0.35000000000000    0.15000000000000            24
    0.45000000000000    0.35000000000000    0.15000000000000            48
    0.45000000000000    0.45000000000000    0.15000000000000            24
    0.25000000000000    0.25000000000000    0.25000000000000             8
    0.35000000000000    0.25000000000000    0.25000000000000            24
    0.45000000000000    0.25000000000000    0.25000000000000            24
    0.35000000000000    0.35000000000000    0.25000000000000            24
    0.45000000000000    0.35000000000000    0.25000000000000            48
    0.45000000000000    0.45000000000000    0.25000000000000            24
    0.35000000000000    0.35000000000000    0.35000000000000             8
    0.45000000000000    0.35000000000000    0.35000000000000            24
    0.45000000000000    0.45000000000000    0.35000000000000            24
    0.45000000000000    0.45000000000000    0.45000000000000             8
Tetrahedra
       466    0.00016666666667
        24         1         2         2         6
        18         2         2         6         6
        12         2         6         6        16
        12         2         3         6         7
        24         2         6         6         7
        12         6         6         7        16
        24         3         6         7         7
        24         6         7         7        17
        24         6         7        16        17
        12         3         4         7         8
        24         3         7         7         8
        12         7         7         8        17
        24         4         7         8         8
        12         7         8         8        18
        12         7         8        17        18
        12         4         5         8         9
        24         4         8         8         9
        12         8         8         9        18
        24         5         8         9         9
        12         8         9         9        19
        12         8         9        18        19
        30         5         5         9         9
        36         5         9         9         9
        12         9         9         9        19
         6         9         9        19        19
        18         1         1         2         2
        24         1         2         2         2
        12         2         2         2         6
        12         6         7        10        16
        12         7        10        16        17
        12        10        16        17        20
        12         7         8        11        17
        12         7        10        11        17
        12        10        11        17        20
        12         8        11        17        18
        12        11        17        18        21
        12        11        17        20        21
        12         8         9        12        18
        12         8        11        12        18
        12        11        12        18        21
        12         9        12        18        19
        12        12        18        19        22
        12        12        18        21        22
        12         9         9        12        19
        12         9        12        12        19
        12        12        12        19        22
        12         9        12        19        19
        12        12        19        19        22
        12        12        19        22        22
        12         8         9        11        19
        12         9        11        12        19
        12        11        12        19        22
        12         8        11        18        19
        12        11        18        19        21
        12        11        19        21        22
        12         7         8        10        18
        12         8        10        11        18
        12        10        11        18        21
        12         7        10        17        18
        12        10        17        18        20
        12        10        18        20        21
        12         7         7        10        17
        12         7        10        17        20
        12         7        16        17        17
        12         7        17        17        20
        12         2         3         6        16
        12         3         6         7        16
        12         3         7        16        17
        12         2         2         3         6
        12         2         3         3         6
        12         3         3         6         7
        12         2         3         6         6
        12         3         6         6         7
        12        10        11        13        20
        12        11        13        20        21
        12        13        20        21        23
        12        11        12        14        21
        12        11        13        14        21
        12        13        14        21        23
        12        12        14        21        22
        12        14        21        22        24
        12        14        21        23        24
        12        12        12        14        22
        12        12        14        14        22
        12        14        14        22        24
        12        12        14        22        22
        12        14        22        22        24
        12        14        22        24        24
        12        11        12        13        22
        12        12        13        14        22
        12        13        14        22        24
        12        11        13        21        22
        12        13        21        22        23
        12        13        22        23        24
        12        10        11        11        21
        12        11        11        13        21
        12        11        13        21        23
        12        10        11        20        21
        12        11        20        21        21
        12        11        21        21        23
        12         7         8        10        20
        12         8        10        11        20
        12         8        11        20        21
        12         7         8        17        20
        12         8        17        18        20
        12         8        18        20        21
        12         3         4         7        17
        12         4         7         8        17
        12         4         8        17        18
        12         3         3         4         7
        12         3         4         4         7
        12         4         4         7         8
        12         3         4         7         7
        12         4         7         7         8
        12        13        14        15        23
        12        14        15        23        24
        12        15        23        24        25
        24        14        14        15        24
        12        14        15        15        24
        12        15        15        24        25
        12        14        15        24        24
        12        15        24        24        25
        12        15        24        25        25
        12        13        14        14        24
        12        14        15        24        25
        12        13        14        23        24
        12        14        23        24        24
        24        14        24        24        25
        12        11        12        13        23
        12        12        13        14        23
        12        12        14        23        24
        12        11        12        21        23
        12        12        21        22        23
        12        12        22        23        24
        12         8         9        11        21
        12         9        11        12        21
        12         9        12        21        22
        12         8         9        18        21
        12         9        18        19        21
        12         9        19        21        22
        12         4         5         8        18
        12         5         8         9        18
        12         5         9        18        19
        12         4         4         5         8
        12         4         5         5         8
        12         5         5         8         9
        12         4         5         8         8
        12         5         8         8         9
        12        15        15        15        25
        12        15        15        25        25
        12        15        25        25        25
        12        14        14        15        25
        12        14        15        15        25
        12        14        15        25        25
        12        14        14        24        25
        12        14        24        25        25
        12        12        12        14        24
        12        12        14        14        24
        12        12        14        24        24
        12        12        12        22        24
        12        12        22        22        24
        12        12        22        24        24
        12         9         9        12        22
        12         9        12        12        22
        12         9        12        22        22
        12         9         9        19        22
        12         9        19        19        22
        12         9        19        22        22
        12         5         5         9        19
        12         5         9         9        19
        12         5         9        19        19
        24         5         5         5         9
        12        13        14        15        25
        12        13        14        24        25
        12        13        23        24        25
        12        11        12        14        24
        12        11        13        14        24
        12        11        13        23        24
        12        11        12        22        24
        12        11        21        22        24
        12        11        21        23        24
        12         8         9        12        22
        12         8        11        12        22
        12         8        11        21        22
        12         8         9        19        22
        12         8        18        19        22
        12         8        18        21        22
        12         4         5         9        19
        12         4         8         9        19
        12         4         8        18        19
        12         4         5         5         9
        12         4         4         5         9
        12         4         4         8         9
        12         4         5         9         9
        12         4         8         9         9
        12        10        11        13        23
        12        10        11        21        23
        12        10        20        21        23
        12         7         8        11        21
        12         7        10        11        21
        12         7        10        20        21
        12         7         8        18        21
        12         7        17        18        21
        12         7        17        20        21
        12         3         4         8        18
        12         3         7         8        18
        12         3         7        17        18
        12         3         4         4         8
        12         3         3         4         8
        12         3         3         7         8
        12         3         4         8         8
        12         3         7         8         8
        12         6         7        10        20
        12         6         7        17        20
        12         6        16        17        20
        12         2         3         7        17
        12         2         6         7        17
        12         2         6        16        17
        12         2         3         3         7
        12         2         2         3         7
        12         2         2         6         7
        12         2         3         7         7
        12         2         6         7         7
        12         1         2         6        16
        12         1         1         2         6
        12         1         2         6         6
        12         1         1         1         2
        12        16        17        17        20
        12        17        17        20        20
        12        17        20        20        26
        12        17        18        20        21
        12        17        20        20        21
        12        20        20        21        26
        12        18        20        21        21
        24        20        21        21        27
        24        20        21        26        27
        12        18        19        21        22
        12        18        21        21        22
        12        21        21        22        27
        12        19        21        22        22
        12        21        22        22        28
        12        21        22        27        28
         6        19        19        22        22
        12        19        22        22        22
        12        22        22        22        28
         6        22        22        28        28
         6         6         6         7         7
        12         6         7         7         7
        12         7         7         7        10
         6         7         7        10        10
        12        20        21        23        26
        12        21        23        26        27
        12        23        26        27        29
        12        21        22        24        27
        12        21        23        24        27
        12        23        24        27        29
        12        22        24        27        28
        12        24        27        28        30
        12        24        27        29        30
        12        22        22        24        28
        12        22        24        24        28
        12        24        24        28        30
        12        22        24        28        28
        12        24        28        28        30
        12        24        28        30        30
        12        21        22        23        28
        12        22        23        24        28
        12        23        24        28        30
        12        21        23        27        28
        12        23        27        28        29
        12        23        28        29        30
        12        21        21        23        27
        12        21        23        27        29
        12        21        26        27        27
        12        21        27        27        29
        12        17        18        20        26
        12        18        20        21        26
        12        18        21        26        27
        12         7         7         8        10
        12         7         8         8        10
        12         8         8        10        11
        12         7         8        10        10
        12         8        10        10        11
        12         8        10        11        11
        12        23        24        25        29
        12        24        25        29        30
        12        25        29        30        31
        24        24        24        25        30
        12        24        25        25        30
        12        25        25        30        31
        12        24        25        30        30
        12        25        30        30        31
        12        25        30        31        31
        12        23        24        24        30
        12        24        25        30        31
        12        23        24        29        30
        12        24        29        30        30
        24        24        30        30        31
        12        21        22        23        29
        12        22        23        24        29
        12        22        24        29        30
        12        21        22        27        29
        12        22        27        28        29
        12        22        28        29        30
        12        18        19        21        27
        12        19        21        22        27
        12        19        22        27        28
        12         8         8         9        11
        12         8         9         9        11
        12         9         9        11        12
        12         8         9        11        11
        12         9        11        11        12
        12         9        11        12        12
        12        25        25        25        31
        12        25        25        31        31
        12        25        31        31        31
        12        24        24        25        31
        12        24        25        25        31
        12        24        25        31        31
        12        24        24        30        31
        12        24        30        31        31
        12        22        22        24        30
        12        22        24        24        30
        12        22        24        30        30
        12        22        22        28        30
        12        22        28        28        30
        12        22        28        30        30
        12        19        19        22        28
        12        19        22        22        28
        12        19        22        28        28
        24         9         9         9        12
        24         9         9        12        12
        24         9        12        12        12
        12        23        24        25        31
        12        23        24        30        31
        12        23        29        30        31
        12        21        22        24        30
        12        21        23        24        30
        12        21        23        29        30
        12        21        22        28        30
        12        21        27        28        30
        12        21        27        29        30
        12        18        19        22        28
        12        18        21        22        28
        12        18        21        27        28
        12         8         9         9        12
        12         8         8         9        12
        12         8         8        11        12
        12         8         9        12        12
        12         8        11        12        12
        12         8        11        11        12
        12        20        21        23        29
        12        20        21        27        29
        12        20        26        27        29
        12        17        18        21        27
        12        17        20        21        27
        12        17        20        26        27
        12         7         8         8        11
        12         7         7         8        11
        12         7         7        10        11
        12         7         8        11        11
        12         7        10        11        11
        12         7        10        10        11
        12        16        17        20        26
        12         6         7         7        10
        12         6         6         7        10
        12         6         7        10        10
        12         2         2         2         3
        12         2         2         3         3
        12         2         3         3         3
        12        26        27        27        29
        12        27        27        29        29
        12        27        29        29        32
        12        27        28        29        30
        12        27        29        29        30
        12        29        29        30        32
        12        28        29        30        30
        24        29        30        30        33
        24        29        30        32        33
         6        28        28        30        30
        12        28        30        30        30
        12        30        30        30        33
         6        30        30        33        33
         6        10        10        11        11
        12        10        11        11        11
        12        11        11        11        13
         6        11        11        13        13
        12        29        30        31        32
        12        30        31        32        33
        12        31        32        33        34
        24        30        30        31        33
        12        30        31        31        33
        12        31        31        33        34
        12        30        31        33        33
        12        31        33        33        34
        12        31        33        34        34
        12        30        31        33        34
        12        30        32        33        33
        24        30        33        33        34
        12        27        28        29        32
        12        28        29        30        32
        12        28        30        32        33
        12        11        11        12        13
        12        11        12        12        13
        12        12        12        13        14
        12        11        12        13        13
        12        12        13        13        14
        12        12        13        14        14
        12        31        31        31        34
        12        31        31        34        34
        12        31        34        34        34
        12        30        30        31        34
        12        30        31        31        34
        12        30        31        34        34
        12        30        30        33        34
        12        30        33        34        34
        12        28        28        30        33
        12        28        30        30        33
        12        28        30        33        33
        24        12        12        12        14
        24        12        12        14        14
        24        12        14        14        14
        12        29        30        31        34
        12        29        30        33        34
        12        29        32        33        34
        12        27        28        30        33
        12        27        29        30        33
        12        27        29        32        33
        12        11        12        12        14
        12        11        11        12        14
        12        11        11        13        14
        12        11        12        14        14
        12        11        13        14        14
        12        11        13        13        14
        12        26        27        29        32
        12        10        11        11        13
        12        10        10        11        13
        12        10        11        13        13
        12         3         3         3         4
        12         3         3         4         4
        12         3         4         4         4
        12        32        33        33        34
        18        33        33        34        34
        24        33        34        34        35
        12        33        34        34        34
        24        34        34        34        35
        18        34        34        35        35
         6        13        13        14        14
        12        13        14        14        14
        36        14        14        14        15
        30        14        14        15        15
        12        34        35        35        35
        12        33        33        34        35
        12        33        34        35        35
        24        14        15        15        15
        12        32        33        34        35
        12        13        14        14        15
        12        13        13        14        15
        12        13        14        15        15
        12         4         4         4         5
        12         4         4         5         5
        12         4         5         5         5
         6        35        35        35        35
        18        15        15        15        15
        18         5         5         5         5
         6         1         1         1         1
