       N       E                     dE             d eps       ncg     rms          rms(c)
DAV:   1    -0.236970316457E+01   -0.23697E+01   -0.10953E+04  2880   0.405E+02
DAV:   2    -0.233527328497E+02   -0.20983E+02   -0.20522E+02  3720   0.568E+01
DAV:   3    -0.233751717464E+02   -0.22439E-01   -0.22441E-01  3200   0.199E+00
DAV:   4    -0.233751794995E+02   -0.77531E-05   -0.77604E-05  5160   0.348E-02
DAV:   5    -0.233751794997E+02   -0.16144E-09   -0.41192E-11  3200   0.254E-05    0.257E+01
DAV:   6    -0.224947570792E+02    0.88042E+00   -0.13479E+00  4840   0.474E+00    0.116E+01
DAV:   7    -0.222880936072E+02    0.20666E+00   -0.73670E-01  4600   0.323E+00    0.845E-01
DAV:   8    -0.222815115063E+02    0.65821E-02   -0.11769E-02  4160   0.499E-01    0.132E-01
DAV:   9    -0.222814780142E+02    0.33492E-04   -0.14007E-04  4240   0.522E-02    0.145E-02
DAV:  10    -0.222814794604E+02   -0.14461E-05   -0.49800E-06  4680   0.643E-03    0.251E-03
DAV:  11    -0.222814793403E+02    0.12004E-06   -0.20195E-08  3160   0.711E-04    0.163E-03
DAV:  12    -0.222814791563E+02    0.18407E-06   -0.46896E-08  2200   0.102E-03    0.262E-05
DAV:  13    -0.222814791580E+02   -0.17271E-08   -0.53644E-10  1400   0.724E-05
   1 F= -.22281479E+02 E0= -.22281479E+02  d E =0.000000E+00
