<?xml version="1.0" encoding="ISO-8859-1"?>
<modeling>
 <generator>
  <i name="program" type="string">vasp </i>
  <i name="version" type="string">5.4.4.18Apr17-6-g9f103f2a35  </i>
  <i name="subversion" type="string">(build May 20 2018 16:52:39) complex            parallel </i>
  <i name="platform" type="string">LinuxIFC </i>
  <i name="date" type="string">2022 11 17 </i>
  <i name="time" type="string">21:34:40 </i>
 </generator>
 <incar>
  <i type="string" name="SYSTEM"> Nb</i>
  <i type="string" name="PREC">normal</i>
  <i name="EDIFF">      0.00000010</i>
  <i name="ENCUT">    300.00000000</i>
  <i type="int" name="ISMEAR">    -5</i>
  <v type="int" name="KPOINT_BSE">    -1     0     0     0</v>
 </incar>
 <structure name="primitive_cell" >
  <crystal>
   <varray name="basis" >
    <v>       1.65040000       1.65040000       1.65040000 </v>
    <v>       1.65040000      -1.65040000      -1.65040000 </v>
    <v>      -1.65040000       1.65040000      -1.65040000 </v>
   </varray>
   <i name="volume">     17.98157117 </i>
   <varray name="rec_basis" >
    <v>       0.30295686       0.30295686       0.00000000 </v>
    <v>       0.30295686      -0.00000000      -0.30295686 </v>
    <v>      -0.00000000       0.30295686      -0.30295686 </v>
   </varray>
  </crystal>
  <varray name="positions" >
   <v>       0.00000000       0.00000000       0.00000000 </v>
  </varray>
 </structure>
 <varray name="primitive_index" >
  <v type="int" >        1 </v>
 </varray>
 <kpoints>
  <generation param="Monkhorst-Pack">
   <v type="int" name="divisions">      10       10       10 </v>
   <v name="usershift">      0.00000000       0.00000000       0.00000000 </v>
   <v name="genvec1">      0.10000000       0.00000000       0.00000000 </v>
   <v name="genvec2">      0.00000000       0.10000000       0.00000000 </v>
   <v name="genvec3">      0.00000000       0.00000000       0.10000000 </v>
   <v name="shift">      0.50000000       0.50000000       0.50000000 </v>
  </generation>
  <varray name="kpointlist" >
   <v>       0.05000000       0.05000000       0.05000000 </v>
   <v>       0.15000000       0.05000000       0.05000000 </v>
   <v>       0.25000000       0.05000000       0.05000000 </v>
   <v>       0.35000000       0.05000000       0.05000000 </v>
   <v>       0.45000000       0.05000000       0.05000000 </v>
   <v>       0.15000000       0.15000000       0.05000000 </v>
   <v>       0.25000000       0.15000000       0.05000000 </v>
   <v>       0.35000000       0.15000000       0.05000000 </v>
   <v>       0.45000000       0.15000000       0.05000000 </v>
   <v>       0.25000000       0.25000000       0.05000000 </v>
   <v>       0.35000000       0.25000000       0.05000000 </v>
   <v>       0.45000000       0.25000000       0.05000000 </v>
   <v>       0.35000000       0.35000000       0.05000000 </v>
   <v>       0.45000000       0.35000000       0.05000000 </v>
   <v>       0.45000000       0.45000000       0.05000000 </v>
   <v>       0.15000000       0.15000000       0.15000000 </v>
   <v>       0.25000000       0.15000000       0.15000000 </v>
   <v>       0.35000000       0.15000000       0.15000000 </v>
   <v>       0.45000000       0.15000000       0.15000000 </v>
   <v>       0.25000000       0.25000000       0.15000000 </v>
   <v>       0.35000000       0.25000000       0.15000000 </v>
   <v>       0.45000000       0.25000000       0.15000000 </v>
   <v>       0.35000000       0.35000000       0.15000000 </v>
   <v>       0.45000000       0.35000000       0.15000000 </v>
   <v>       0.45000000       0.45000000       0.15000000 </v>
   <v>       0.25000000       0.25000000       0.25000000 </v>
   <v>       0.35000000       0.25000000       0.25000000 </v>
   <v>       0.45000000       0.25000000       0.25000000 </v>
   <v>       0.35000000       0.35000000       0.25000000 </v>
   <v>       0.45000000       0.35000000       0.25000000 </v>
   <v>       0.45000000       0.45000000       0.25000000 </v>
   <v>       0.35000000       0.35000000       0.35000000 </v>
   <v>       0.45000000       0.35000000       0.35000000 </v>
   <v>       0.45000000       0.45000000       0.35000000 </v>
   <v>       0.45000000       0.45000000       0.45000000 </v>
  </varray>
  <varray name="weights" >
   <v>       0.00800000 </v>
   <v>       0.02400000 </v>
   <v>       0.02400000 </v>
   <v>       0.02400000 </v>
   <v>       0.02400000 </v>
   <v>       0.02400000 </v>
   <v>       0.04800000 </v>
   <v>       0.04800000 </v>
   <v>       0.04800000 </v>
   <v>       0.02400000 </v>
   <v>       0.04800000 </v>
   <v>       0.04800000 </v>
   <v>       0.02400000 </v>
   <v>       0.04800000 </v>
   <v>       0.02400000 </v>
   <v>       0.00800000 </v>
   <v>       0.02400000 </v>
   <v>       0.02400000 </v>
   <v>       0.02400000 </v>
   <v>       0.02400000 </v>
   <v>       0.04800000 </v>
   <v>       0.04800000 </v>
   <v>       0.02400000 </v>
   <v>       0.04800000 </v>
   <v>       0.02400000 </v>
   <v>       0.00800000 </v>
   <v>       0.02400000 </v>
   <v>       0.02400000 </v>
   <v>       0.02400000 </v>
   <v>       0.04800000 </v>
   <v>       0.02400000 </v>
   <v>       0.00800000 </v>
   <v>       0.02400000 </v>
   <v>       0.02400000 </v>
   <v>       0.00800000 </v>
  </varray>
  <varray name="tetrahedronlist"  type="int" >
   <v type="int" >       24        1        2        2        6 </v>
   <v type="int" >       18        2        2        6        6 </v>
   <v type="int" >       12        2        6        6       16 </v>
   <v type="int" >       12        2        3        6        7 </v>
   <v type="int" >       24        2        6        6        7 </v>
   <v type="int" >       12        6        6        7       16 </v>
   <v type="int" >       24        3        6        7        7 </v>
   <v type="int" >       24        6        7        7       17 </v>
   <v type="int" >       24        6        7       16       17 </v>
   <v type="int" >       12        3        4        7        8 </v>
   <v type="int" >       24        3        7        7        8 </v>
   <v type="int" >       12        7        7        8       17 </v>
   <v type="int" >       24        4        7        8        8 </v>
   <v type="int" >       12        7        8        8       18 </v>
   <v type="int" >       12        7        8       17       18 </v>
   <v type="int" >       12        4        5        8        9 </v>
   <v type="int" >       24        4        8        8        9 </v>
   <v type="int" >       12        8        8        9       18 </v>
   <v type="int" >       24        5        8        9        9 </v>
   <v type="int" >       12        8        9        9       19 </v>
   <v type="int" >       12        8        9       18       19 </v>
   <v type="int" >       30        5        5        9        9 </v>
   <v type="int" >       36        5        9        9        9 </v>
   <v type="int" >       12        9        9        9       19 </v>
   <v type="int" >        6        9        9       19       19 </v>
   <v type="int" >       18        1        1        2        2 </v>
   <v type="int" >       24        1        2        2        2 </v>
   <v type="int" >       12        2        2        2        6 </v>
   <v type="int" >       12        6        7       10       16 </v>
   <v type="int" >       12        7       10       16       17 </v>
   <v type="int" >       12       10       16       17       20 </v>
   <v type="int" >       12        7        8       11       17 </v>
   <v type="int" >       12        7       10       11       17 </v>
   <v type="int" >       12       10       11       17       20 </v>
   <v type="int" >       12        8       11       17       18 </v>
   <v type="int" >       12       11       17       18       21 </v>
   <v type="int" >       12       11       17       20       21 </v>
   <v type="int" >       12        8        9       12       18 </v>
   <v type="int" >       12        8       11       12       18 </v>
   <v type="int" >       12       11       12       18       21 </v>
   <v type="int" >       12        9       12       18       19 </v>
   <v type="int" >       12       12       18       19       22 </v>
   <v type="int" >       12       12       18       21       22 </v>
   <v type="int" >       12        9        9       12       19 </v>
   <v type="int" >       12        9       12       12       19 </v>
   <v type="int" >       12       12       12       19       22 </v>
   <v type="int" >       12        9       12       19       19 </v>
   <v type="int" >       12       12       19       19       22 </v>
   <v type="int" >       12       12       19       22       22 </v>
   <v type="int" >       12        8        9       11       19 </v>
   <v type="int" >       12        9       11       12       19 </v>
   <v type="int" >       12       11       12       19       22 </v>
   <v type="int" >       12        8       11       18       19 </v>
   <v type="int" >       12       11       18       19       21 </v>
   <v type="int" >       12       11       19       21       22 </v>
   <v type="int" >       12        7        8       10       18 </v>
   <v type="int" >       12        8       10       11       18 </v>
   <v type="int" >       12       10       11       18       21 </v>
   <v type="int" >       12        7       10       17       18 </v>
   <v type="int" >       12       10       17       18       20 </v>
   <v type="int" >       12       10       18       20       21 </v>
   <v type="int" >       12        7        7       10       17 </v>
   <v type="int" >       12        7       10       17       20 </v>
   <v type="int" >       12        7       16       17       17 </v>
   <v type="int" >       12        7       17       17       20 </v>
   <v type="int" >       12        2        3        6       16 </v>
   <v type="int" >       12        3        6        7       16 </v>
   <v type="int" >       12        3        7       16       17 </v>
   <v type="int" >       12        2        2        3        6 </v>
   <v type="int" >       12        2        3        3        6 </v>
   <v type="int" >       12        3        3        6        7 </v>
   <v type="int" >       12        2        3        6        6 </v>
   <v type="int" >       12        3        6        6        7 </v>
   <v type="int" >       12       10       11       13       20 </v>
   <v type="int" >       12       11       13       20       21 </v>
   <v type="int" >       12       13       20       21       23 </v>
   <v type="int" >       12       11       12       14       21 </v>
   <v type="int" >       12       11       13       14       21 </v>
   <v type="int" >       12       13       14       21       23 </v>
   <v type="int" >       12       12       14       21       22 </v>
   <v type="int" >       12       14       21       22       24 </v>
   <v type="int" >       12       14       21       23       24 </v>
   <v type="int" >       12       12       12       14       22 </v>
   <v type="int" >       12       12       14       14       22 </v>
   <v type="int" >       12       14       14       22       24 </v>
   <v type="int" >       12       12       14       22       22 </v>
   <v type="int" >       12       14       22       22       24 </v>
   <v type="int" >       12       14       22       24       24 </v>
   <v type="int" >       12       11       12       13       22 </v>
   <v type="int" >       12       12       13       14       22 </v>
   <v type="int" >       12       13       14       22       24 </v>
   <v type="int" >       12       11       13       21       22 </v>
   <v type="int" >       12       13       21       22       23 </v>
   <v type="int" >       12       13       22       23       24 </v>
   <v type="int" >       12       10       11       11       21 </v>
   <v type="int" >       12       11       11       13       21 </v>
   <v type="int" >       12       11       13       21       23 </v>
   <v type="int" >       12       10       11       20       21 </v>
   <v type="int" >       12       11       20       21       21 </v>
   <v type="int" >       12       11       21       21       23 </v>
   <v type="int" >       12        7        8       10       20 </v>
   <v type="int" >       12        8       10       11       20 </v>
   <v type="int" >       12        8       11       20       21 </v>
   <v type="int" >       12        7        8       17       20 </v>
   <v type="int" >       12        8       17       18       20 </v>
   <v type="int" >       12        8       18       20       21 </v>
   <v type="int" >       12        3        4        7       17 </v>
   <v type="int" >       12        4        7        8       17 </v>
   <v type="int" >       12        4        8       17       18 </v>
   <v type="int" >       12        3        3        4        7 </v>
   <v type="int" >       12        3        4        4        7 </v>
   <v type="int" >       12        4        4        7        8 </v>
   <v type="int" >       12        3        4        7        7 </v>
   <v type="int" >       12        4        7        7        8 </v>
   <v type="int" >       12       13       14       15       23 </v>
   <v type="int" >       12       14       15       23       24 </v>
   <v type="int" >       12       15       23       24       25 </v>
   <v type="int" >       24       14       14       15       24 </v>
   <v type="int" >       12       14       15       15       24 </v>
   <v type="int" >       12       15       15       24       25 </v>
   <v type="int" >       12       14       15       24       24 </v>
   <v type="int" >       12       15       24       24       25 </v>
   <v type="int" >       12       15       24       25       25 </v>
   <v type="int" >       12       13       14       14       24 </v>
   <v type="int" >       12       14       15       24       25 </v>
   <v type="int" >       12       13       14       23       24 </v>
   <v type="int" >       12       14       23       24       24 </v>
   <v type="int" >       24       14       24       24       25 </v>
   <v type="int" >       12       11       12       13       23 </v>
   <v type="int" >       12       12       13       14       23 </v>
   <v type="int" >       12       12       14       23       24 </v>
   <v type="int" >       12       11       12       21       23 </v>
   <v type="int" >       12       12       21       22       23 </v>
   <v type="int" >       12       12       22       23       24 </v>
   <v type="int" >       12        8        9       11       21 </v>
   <v type="int" >       12        9       11       12       21 </v>
   <v type="int" >       12        9       12       21       22 </v>
   <v type="int" >       12        8        9       18       21 </v>
   <v type="int" >       12        9       18       19       21 </v>
   <v type="int" >       12        9       19       21       22 </v>
   <v type="int" >       12        4        5        8       18 </v>
   <v type="int" >       12        5        8        9       18 </v>
   <v type="int" >       12        5        9       18       19 </v>
   <v type="int" >       12        4        4        5        8 </v>
   <v type="int" >       12        4        5        5        8 </v>
   <v type="int" >       12        5        5        8        9 </v>
   <v type="int" >       12        4        5        8        8 </v>
   <v type="int" >       12        5        8        8        9 </v>
   <v type="int" >       12       15       15       15       25 </v>
   <v type="int" >       12       15       15       25       25 </v>
   <v type="int" >       12       15       25       25       25 </v>
   <v type="int" >       12       14       14       15       25 </v>
   <v type="int" >       12       14       15       15       25 </v>
   <v type="int" >       12       14       15       25       25 </v>
   <v type="int" >       12       14       14       24       25 </v>
   <v type="int" >       12       14       24       25       25 </v>
   <v type="int" >       12       12       12       14       24 </v>
   <v type="int" >       12       12       14       14       24 </v>
   <v type="int" >       12       12       14       24       24 </v>
   <v type="int" >       12       12       12       22       24 </v>
   <v type="int" >       12       12       22       22       24 </v>
   <v type="int" >       12       12       22       24       24 </v>
   <v type="int" >       12        9        9       12       22 </v>
   <v type="int" >       12        9       12       12       22 </v>
   <v type="int" >       12        9       12       22       22 </v>
   <v type="int" >       12        9        9       19       22 </v>
   <v type="int" >       12        9       19       19       22 </v>
   <v type="int" >       12        9       19       22       22 </v>
   <v type="int" >       12        5        5        9       19 </v>
   <v type="int" >       12        5        9        9       19 </v>
   <v type="int" >       12        5        9       19       19 </v>
   <v type="int" >       24        5        5        5        9 </v>
   <v type="int" >       12       13       14       15       25 </v>
   <v type="int" >       12       13       14       24       25 </v>
   <v type="int" >       12       13       23       24       25 </v>
   <v type="int" >       12       11       12       14       24 </v>
   <v type="int" >       12       11       13       14       24 </v>
   <v type="int" >       12       11       13       23       24 </v>
   <v type="int" >       12       11       12       22       24 </v>
   <v type="int" >       12       11       21       22       24 </v>
   <v type="int" >       12       11       21       23       24 </v>
   <v type="int" >       12        8        9       12       22 </v>
   <v type="int" >       12        8       11       12       22 </v>
   <v type="int" >       12        8       11       21       22 </v>
   <v type="int" >       12        8        9       19       22 </v>
   <v type="int" >       12        8       18       19       22 </v>
   <v type="int" >       12        8       18       21       22 </v>
   <v type="int" >       12        4        5        9       19 </v>
   <v type="int" >       12        4        8        9       19 </v>
   <v type="int" >       12        4        8       18       19 </v>
   <v type="int" >       12        4        5        5        9 </v>
   <v type="int" >       12        4        4        5        9 </v>
   <v type="int" >       12        4        4        8        9 </v>
   <v type="int" >       12        4        5        9        9 </v>
   <v type="int" >       12        4        8        9        9 </v>
   <v type="int" >       12       10       11       13       23 </v>
   <v type="int" >       12       10       11       21       23 </v>
   <v type="int" >       12       10       20       21       23 </v>
   <v type="int" >       12        7        8       11       21 </v>
   <v type="int" >       12        7       10       11       21 </v>
   <v type="int" >       12        7       10       20       21 </v>
   <v type="int" >       12        7        8       18       21 </v>
   <v type="int" >       12        7       17       18       21 </v>
   <v type="int" >       12        7       17       20       21 </v>
   <v type="int" >       12        3        4        8       18 </v>
   <v type="int" >       12        3        7        8       18 </v>
   <v type="int" >       12        3        7       17       18 </v>
   <v type="int" >       12        3        4        4        8 </v>
   <v type="int" >       12        3        3        4        8 </v>
   <v type="int" >       12        3        3        7        8 </v>
   <v type="int" >       12        3        4        8        8 </v>
   <v type="int" >       12        3        7        8        8 </v>
   <v type="int" >       12        6        7       10       20 </v>
   <v type="int" >       12        6        7       17       20 </v>
   <v type="int" >       12        6       16       17       20 </v>
   <v type="int" >       12        2        3        7       17 </v>
   <v type="int" >       12        2        6        7       17 </v>
   <v type="int" >       12        2        6       16       17 </v>
   <v type="int" >       12        2        3        3        7 </v>
   <v type="int" >       12        2        2        3        7 </v>
   <v type="int" >       12        2        2        6        7 </v>
   <v type="int" >       12        2        3        7        7 </v>
   <v type="int" >       12        2        6        7        7 </v>
   <v type="int" >       12        1        2        6       16 </v>
   <v type="int" >       12        1        1        2        6 </v>
   <v type="int" >       12        1        2        6        6 </v>
   <v type="int" >       12        1        1        1        2 </v>
   <v type="int" >       12       16       17       17       20 </v>
   <v type="int" >       12       17       17       20       20 </v>
   <v type="int" >       12       17       20       20       26 </v>
   <v type="int" >       12       17       18       20       21 </v>
   <v type="int" >       12       17       20       20       21 </v>
   <v type="int" >       12       20       20       21       26 </v>
   <v type="int" >       12       18       20       21       21 </v>
   <v type="int" >       24       20       21       21       27 </v>
   <v type="int" >       24       20       21       26       27 </v>
   <v type="int" >       12       18       19       21       22 </v>
   <v type="int" >       12       18       21       21       22 </v>
   <v type="int" >       12       21       21       22       27 </v>
   <v type="int" >       12       19       21       22       22 </v>
   <v type="int" >       12       21       22       22       28 </v>
   <v type="int" >       12       21       22       27       28 </v>
   <v type="int" >        6       19       19       22       22 </v>
   <v type="int" >       12       19       22       22       22 </v>
   <v type="int" >       12       22       22       22       28 </v>
   <v type="int" >        6       22       22       28       28 </v>
   <v type="int" >        6        6        6        7        7 </v>
   <v type="int" >       12        6        7        7        7 </v>
   <v type="int" >       12        7        7        7       10 </v>
   <v type="int" >        6        7        7       10       10 </v>
   <v type="int" >       12       20       21       23       26 </v>
   <v type="int" >       12       21       23       26       27 </v>
   <v type="int" >       12       23       26       27       29 </v>
   <v type="int" >       12       21       22       24       27 </v>
   <v type="int" >       12       21       23       24       27 </v>
   <v type="int" >       12       23       24       27       29 </v>
   <v type="int" >       12       22       24       27       28 </v>
   <v type="int" >       12       24       27       28       30 </v>
   <v type="int" >       12       24       27       29       30 </v>
   <v type="int" >       12       22       22       24       28 </v>
   <v type="int" >       12       22       24       24       28 </v>
   <v type="int" >       12       24       24       28       30 </v>
   <v type="int" >       12       22       24       28       28 </v>
   <v type="int" >       12       24       28       28       30 </v>
   <v type="int" >       12       24       28       30       30 </v>
   <v type="int" >       12       21       22       23       28 </v>
   <v type="int" >       12       22       23       24       28 </v>
   <v type="int" >       12       23       24       28       30 </v>
   <v type="int" >       12       21       23       27       28 </v>
   <v type="int" >       12       23       27       28       29 </v>
   <v type="int" >       12       23       28       29       30 </v>
   <v type="int" >       12       21       21       23       27 </v>
   <v type="int" >       12       21       23       27       29 </v>
   <v type="int" >       12       21       26       27       27 </v>
   <v type="int" >       12       21       27       27       29 </v>
   <v type="int" >       12       17       18       20       26 </v>
   <v type="int" >       12       18       20       21       26 </v>
   <v type="int" >       12       18       21       26       27 </v>
   <v type="int" >       12        7        7        8       10 </v>
   <v type="int" >       12        7        8        8       10 </v>
   <v type="int" >       12        8        8       10       11 </v>
   <v type="int" >       12        7        8       10       10 </v>
   <v type="int" >       12        8       10       10       11 </v>
   <v type="int" >       12        8       10       11       11 </v>
   <v type="int" >       12       23       24       25       29 </v>
   <v type="int" >       12       24       25       29       30 </v>
   <v type="int" >       12       25       29       30       31 </v>
   <v type="int" >       24       24       24       25       30 </v>
   <v type="int" >       12       24       25       25       30 </v>
   <v type="int" >       12       25       25       30       31 </v>
   <v type="int" >       12       24       25       30       30 </v>
   <v type="int" >       12       25       30       30       31 </v>
   <v type="int" >       12       25       30       31       31 </v>
   <v type="int" >       12       23       24       24       30 </v>
   <v type="int" >       12       24       25       30       31 </v>
   <v type="int" >       12       23       24       29       30 </v>
   <v type="int" >       12       24       29       30       30 </v>
   <v type="int" >       24       24       30       30       31 </v>
   <v type="int" >       12       21       22       23       29 </v>
   <v type="int" >       12       22       23       24       29 </v>
   <v type="int" >       12       22       24       29       30 </v>
   <v type="int" >       12       21       22       27       29 </v>
   <v type="int" >       12       22       27       28       29 </v>
   <v type="int" >       12       22       28       29       30 </v>
   <v type="int" >       12       18       19       21       27 </v>
   <v type="int" >       12       19       21       22       27 </v>
   <v type="int" >       12       19       22       27       28 </v>
   <v type="int" >       12        8        8        9       11 </v>
   <v type="int" >       12        8        9        9       11 </v>
   <v type="int" >       12        9        9       11       12 </v>
   <v type="int" >       12        8        9       11       11 </v>
   <v type="int" >       12        9       11       11       12 </v>
   <v type="int" >       12        9       11       12       12 </v>
   <v type="int" >       12       25       25       25       31 </v>
   <v type="int" >       12       25       25       31       31 </v>
   <v type="int" >       12       25       31       31       31 </v>
   <v type="int" >       12       24       24       25       31 </v>
   <v type="int" >       12       24       25       25       31 </v>
   <v type="int" >       12       24       25       31       31 </v>
   <v type="int" >       12       24       24       30       31 </v>
   <v type="int" >       12       24       30       31       31 </v>
   <v type="int" >       12       22       22       24       30 </v>
   <v type="int" >       12       22       24       24       30 </v>
   <v type="int" >       12       22       24       30       30 </v>
   <v type="int" >       12       22       22       28       30 </v>
   <v type="int" >       12       22       28       28       30 </v>
   <v type="int" >       12       22       28       30       30 </v>
   <v type="int" >       12       19       19       22       28 </v>
   <v type="int" >       12       19       22       22       28 </v>
   <v type="int" >       12       19       22       28       28 </v>
   <v type="int" >       24        9        9        9       12 </v>
   <v type="int" >       24        9        9       12       12 </v>
   <v type="int" >       24        9       12       12       12 </v>
   <v type="int" >       12       23       24       25       31 </v>
   <v type="int" >       12       23       24       30       31 </v>
   <v type="int" >       12       23       29       30       31 </v>
   <v type="int" >       12       21       22       24       30 </v>
   <v type="int" >       12       21       23       24       30 </v>
   <v type="int" >       12       21       23       29       30 </v>
   <v type="int" >       12       21       22       28       30 </v>
   <v type="int" >       12       21       27       28       30 </v>
   <v type="int" >       12       21       27       29       30 </v>
   <v type="int" >       12       18       19       22       28 </v>
   <v type="int" >       12       18       21       22       28 </v>
   <v type="int" >       12       18       21       27       28 </v>
   <v type="int" >       12        8        9        9       12 </v>
   <v type="int" >       12        8        8        9       12 </v>
   <v type="int" >       12        8        8       11       12 </v>
   <v type="int" >       12        8        9       12       12 </v>
   <v type="int" >       12        8       11       12       12 </v>
   <v type="int" >       12        8       11       11       12 </v>
   <v type="int" >       12       20       21       23       29 </v>
   <v type="int" >       12       20       21       27       29 </v>
   <v type="int" >       12       20       26       27       29 </v>
   <v type="int" >       12       17       18       21       27 </v>
   <v type="int" >       12       17       20       21       27 </v>
   <v type="int" >       12       17       20       26       27 </v>
   <v type="int" >       12        7        8        8       11 </v>
   <v type="int" >       12        7        7        8       11 </v>
   <v type="int" >       12        7        7       10       11 </v>
   <v type="int" >       12        7        8       11       11 </v>
   <v type="int" >       12        7       10       11       11 </v>
   <v type="int" >       12        7       10       10       11 </v>
   <v type="int" >       12       16       17       20       26 </v>
   <v type="int" >       12        6        7        7       10 </v>
   <v type="int" >       12        6        6        7       10 </v>
   <v type="int" >       12        6        7       10       10 </v>
   <v type="int" >       12        2        2        2        3 </v>
   <v type="int" >       12        2        2        3        3 </v>
   <v type="int" >       12        2        3        3        3 </v>
   <v type="int" >       12       26       27       27       29 </v>
   <v type="int" >       12       27       27       29       29 </v>
   <v type="int" >       12       27       29       29       32 </v>
   <v type="int" >       12       27       28       29       30 </v>
   <v type="int" >       12       27       29       29       30 </v>
   <v type="int" >       12       29       29       30       32 </v>
   <v type="int" >       12       28       29       30       30 </v>
   <v type="int" >       24       29       30       30       33 </v>
   <v type="int" >       24       29       30       32       33 </v>
   <v type="int" >        6       28       28       30       30 </v>
   <v type="int" >       12       28       30       30       30 </v>
   <v type="int" >       12       30       30       30       33 </v>
   <v type="int" >        6       30       30       33       33 </v>
   <v type="int" >        6       10       10       11       11 </v>
   <v type="int" >       12       10       11       11       11 </v>
   <v type="int" >       12       11       11       11       13 </v>
   <v type="int" >        6       11       11       13       13 </v>
   <v type="int" >       12       29       30       31       32 </v>
   <v type="int" >       12       30       31       32       33 </v>
   <v type="int" >       12       31       32       33       34 </v>
   <v type="int" >       24       30       30       31       33 </v>
   <v type="int" >       12       30       31       31       33 </v>
   <v type="int" >       12       31       31       33       34 </v>
   <v type="int" >       12       30       31       33       33 </v>
   <v type="int" >       12       31       33       33       34 </v>
   <v type="int" >       12       31       33       34       34 </v>
   <v type="int" >       12       30       31       33       34 </v>
   <v type="int" >       12       30       32       33       33 </v>
   <v type="int" >       24       30       33       33       34 </v>
   <v type="int" >       12       27       28       29       32 </v>
   <v type="int" >       12       28       29       30       32 </v>
   <v type="int" >       12       28       30       32       33 </v>
   <v type="int" >       12       11       11       12       13 </v>
   <v type="int" >       12       11       12       12       13 </v>
   <v type="int" >       12       12       12       13       14 </v>
   <v type="int" >       12       11       12       13       13 </v>
   <v type="int" >       12       12       13       13       14 </v>
   <v type="int" >       12       12       13       14       14 </v>
   <v type="int" >       12       31       31       31       34 </v>
   <v type="int" >       12       31       31       34       34 </v>
   <v type="int" >       12       31       34       34       34 </v>
   <v type="int" >       12       30       30       31       34 </v>
   <v type="int" >       12       30       31       31       34 </v>
   <v type="int" >       12       30       31       34       34 </v>
   <v type="int" >       12       30       30       33       34 </v>
   <v type="int" >       12       30       33       34       34 </v>
   <v type="int" >       12       28       28       30       33 </v>
   <v type="int" >       12       28       30       30       33 </v>
   <v type="int" >       12       28       30       33       33 </v>
   <v type="int" >       24       12       12       12       14 </v>
   <v type="int" >       24       12       12       14       14 </v>
   <v type="int" >       24       12       14       14       14 </v>
   <v type="int" >       12       29       30       31       34 </v>
   <v type="int" >       12       29       30       33       34 </v>
   <v type="int" >       12       29       32       33       34 </v>
   <v type="int" >       12       27       28       30       33 </v>
   <v type="int" >       12       27       29       30       33 </v>
   <v type="int" >       12       27       29       32       33 </v>
   <v type="int" >       12       11       12       12       14 </v>
   <v type="int" >       12       11       11       12       14 </v>
   <v type="int" >       12       11       11       13       14 </v>
   <v type="int" >       12       11       12       14       14 </v>
   <v type="int" >       12       11       13       14       14 </v>
   <v type="int" >       12       11       13       13       14 </v>
   <v type="int" >       12       26       27       29       32 </v>
   <v type="int" >       12       10       11       11       13 </v>
   <v type="int" >       12       10       10       11       13 </v>
   <v type="int" >       12       10       11       13       13 </v>
   <v type="int" >       12        3        3        3        4 </v>
   <v type="int" >       12        3        3        4        4 </v>
   <v type="int" >       12        3        4        4        4 </v>
   <v type="int" >       12       32       33       33       34 </v>
   <v type="int" >       18       33       33       34       34 </v>
   <v type="int" >       24       33       34       34       35 </v>
   <v type="int" >       12       33       34       34       34 </v>
   <v type="int" >       24       34       34       34       35 </v>
   <v type="int" >       18       34       34       35       35 </v>
   <v type="int" >        6       13       13       14       14 </v>
   <v type="int" >       12       13       14       14       14 </v>
   <v type="int" >       36       14       14       14       15 </v>
   <v type="int" >       30       14       14       15       15 </v>
   <v type="int" >       12       34       35       35       35 </v>
   <v type="int" >       12       33       33       34       35 </v>
   <v type="int" >       12       33       34       35       35 </v>
   <v type="int" >       24       14       15       15       15 </v>
   <v type="int" >       12       32       33       34       35 </v>
   <v type="int" >       12       13       14       14       15 </v>
   <v type="int" >       12       13       13       14       15 </v>
   <v type="int" >       12       13       14       15       15 </v>
   <v type="int" >       12        4        4        4        5 </v>
   <v type="int" >       12        4        4        5        5 </v>
   <v type="int" >       12        4        5        5        5 </v>
   <v type="int" >        6       35       35       35       35 </v>
   <v type="int" >       18       15       15       15       15 </v>
   <v type="int" >       18        5        5        5        5 </v>
   <v type="int" >        6        1        1        1        1 </v>
  </varray>
  <i name="volumeweight">      0.00016667 </i>
 </kpoints>
 <parameters>
  <separator name="general" >
   <i type="string" name="SYSTEM">Nb</i>
   <i type="logical" name="LCOMPAT"> F  </i>
  </separator>
  <separator name="electronic" >
   <i type="string" name="PREC">normal</i>
   <i name="ENMAX">    300.00000000</i>
   <i name="ENAUG">    352.74500000</i>
   <i name="EDIFF">      0.00000010</i>
   <i type="int" name="IALGO">    38</i>
   <i type="int" name="IWAVPR">    10</i>
   <i type="int" name="NBANDS">    40</i>
   <i name="NELECT">     22.00000000</i>
   <i type="int" name="TURBO">     0</i>
   <i type="int" name="IRESTART">     0</i>
   <i type="int" name="NREBOOT">     0</i>
   <i type="int" name="NMIN">     0</i>
   <i name="EREF">      0.00000000</i>
   <separator name="electronic smearing" >
    <i type="int" name="ISMEAR">    -5</i>
    <i name="SIGMA">      0.20000000</i>
    <i name="KSPACING">      0.50000000</i>
    <i type="logical" name="KGAMMA"> T  </i>
   </separator>
   <separator name="electronic projectors" >
    <i type="logical" name="LREAL"> F  </i>
    <v name="ROPT">      0.00000000</v>
    <i type="int" name="LMAXPAW">  -100</i>
    <i type="int" name="LMAXMIX">     2</i>
    <i type="logical" name="NLSPLINE"> F  </i>
   </separator>
   <separator name="electronic startup" >
    <i type="int" name="ISTART">     0</i>
    <i type="int" name="ICHARG">     2</i>
    <i type="int" name="INIWAV">     1</i>
   </separator>
   <separator name="electronic spin" >
    <i type="int" name="ISPIN">     1</i>
    <i type="logical" name="LNONCOLLINEAR"> F  </i>
    <v name="MAGMOM">      1.00000000      1.00000000</v>
    <i name="NUPDOWN">     -1.00000000</i>
    <i type="logical" name="LSORBIT"> F  </i>
    <v name="SAXIS">      0.00000000      0.00000000      1.00000000</v>
    <i type="logical" name="LSPIRAL"> F  </i>
    <v name="QSPIRAL">      0.00000000      0.00000000      0.00000000</v>
    <i type="logical" name="LZEROZ"> F  </i>
   </separator>
   <separator name="electronic exchange-correlation" >
    <i type="logical" name="LASPH"> F  </i>
    <i type="logical" name="LMETAGGA"> F  </i>
   </separator>
   <separator name="electronic convergence" >
    <i type="int" name="NELM">    60</i>
    <i type="int" name="NELMDL">    -5</i>
    <i type="int" name="NELMIN">     2</i>
    <i name="ENINI">    300.00000000</i>
    <separator name="electronic convergence detail" >
     <i type="logical" name="LDIAG"> T  </i>
     <i type="logical" name="LSUBROT"> F  </i>
     <i name="WEIMIN">      0.00000000</i>
     <i name="EBREAK">      0.00000000</i>
     <i name="DEPER">      0.30000000</i>
     <i type="int" name="NRMM">     4</i>
     <i name="TIME">      0.40000000</i>
    </separator>
   </separator>
   <separator name="electronic mixer" >
    <i name="AMIX">      0.40000000</i>
    <i name="BMIX">      1.00000000</i>
    <i name="AMIN">      0.10000000</i>
    <i name="AMIX_MAG">      1.60000000</i>
    <i name="BMIX_MAG">      1.00000000</i>
    <separator name="electronic mixer details" >
     <i type="int" name="IMIX">     4</i>
     <i type="logical" name="MIXFIRST"> F  </i>
     <i type="int" name="MAXMIX">   -45</i>
     <i name="WC">    100.00000000</i>
     <i type="int" name="INIMIX">     1</i>
     <i type="int" name="MIXPRE">     1</i>
     <i type="int" name="MREMOVE">     5</i>
    </separator>
   </separator>
   <separator name="electronic dipolcorrection" >
    <i type="logical" name="LDIPOL"> F  </i>
    <i type="logical" name="LMONO"> F  </i>
    <i type="int" name="IDIPOL">     0</i>
    <i name="EPSILON">      1.00000000</i>
    <v name="DIPOL">   -100.00000000   -100.00000000   -100.00000000</v>
    <i name="EFIELD">      0.00000000</i>
   </separator>
  </separator>
  <separator name="grids" >
   <i type="int" name="NGX">    14</i>
   <i type="int" name="NGY">    14</i>
   <i type="int" name="NGZ">    14</i>
   <i type="int" name="NGXF">    28</i>
   <i type="int" name="NGYF">    28</i>
   <i type="int" name="NGZF">    28</i>
   <i type="logical" name="ADDGRID"> F  </i>
  </separator>
  <separator name="ionic" >
   <i type="int" name="NSW">     0</i>
   <i type="int" name="IBRION">    -1</i>
   <i type="int" name="MDALGO">     0</i>
   <i type="int" name="ISIF">     2</i>
   <i name="PSTRESS">      0.00000000</i>
   <i name="EDIFFG">      0.00000100</i>
   <i type="int" name="NFREE">     0</i>
   <i name="POTIM">      0.50000000</i>
   <i name="SMASS">     -3.00000000</i>
   <i name="SCALEE">      1.00000000</i>
  </separator>
  <separator name="ionic md" >
   <i name="TEBEG">      0.00010000</i>
   <i name="TEEND">      0.00010000</i>
   <i type="int" name="NBLOCK">     1</i>
   <i type="int" name="KBLOCK">     1</i>
   <i type="int" name="NPACO">   256</i>
   <i name="APACO">     16.00000000</i>
  </separator>
  <separator name="symmetry" >
   <i type="int" name="ISYM">     2</i>
   <i name="SYMPREC">      0.00001000</i>
  </separator>
  <separator name="dos" >
   <i type="int" name="LORBIT">     0</i>
   <v name="RWIGS">     -1.00000000</v>
   <i type="int" name="NEDOS">   301</i>
   <i name="EMIN">     10.00000000</i>
   <i name="EMAX">    -10.00000000</i>
   <i name="EFERMI">      0.00000000</i>
  </separator>
  <separator name="writing" >
   <i type="int" name="NWRITE">     2</i>
   <i type="logical" name="LWAVE"> T  </i>
   <i type="logical" name="LDOWNSAMPLE"> F  </i>
   <i type="logical" name="LCHARG"> T  </i>
   <i type="logical" name="LPARD"> F  </i>
   <i type="logical" name="LVTOT"> F  </i>
   <i type="logical" name="LVHAR"> F  </i>
   <i type="logical" name="LELF"> F  </i>
   <i type="logical" name="LOPTICS"> F  </i>
   <v name="STM">      0.00000000      0.00000000      0.00000000      0.00000000      0.00000000      0.00000000      0.00000000</v>
  </separator>
  <separator name="performance" >
   <i type="int" name="NPAR">    40</i>
   <i type="int" name="NSIM">     4</i>
   <i type="int" name="NBLK">    -1</i>
   <i type="logical" name="LPLANE"> T  </i>
   <i type="logical" name="LSCALAPACK"> T  </i>
   <i type="logical" name="LSCAAWARE"> T  </i>
   <i type="logical" name="LSCALU"> F  </i>
   <i type="logical" name="LASYNC"> F  </i>
   <i type="logical" name="LORBITALREAL"> F  </i>
  </separator>
  <separator name="miscellaneous" >
   <i type="int" name="IDIOT">     3</i>
   <i type="int" name="ISPECIAL">     0</i>
   <i type="logical" name="LMUSIC"> F  </i>
   <v name="POMASS">     92.91000000</v>
   <v name="DARWINR">      0.00000000</v>
   <v name="DARWINV">      1.00000000</v>
   <i type="logical" name="LCORR"> T  </i>
  </separator>
  <i type="logical" name="GGA_COMPAT"> T  </i>
  <i type="logical" name="LBERRY"> F  </i>
  <i type="int" name="ICORELEVEL">     0</i>
  <i type="logical" name="LDAU"> F  </i>
  <i type="int" name="I_CONSTRAINED_M">     0</i>
  <separator name="electronic exchange-correlation" >
   <i type="string" name="GGA">--</i>
   <i type="int" name="VOSKOWN">     0</i>
   <i type="logical" name="LHFCALC"> F  </i>
   <i type="string" name="PRECFOCK"></i>
   <i type="logical" name="LSYMGRAD"> F  </i>
   <i type="logical" name="LHFONE"> F  </i>
   <i type="logical" name="LRHFCALC"> F  </i>
   <i type="logical" name="LTHOMAS"> F  </i>
   <i type="logical" name="LMODELHF"> F  </i>
   <i name="ENCUT4O">     -1.00000000</i>
   <i type="int" name="EXXOEP">     0</i>
   <i type="int" name="FOURORBIT">     0</i>
   <i name="AEXX">      0.00000000</i>
   <i name="HFALPHA">      0.00000000</i>
   <i name="MCALPHA">      0.00000000</i>
   <i name="ALDAX">      1.00000000</i>
   <i name="AGGAX">      1.00000000</i>
   <i name="ALDAC">      1.00000000</i>
   <i name="AGGAC">      1.00000000</i>
   <i type="int" name="NKREDX">     1</i>
   <i type="int" name="NKREDY">     1</i>
   <i type="int" name="NKREDZ">     1</i>
   <i type="logical" name="SHIFTRED"> F  </i>
   <i type="logical" name="ODDONLY"> F  </i>
   <i type="logical" name="EVENONLY"> F  </i>
   <i type="int" name="LMAXFOCK">     0</i>
   <i type="int" name="NMAXFOCKAE">     0</i>
   <i type="logical" name="LFOCKAEDFT"> F  </i>
   <i name="HFSCREEN">      0.00000000</i>
   <i name="HFSCREENC">      0.00000000</i>
   <i type="int" name="NBANDSGWLOW">     0</i>
  </separator>
  <separator name="vdW DFT" >
   <i type="logical" name="LUSE_VDW"> F  </i>
   <i name="Zab_VDW">     -0.84910000</i>
   <i name="PARAM1">      0.12340000</i>
   <i name="PARAM2">      1.00000000</i>
   <i name="PARAM3">      0.00000000</i>
  </separator>
  <separator name="model GW" >
   <i type="int" name="MODEL_GW">     0</i>
   <i name="MODEL_EPS0">     10.78894270</i>
   <i name="MODEL_ALPHA">      1.00000000</i>
  </separator>
  <separator name="linear response parameters" >
   <i type="logical" name="LEPSILON"> F  </i>
   <i type="logical" name="LRPA"> F  </i>
   <i type="logical" name="LNABLA"> F  </i>
   <i type="logical" name="LVEL"> F  </i>
   <i type="int" name="KINTER">     0</i>
   <i name="CSHIFT">      0.10000000</i>
   <i name="OMEGAMAX">     -1.00000000</i>
   <i name="DEG_THRESHOLD">      0.00200000</i>
   <i name="RTIME">     -0.10000000</i>
   <i name="WPLASMAI">      0.00000000</i>
   <v name="DFIELD">      0.00000000      0.00000000      0.00000000</v>
   <v name="WPLASMA">      0.00000000      0.00000000      0.00000000      0.00000000      0.00000000      0.00000000      0.00000000      0.00000000      0.00000000</v>
  </separator>
  <separator name="orbital magnetization" >
   <i type="logical" name="NUCIND"> F  </i>
   <v name="MAGPOS">      0.00000000      0.00000000      0.00000000</v>
   <i type="logical" name="LNICSALL"> T  </i>
   <i type="logical" name="ORBITALMAG"> F  </i>
   <i type="logical" name="LMAGBLOCH"> F  </i>
   <i type="logical" name="LCHIMAG"> F  </i>
   <i type="logical" name="LGAUGE"> T  </i>
   <i type="int" name="MAGATOM">     0</i>
   <v name="MAGDIPOL">      0.00000000      0.00000000      0.00000000</v>
   <v name="AVECCONST">      0.00000000      0.00000000      0.00000000</v>
  </separator>
  <separator name="response functions" >
   <i type="logical" name="LADDER"> F  </i>
   <i type="logical" name="LRPAFORCE"> F  </i>
   <i type="logical" name="LFXC"> F  </i>
   <i type="logical" name="LHARTREE"> T  </i>
   <i type="int" name="IBSE">     0</i>
   <v type="int" name="KPOINT">    -1     0     0     0</v>
   <i type="logical" name="LTCTE"> F  </i>
   <i type="logical" name="LTETE"> F  </i>
   <i type="logical" name="LTRIPLET"> F  </i>
   <i type="logical" name="LFXCEPS"> F  </i>
   <i type="logical" name="LFXHEG"> F  </i>
   <i type="int" name="NATURALO">     2</i>
   <i type="logical" name="L2ORDER"> F  </i>
   <i type="logical" name="LMP2LT"> F  </i>
   <i type="logical" name="LUSEW"> F  </i>
   <i name="ENCUTGW">     -2.00000000</i>
   <i name="ENCUTGWSOFT">     -2.00000000</i>
   <i name="ENCUTLF">     -1.00000000</i>
   <i type="int" name="LMAXMP2">    -1</i>
   <i name="SCISSOR">      0.00000000</i>
   <i type="int" name="NOMEGA">     0</i>
   <i type="int" name="NOMEGAR">     0</i>
   <i type="int" name="NBANDSGW">    -1</i>
   <i type="int" name="NBANDSO">    -1</i>
   <i type="int" name="NBANDSV">    -1</i>
   <i type="int" name="NELM">     1</i>
   <i type="int" name="NELMHF">     1</i>
   <i type="int" name="DIM">     3</i>
   <i type="int" name="ANTIRES">     0</i>
   <i name="OMEGAMAX">    -30.00000000</i>
   <i name="OMEGAMIN">    -30.00000000</i>
   <i name="OMEGATL">   -200.00000000</i>
   <i type="int" name="OMEGAGRID">   140</i>
   <i name="CSHIFT">     -0.10000000</i>
   <i type="logical" name="SELFENERGY"> F  </i>
   <i type="logical" name="LSPECTRAL"> F  </i>
   <i type="logical" name="LSPECTRALGW"> F  </i>
   <i type="logical" name="LSINGLES"> F  </i>
   <i type="logical" name="LFERMIGW"> F  </i>
   <i type="logical" name="ODDONLYGW"> F  </i>
   <i type="logical" name="EVENONLYGW"> F  </i>
   <i type="int" name="NKREDLFX">     1</i>
   <i type="int" name="NKREDLFY">     1</i>
   <i type="int" name="NKREDLFZ">     1</i>
   <i type="int" name="MAXMEM">  2800</i>
   <i type="int" name="TELESCOPE">     0</i>
   <i type="int" name="TAUPAR">     1</i>
   <i type="int" name="OMEGAPAR">    -1</i>
   <i name="LAMBDA">      1.00000000</i>
  </separator>
  <separator name="External order field" >
   <i name="OFIELD_KAPPA">      0.00000000</i>
   <v name="OFIELD_K">      0.00000000      0.00000000      0.00000000</v>
   <i name="OFIELD_Q6_NEAR">      0.00000000</i>
   <i name="OFIELD_Q6_FAR">      0.00000000</i>
   <i name="OFIELD_A">      0.00000000</i>
  </separator>
 </parameters>
 <atominfo>
  <atoms>       2 </atoms>
  <types>       1 </types>
  <array name="atoms" >
   <dimension dim="1">ion</dimension>
   <field type="string">element</field>
   <field type="int">atomtype</field>
   <set>
    <rc><c>Nb</c><c>   1</c></rc>
    <rc><c>Nb</c><c>   1</c></rc>
   </set>
  </array>
  <array name="atomtypes" >
   <dimension dim="1">type</dimension>
   <field type="int">atomspertype</field>
   <field type="string">element</field>
   <field>mass</field>
   <field>valence</field>
   <field type="string">pseudopotential</field>
   <set>
    <rc><c>   2</c><c>Nb</c><c>     92.91000000</c><c>     11.00000000</c><c>  PAW Nb_pv 09Jan2002                   </c></rc>
   </set>
  </array>
 </atominfo>
 <structure name="initialpos" >
  <crystal>
   <varray name="basis" >
    <v>       3.30080000       0.00000000       0.00000000 </v>
    <v>       0.00000000       3.30080000       0.00000000 </v>
    <v>       0.00000000       0.00000000       3.30080000 </v>
   </varray>
   <i name="volume">     35.96314234 </i>
   <varray name="rec_basis" >
    <v>       0.30295686       0.00000000       0.00000000 </v>
    <v>       0.00000000       0.30295686       0.00000000 </v>
    <v>       0.00000000       0.00000000       0.30295686 </v>
   </varray>
  </crystal>
  <varray name="positions" >
   <v>       0.00000000       0.00000000       0.00000000 </v>
   <v>       0.50000000       0.50000000       0.50000000 </v>
  </varray>
 </structure>
 <calculation>
  <scstep>
   <time name="dav">    0.35    0.37</time>
   <time name="total">    0.40    0.44</time>
   <energy>
    <i name="alphaZ">    249.60523850 </i>
    <i name="ewald">  -1921.02116984 </i>
    <i name="hartreedc">   -271.93837114 </i>
    <i name="XCdc">     54.59193041 </i>
    <i name="pawpsdc">   1667.18158126 </i>
    <i name="pawaedc">  -1643.50825161 </i>
    <i name="eentropy">      0.00000000 </i>
    <i name="bandstr">   -230.00693922 </i>
    <i name="atom">   2092.72627849 </i>
    <i name="e_fr_energy">     -2.36970316 </i>
    <i name="e_wo_entrp">     -2.36970316 </i>
    <i name="e_0_energy">     -2.36970316 </i>
   </energy>
  </scstep>
  <scstep>
   <time name="dav">    0.52    0.52</time>
   <time name="total">    0.55    0.55</time>
   <energy>
    <i name="e_fr_energy">    -23.35273285 </i>
    <i name="e_wo_entrp">    -23.35273285 </i>
    <i name="e_0_energy">    -23.35273285 </i>
   </energy>
  </scstep>
  <scstep>
   <time name="dav">    0.43    0.44</time>
   <time name="total">    0.46    0.47</time>
   <energy>
    <i name="e_fr_energy">    -23.37517175 </i>
    <i name="e_wo_entrp">    -23.37517175 </i>
    <i name="e_0_energy">    -23.37517175 </i>
   </energy>
  </scstep>
  <scstep>
   <time name="dav">    0.98    0.99</time>
   <time name="total">    1.01    1.02</time>
   <energy>
    <i name="e_fr_energy">    -23.37517950 </i>
    <i name="e_wo_entrp">    -23.37517950 </i>
    <i name="e_0_energy">    -23.37517950 </i>
   </energy>
  </scstep>
  <scstep>
   <time name="dav">    0.43    0.44</time>
   <time name="total">    0.47    0.49</time>
   <energy>
    <i name="e_fr_energy">    -23.37517950 </i>
    <i name="e_wo_entrp">    -23.37517950 </i>
    <i name="e_0_energy">    -23.37517950 </i>
   </energy>
  </scstep>
  <scstep>
   <time name="dav">    0.85    0.85</time>
   <time name="total">    0.89    0.90</time>
   <energy>
    <i name="e_fr_energy">    -22.49475708 </i>
    <i name="e_wo_entrp">    -22.49475708 </i>
    <i name="e_0_energy">    -22.49475708 </i>
   </energy>
  </scstep>
  <scstep>
   <time name="dav">    0.76    0.77</time>
   <time name="total">    0.80    0.81</time>
   <energy>
    <i name="e_fr_energy">    -22.28809361 </i>
    <i name="e_wo_entrp">    -22.28809361 </i>
    <i name="e_0_energy">    -22.28809361 </i>
   </energy>
  </scstep>
  <scstep>
   <time name="dav">    0.67    0.67</time>
   <time name="total">    0.71    0.71</time>
   <energy>
    <i name="e_fr_energy">    -22.28151151 </i>
    <i name="e_wo_entrp">    -22.28151151 </i>
    <i name="e_0_energy">    -22.28151151 </i>
   </energy>
  </scstep>
  <scstep>
   <time name="dav">    0.70    0.71</time>
   <time name="total">    0.74    0.75</time>
   <energy>
    <i name="e_fr_energy">    -22.28147801 </i>
    <i name="e_wo_entrp">    -22.28147801 </i>
    <i name="e_0_energy">    -22.28147801 </i>
   </energy>
  </scstep>
  <scstep>
   <time name="dav">    0.84    0.84</time>
   <time name="total">    0.87    0.88</time>
   <energy>
    <i name="e_fr_energy">    -22.28147946 </i>
    <i name="e_wo_entrp">    -22.28147946 </i>
    <i name="e_0_energy">    -22.28147946 </i>
   </energy>
  </scstep>
  <scstep>
   <time name="dav">    0.45    0.45</time>
   <time name="total">    0.49    0.50</time>
   <energy>
    <i name="e_fr_energy">    -22.28147934 </i>
    <i name="e_wo_entrp">    -22.28147934 </i>
    <i name="e_0_energy">    -22.28147934 </i>
   </energy>
  </scstep>
  <scstep>
   <time name="dav">    0.28    0.29</time>
   <time name="total">    0.33    0.33</time>
   <energy>
    <i name="e_fr_energy">    -22.28147916 </i>
    <i name="e_wo_entrp">    -22.28147916 </i>
    <i name="e_0_energy">    -22.28147916 </i>
   </energy>
  </scstep>
  <scstep>
   <time name="dav">    0.13    0.13</time>
   <time name="total">    0.17    0.18</time>
   <energy>
    <i name="alphaZ">    249.60523850 </i>
    <i name="ewald">  -1921.02116984 </i>
    <i name="hartreedc">   -240.38184002 </i>
    <i name="XCdc">     52.88081839 </i>
    <i name="pawpsdc">   3000.08203902 </i>
    <i name="pawaedc">  -2983.40856168 </i>
    <i name="eentropy">      0.00000000 </i>
    <i name="bandstr">   -272.76428202 </i>
    <i name="atom">   2092.72627849 </i>
    <i name="e_fr_energy">    -22.28147916 </i>
    <i name="e_wo_entrp">    -22.28147916 </i>
    <i name="e_0_energy">    -22.28147916 </i>
   </energy>
  </scstep>
  <structure>
   <crystal>
    <varray name="basis" >
     <v>       3.30080000       0.00000000       0.00000000 </v>
     <v>       0.00000000       3.30080000       0.00000000 </v>
     <v>       0.00000000       0.00000000       3.30080000 </v>
    </varray>
    <i name="volume">     35.96314234 </i>
    <varray name="rec_basis" >
     <v>       0.30295686       0.00000000       0.00000000 </v>
     <v>       0.00000000       0.30295686       0.00000000 </v>
     <v>       0.00000000       0.00000000       0.30295686 </v>
    </varray>
   </crystal>
   <varray name="positions" >
    <v>       0.00000000       0.00000000       0.00000000 </v>
    <v>       0.50000000       0.50000000       0.50000000 </v>
   </varray>
  </structure>
  <varray name="forces" >
   <v>       0.00000000       0.00000000       0.00000000 </v>
   <v>       0.00000000       0.00000000       0.00000000 </v>
  </varray>
  <varray name="stress" >
   <v>     -69.94465429      -0.00000000      -0.00000000 </v>
   <v>      -0.00000000     -69.94465429      -0.00000000 </v>
   <v>       0.00000000       0.00000000     -69.94465429 </v>
  </varray>
  <energy>
   <i name="e_fr_energy">    -22.28147916 </i>
   <i name="e_wo_entrp">    -22.28147916 </i>
   <i name="e_0_energy">      0.00000000 </i>
  </energy>
  <time name="totalsc">    8.11    8.25</time>
  <eigenvalues>
   <array>
    <dimension dim="1">band</dimension>
    <dimension dim="2">kpoint</dimension>
    <dimension dim="3">spin</dimension>
    <field>eigene</field>
    <field>occ</field>
    <set>
     <set comment="spin 1">
      <set comment="kpoint 1">
       <r>  -25.6370    1.0000 </r>
       <r>  -25.6370    1.0000 </r>
       <r>  -25.5888    1.0000 </r>
       <r>  -24.7458    1.0000 </r>
       <r>  -24.6914    1.0000 </r>
       <r>  -24.6914    1.0000 </r>
       <r>   -0.9319    1.0000 </r>
       <r>    1.1905    1.0000 </r>
       <r>    1.1905    1.0000 </r>
       <r>    5.1001   -0.0238 </r>
       <r>    5.1001   -0.0033 </r>
       <r>    5.3509    0.0000 </r>
       <r>    8.0076    0.0000 </r>
       <r>    8.0076    0.0000 </r>
       <r>    9.5952    0.0000 </r>
       <r>   10.2753    0.0000 </r>
       <r>   10.2753    0.0000 </r>
       <r>   14.4452    0.0000 </r>
       <r>   14.4452    0.0000 </r>
       <r>   14.7192    0.0000 </r>
       <r>   20.5068    0.0000 </r>
       <r>   20.7061    0.0000 </r>
       <r>   20.7061    0.0000 </r>
       <r>   23.8276    0.0000 </r>
       <r>   25.7877    0.0000 </r>
       <r>   25.7877    0.0000 </r>
       <r>   29.6958    0.0000 </r>
       <r>   29.6958    0.0000 </r>
       <r>   30.2747    0.0000 </r>
       <r>   33.3086    0.0000 </r>
       <r>   35.2122    0.0000 </r>
       <r>   35.2122    0.0000 </r>
       <r>   40.2376    0.0000 </r>
       <r>   40.3623    0.0000 </r>
       <r>   40.9163    0.0000 </r>
       <r>   40.9163    0.0000 </r>
       <r>   41.8512    0.0000 </r>
       <r>   41.9594    0.0000 </r>
       <r>   41.9594    0.0000 </r>
       <r>   42.2464    0.0000 </r>
      </set>
      <set comment="kpoint 2">
       <r>  -25.6664    1.0000 </r>
       <r>  -25.5895    1.0000 </r>
       <r>  -25.5188    1.0000 </r>
       <r>  -24.8642    1.0000 </r>
       <r>  -24.7361    1.0000 </r>
       <r>  -24.7117    1.0000 </r>
       <r>   -0.5316    1.0000 </r>
       <r>    1.4115    1.0000 </r>
       <r>    1.5365    1.0000 </r>
       <r>    4.9597    0.2444 </r>
       <r>    5.0485   -0.0093 </r>
       <r>    5.6599    0.0000 </r>
       <r>    7.4958    0.0000 </r>
       <r>    8.2307    0.0000 </r>
       <r>    8.4787    0.0000 </r>
       <r>    9.1998    0.0000 </r>
       <r>   10.2252    0.0000 </r>
       <r>   13.4390    0.0000 </r>
       <r>   15.9204    0.0000 </r>
       <r>   15.9643    0.0000 </r>
       <r>   20.8908    0.0000 </r>
       <r>   21.3166    0.0000 </r>
       <r>   21.4126    0.0000 </r>
       <r>   24.1125    0.0000 </r>
       <r>   25.5940    0.0000 </r>
       <r>   26.1289    0.0000 </r>
       <r>   27.0875    0.0000 </r>
       <r>   30.3681    0.0000 </r>
       <r>   30.8230    0.0000 </r>
       <r>   32.3119    0.0000 </r>
       <r>   34.4176    0.0000 </r>
       <r>   37.1995    0.0000 </r>
       <r>   38.5764    0.0000 </r>
       <r>   39.4823    0.0000 </r>
       <r>   39.9318    0.0000 </r>
       <r>   40.5101    0.0000 </r>
       <r>   40.6083    0.0000 </r>
       <r>   41.9362    0.0000 </r>
       <r>   42.1179    0.0000 </r>
       <r>   42.9205    0.0000 </r>
      </set>
      <set comment="kpoint 3">
       <r>  -25.6740    1.0000 </r>
       <r>  -25.4993    1.0000 </r>
       <r>  -25.4211    1.0000 </r>
       <r>  -25.0418    1.0000 </r>
       <r>  -24.8215    1.0000 </r>
       <r>  -24.7812    1.0000 </r>
       <r>    0.1983    1.0000 </r>
       <r>    1.8460    1.0000 </r>
       <r>    2.0953    1.0000 </r>
       <r>    4.9146    0.5066 </r>
       <r>    4.9849    0.1194 </r>
       <r>    6.1035   -0.0000 </r>
       <r>    6.6624    0.0000 </r>
       <r>    7.3543    0.0000 </r>
       <r>    8.0038    0.0000 </r>
       <r>    8.6140    0.0000 </r>
       <r>    9.6950    0.0000 </r>
       <r>   12.0166    0.0000 </r>
       <r>   17.7673    0.0000 </r>
       <r>   18.0223    0.0000 </r>
       <r>   21.6098    0.0000 </r>
       <r>   22.1546    0.0000 </r>
       <r>   22.5695    0.0000 </r>
       <r>   22.9319    0.0000 </r>
       <r>   24.5792    0.0000 </r>
       <r>   25.2215    0.0000 </r>
       <r>   28.3666    0.0000 </r>
       <r>   30.9575    0.0000 </r>
       <r>   31.1852    0.0000 </r>
       <r>   31.7919    0.0000 </r>
       <r>   33.4856    0.0000 </r>
       <r>   36.4331    0.0000 </r>
       <r>   37.1918    0.0000 </r>
       <r>   37.5711    0.0000 </r>
       <r>   39.4656    0.0000 </r>
       <r>   40.1035    0.0000 </r>
       <r>   40.6786    0.0000 </r>
       <r>   41.2399    0.0000 </r>
       <r>   42.2666    0.0000 </r>
       <r>   42.9330    0.0000 </r>
      </set>
      <set comment="kpoint 4">
       <r>  -25.6447    1.0000 </r>
       <r>  -25.3758    1.0000 </r>
       <r>  -25.2985    1.0000 </r>
       <r>  -25.2419    1.0000 </r>
       <r>  -24.9403    1.0000 </r>
       <r>  -24.8876    1.0000 </r>
       <r>    1.1168    1.0000 </r>
       <r>    2.4789    1.0000 </r>
       <r>    2.5726    1.0000 </r>
       <r>    4.8303    0.9227 </r>
       <r>    5.0260    0.1558 </r>
       <r>    5.8726   -0.0012 </r>
       <r>    6.4398    0.0000 </r>
       <r>    6.6875    0.0000 </r>
       <r>    6.9837    0.0000 </r>
       <r>    8.9546    0.0000 </r>
       <r>    9.0393    0.0000 </r>
       <r>   10.7189    0.0000 </r>
       <r>   19.5899    0.0000 </r>
       <r>   20.2542    0.0000 </r>
       <r>   21.3022    0.0000 </r>
       <r>   21.8812    0.0000 </r>
       <r>   22.3923    0.0000 </r>
       <r>   23.8850    0.0000 </r>
       <r>   24.5181    0.0000 </r>
       <r>   24.7170    0.0000 </r>
       <r>   29.3618    0.0000 </r>
       <r>   30.3115    0.0000 </r>
       <r>   31.2731    0.0000 </r>
       <r>   32.6636    0.0000 </r>
       <r>   34.2972    0.0000 </r>
       <r>   34.3711    0.0000 </r>
       <r>   34.8238    0.0000 </r>
       <r>   37.5185    0.0000 </r>
       <r>   38.2215    0.0000 </r>
       <r>   40.4082    0.0000 </r>
       <r>   40.7157    0.0000 </r>
       <r>   41.2474    0.0000 </r>
       <r>   42.3036    0.0000 </r>
       <r>   42.7650    0.0000 </r>
      </set>
      <set comment="kpoint 5">
       <r>  -25.5633    1.0000 </r>
       <r>  -25.4252    1.0000 </r>
       <r>  -25.2316    1.0000 </r>
       <r>  -25.1599    1.0000 </r>
       <r>  -25.0815    1.0000 </r>
       <r>  -25.0183    1.0000 </r>
       <r>    2.0078    1.0000 </r>
       <r>    2.5787    1.0000 </r>
       <r>    3.2787    1.0000 </r>
       <r>    4.1663    1.0000 </r>
       <r>    5.3271   -0.0926 </r>
       <r>    5.7728   -0.0084 </r>
       <r>    5.7921    0.0000 </r>
       <r>    6.2213    0.0000 </r>
       <r>    7.3924    0.0000 </r>
       <r>    8.1661    0.0000 </r>
       <r>    9.4048    0.0000 </r>
       <r>    9.8498    0.0000 </r>
       <r>   19.9398    0.0000 </r>
       <r>   20.1475    0.0000 </r>
       <r>   22.3445    0.0000 </r>
       <r>   22.8613    0.0000 </r>
       <r>   23.0278    0.0000 </r>
       <r>   24.1900    0.0000 </r>
       <r>   24.3095    0.0000 </r>
       <r>   24.5088    0.0000 </r>
       <r>   29.1308    0.0000 </r>
       <r>   29.9615    0.0000 </r>
       <r>   30.9461    0.0000 </r>
       <r>   31.6513    0.0000 </r>
       <r>   34.4866    0.0000 </r>
       <r>   35.0238    0.0000 </r>
       <r>   36.4565    0.0000 </r>
       <r>   37.2649    0.0000 </r>
       <r>   37.4833    0.0000 </r>
       <r>   39.6308    0.0000 </r>
       <r>   39.6951    0.0000 </r>
       <r>   40.5814    0.0000 </r>
       <r>   42.2633    0.0000 </r>
       <r>   42.4059    0.0000 </r>
      </set>
      <set comment="kpoint 6">
       <r>  -25.7184    1.0000 </r>
       <r>  -25.5635    1.0000 </r>
       <r>  -25.4150    1.0000 </r>
       <r>  -25.0130    1.0000 </r>
       <r>  -24.7705    1.0000 </r>
       <r>  -24.6942    1.0000 </r>
       <r>   -0.1690    1.0000 </r>
       <r>    1.6519    1.0000 </r>
       <r>    1.8381    1.0000 </r>
       <r>    4.6494    1.0048 </r>
       <r>    4.9009    0.3644 </r>
       <r>    6.1836   -0.0027 </r>
       <r>    7.3547    0.0000 </r>
       <r>    7.5873    0.0000 </r>
       <r>    8.0839    0.0000 </r>
       <r>    8.5555    0.0000 </r>
       <r>   10.4106    0.0000 </r>
       <r>   14.1286    0.0000 </r>
       <r>   15.3739    0.0000 </r>
       <r>   16.7028    0.0000 </r>
       <r>   20.9322    0.0000 </r>
       <r>   21.8227    0.0000 </r>
       <r>   21.9077    0.0000 </r>
       <r>   24.4765    0.0000 </r>
       <r>   25.2086    0.0000 </r>
       <r>   26.6833    0.0000 </r>
       <r>   27.2442    0.0000 </r>
       <r>   28.7075    0.0000 </r>
       <r>   31.1922    0.0000 </r>
       <r>   31.3022    0.0000 </r>
       <r>   34.5930    0.0000 </r>
       <r>   36.9044    0.0000 </r>
       <r>   37.7962    0.0000 </r>
       <r>   39.1401    0.0000 </r>
       <r>   39.6134    0.0000 </r>
       <r>   40.3364    0.0000 </r>
       <r>   41.1573    0.0000 </r>
       <r>   42.1593    0.0000 </r>
       <r>   42.2272    0.0000 </r>
       <r>   42.9854    0.0000 </r>
      </set>
      <set comment="kpoint 7">
       <r>  -25.7620    1.0000 </r>
       <r>  -25.4802    1.0000 </r>
       <r>  -25.2944    1.0000 </r>
       <r>  -25.2095    1.0000 </r>
       <r>  -24.8474    1.0000 </r>
       <r>  -24.7219    1.0000 </r>
       <r>    0.4736    1.0000 </r>
       <r>    2.0067    1.0000 </r>
       <r>    2.4086    1.0000 </r>
       <r>    4.4280    1.0412 </r>
       <r>    4.7483    0.9211 </r>
       <r>    6.3253   -0.0300 </r>
       <r>    6.8215    0.0000 </r>
       <r>    7.1525    0.0000 </r>
       <r>    7.5646    0.0000 </r>
       <r>    8.4141    0.0000 </r>
       <r>   10.2352    0.0000 </r>
       <r>   12.9302    0.0000 </r>
       <r>   16.6488    0.0000 </r>
       <r>   18.1971    0.0000 </r>
       <r>   21.0373    0.0000 </r>
       <r>   21.9617    0.0000 </r>
       <r>   23.0094    0.0000 </r>
       <r>   23.3697    0.0000 </r>
       <r>   24.9921    0.0000 </r>
       <r>   25.9760    0.0000 </r>
       <r>   28.7848    0.0000 </r>
       <r>   28.8614    0.0000 </r>
       <r>   30.4220    0.0000 </r>
       <r>   32.0493    0.0000 </r>
       <r>   33.7096    0.0000 </r>
       <r>   35.3363    0.0000 </r>
       <r>   36.8285    0.0000 </r>
       <r>   37.7644    0.0000 </r>
       <r>   39.7330    0.0000 </r>
       <r>   40.5877    0.0000 </r>
       <r>   41.9464    0.0000 </r>
       <r>   41.9497    0.0000 </r>
       <r>   42.4581    0.0000 </r>
       <r>   42.9570    0.0000 </r>
      </set>
      <set comment="kpoint 8">
       <r>  -25.7637    1.0000 </r>
       <r>  -25.4124    1.0000 </r>
       <r>  -25.3634    1.0000 </r>
       <r>  -25.1631    1.0000 </r>
       <r>  -24.9559    1.0000 </r>
       <r>  -24.7951    1.0000 </r>
       <r>    1.2421    1.0000 </r>
       <r>    2.3861    1.0000 </r>
       <r>    2.9746    1.0000 </r>
       <r>    4.3538    1.0152 </r>
       <r>    4.6097    0.9932 </r>
       <r>    5.5651   -0.0909 </r>
       <r>    6.6340    0.0000 </r>
       <r>    6.8397    0.0000 </r>
       <r>    7.5553    0.0000 </r>
       <r>    8.8899    0.0000 </r>
       <r>    9.6600    0.0000 </r>
       <r>   11.4350    0.0000 </r>
       <r>   18.1390    0.0000 </r>
       <r>   20.0972    0.0000 </r>
       <r>   20.4131    0.0000 </r>
       <r>   21.8169    0.0000 </r>
       <r>   22.3289    0.0000 </r>
       <r>   24.2503    0.0000 </r>
       <r>   24.7626    0.0000 </r>
       <r>   25.9652    0.0000 </r>
       <r>   27.9247    0.0000 </r>
       <r>   30.2560    0.0000 </r>
       <r>   31.0718    0.0000 </r>
       <r>   32.5708    0.0000 </r>
       <r>   33.8493    0.0000 </r>
       <r>   33.8588    0.0000 </r>
       <r>   35.8908    0.0000 </r>
       <r>   36.9118    0.0000 </r>
       <r>   38.7022    0.0000 </r>
       <r>   40.6884    0.0000 </r>
       <r>   41.3179    0.0000 </r>
       <r>   41.9521    0.0000 </r>
       <r>   42.5075    0.0000 </r>
       <r>   42.9978    0.0000 </r>
      </set>
      <set comment="kpoint 9">
       <r>  -25.7069    1.0000 </r>
       <r>  -25.5865    1.0000 </r>
       <r>  -25.2273    1.0000 </r>
       <r>  -25.0867    1.0000 </r>
       <r>  -25.0288    1.0000 </r>
       <r>  -24.9019    1.0000 </r>
       <r>    1.9505    1.0000 </r>
       <r>    2.4119    1.0000 </r>
       <r>    3.5053    1.0000 </r>
       <r>    4.0689    1.0000 </r>
       <r>    4.6898    0.8887 </r>
       <r>    5.0497   -0.0236 </r>
       <r>    6.4583    0.0000 </r>
       <r>    6.5419    0.0000 </r>
       <r>    8.3070    0.0000 </r>
       <r>    8.9804    0.0000 </r>
       <r>    9.3847    0.0000 </r>
       <r>   10.1909    0.0000 </r>
       <r>   18.9454    0.0000 </r>
       <r>   19.4380    0.0000 </r>
       <r>   21.6064    0.0000 </r>
       <r>   21.9189    0.0000 </r>
       <r>   22.6999    0.0000 </r>
       <r>   24.3211    0.0000 </r>
       <r>   24.8019    0.0000 </r>
       <r>   25.3583    0.0000 </r>
       <r>   28.5197    0.0000 </r>
       <r>   30.3381    0.0000 </r>
       <r>   30.3719    0.0000 </r>
       <r>   31.9060    0.0000 </r>
       <r>   34.3839    0.0000 </r>
       <r>   35.0335    0.0000 </r>
       <r>   36.0780    0.0000 </r>
       <r>   37.2170    0.0000 </r>
       <r>   38.0306    0.0000 </r>
       <r>   39.2944    0.0000 </r>
       <r>   40.8476    0.0000 </r>
       <r>   41.0000    0.0000 </r>
       <r>   42.3895    0.0000 </r>
       <r>   42.6314    0.0000 </r>
      </set>
      <set comment="kpoint 10">
       <r>  -25.8475    1.0000 </r>
       <r>  -25.4177    1.0000 </r>
       <r>  -25.4118    1.0000 </r>
       <r>  -25.1562    1.0000 </r>
       <r>  -24.9052    1.0000 </r>
       <r>  -24.6989    1.0000 </r>
       <r>    0.9057    1.0000 </r>
       <r>    2.1249    1.0000 </r>
       <r>    3.0616    1.0000 </r>
       <r>    4.0235    1.0000 </r>
       <r>    4.6648    1.0080 </r>
       <r>    5.4039   -0.0399 </r>
       <r>    6.9155    0.0000 </r>
       <r>    7.5599    0.0000 </r>
       <r>    7.7128    0.0000 </r>
       <r>    8.2527    0.0000 </r>
       <r>   10.6090    0.0000 </r>
       <r>   13.2291    0.0000 </r>
       <r>   16.0187    0.0000 </r>
       <r>   18.8863    0.0000 </r>
       <r>   20.2958    0.0000 </r>
       <r>   21.4093    0.0000 </r>
       <r>   22.6558    0.0000 </r>
       <r>   24.0424    0.0000 </r>
       <r>   25.0793    0.0000 </r>
       <r>   27.2677    0.0000 </r>
       <r>   27.5583    0.0000 </r>
       <r>   29.6254    0.0000 </r>
       <r>   29.9520    0.0000 </r>
       <r>   32.4921    0.0000 </r>
       <r>   32.6625    0.0000 </r>
       <r>   34.3649    0.0000 </r>
       <r>   36.6928    0.0000 </r>
       <r>   38.3922    0.0000 </r>
       <r>   40.1146    0.0000 </r>
       <r>   40.7888    0.0000 </r>
       <r>   41.0582    0.0000 </r>
       <r>   42.0408    0.0000 </r>
       <r>   42.2003    0.0000 </r>
       <r>   43.7202    0.0000 </r>
      </set>
      <set comment="kpoint 11">
       <r>  -25.8896    1.0000 </r>
       <r>  -25.6173    1.0000 </r>
       <r>  -25.3151    1.0000 </r>
       <r>  -25.0210    1.0000 </r>
       <r>  -24.9885    1.0000 </r>
       <r>  -24.7258    1.0000 </r>
       <r>    1.3269    1.0000 </r>
       <r>    2.1188    1.0000 </r>
       <r>    3.7700    1.0000 </r>
       <r>    3.8257    1.0000 </r>
       <r>    4.7242    0.9444 </r>
       <r>    4.7837    0.4388 </r>
       <r>    6.7075    0.0000 </r>
       <r>    7.4527    0.0000 </r>
       <r>    8.5493    0.0000 </r>
       <r>    8.6600    0.0000 </r>
       <r>   10.3958    0.0000 </r>
       <r>   12.0574    0.0000 </r>
       <r>   16.8456    0.0000 </r>
       <r>   19.4608    0.0000 </r>
       <r>   20.0358    0.0000 </r>
       <r>   20.5560    0.0000 </r>
       <r>   21.5715    0.0000 </r>
       <r>   25.1904    0.0000 </r>
       <r>   25.3451    0.0000 </r>
       <r>   26.4832    0.0000 </r>
       <r>   27.8537    0.0000 </r>
       <r>   30.0283    0.0000 </r>
       <r>   30.7463    0.0000 </r>
       <r>   31.9166    0.0000 </r>
       <r>   33.0575    0.0000 </r>
       <r>   33.7115    0.0000 </r>
       <r>   37.6662    0.0000 </r>
       <r>   37.8053    0.0000 </r>
       <r>   39.4724    0.0000 </r>
       <r>   40.5745    0.0000 </r>
       <r>   41.3146    0.0000 </r>
       <r>   41.5683    0.0000 </r>
       <r>   42.1758    0.0000 </r>
       <r>   42.3466    0.0000 </r>
      </set>
      <set comment="kpoint 12">
       <r>  -25.8678    1.0000 </r>
       <r>  -25.7747    1.0000 </r>
       <r>  -25.2039    1.0000 </r>
       <r>  -25.0912    1.0000 </r>
       <r>  -24.8976    1.0000 </r>
       <r>  -24.7956    1.0000 </r>
       <r>    1.6658    1.0000 </r>
       <r>    1.9429    1.0000 </r>
       <r>    3.8559    1.0000 </r>
       <r>    4.0551    1.0000 </r>
       <r>    4.5307    0.9171 </r>
       <r>    4.7950    0.4978 </r>
       <r>    7.0019    0.0000 </r>
       <r>    7.2897    0.0000 </r>
       <r>    9.0617    0.0000 </r>
       <r>    9.5903    0.0000 </r>
       <r>    9.7345    0.0000 </r>
       <r>   10.7079    0.0000 </r>
       <r>   17.8006    0.0000 </r>
       <r>   18.5484    0.0000 </r>
       <r>   20.1694    0.0000 </r>
       <r>   20.2417    0.0000 </r>
       <r>   22.2292    0.0000 </r>
       <r>   24.0220    0.0000 </r>
       <r>   25.8908    0.0000 </r>
       <r>   26.5535    0.0000 </r>
       <r>   28.5903    0.0000 </r>
       <r>   30.0238    0.0000 </r>
       <r>   30.5722    0.0000 </r>
       <r>   31.8785    0.0000 </r>
       <r>   33.0646    0.0000 </r>
       <r>   34.1996    0.0000 </r>
       <r>   37.5468    0.0000 </r>
       <r>   38.3795    0.0000 </r>
       <r>   39.1917    0.0000 </r>
       <r>   39.4847    0.0000 </r>
       <r>   41.7253    0.0000 </r>
       <r>   41.8283    0.0000 </r>
       <r>   42.4385    0.0000 </r>
       <r>   42.4508    0.0000 </r>
      </set>
      <set comment="kpoint 13">
       <r>  -25.9736    1.0000 </r>
       <r>  -25.8017    1.0000 </r>
       <r>  -25.2481    1.0000 </r>
       <r>  -25.0374    1.0000 </r>
       <r>  -24.8949    1.0000 </r>
       <r>  -24.7037    1.0000 </r>
       <r>    1.3187    1.0000 </r>
       <r>    1.7846    1.0000 </r>
       <r>    3.4834    1.0000 </r>
       <r>    4.0348    1.0000 </r>
       <r>    4.7326    0.6648 </r>
       <r>    5.4175   -0.1005 </r>
       <r>    6.9452    0.0000 </r>
       <r>    7.9597    0.0000 </r>
       <r>    8.5176    0.0000 </r>
       <r>    9.5648    0.0000 </r>
       <r>   10.5861    0.0000 </r>
       <r>   11.8584    0.0000 </r>
       <r>   16.5085    0.0000 </r>
       <r>   18.6703    0.0000 </r>
       <r>   19.0983    0.0000 </r>
       <r>   19.6340    0.0000 </r>
       <r>   21.1238    0.0000 </r>
       <r>   24.8295    0.0000 </r>
       <r>   26.0319    0.0000 </r>
       <r>   26.8367    0.0000 </r>
       <r>   29.7686    0.0000 </r>
       <r>   29.8457    0.0000 </r>
       <r>   30.5185    0.0000 </r>
       <r>   30.5230    0.0000 </r>
       <r>   32.5677    0.0000 </r>
       <r>   34.8842    0.0000 </r>
       <r>   38.2670    0.0000 </r>
       <r>   39.2231    0.0000 </r>
       <r>   39.4361    0.0000 </r>
       <r>   40.0966    0.0000 </r>
       <r>   40.2005    0.0000 </r>
       <r>   41.9567    0.0000 </r>
       <r>   42.1128    0.0000 </r>
       <r>   42.2955    0.0000 </r>
      </set>
      <set comment="kpoint 14">
       <r>  -25.9915    1.0000 </r>
       <r>  -25.9328    1.0000 </r>
       <r>  -25.1734    1.0000 </r>
       <r>  -25.1007    1.0000 </r>
       <r>  -24.7949    1.0000 </r>
       <r>  -24.7286    1.0000 </r>
       <r>    1.3458    1.0000 </r>
       <r>    1.5008    1.0000 </r>
       <r>    3.3977    1.0000 </r>
       <r>    3.5860    1.0000 </r>
       <r>    5.5223   -0.0793 </r>
       <r>    5.8358   -0.0859 </r>
       <r>    7.4912    0.0000 </r>
       <r>    7.9253    0.0000 </r>
       <r>    8.9361    0.0000 </r>
       <r>    9.8826    0.0000 </r>
       <r>   10.4500    0.0000 </r>
       <r>   11.1928    0.0000 </r>
       <r>   17.0083    0.0000 </r>
       <r>   17.7830    0.0000 </r>
       <r>   18.4679    0.0000 </r>
       <r>   18.7548    0.0000 </r>
       <r>   21.9633    0.0000 </r>
       <r>   23.3221    0.0000 </r>
       <r>   26.8614    0.0000 </r>
       <r>   27.8457    0.0000 </r>
       <r>   28.8831    0.0000 </r>
       <r>   29.9660    0.0000 </r>
       <r>   30.9426    0.0000 </r>
       <r>   31.7519    0.0000 </r>
       <r>   32.1895    0.0000 </r>
       <r>   34.5397    0.0000 </r>
       <r>   37.5926    0.0000 </r>
       <r>   38.6149    0.0000 </r>
       <r>   39.4210    0.0000 </r>
       <r>   40.4080    0.0000 </r>
       <r>   41.4149    0.0000 </r>
       <r>   41.7145    0.0000 </r>
       <r>   42.1086    0.0000 </r>
       <r>   42.1800    0.0000 </r>
      </set>
      <set comment="kpoint 15">
       <r>  -26.0502    1.0000 </r>
       <r>  -26.0301    1.0000 </r>
       <r>  -25.1429    1.0000 </r>
       <r>  -25.1178    1.0000 </r>
       <r>  -24.7297    1.0000 </r>
       <r>  -24.7067    1.0000 </r>
       <r>    1.1780    1.0000 </r>
       <r>    1.2289    1.0000 </r>
       <r>    3.1808    1.0000 </r>
       <r>    3.2452    1.0000 </r>
       <r>    6.5829   -0.0122 </r>
       <r>    6.8075   -0.0001 </r>
       <r>    7.9307    0.0000 </r>
       <r>    8.1516    0.0000 </r>
       <r>    8.7538    0.0000 </r>
       <r>    9.2940    0.0000 </r>
       <r>   11.1219    0.0000 </r>
       <r>   11.3857    0.0000 </r>
       <r>   16.8128    0.0000 </r>
       <r>   17.1701    0.0000 </r>
       <r>   17.5483    0.0000 </r>
       <r>   17.7361    0.0000 </r>
       <r>   22.0526    0.0000 </r>
       <r>   22.5563    0.0000 </r>
       <r>   27.5723    0.0000 </r>
       <r>   28.1523    0.0000 </r>
       <r>   29.4104    0.0000 </r>
       <r>   29.9670    0.0000 </r>
       <r>   31.2459    0.0000 </r>
       <r>   31.4989    0.0000 </r>
       <r>   33.1840    0.0000 </r>
       <r>   35.0152    0.0000 </r>
       <r>   36.1282    0.0000 </r>
       <r>   37.4352    0.0000 </r>
       <r>   38.8843    0.0000 </r>
       <r>   39.2370    0.0000 </r>
       <r>   42.1637    0.0000 </r>
       <r>   42.1683    0.0000 </r>
       <r>   42.2467    0.0000 </r>
       <r>   42.3903    0.0000 </r>
      </set>
      <set comment="kpoint 16">
       <r>  -25.6673    1.0000 </r>
       <r>  -25.6673    1.0000 </r>
       <r>  -25.2945    1.0000 </r>
[...]
       <r>    8.8137    0.0000 </r>
       <r>    8.8303    0.0000 </r>
       <r>   13.7852    0.0000 </r>
       <r>   14.7230    0.0000 </r>
       <r>   15.4287    0.0000 </r>
       <r>   16.2801    0.0000 </r>
       <r>   17.2519    0.0000 </r>
       <r>   18.2981    0.0000 </r>
       <r>   19.2507    0.0000 </r>
       <r>   20.2944    0.0000 </r>
       <r>   26.5084    0.0000 </r>
       <r>   27.0347    0.0000 </r>
       <r>   28.4764    0.0000 </r>
       <r>   30.3383    0.0000 </r>
       <r>   32.6158    0.0000 </r>
       <r>   33.2517    0.0000 </r>
       <r>   33.6139    0.0000 </r>
       <r>   34.3209    0.0000 </r>
       <r>   37.2525    0.0000 </r>
       <r>   37.2617    0.0000 </r>
       <r>   38.0856    0.0000 </r>
       <r>   38.3297    0.0000 </r>
       <r>   40.7331    0.0000 </r>
       <r>   41.5796    0.0000 </r>
       <r>   41.9890    0.0000 </r>
       <r>   42.1547    0.0000 </r>
      </set>
      <set comment="kpoint 34">
       <r>  -25.7238    1.0000 </r>
       <r>  -25.6910    1.0000 </r>
       <r>  -25.3989    1.0000 </r>
       <r>  -25.2857    1.0000 </r>
       <r>  -25.0727    1.0000 </r>
       <r>  -25.0229    1.0000 </r>
       <r>    2.8539    1.0000 </r>
       <r>    3.1169    1.0000 </r>
       <r>    3.2579    1.0000 </r>
       <r>    3.5336    1.0000 </r>
       <r>    4.5045    0.9771 </r>
       <r>    4.5961    0.9431 </r>
       <r>    8.6932    0.0000 </r>
       <r>    8.7089    0.0000 </r>
       <r>    8.8612    0.0000 </r>
       <r>    8.8695    0.0000 </r>
       <r>   14.5611    0.0000 </r>
       <r>   15.0142    0.0000 </r>
       <r>   15.1242    0.0000 </r>
       <r>   15.4955    0.0000 </r>
       <r>   17.3633    0.0000 </r>
       <r>   18.2609    0.0000 </r>
       <r>   18.3472    0.0000 </r>
       <r>   19.1901    0.0000 </r>
       <r>   27.5927    0.0000 </r>
       <r>   27.9826    0.0000 </r>
       <r>   29.2647    0.0000 </r>
       <r>   30.7065    0.0000 </r>
       <r>   31.6628    0.0000 </r>
       <r>   32.5996    0.0000 </r>
       <r>   33.0329    0.0000 </r>
       <r>   33.6256    0.0000 </r>
       <r>   36.1240    0.0000 </r>
       <r>   36.6731    0.0000 </r>
       <r>   36.7985    0.0000 </r>
       <r>   37.1754    0.0000 </r>
       <r>   42.0578    0.0000 </r>
       <r>   42.0891    0.0000 </r>
       <r>   43.2980    0.0000 </r>
       <r>   44.0876    0.0000 </r>
      </set>
      <set comment="kpoint 35">
       <r>  -25.5884    1.0000 </r>
       <r>  -25.4893    1.0000 </r>
       <r>  -25.4893    1.0000 </r>
       <r>  -25.2762    1.0000 </r>
       <r>  -25.2762    1.0000 </r>
       <r>  -25.1728    1.0000 </r>
       <r>    3.2166    1.0000 </r>
       <r>    3.5201    1.0000 </r>
       <r>    3.5201    1.0000 </r>
       <r>    3.9689    1.0000 </r>
       <r>    3.9689    1.0000 </r>
       <r>    4.0711    1.0000 </r>
       <r>    8.8783    0.0000 </r>
       <r>    8.8783    0.0000 </r>
       <r>    8.8806    0.0000 </r>
       <r>    8.8806    0.0000 </r>
       <r>   14.6347    0.0000 </r>
       <r>   14.6983    0.0000 </r>
       <r>   15.9063    0.0000 </r>
       <r>   16.4869    0.0000 </r>
       <r>   16.4869    0.0000 </r>
       <r>   17.6478    0.0000 </r>
       <r>   17.6478    0.0000 </r>
       <r>   18.3001    0.0000 </r>
       <r>   28.7140    0.0000 </r>
       <r>   29.4524    0.0000 </r>
       <r>   29.4524    0.0000 </r>
       <r>   31.4950    0.0000 </r>
       <r>   31.4950    0.0000 </r>
       <r>   32.4956    0.0000 </r>
       <r>   32.7981    0.0000 </r>
       <r>   33.6765    0.0000 </r>
       <r>   33.6765    0.0000 </r>
       <r>   35.1493    0.0000 </r>
       <r>   35.1493    0.0000 </r>
       <r>   35.2672    0.0000 </r>
       <r>   42.0642    0.0000 </r>
       <r>   42.0678    0.0000 </r>
       <r>   46.1406    0.0000 </r>
       <r>   46.1406    0.0000 </r>
      </set>
     </set>
    </set>
   </array>
  </eigenvalues>
  <separator name="orbital magnetization" >
   <v name="MAGDIPOLOUT">      0.00000000      0.00000000      0.00000000</v>
  </separator>
  <dos>
   <i name="efermi">      4.85226037 </i>
   <total>
    <array>
     <dimension dim="1">gridpoints</dimension>
     <dimension dim="2">spin</dimension>
     <field>energy</field>
     <field>total</field>
     <field>integrated</field>
     <set>
      <set comment="spin 1">
       <r>   -29.6597     0.0000     0.0000 </r>
       <r>   -29.3950     0.0000     0.0000 </r>
       <r>   -29.1303     0.0000     0.0000 </r>
       <r>   -28.8656     0.0000     0.0000 </r>
       <r>   -28.6009     0.0000     0.0000 </r>
       <r>   -28.3362     0.0000     0.0000 </r>
       <r>   -28.0715     0.0000     0.0000 </r>
       <r>   -27.8068     0.0000     0.0000 </r>
       <r>   -27.5421     0.0000     0.0000 </r>
       <r>   -27.2774     0.0000     0.0000 </r>
       <r>   -27.0127     0.0000     0.0000 </r>
       <r>   -26.7480     0.0000     0.0000 </r>
       <r>   -26.4833     0.0000     0.0000 </r>
       <r>   -26.2186     0.0000     0.0000 </r>
       <r>   -25.9539     4.4350     0.2697 </r>
       <r>   -25.6892     7.1879     2.7577 </r>
       <r>   -25.4245     7.4514     4.2872 </r>
       <r>   -25.1598    10.4128     6.4662 </r>
       <r>   -24.8951    13.2867     9.1295 </r>
       <r>   -24.6304     0.0000    12.0000 </r>
       <r>   -24.3657     0.0000    12.0000 </r>
       <r>   -24.1010     0.0000    12.0000 </r>
       <r>   -23.8363     0.0000    12.0000 </r>
       <r>   -23.5716     0.0000    12.0000 </r>
       <r>   -23.3069     0.0000    12.0000 </r>
       <r>   -23.0422     0.0000    12.0000 </r>
       <r>   -22.7775     0.0000    12.0000 </r>
       <r>   -22.5128     0.0000    12.0000 </r>
       <r>   -22.2481     0.0000    12.0000 </r>
       <r>   -21.9834     0.0000    12.0000 </r>
       <r>   -21.7187     0.0000    12.0000 </r>
       <r>   -21.4540     0.0000    12.0000 </r>
       <r>   -21.1893     0.0000    12.0000 </r>
       <r>   -20.9246     0.0000    12.0000 </r>
       <r>   -20.6599     0.0000    12.0000 </r>
       <r>   -20.3952     0.0000    12.0000 </r>
       <r>   -20.1305     0.0000    12.0000 </r>
       <r>   -19.8658     0.0000    12.0000 </r>
       <r>   -19.6011     0.0000    12.0000 </r>
       <r>   -19.3364     0.0000    12.0000 </r>
       <r>   -19.0717     0.0000    12.0000 </r>
       <r>   -18.8070     0.0000    12.0000 </r>
       <r>   -18.5423     0.0000    12.0000 </r>
       <r>   -18.2776     0.0000    12.0000 </r>
       <r>   -18.0129     0.0000    12.0000 </r>
       <r>   -17.7482     0.0000    12.0000 </r>
       <r>   -17.4835     0.0000    12.0000 </r>
       <r>   -17.2188     0.0000    12.0000 </r>
       <r>   -16.9541     0.0000    12.0000 </r>
       <r>   -16.6894     0.0000    12.0000 </r>
       <r>   -16.4247     0.0000    12.0000 </r>
       <r>   -16.1600     0.0000    12.0000 </r>
       <r>   -15.8953     0.0000    12.0000 </r>
       <r>   -15.6306     0.0000    12.0000 </r>
       <r>   -15.3659     0.0000    12.0000 </r>
       <r>   -15.1012     0.0000    12.0000 </r>
       <r>   -14.8365     0.0000    12.0000 </r>
       <r>   -14.5718     0.0000    12.0000 </r>
       <r>   -14.3071     0.0000    12.0000 </r>
       <r>   -14.0424     0.0000    12.0000 </r>
       <r>   -13.7777     0.0000    12.0000 </r>
       <r>   -13.5130     0.0000    12.0000 </r>
       <r>   -13.2483     0.0000    12.0000 </r>
       <r>   -12.9836     0.0000    12.0000 </r>
       <r>   -12.7189     0.0000    12.0000 </r>
       <r>   -12.4542     0.0000    12.0000 </r>
       <r>   -12.1895     0.0000    12.0000 </r>
       <r>   -11.9248     0.0000    12.0000 </r>
       <r>   -11.6601     0.0000    12.0000 </r>
       <r>   -11.3954     0.0000    12.0000 </r>
       <r>   -11.1307     0.0000    12.0000 </r>
       <r>   -10.8660     0.0000    12.0000 </r>
       <r>   -10.6013     0.0000    12.0000 </r>
       <r>   -10.3366     0.0000    12.0000 </r>
       <r>   -10.0719     0.0000    12.0000 </r>
       <r>    -9.8072     0.0000    12.0000 </r>
       <r>    -9.5425     0.0000    12.0000 </r>
       <r>    -9.2778     0.0000    12.0000 </r>
       <r>    -9.0131     0.0000    12.0000 </r>
       <r>    -8.7484     0.0000    12.0000 </r>
       <r>    -8.4837     0.0000    12.0000 </r>
       <r>    -8.2190     0.0000    12.0000 </r>
       <r>    -7.9543     0.0000    12.0000 </r>
       <r>    -7.6896     0.0000    12.0000 </r>
       <r>    -7.4249     0.0000    12.0000 </r>
       <r>    -7.1602     0.0000    12.0000 </r>
       <r>    -6.8955     0.0000    12.0000 </r>
       <r>    -6.6308     0.0000    12.0000 </r>
       <r>    -6.3661     0.0000    12.0000 </r>
       <r>    -6.1014     0.0000    12.0000 </r>
       <r>    -5.8367     0.0000    12.0000 </r>
       <r>    -5.5720     0.0000    12.0000 </r>
       <r>    -5.3073     0.0000    12.0000 </r>
       <r>    -5.0426     0.0000    12.0000 </r>
       <r>    -4.7779     0.0000    12.0000 </r>
       <r>    -4.5132     0.0000    12.0000 </r>
       <r>    -4.2485     0.0000    12.0000 </r>
       <r>    -3.9838     0.0000    12.0000 </r>
       <r>    -3.7191     0.0000    12.0000 </r>
       <r>    -3.4544     0.0000    12.0000 </r>
       <r>    -3.1897     0.0000    12.0000 </r>
       <r>    -2.9250     0.0000    12.0000 </r>
       <r>    -2.6603     0.0000    12.0000 </r>
       <r>    -2.3956     0.0000    12.0000 </r>
       <r>    -2.1309     0.0000    12.0000 </r>
       <r>    -1.8662     0.0000    12.0000 </r>
       <r>    -1.6015     0.0000    12.0000 </r>
       <r>    -1.3368     0.0000    12.0000 </r>
       <r>    -1.0721     0.0000    12.0000 </r>
       <r>    -0.8074     0.0511    12.0070 </r>
       <r>    -0.5427     0.1099    12.0279 </r>
       <r>    -0.2780     0.1325    12.0591 </r>
       <r>    -0.0133     0.1682    12.0983 </r>
       <r>     0.2514     0.2147    12.1494 </r>
       <r>     0.5161     0.2617    12.2113 </r>
       <r>     0.7808     0.3277    12.2891 </r>
       <r>     1.0455     0.4368    12.3875 </r>
       <r>     1.3102     1.5385    12.6178 </r>
       <r>     1.5749     2.1321    13.1448 </r>
       <r>     1.8396     2.3839    13.7398 </r>
       <r>     2.1043     2.6951    14.4633 </r>
       <r>     2.3690     3.0363    15.1898 </r>
       <r>     2.6337     1.6011    15.9759 </r>
       <r>     2.8984     0.9344    16.2913 </r>
       <r>     3.1631     1.8383    16.5469 </r>
       <r>     3.4277     4.6038    17.6336 </r>
       <r>     3.6924     2.5599    18.7179 </r>
       <r>     3.9571     1.8860    19.2543 </r>
       <r>     4.2218     2.0940    19.7972 </r>
       <r>     4.4865     3.2112    20.4890 </r>
       <r>     4.7512     3.3353    21.6528 </r>
       <r>     5.0159     2.9317    22.5116 </r>
       <r>     5.2806     1.3061    22.9769 </r>
       <r>     5.5453     1.0073    23.2782 </r>
       <r>     5.8100     1.0762    23.5564 </r>
       <r>     6.0747     0.9341    23.8098 </r>
       <r>     6.3394     0.5772    24.0360 </r>
       <r>     6.6041     1.2115    24.2728 </r>
       <r>     6.8688     1.8572    24.7137 </r>
       <r>     7.1335     1.9246    25.1874 </r>
       <r>     7.3982     2.4766    25.7747 </r>
       <r>     7.6629     2.8622    26.5066 </r>
       <r>     7.9276     3.1711    27.2395 </r>
       <r>     8.1923     2.4291    28.0238 </r>
       <r>     8.4570     2.7019    28.6481 </r>
       <r>     8.7217     3.7804    29.5559 </r>
       <r>     8.9864     2.7786    31.0509 </r>
       <r>     9.2511     1.5194    31.5670 </r>
       <r>     9.5158     1.8852    32.0429 </r>
       <r>     9.7805     1.2587    32.4839 </r>
       <r>    10.0452     1.1075    32.7897 </r>
       <r>    10.3099     1.3511    33.1357 </r>
       <r>    10.5746     0.8448    33.4281 </r>
       <r>    10.8393     0.6496    33.6045 </r>
       <r>    11.1040     0.6584    33.7769 </r>
       <r>    11.3687     0.8252    33.9832 </r>
       <r>    11.6334     0.6966    34.1783 </r>
       <r>    11.8981     0.6761    34.3594 </r>
       <r>    12.1628     0.6392    34.5363 </r>
       <r>    12.4275     0.6139    34.7032 </r>
       <r>    12.6922     0.5958    34.8634 </r>
       <r>    12.9569     0.6246    35.0201 </r>
       <r>    13.2216     0.5611    35.1777 </r>
       <r>    13.4863     0.5645    35.3236 </r>
       <r>    13.7510     0.5282    35.4685 </r>
       <r>    14.0157     0.4739    35.6016 </r>
       <r>    14.2804     0.4135    35.7191 </r>
       <r>    14.5451     0.3746    35.8250 </r>
       <r>    14.8098     0.3895    35.9369 </r>
       <r>    15.0745     0.0940    36.0124 </r>
       <r>    15.3392     0.2810    36.0655 </r>
       <r>    15.6039     0.6118    36.1762 </r>
       <r>    15.8686     0.9444    36.3841 </r>
       <r>    16.1333     1.0966    36.6542 </r>
       <r>    16.3980     1.1624    36.9518 </r>
       <r>    16.6627     1.2349    37.2764 </r>
       <r>    16.9274     1.2361    37.6182 </r>
       <r>    17.1921     1.0307    37.9075 </r>
       <r>    17.4568     1.1357    38.2050 </r>
       <r>    17.7215     1.2251    38.5268 </r>
       <r>    17.9862     1.5841    38.8974 </r>
       <r>    18.2509     1.6584    39.3289 </r>
       <r>    18.5156     1.8377    39.8380 </r>
       <r>    18.7803     1.6922    40.3192 </r>
       <r>    19.0450     1.5546    40.7489 </r>
       <r>    19.3097     1.4488    41.1464 </r>
       <r>    19.5744     1.3673    41.5176 </r>
       <r>    19.8391     1.3171    41.8714 </r>
       <r>    20.1038     1.3325    42.2205 </r>
       <r>    20.3685     1.1337    42.5679 </r>
       <r>    20.6332     1.1986    42.8736 </r>
       <r>    20.8979     1.6968    43.2242 </r>
       <r>    21.1626     1.4542    43.6373 </r>
       <r>    21.4273     1.5496    44.0333 </r>
       <r>    21.6920     1.7981    44.4723 </r>
       <r>    21.9567     2.0832    45.0255 </r>
       <r>    22.2214     1.2671    45.4655 </r>
       <r>    22.4861     1.6515    45.8476 </r>
       <r>    22.7508     1.5920    46.2803 </r>
       <r>    23.0155     0.8259    46.6313 </r>
       <r>    23.2802     0.5033    46.7731 </r>
       <r>    23.5449     0.6989    46.9323 </r>
       <r>    23.8096     1.2202    47.1517 </r>
       <r>    24.0743     1.2738    47.4555 </r>
       <r>    24.3390     0.7888    47.8362 </r>
       <r>    24.6037     1.5059    48.1197 </r>
       <r>    24.8684     1.7501    48.5764 </r>
       <r>    25.1331     1.5850    49.0579 </r>
       <r>    25.3978     1.4206    49.4576 </r>
       <r>    25.6625     1.3468    49.8294 </r>
       <r>    25.9272     1.2887    50.1744 </r>
       <r>    26.1919     1.2738    50.5200 </r>
       <r>    26.4566     1.1777    50.8448 </r>
       <r>    26.7213     1.0290    51.1586 </r>
       <r>    26.9860     0.8265    51.4001 </r>
       <r>    27.2507     0.8051    51.6212 </r>
       <r>    27.5154     0.8727    51.8410 </r>
       <r>    27.7801     1.1536    52.0946 </r>
       <r>    28.0448     1.2977    52.4585 </r>
       <r>    28.3095     1.5222    52.8370 </r>
       <r>    28.5742     2.1100    53.2970 </r>
       <r>    28.8389     1.3507    53.7515 </r>
       <r>    29.1036     0.9286    54.0215 </r>
       <r>    29.3683     1.3838    54.3429 </r>
       <r>    29.6330     1.3161    54.7139 </r>
       <r>    29.8977     1.6940    55.0896 </r>
       <r>    30.1624     1.4037    55.5892 </r>
       <r>    30.4271     1.0495    55.9146 </r>
       <r>    30.6918     1.5522    56.2673 </r>
       <r>    30.9565     1.4141    56.6731 </r>
       <r>    31.2212     1.0989    57.0107 </r>
       <r>    31.4859     0.7755    57.2270 </r>
       <r>    31.7506     1.3336    57.5413 </r>
       <r>    32.0153     1.6948    57.9938 </r>
       <r>    32.2800     1.7868    58.4575 </r>
       <r>    32.5447     1.9573    58.9404 </r>
       <r>    32.8094     1.7080    59.4300 </r>
       <r>    33.0741     1.7635    59.9135 </r>
       <r>    33.3388     1.7126    60.4081 </r>
       <r>    33.6035     1.1876    60.7707 </r>
       <r>    33.8682     1.3649    61.1299 </r>
       <r>    34.1329     1.6993    61.5272 </r>
       <r>    34.3976     2.4466    62.0453 </r>
       <r>    34.6623     1.7582    62.5932 </r>
       <r>    34.9270     1.5500    63.0250 </r>
       <r>    35.1917     1.2744    63.4551 </r>
       <r>    35.4564     1.1438    63.7956 </r>
       <r>    35.7211     0.8939    64.0406 </r>
       <r>    35.9858     1.0215    64.2948 </r>
       <r>    36.2505     1.0631    64.5858 </r>
       <r>    36.5152     1.0392    64.8687 </r>
       <r>    36.7799     1.4356    65.1861 </r>
       <r>    37.0446     1.8449    65.6122 </r>
       <r>    37.3093     2.1755    66.1885 </r>
       <r>    37.5740     3.1895    66.8560 </r>
       <r>    37.8387     2.2383    67.5019 </r>
       <r>    38.1034     1.9434    68.0523 </r>
       <r>    38.3681     1.5061    68.5109 </r>
       <r>    38.6328     1.0447    68.8528 </r>
       <r>    38.8975     1.0723    69.1288 </r>
       <r>    39.1622     1.0329    69.3984 </r>
       <r>    39.4269     2.5092    69.8068 </r>
       <r>    39.6916     1.7306    70.2730 </r>
       <r>    39.9563     1.5274    70.7179 </r>
       <r>    40.2210     1.6437    71.1190 </r>
       <r>    40.4857     2.0448    71.6556 </r>
       <r>    40.7504     1.6253    72.2002 </r>
       <r>    41.0151     1.5394    72.6065 </r>
       <r>    41.2798     2.0921    73.0870 </r>
       <r>    41.5445     2.5453    73.6895 </r>
       <r>    41.8092     4.1146    74.5759 </r>
       <r>    42.0739     4.9207    75.7185 </r>
       <r>    42.3386     4.8074    77.2145 </r>
       <r>    42.6033     3.2021    78.2947 </r>
       <r>    42.8680     1.7119    78.8978 </r>
       <r>    43.1327     1.0438    79.3688 </r>
       <r>    43.3974     0.7133    79.5994 </r>
       <r>    43.6621     0.4291    79.7501 </r>
       <r>    43.9268     0.2850    79.8423 </r>
       <r>    44.1915     0.1944    79.9048 </r>
       <r>    44.4562     0.1188    79.9461 </r>
       <r>    44.7209     0.0624    79.9696 </r>
       <r>    44.9856     0.0230    79.9773 </r>
       <r>    45.2503     0.0196    79.9830 </r>
       <r>    45.5150     0.0165    79.9877 </r>
       <r>    45.7797     0.0136    79.9917 </r>
       <r>    46.0444     0.0110    79.9950 </r>
       <r>    46.3091     0.0000    80.0000 </r>
       <r>    46.5738     0.0000    80.0000 </r>
       <r>    46.8385     0.0000    80.0000 </r>
       <r>    47.1032     0.0000    80.0000 </r>
       <r>    47.3679     0.0000    80.0000 </r>
       <r>    47.6326     0.0000    80.0000 </r>
       <r>    47.8973     0.0000    80.0000 </r>
       <r>    48.1620     0.0000    80.0000 </r>
       <r>    48.4267     0.0000    80.0000 </r>
       <r>    48.6914     0.0000    80.0000 </r>
       <r>    48.9561     0.0000    80.0000 </r>
       <r>    49.2208     0.0000    80.0000 </r>
       <r>    49.4855     0.0000    80.0000 </r>
       <r>    49.7502     0.0000    80.0000 </r>
      </set>
     </set>
    </array>
   </total>
  </dos>
 </calculation>
 <structure name="finalpos" >
  <crystal>
   <varray name="basis" >
    <v>       3.30080000       0.00000000       0.00000000 </v>
    <v>       0.00000000       3.30080000       0.00000000 </v>
    <v>       0.00000000       0.00000000       3.30080000 </v>
   </varray>
   <i name="volume">     35.96314234 </i>
   <varray name="rec_basis" >
    <v>       0.30295686       0.00000000       0.00000000 </v>
    <v>       0.00000000       0.30295686       0.00000000 </v>
    <v>       0.00000000       0.00000000       0.30295686 </v>
   </varray>
  </crystal>
  <varray name="positions" >
   <v>       0.00000000       0.00000000       0.00000000 </v>
   <v>       0.50000000       0.50000000       0.50000000 </v>
  </varray>
 </structure>
</modeling>
