Nb                                      
           1
     3.300800    0.000000    0.000000
     0.000000    3.300800    0.000000
     0.000000    0.000000    3.300800
   Nb
   2
Direct configuration=     1
   0.00000000  0.00000000  0.00000000
   0.50000000  0.50000000  0.50000000
