bcc Fe                                  
   2.83000000000000     
    -0.500000    0.500000    0.500000
     0.500000   -0.500000    0.500000
     0.500000    0.500000   -0.500000
   Fe
     1
Direct
  0.000000  0.000000  0.000000
 
   20   20   20
  95.544      90.025      75.376      56.164      37.213      21.885      11.692      6.4941      4.7138      4.1069    
  3.9101      4.1069      4.7138      6.4941      11.692      21.885      37.213      56.164      75.376      90.025    
  90.025      88.232      76.783      59.415      40.886      24.976      13.705      7.4151      4.9653      4.2001    
  3.8784      3.9414      4.3966      5.4805      9.0077      16.910      29.861      46.976      65.623      81.534    
  75.376      76.783      69.366      55.631      39.633      25.076      14.238      7.8171      5.0800      4.2011    
  3.7879      3.7327      4.0285      4.7023      6.6017      11.697      21.158      34.763      50.705      65.623    
  56.164      59.415      55.631      46.145      33.947      22.195      13.088      7.4876      4.9732      4.1045    
  3.6509      3.5117      3.6667      4.1405      5.0408      7.6343      13.412      22.783      34.763      46.976    
  37.213      40.886      39.633      33.947      25.755      17.414      10.746      6.5730      4.6608      3.9219    
  3.4829      3.3039      3.3578      3.6572      4.2285      5.2863      8.0498      13.412      21.158      29.861    
  21.885      24.976      25.076      22.195      17.414      12.277      8.0850      5.4643      4.2567      3.6809    
  3.3005      3.1241      3.1223      3.2908      3.6665      4.2607      5.2863      7.6343      11.697      16.910    
  11.692      13.705      14.238      13.088      10.746      8.0850      5.8915      4.5382      3.8673      3.4190    
  3.1213      2.9773      2.9581      3.0498      3.2739      3.6665      4.2285      5.0408      6.6017      9.0077    
  6.4941      7.4151      7.8171      7.4876      6.5730      5.4643      4.5382      3.9360      3.5068      3.1742    
  2.9630      2.8641      2.8524      2.9119      3.0498      3.2908      3.6572      4.1405      4.7023      5.4805    
  4.7138      4.9653      5.0800      4.9732      4.6608      4.2567      3.8673      3.5068      3.2000      2.9752    
  2.8407      2.7866      2.7948      2.8524      2.9581      3.1223      3.3578      3.6667      4.0285      4.3966    
  4.1069      4.2001      4.2011      4.1045      3.9219      3.6809      3.4190      3.1742      2.9752      2.8376    
  2.7644      2.7504      2.7866      2.8641      2.9773      3.1241      3.3039      3.5117      3.7327      3.9414    
  3.9101      3.8784      3.7879      3.6509      3.4829      3.3005      3.1213      2.9630      2.8407      2.7644    
  2.7386      2.7644      2.8407      2.9630      3.1213      3.3005      3.4829      3.6509      3.7879      3.8784    
  4.1069      3.9414      3.7327      3.5117      3.3039      3.1241      2.9773      2.8641      2.7866      2.7504    
  2.7644      2.8376      2.9752      3.1742      3.4190      3.6809      3.9219      4.1045      4.2011      4.2001    
  4.7138      4.3966      4.0285      3.6667      3.3578      3.1223      2.9581      2.8524      2.7948      2.7866    
  2.8407      2.9752      3.2000      3.5068      3.8673      4.2567      4.6608      4.9732      5.0800      4.9653    
  6.4941      5.4805      4.7023      4.1405      3.6572      3.2908      3.0498      2.9119      2.8524      2.8641    
  2.9630      3.1742      3.5068      3.9360      4.5382      5.4643      6.5730      7.4876      7.8171      7.4151    
  11.692      9.0077      6.6017      5.0408      4.2285      3.6665      3.2739      3.0498      2.9581      2.9773    
  3.1213      3.4190      3.8673      4.5382      5.8915      8.0850      10.746      13.088      14.238      13.705    
  21.885      16.910      11.697      7.6343      5.2863      4.2607      3.6665      3.2908      3.1223      3.1241    
  3.3005      3.6809      4.2567      5.4643      8.0850      12.277      17.414      22.195      25.076      24.976    
  37.213      29.861      21.158      13.412      8.0498      5.2863      4.2285      3.6572      3.3578      3.3039    
  3.4829      3.9219      4.6608      6.5730      10.746      17.414      25.755      33.947      39.633      40.886    
  56.164      46.976      34.763      22.783      13.412      7.6343      5.0408      4.1405      3.6667      3.5117    
  3.6509      4.1045      4.9732      7.4876      13.088      22.195      33.947      46.145      55.631      59.415    
  75.376      65.623      50.705      34.763      21.158      11.697      6.6017      4.7023      4.0285      3.7327    
  3.7879      4.2011      5.0800      7.8171      14.238      25.076      39.633      55.631      69.366      76.783    
  90.025      81.534      65.623      46.976      29.861      16.910      9.0077      5.4805      4.3966      3.9414    
  3.8784      4.2001      4.9653      7.4151      13.705      24.976      40.886      59.415      76.783      88.232    
  90.025      88.232      76.783      59.415      40.886      24.976      13.705      7.4151      4.9653      4.2001    
  3.8784      3.9414      4.3966      5.4805      9.0077      16.910      29.861      46.976      65.623      81.534    
  88.232      90.017      81.523      65.614      46.972      29.860      16.910      9.0078      5.4811      4.3975    
  3.9417      3.8777      4.1993      4.9654      7.4158      13.706      24.978      40.891      59.422      76.789    
  76.783      81.523      76.778      64.183      47.669      31.434      18.443      10.002      5.8686      4.4920    
  3.9382      3.7587      3.9381      4.4920      5.8685      10.002      18.444      31.437      47.674      64.190    
  59.415      65.614      64.183      55.632      42.762      29.164      17.724      9.9494      5.9176      4.4644    
  3.8655      3.6028      3.6580      4.0406      4.7951      6.9408      12.208      21.386      33.895      47.671    
  40.886      46.972      47.669      42.762      33.949      23.906      15.070      8.8771      5.5718      4.3124    
  3.7304      3.4300      3.3973      3.6246      4.1423      5.0851      7.6676      13.067      21.385      31.434    
  24.976      29.860      31.434      29.164      23.906      17.416      11.478      7.2480      4.9798      4.0645    
  3.5480      3.2573      3.1795      3.2937      3.6279      4.2029      5.2094      7.6680      12.208      18.442    
  13.705      16.910      18.443      17.724      15.070      11.478      8.0854      5.6642      4.3760      3.7651    
  3.3417      3.0966      3.0117      3.0613      3.2562      3.6347      4.2034      5.0858      6.9410      10.001    
  7.4151      9.0078      10.002      9.9494      8.8771      7.2480      5.6642      4.5379      3.8998      3.4587    
  3.1391      2.9567      2.8901      2.9146      3.0285      3.2566      3.6285      4.1425      4.7946      5.8677    
  4.9653      5.4811      5.8686      5.9176      5.5718      4.9798      4.3760      3.8998      3.5067      3.1861    
  2.9657      2.8461      2.8088      2.8340      2.9148      3.0615      3.2936      3.6241      4.0398      4.4913    
  4.2001      4.3975      4.4920      4.4644      4.3124      4.0645      3.7651      3.4587      3.1861      2.9753    
  2.8384      2.7728      2.7672      2.8088      2.8901      3.0115      3.1791      3.3969      3.6578      3.9384    
  3.8784      3.9417      3.9382      3.8655      3.7304      3.5480      3.3417      3.1391      2.9657      2.8384    
  2.7644      2.7438      2.7727      2.8460      2.9565      3.0963      3.2572      3.4303      3.6034      3.7595    
  3.9414      3.8777      3.7587      3.6028      3.4300      3.2573      3.0966      2.9567      2.8461      2.7728    
  2.7438      2.7644      2.8383      2.9655      3.1391      3.3418      3.5485      3.7311      3.8662      3.9384    
  4.3966      4.1993      3.9381      3.6580      3.3973      3.1795      3.0117      2.8901      2.8088      2.7672    
  2.7727      2.8383      2.9752      3.1861      3.4589      3.7656      4.0650      4.3127      4.4643      4.4913    
  5.4805      4.9654      4.4920      4.0406      3.6246      3.2937      3.0613      2.9146      2.8340      2.8088    
  2.8460      2.9655      3.1861      3.5071      3.9003      4.3764      4.9798      5.5713      5.9167      5.8677    
  9.0077      7.4158      5.8685      4.7951      4.1423      3.6279      3.2562      3.0285      2.9148      2.8901    
  2.9565      3.1391      3.4589      3.9003      4.5381      5.6639      7.2471      8.8758      9.9481      10.001    
  16.910      13.706      10.002      6.9408      5.0851      4.2029      3.6347      3.2566      3.0615      3.0115    
  3.0963      3.3418      3.7656      4.3764      5.6639      8.0843      11.477      15.068      17.723      18.442    
  29.861      24.978      18.444      12.208      7.6676      5.2094      4.2034      3.6285      3.2936      3.1791    
  3.2572      3.5485      4.0650      4.9798      7.2471      11.477      17.413      23.904      29.162      31.434    
  46.976      40.891      31.437      21.386      13.067      7.6680      5.0858      4.1425      3.6241      3.3969    
  3.4303      3.7311      4.3127      5.5713      8.8758      15.068      23.904      33.946      42.761      47.671    
  65.623      59.422      47.674      33.895      21.385      12.208      6.9410      4.7946      4.0398      3.6578    
  3.6034      3.8662      4.4643      5.9167      9.9481      17.723      29.162      42.761      55.635      64.190    
  81.534      76.789      64.190      47.671      31.434      18.442      10.001      5.8677      4.4913      3.9384    
  3.7595      3.9384      4.4913      5.8677      10.001      18.442      31.434      47.671      64.190      76.789    
  75.376      76.783      69.366      55.631      39.633      25.076      14.238      7.8171      5.0800      4.2011    
  3.7879      3.7327      4.0285      4.7023      6.6017      11.697      21.158      34.763      50.705      65.623    
  76.783      81.523      76.778      64.183      47.669      31.434      18.443      10.002      5.8686      4.4920    
  3.9382      3.7587      3.9381      4.4920      5.8685      10.002      18.444      31.437      47.674      64.190    
  69.366      76.778      75.368      65.615      50.699      34.761      21.159      11.698      6.6020      4.7024    
  4.0286      3.7326      3.7879      4.2011      5.0800      7.8172      14.239      25.078      39.637      55.635    
  55.631      64.183      65.615      59.416      47.672      33.896      21.388      12.210      6.9415      4.7947    
  4.0398      3.6578      3.6034      3.8662      4.4643      5.9167      9.9485      17.724      29.163      42.761    
  39.633      47.669      50.699      47.672      39.638      29.167      19.064      11.324      6.7019      4.7124    
  3.9642      3.5429      3.4107      3.5429      3.9642      4.7124      6.7015      11.323      19.061      29.162    
  25.076      31.434      34.761      33.896      29.167      22.199      15.071      9.4262      5.9879      4.4659    
  3.8091      3.3996      3.2305      3.2706      3.5311      4.0418      4.8880      7.0209      11.323      17.723    
  14.238      18.443      21.159      21.388      19.064      15.071      10.747      7.2472      5.1120      4.1366    
  3.5980      3.2418      3.0748      3.0655      3.2085      3.5378      4.0705      4.8880      6.7014      9.9481    
  7.8171      10.002      11.698      12.210      11.324      9.4262      7.2472      5.4632      4.3755      3.7925    
  3.3649      3.0852      2.9480      2.9240      2.9995      3.1929      3.5378      4.0418      4.7124      5.9167    
  5.0800      5.8686      6.6020      6.9415      6.7019      5.9879      5.1120      4.3755      3.8669      3.4588    
  3.1451      2.9463      2.8508      2.8344      2.8821      2.9995      3.2085      3.5311      3.9642      4.4643    
  4.2011      4.4920      4.7024      4.7947      4.7124      4.4659      4.1366      3.7925      3.4588      3.1744    
  2.9657      2.8393      2.7854      2.7878      2.8344      2.9240      3.0655      3.2706      3.5429      3.8662    
  3.7879      3.9382      4.0286      4.0398      3.9642      3.8091      3.5980      3.3649      3.1451      2.9657    
  2.8408      2.7728      2.7569      2.7854      2.8508      2.9480      3.0748      3.2305      3.4107      3.6034    
  3.7327      3.7587      3.7326      3.6578      3.5429      3.3996      3.2418      3.0852      2.9463      2.8393    
  2.7728      2.7503      2.7727      2.8393      2.9463      3.0852      3.2418      3.3996      3.5429      3.6578    
  4.0285      3.9381      3.7879      3.6034      3.4107      3.2305      3.0748      2.9480      2.8508      2.7854    
  2.7569      2.7727      2.8407      2.9657      3.1451      3.3649      3.5980      3.8091      3.9642      4.0398    
  4.7023      4.4920      4.2011      3.8662      3.5429      3.2706      3.0655      2.9240      2.8344      2.7878    
  2.7854      2.8393      2.9657      3.1745      3.4589      3.7927      4.1369      4.4660      4.7124      4.7946    
  6.6017      5.8685      5.0800      4.4643      3.9642      3.5311      3.2085      2.9995      2.8821      2.8344    
  2.8508      2.9463      3.1451      3.4589      3.8673      4.3760      5.1124      5.9878      6.7014      6.9410    
  11.697      10.002      7.8172      5.9167      4.7124      4.0418      3.5378      3.1929      2.9995      2.9240    
  2.9480      3.0852      3.3649      3.7927      4.3760      5.4636      7.2470      9.4251      11.323      12.208    
  21.158      18.444      14.239      9.9485      6.7015      4.8880      4.0705      3.5378      3.2085      3.0655    
  3.0748      3.2418      3.5980      4.1369      5.1124      7.2470      10.746      15.068      19.061      21.385    
  34.763      31.437      25.078      17.724      11.323      7.0209      4.8880      4.0418      3.5311      3.2706    
  3.2305      3.3996      3.8091      4.4660      5.9878      9.4251      15.068      22.195      29.163      33.895    
  50.705      47.674      39.637      29.163      19.061      11.323      6.7014      4.7124      3.9642      3.5429    
  3.4107      3.5429      3.9642      4.7124      6.7014      11.323      19.061      29.163      39.637      47.674    
  65.623      64.190      55.635      42.761      29.162      17.723      9.9481      5.9167      4.4643      3.8662    
  3.6034      3.6578      4.0398      4.7946      6.9410      12.208      21.385      33.895      47.674      59.422    
  56.164      59.415      55.631      46.145      33.947      22.195      13.088      7.4876      4.9732      4.1045    
  3.6509      3.5117      3.6667      4.1405      5.0408      7.6343      13.412      22.783      34.763      46.976    
  59.415      65.614      64.183      55.632      42.762      29.164      17.724      9.9494      5.9176      4.4644    
  3.8655      3.6028      3.6580      4.0406      4.7951      6.9408      12.208      21.386      33.895      47.671    
  55.631      64.183      65.615      59.416      47.672      33.896      21.388      12.210      6.9415      4.7947    
  4.0398      3.6578      3.6034      3.8662      4.4643      5.9167      9.9485      17.724      29.163      42.761    
  46.145      55.632      59.416      56.165      46.978      34.765      22.785      13.414      7.6345      5.0400    
  4.1399      3.6669      3.5124      3.6511      4.1039      4.9724      7.4873      13.088      22.195      33.946    
  33.947      42.762      47.672      46.978      40.893      31.440      21.389      13.068      7.6676      5.0849    
  4.1422      3.6246      3.3974      3.4301      3.7304      4.3124      5.5715      8.8762      15.068      23.904    
  22.195      29.164      33.896      34.765      31.440      25.081      17.726      11.323      7.0196      4.8870    
  4.0418      3.5316      3.2708      3.2301      3.3992      3.8093      4.4666      5.9882      9.4251      15.068    
  13.088      17.724      21.388      22.785      21.389      17.726      13.088      8.8748      5.9864      4.5275    
  3.8551      3.3972      3.1435      3.0662      3.1435      3.3973      3.8554      4.5283      5.9878      8.8758    
  7.4876      9.9494      12.210      13.414      13.068      11.323      8.8748      6.5705      4.9782      4.1364    
  3.6158      3.2396      3.0238      2.9419      2.9684      3.1103      3.3996      3.8549      4.4660      5.5713    
  4.9732      5.9176      6.9415      7.6345      7.6676      7.0196      5.9864      4.9782      4.2557      3.7652    
  3.3649      3.0821      2.9195      2.8535      2.8614      2.9405      3.1099      3.3968      3.8091      4.3127    
  4.1045      4.4644      4.7947      5.0400      5.0849      4.8870      4.5275      4.1364      3.7652      3.4194    
  3.1392      2.9463      2.8378      2.7969      2.8067      2.8613      2.9683      3.1435      3.3996      3.7311    
  3.6509      3.8655      4.0398      4.1399      4.1422      4.0418      3.8551      3.6158      3.3649      3.1392    
  2.9631      2.8460      2.7854      2.7723      2.7970      2.8535      2.9420      3.0666      3.2305      3.4303    
  3.5117      3.6028      3.6578      3.6669      3.6246      3.5316      3.3972      3.2396      3.0821      2.9463    
  2.8460      2.7865      2.7672      2.7855      2.8379      2.9197      3.0240      3.1435      3.2706      3.3969    
  3.6667      3.6580      3.6034      3.5124      3.3974      3.2708      3.1435      3.0238      2.9195      2.8378    
  2.7854      2.7672      2.7866      2.8461      2.9463      3.0821      3.2394      3.3968      3.5311      3.6241    
  4.1405      4.0406      3.8662      3.6511      3.4301      3.2301      3.0662      2.9419      2.8535      2.7969    
  2.7723      2.7855      2.8461      2.9631      3.1390      3.3646      3.6155      3.8549      4.0418      4.1425    
  5.0408      4.7951      4.4643      4.1039      3.7304      3.3992      3.1435      2.9684      2.8614      2.8067    
  2.7970      2.8379      2.9463      3.1390      3.4190      3.7651      4.1369      4.5283      4.8880      5.0858    
  7.6343      6.9408      5.9167      4.9724      4.3124      3.8093      3.3973      3.1103      2.9405      2.8613    
  2.8535      2.9197      3.0821      3.3646      3.7651      4.2564      4.9798      5.9882      7.0209      7.6680    
  13.412      12.208      9.9485      7.4873      5.5715      4.4666      3.8554      3.3996      3.1099      2.9683    
  2.9420      3.0240      3.2394      3.6155      4.1369      4.9798      6.5726      8.8762      11.323      13.067    
  22.783      21.386      17.724      13.088      8.8762      5.9882      4.5283      3.8549      3.3968      3.1435    
  3.0666      3.1435      3.3968      3.8549      4.5283      5.9882      8.8762      13.088      17.724      21.386    
  34.763      33.895      29.163      22.195      15.068      9.4251      5.9878      4.4660      3.8091      3.3996    
  3.2305      3.2706      3.5311      4.0418      4.8880      7.0209      11.323      17.724      25.078      31.437    
  46.976      47.671      42.761      33.946      23.904      15.068      8.8758      5.5713      4.3127      3.7311    
  3.4303      3.3969      3.6241      4.1425      5.0858      7.6680      13.067      21.386      31.437      40.891    
  37.213      40.886      39.633      33.947      25.755      17.414      10.746      6.5730      4.6608      3.9219    
  3.4829      3.3039      3.3578      3.6572      4.2285      5.2863      8.0498      13.412      21.158      29.861    
  40.886      46.972      47.669      42.762      33.949      23.906      15.070      8.8771      5.5718      4.3124    
  3.7304      3.4300      3.3973      3.6246      4.1423      5.0851      7.6676      13.067      21.385      31.434    
  39.633      47.669      50.699      47.672      39.638      29.167      19.064      11.324      6.7019      4.7124    
  3.9642      3.5429      3.4107      3.5429      3.9642      4.7124      6.7015      11.323      19.061      29.162    
  33.947      42.762      47.672      46.978      40.893      31.440      21.389      13.068      7.6676      5.0849    
  4.1422      3.6246      3.3974      3.4301      3.7304      4.3124      5.5715      8.8762      15.068      23.904    
  25.755      33.949      39.638      40.893      37.220      29.866      21.161      13.412      8.0488      5.2855    
  4.2282      3.6571      3.3578      3.3040      3.4829      3.9219      4.6607      6.5726      10.746      17.413    
  17.414      23.906      29.167      31.440      29.866      24.980      18.443      12.206      7.6654      5.2080    
  4.2029      3.6284      3.2936      3.1791      3.2572      3.5485      4.0650      4.9798      7.2470      11.477    
  10.746      15.070      19.064      21.389      21.161      18.443      14.236      9.9450      6.6987      4.8865    
  4.0701      3.5378      3.2085      3.0654      3.0748      3.2418      3.5980      4.1369      5.1124      7.2471    
  6.5730      8.8771      11.324      13.068      13.412      12.206      9.9450      7.4838      5.5692      4.4657    
  3.8553      3.3997      3.1100      2.9683      2.9420      3.0240      3.2394      3.6155      4.1369      4.9798    
  4.6608      5.5718      6.7019      7.6676      8.0488      7.6654      6.6987      5.5692      4.6596      4.0650    
  3.5984      3.2397      3.0094      2.8900      2.8543      2.8900      3.0093      3.2394      3.5980      4.0650    
  3.9219      4.3124      4.7124      5.0849      5.2855      5.2080      4.8865      4.4657      4.0650      3.6816    
  3.3423      3.0852      2.9195      2.8321      2.8033      2.8216      2.8900      3.0240      3.2418      3.5485    
  3.4829      3.7304      3.9642      4.1422      4.2282      4.2029      4.0701      3.8553      3.5984      3.3423    
  3.1217      2.9566      2.8508      2.7969      2.7838      2.8033      2.8543      2.9420      3.0748      3.2572    
  3.3039      3.4300      3.5429      3.6246      3.6571      3.6284      3.5378      3.3997      3.2397      3.0852    
  2.9566      2.8641      2.8088      2.7878      2.7970      2.8321      2.8900      2.9683      3.0655      3.1791    
  3.3578      3.3973      3.4107      3.3974      3.3578      3.2936      3.2085      3.1100      3.0094      2.9195    
  2.8508      2.8088      2.7948      2.8088      2.8508      2.9195      3.0093      3.1099      3.2085      3.2936    
  3.6572      3.6246      3.5429      3.4301      3.3040      3.1791      3.0654      2.9683      2.8900      2.8321    
  2.7969      2.7878      2.8088      2.8641      2.9565      3.0849      3.2394      3.3996      3.5378      3.6285    
  4.2285      4.1423      3.9642      3.7304      3.4829      3.2572      3.0748      2.9420      2.8543      2.8033    
  2.7838      2.7970      2.8508      2.9565      3.1213      3.3417      3.5980      3.8554      4.0705      4.2034    
  5.2863      5.0851      4.7124      4.3124      3.9219      3.5485      3.2418      3.0240      2.8900      2.8216    
  2.8033      2.8321      2.9195      3.0849      3.3417      3.6811      4.0650      4.4666      4.8880      5.2094    
  8.0498      7.6676      6.7015      5.5715      4.6607      4.0650      3.5980      3.2394      3.0093      2.8900    
  2.8543      2.8900      3.0093      3.2394      3.5980      4.0650      4.6607      5.5715      6.7015      7.6676    
  13.412      13.067      11.323      8.8762      6.5726      4.9798      4.1369      3.6155      3.2394      3.0240    
  2.9420      2.9683      3.1099      3.3996      3.8554      4.4666      5.5715      7.4873      9.9485      12.208    
  21.158      21.385      19.061      15.068      10.746      7.2470      5.1124      4.1369      3.5980      3.2418    
  3.0748      3.0655      3.2085      3.5378      4.0705      4.8880      6.7015      9.9485      14.239      18.444    
  29.861      31.434      29.162      23.904      17.413      11.477      7.2471      4.9798      4.0650      3.5485    
  3.2572      3.1791      3.2936      3.6285      4.2034      5.2094      7.6676      12.208      18.444      24.978    
  21.885      24.976      25.076      22.195      17.414      12.277      8.0850      5.4643      4.2567      3.6809    
  3.3005      3.1241      3.1223      3.2908      3.6665      4.2607      5.2863      7.6343      11.697      16.910    
  24.976      29.860      31.434      29.164      23.906      17.416      11.478      7.2480      4.9798      4.0645    
  3.5480      3.2573      3.1795      3.2937      3.6279      4.2029      5.2094      7.6680      12.208      18.442    
  25.076      31.434      34.761      33.896      29.167      22.199      15.071      9.4262      5.9879      4.4659    
  3.8091      3.3996      3.2305      3.2706      3.5311      4.0418      4.8880      7.0209      11.323      17.723    
  22.195      29.164      33.896      34.765      31.440      25.081      17.726      11.323      7.0196      4.8870    
  4.0418      3.5316      3.2708      3.2301      3.3992      3.8093      4.4666      5.9882      9.4251      15.068    
  17.414      23.906      29.167      31.440      29.866      24.980      18.443      12.206      7.6654      5.2080    
  4.2029      3.6284      3.2936      3.1791      3.2572      3.5485      4.0650      4.9798      7.2470      11.477    
  12.277      17.416      22.199      25.081      24.980      21.886      16.908      11.693      7.6306      5.2849    
  4.2609      3.6668      3.2906      3.1220      3.1242      3.3010      3.6811      4.2564      5.4636      8.0843    
  8.0850      11.478      15.071      17.726      18.443      16.908      13.701      9.9961      6.9375      5.0845    
  4.2034      3.6350      3.2564      3.0613      3.0117      3.0965      3.3417      3.7651      4.3760      5.6639    
  5.4643      7.2480      9.4262      11.323      12.206      11.693      9.9961      7.8130      5.9152      4.7130    
  4.0428      3.5382      3.1928      2.9994      2.9241      2.9480      3.0849      3.3646      3.7927      4.3764    
  4.2567      4.9798      5.9879      7.0196      7.6654      7.6306      6.9375      5.9152      4.9731      4.3140    
  3.8106      3.3977      3.1103      2.9405      2.8614      2.8535      2.9195      3.0821      3.3649      3.7656    
  3.6809      4.0645      4.4659      4.8870      5.2080      5.2849      5.0845      4.7130      4.3140      3.9236    
  3.5495      3.2421      3.0240      2.8901      2.8217      2.8033      2.8321      2.9197      3.0852      3.3418    
  3.3005      3.5480      3.8091      4.0418      4.2029      4.2609      4.2034      4.0428      3.8106      3.5495    
  3.3015      3.0966      2.9480      2.8535      2.8033      2.7879      2.8033      2.8535      2.9480      3.0963    
  3.1241      3.2573      3.3996      3.5316      3.6284      3.6668      3.6350      3.5382      3.3977      3.2421    
  3.0966      2.9772      2.8900      2.8344      2.8067      2.8033      2.8216      2.8613      2.9240      3.0115    
  3.1223      3.1795      3.2305      3.2708      3.2936      3.2906      3.2564      3.1928      3.1103      3.0240    
  2.9480      2.8900      2.8523      2.8339      2.8344      2.8535      2.8900      2.9405      2.9995      3.0615    
  3.2908      3.2937      3.2706      3.2301      3.1791      3.1220      3.0613      2.9994      2.9405      2.8901    
  2.8535      2.8344      2.8339      2.8523      2.8901      2.9480      3.0240      3.1103      3.1929      3.2566    
  3.6665      3.6279      3.5311      3.3992      3.2572      3.1242      3.0117      2.9241      2.8614      2.8217    
  2.8033      2.8067      2.8344      2.8901      2.9773      3.0965      3.2418      3.3973      3.5378      3.6347    
  4.2607      4.2029      4.0418      3.8093      3.5485      3.3010      3.0965      2.9480      2.8535      2.8033    
  2.7879      2.8033      2.8535      2.9480      3.0965      3.3010      3.5485      3.8093      4.0418      4.2029    
  5.2863      5.2094      4.8880      4.4666      4.0650      3.6811      3.3417      3.0849      2.9195      2.8321    
  2.8033      2.8216      2.8900      3.0240      3.2418      3.5485      3.9219      4.3124      4.7124      5.0851    
  7.6343      7.6680      7.0209      5.9882      4.9798      4.2564      3.7651      3.3646      3.0821      2.9197    
  2.8535      2.8613      2.9405      3.1103      3.3973      3.8093      4.3124      4.9724      5.9167      6.9408    
  11.697      12.208      11.323      9.4251      7.2470      5.4636      4.3760      3.7927      3.3649      3.0852    
  2.9480      2.9240      2.9995      3.1929      3.5378      4.0418      4.7124      5.9167      7.8172      10.002    
  16.910      18.442      17.723      15.068      11.477      8.0843      5.6639      4.3764      3.7656      3.3418    
  3.0963      3.0115      3.0615      3.2566      3.6347      4.2029      5.0851      6.9408      10.002      13.706    
  11.692      13.705      14.238      13.088      10.746      8.0850      5.8915      4.5382      3.8673      3.4190    
  3.1213      2.9773      2.9581      3.0498      3.2739      3.6665      4.2285      5.0408      6.6017      9.0077    
  13.705      16.910      18.443      17.724      15.070      11.478      8.0854      5.6642      4.3760      3.7651    
  3.3417      3.0966      3.0117      3.0613      3.2562      3.6347      4.2034      5.0858      6.9410      10.001    
  14.238      18.443      21.159      21.388      19.064      15.071      10.747      7.2472      5.1120      4.1366    