bcc Fe                                  
   2.83000000000000     
    -0.500000    0.500000    0.500000
     0.500000   -0.500000    0.500000
     0.500000    0.500000   -0.500000
   Fe
     1
Direct
  0.000000  0.000000  0.000000
 
   20   20   20
 0.95543525936E+02 0.90024626962E+02 0.75376106857E+02 0.56164023202E+02 0.37213015815E+02
 0.21885159776E+02 0.11692294625E+02 0.64940506174E+01 0.47138208009E+01 0.41069227458E+01
 0.39101075160E+01 0.41069227458E+01 0.47138208009E+01 0.64940506174E+01 0.11692294625E+02
 0.21885159776E+02 0.37213015815E+02 0.56164023202E+02 0.75376106857E+02 0.90024626962E+02
 0.90024626962E+02 0.88231794204E+02 0.76783154551E+02 0.59414883139E+02 0.40886230181E+02
 0.24975691681E+02 0.13705041620E+02 0.74151198049E+01 0.49653375887E+01 0.42000906244E+01
 0.38783727003E+01 0.39414132769E+01 0.43966180128E+01 0.54804724775E+01 0.90077311497E+01
 0.16910349647E+02 0.29860889742E+02 0.46976379698E+02 0.65623255882E+02 0.81533553068E+02
 0.75376106857E+02 0.76783154551E+02 0.69366154004E+02 0.55631264174E+02 0.39633390672E+02
 0.25075944781E+02 0.14238092959E+02 0.78171324352E+01 0.50799543481E+01 0.42010716910E+01
 0.37879095864E+01 0.37326560154E+01 0.40285457573E+01 0.47023140670E+01 0.66016749996E+01
 0.11697244659E+02 0.21158492656E+02 0.34762879192E+02 0.50704616277E+02 0.65623255882E+02
 0.56164023202E+02 0.59414883139E+02 0.55631264174E+02 0.46144676086E+02 0.33946664141E+02
 0.22195331666E+02 0.13087902388E+02 0.74876314955E+01 0.49732056261E+01 0.41044523702E+01
 0.36508828831E+01 0.35117246831E+01 0.36666773818E+01 0.41404871249E+01 0.50407676766E+01
 0.76342772861E+01 0.13411935126E+02 0.22782938488E+02 0.34762879192E+02 0.46976379698E+02
 0.37213015815E+02 0.40886230181E+02 0.39633390672E+02 0.33946664141E+02 0.25754655183E+02
 0.17414120827E+02 0.10746343828E+02 0.65729716956E+01 0.46608181629E+01 0.39218592702E+01
 0.34828706977E+01 0.33039471310E+01 0.33578092934E+01 0.36572147373E+01 0.42285403177E+01
 0.52863380486E+01 0.80498487881E+01 0.13411935126E+02 0.21158492656E+02 0.29860889742E+02
 0.21885159776E+02 0.24975691681E+02 0.25075944781E+02 0.22195331666E+02 0.17414120827E+02
 0.12277198549E+02 0.80850035240E+01 0.54642677531E+01 0.42566981507E+01 0.36808691339E+01
 0.33005186813E+01 0.31241222532E+01 0.31223483444E+01 0.32908143449E+01 0.36665464013E+01
 0.42606981367E+01 0.52863380486E+01 0.76342772861E+01 0.11697244659E+02 0.16910349647E+02
 0.11692294625E+02 0.13705041620E+02 0.14238092959E+02 0.13087902388E+02 0.10746343828E+02
 0.80850035240E+01 0.58915112700E+01 0.45382368276E+01 0.38672841741E+01 0.34190266710E+01
 0.31213360195E+01 0.29773104297E+01 0.29581181052E+01 0.30497526324E+01 0.32738889096E+01
 0.36665464013E+01 0.42285403177E+01 0.50407676766E+01 0.66016749996E+01 0.90077311497E+01
 0.64940506174E+01 0.74151198049E+01 0.78171324352E+01 0.74876314955E+01 0.65729716956E+01
 0.54642677531E+01 0.45382368276E+01 0.39359764115E+01 0.35068100474E+01 0.31741698691E+01
 0.29630074533E+01 0.28641467096E+01 0.28523627828E+01 0.29118939745E+01 0.30497526324E+01
 0.32908143449E+01 0.36572147373E+01 0.41404871249E+01 0.47023140670E+01 0.54804724775E+01
 0.47138208009E+01 0.49653375887E+01 0.50799543481E+01 0.49732056261E+01 0.46608181629E+01
 0.42566981507E+01 0.38672841741E+01 0.35068100474E+01 0.32000043308E+01 0.29752198414E+01
 0.28407226425E+01 0.27865589116E+01 0.27948441617E+01 0.28523627828E+01 0.29581181052E+01
 0.31223483444E+01 0.33578092934E+01 0.36666773818E+01 0.40285457573E+01 0.43966180128E+01
 0.41069227458E+01 0.42000906244E+01 0.42010716910E+01 0.41044523702E+01 0.39218592702E+01
 0.36808691339E+01 0.34190266710E+01 0.31741698691E+01 0.29752198414E+01 0.28376334378E+01
 0.27644287918E+01 0.27503791406E+01 0.27865589116E+01 0.28641467096E+01 0.29773104297E+01
 0.31241222532E+01 0.33039471310E+01 0.35117246831E+01 0.37326560154E+01 0.39414132769E+01
 0.39101075160E+01 0.38783727003E+01 0.37879095864E+01 0.36508828831E+01 0.34828706977E+01
 0.33005186813E+01 0.31213360195E+01 0.29630074533E+01 0.28407226425E+01 0.27644287918E+01
 0.27386356114E+01 0.27644287918E+01 0.28407226425E+01 0.29630074533E+01 0.31213360195E+01
 0.33005186813E+01 0.34828706977E+01 0.36508828831E+01 0.37879095864E+01 0.38783727003E+01
 0.41069227458E+01 0.39414132769E+01 0.37326560154E+01 0.35117246831E+01 0.33039471310E+01
 0.31241222532E+01 0.29773104297E+01 0.28641467096E+01 0.27865589116E+01 0.27503791406E+01
 0.27644287918E+01 0.28376334378E+01 0.29752198414E+01 0.31741698691E+01 0.34190266710E+01
 0.36808691339E+01 0.39218592702E+01 0.41044523702E+01 0.42010716910E+01 0.42000906244E+01
 0.47138208009E+01 0.43966180128E+01 0.40285457573E+01 0.36666773818E+01 0.33578092934E+01
 0.31223483444E+01 0.29581181052E+01 0.28523627828E+01 0.27948441617E+01 0.27865589116E+01
 0.28407226425E+01 0.29752198414E+01 0.32000043308E+01 0.35068100474E+01 0.38672841741E+01
 0.42566981507E+01 0.46608181629E+01 0.49732056261E+01 0.50799543481E+01 0.49653375887E+01
 0.64940506174E+01 0.54804724775E+01 0.47023140670E+01 0.41404871249E+01 0.36572147373E+01
 0.32908143449E+01 0.30497526324E+01 0.29118939745E+01 0.28523627828E+01 0.28641467096E+01
 0.29630074533E+01 0.31741698691E+01 0.35068100474E+01 0.39359764115E+01 0.45382368276E+01
 0.54642677531E+01 0.65729716956E+01 0.74876314955E+01 0.78171324352E+01 0.74151198049E+01
 0.11692294625E+02 0.90077311497E+01 0.66016749996E+01 0.50407676766E+01 0.42285403177E+01
 0.36665464013E+01 0.32738889096E+01 0.30497526324E+01 0.29581181052E+01 0.29773104297E+01
 0.31213360195E+01 0.34190266710E+01 0.38672841741E+01 0.45382368276E+01 0.58915112700E+01
 0.80850035240E+01 0.10746343828E+02 0.13087902388E+02 0.14238092959E+02 0.13705041620E+02
 0.21885159776E+02 0.16910349647E+02 0.11697244659E+02 0.76342772861E+01 0.52863380486E+01
 0.42606981367E+01 0.36665464013E+01 0.32908143449E+01 0.31223483444E+01 0.31241222532E+01
 0.33005186813E+01 0.36808691339E+01 0.42566981507E+01 0.54642677531E+01 0.80850035240E+01
 0.12277198549E+02 0.17414120827E+02 0.22195331666E+02 0.25075944781E+02 0.24975691681E+02
 0.37213015815E+02 0.29860889742E+02 0.21158492656E+02 0.13411935126E+02 0.80498487881E+01
 0.52863380486E+01 0.42285403177E+01 0.36572147373E+01 0.33578092934E+01 0.33039471310E+01
 0.34828706977E+01 0.39218592702E+01 0.46608181629E+01 0.65729716956E+01 0.10746343828E+02
 0.17414120827E+02 0.25754655183E+02 0.33946664141E+02 0.39633390672E+02 0.40886230181E+02
 0.56164023202E+02 0.46976379698E+02 0.34762879192E+02 0.22782938488E+02 0.13411935126E+02
 0.76342772861E+01 0.50407676766E+01 0.41404871249E+01 0.36666773818E+01 0.35117246831E+01
 0.36508828831E+01 0.41044523702E+01 0.49732056261E+01 0.74876314955E+01 0.13087902388E+02
 0.22195331666E+02 0.33946664141E+02 0.46144676086E+02 0.55631264174E+02 0.59414883139E+02
 0.75376106857E+02 0.65623255882E+02 0.50704616277E+02 0.34762879192E+02 0.21158492656E+02
 0.11697244659E+02 0.66016749996E+01 0.47023140670E+01 0.40285457573E+01 0.37326560154E+01
 0.37879095864E+01 0.42010716910E+01 0.50799543481E+01 0.78171324352E+01 0.14238092959E+02
 0.25075944781E+02 0.39633390672E+02 0.55631264174E+02 0.69366154004E+02 0.76783154551E+02
 0.90024626962E+02 0.81533553068E+02 0.65623255882E+02 0.46976379698E+02 0.29860889742E+02
 0.16910349647E+02 0.90077311497E+01 0.54804724775E+01 0.43966180128E+01 0.39414132769E+01
 0.38783727003E+01 0.42000906244E+01 0.49653375887E+01 0.74151198049E+01 0.13705041620E+02
 0.24975691681E+02 0.40886230181E+02 0.59414883139E+02 0.76783154551E+02 0.88231794204E+02
 0.90024626962E+02 0.88231794204E+02 0.76783154551E+02 0.59414883139E+02 0.40886230181E+02
 0.24975691681E+02 0.13705041620E+02 0.74151198049E+01 0.49653375887E+01 0.42000906244E+01
 0.38783727003E+01 0.39414132769E+01 0.43966180128E+01 0.54804724775E+01 0.90077311497E+01
 0.16910349647E+02 0.29860889742E+02 0.46976379698E+02 0.65623255882E+02 0.81533553068E+02
 0.88231794204E+02 0.90017450275E+02 0.81522833639E+02 0.65614269652E+02 0.46971724261E+02
 0.29859506226E+02 0.16910088404E+02 0.90077824995E+01 0.54810905566E+01 0.43975352101E+01
 0.39416721694E+01 0.38776651161E+01 0.41993092339E+01 0.49653710455E+01 0.74157768667E+01
 0.13705917317E+02 0.24977701180E+02 0.40891030479E+02 0.59422138606E+02 0.76789112070E+02
 0.76783154551E+02 0.81522833639E+02 0.76778196944E+02 0.64183460640E+02 0.47668660111E+02
 0.31433962984E+02 0.18443212045E+02 0.10001891863E+02 0.58686269525E+01 0.44919847896E+01
 0.39381620520E+01 0.37587060929E+01 0.39381387226E+01 0.44919635992E+01 0.58685037369E+01
 0.10001694452E+02 0.18443717897E+02 0.31436624247E+02 0.47674223457E+02 0.64190437643E+02
 0.59414883139E+02 0.65614269652E+02 0.64183460640E+02 0.55631773566E+02 0.42761777587E+02
 0.29163760200E+02 0.17724324428E+02 0.99494111613E+01 0.59175734885E+01 0.44643931573E+01
 0.38655447849E+01 0.36028046696E+01 0.36580215281E+01 0.40405969461E+01 0.47950732849E+01
 0.69408498406E+01 0.12208130775E+02 0.21386105424E+02 0.33894996255E+02 0.47670992757E+02
 0.40886230181E+02 0.46971724261E+02 0.47668660111E+02 0.42761777587E+02 0.33948790873E+02
 0.23906475185E+02 0.15069966339E+02 0.88771394592E+01 0.55718294178E+01 0.43124026616E+01
 0.37304065669E+01 0.34300490207E+01 0.33973418190E+01 0.36245569548E+01 0.41423090024E+01
 0.50851296520E+01 0.76676266161E+01 0.13066916726E+02 0.21385318277E+02 0.31433713466E+02
 0.24975691681E+02 0.29859506226E+02 0.31433962984E+02 0.29163760200E+02 0.23906475185E+02
 0.17415748438E+02 0.11478425093E+02 0.72480304959E+01 0.49798381965E+01 0.40645176837E+01
 0.35480445982E+01 0.32573080692E+01 0.31795368767E+01 0.32936704083E+01 0.36279474187E+01
 0.42028542682E+01 0.52093685474E+01 0.76680275396E+01 0.12208001838E+02 0.18442403998E+02
 0.13705041620E+02 0.16910088404E+02 0.18443212045E+02 0.17724324428E+02 0.15069966339E+02
 0.11478425093E+02 0.80854300935E+01 0.56641929502E+01 0.43759913771E+01 0.37650862601E+01
 0.33417405169E+01 0.30965503188E+01 0.30117352572E+01 0.30612747733E+01 0.32562416769E+01
 0.36347080052E+01 0.42034271623E+01 0.50858261629E+01 0.69409736572E+01 0.10001042664E+02
 0.74151198049E+01 0.90077824995E+01 0.10001891863E+02 0.99494111613E+01 0.88771394592E+01
 0.72480304959E+01 0.56641929502E+01 0.45378523122E+01 0.38998279652E+01 0.34586572248E+01
 0.31391495294E+01 0.29567173082E+01 0.28901490930E+01 0.29146382195E+01 0.30285257596E+01
 0.32566005661E+01 0.36284719807E+01 0.41425030771E+01 0.47946307072E+01 0.58676514725E+01
 0.49653375887E+01 0.54810905566E+01 0.58686269525E+01 0.59175734885E+01 0.55718294178E+01
 0.49798381965E+01 0.43759913771E+01 0.38998279652E+01 0.35067342520E+01 0.31860863229E+01
 0.29656703313E+01 0.28461031050E+01 0.28088371384E+01 0.28339632941E+01 0.29147654918E+01
 0.30614552182E+01 0.32936181857E+01 0.36240652002E+01 0.40398149479E+01 0.44913472251E+01
 0.42000906244E+01 0.43975352101E+01 0.44919847896E+01 0.44643931573E+01 0.43124026616E+01
 0.40645176837E+01 0.37650862601E+01 0.34586572248E+01 0.31860863229E+01 0.29753396828E+01
 0.28383904002E+01 0.27727949115E+01 0.27671998704E+01 0.28088250022E+01 0.28900958842E+01
 0.30115316054E+01 0.31791276832E+01 0.33968734243E+01 0.36578112843E+01 0.39384431279E+01
 0.38783727003E+01 0.39416721694E+01 0.39381620520E+01 0.38655447849E+01 0.37304065669E+01
 0.35480445982E+01 0.33417405169E+01 0.31391495294E+01 0.29656703313E+01 0.28383904002E+01
 0.27644449894E+01 0.27437653628E+01 0.27727402064E+01 0.28459690455E+01 0.29564894433E+01
 0.30962905914E+01 0.32571820364E+01 0.34302510540E+01 0.36034039591E+01 0.37595352662E+01
 0.39414132769E+01 0.38776651161E+01 0.37587060929E+01 0.36028046696E+01 0.34300490207E+01
 0.32573080692E+01 0.30965503189E+01 0.29567173082E+01 0.28461031050E+01 0.27727949115E+01
 0.27437653628E+01 0.27643893167E+01 0.28382692475E+01 0.29655117237E+01 0.31390520371E+01
 0.33418486871E+01 0.35484547659E+01 0.37310541693E+01 0.38661738717E+01 0.39384431279E+01
 0.43966180128E+01 0.41993092339E+01 0.39381387226E+01 0.36580215281E+01 0.33973418190E+01
 0.31795368767E+01 0.30117352572E+01 0.28901490930E+01 0.28088371384E+01 0.27671998704E+01
 0.27727402064E+01 0.28382692475E+01 0.29752313153E+01 0.31861200104E+01 0.34589213163E+01
 0.37655576821E+01 0.40650388753E+01 0.43127173287E+01 0.44642606821E+01 0.44913472251E+01
 0.54804724775E+01 0.49653710455E+01 0.44919635992E+01 0.40405969461E+01 0.36245569548E+01
 0.32936704083E+01 0.30612747733E+01 0.29146382195E+01 0.28339632941E+01 0.28088250022E+01
 0.28459690455E+01 0.29655117237E+01 0.31861200104E+01 0.35070628382E+01 0.39003174282E+01
 0.43763559707E+01 0.49798160652E+01 0.55713125199E+01 0.59166673875E+01 0.58676514725E+01
 0.90077311497E+01 0.74157768667E+01 0.58685037369E+01 0.47950732849E+01 0.41423090024E+01
 0.36279474187E+01 0.32562416769E+01 0.30285257596E+01 0.29147654918E+01 0.28900958842E+01
 0.29564894433E+01 0.31390520371E+01 0.34589213163E+01 0.39003174282E+01 0.45381483128E+01
 0.56639224185E+01 0.72471099118E+01 0.88757960607E+01 0.99480750058E+01 0.10001042664E+02
 0.16910349647E+02 0.13705917317E+02 0.10001694452E+02 0.69408498406E+01 0.50851296520E+01
 0.42028542682E+01 0.36347080052E+01 0.32566005661E+01 0.30614552182E+01 0.30115316054E+01
 0.30962905914E+01 0.33418486871E+01 0.37655576821E+01 0.43763559707E+01 0.56639224185E+01
 0.80843117082E+01 0.11476625304E+02 0.15067919405E+02 0.17722619709E+02 0.18442403998E+02
 0.29860889742E+02 0.24977701180E+02 0.18443717897E+02 0.12208130775E+02 0.76676266161E+01
 0.52093685474E+01 0.42034271623E+01 0.36284719807E+01 0.32936181857E+01 0.31791276832E+01
 0.32571820364E+01 0.35484547659E+01 0.40650388753E+01 0.49798160652E+01 0.72471099118E+01
 0.11476625304E+02 0.17413311237E+02 0.23903911371E+02 0.29161934383E+02 0.31433713466E+02
 0.46976379698E+02 0.40891030479E+02 0.31436624247E+02 0.21386105424E+02 0.13066916726E+02
 0.76680275396E+01 0.50858261629E+01 0.41425030771E+01 0.36240652002E+01 0.33968734243E+01
 0.34302510540E+01 0.37310541693E+01 0.43127173287E+01 0.55713125199E+01 0.88757960607E+01
 0.15067919405E+02 0.23903911371E+02 0.33946489481E+02 0.42761226197E+02 0.47670992757E+02
 0.65623255882E+02 0.59422138606E+02 0.47674223457E+02 0.33894996255E+02 0.21385318277E+02
 0.12208001838E+02 0.69409736572E+01 0.47946307072E+01 0.40398149479E+01 0.36578112843E+01
 0.36034039591E+01 0.38661738717E+01 0.44642606821E+01 0.59166673875E+01 0.99480750058E+01
 0.17722619709E+02 0.29161934383E+02 0.42761226197E+02 0.55634614709E+02 0.64190437643E+02
 0.81533553068E+02 0.76789112070E+02 0.64190437643E+02 0.47670992757E+02 0.31433713466E+02
 0.18442403998E+02 0.10001042664E+02 0.58676514725E+01 0.44913472251E+01 0.39384431279E+01
 0.37595352662E+01 0.39384431279E+01 0.44913472251E+01 0.58676514725E+01 0.10001042664E+02
 0.18442403998E+02 0.31433713466E+02 0.47670992757E+02 0.64190437643E+02 0.76789112070E+02
 0.75376106857E+02 0.76783154551E+02 0.69366154004E+02 0.55631264174E+02 0.39633390672E+02
 0.25075944781E+02 0.14238092959E+02 0.78171324352E+01 0.50799543481E+01 0.42010716910E+01
 0.37879095864E+01 0.37326560154E+01 0.40285457573E+01 0.47023140670E+01 0.66016749996E+01
 0.11697244659E+02 0.21158492656E+02 0.34762879192E+02 0.50704616277E+02 0.65623255882E+02
 0.76783154551E+02 0.81522833639E+02 0.76778196944E+02 0.64183460640E+02 0.47668660111E+02
 0.31433962984E+02 0.18443212045E+02 0.10001891863E+02 0.58686269525E+01 0.44919847896E+01
 0.39381620520E+01 0.37587060929E+01 0.39381387226E+01 0.44919635992E+01 0.58685037369E+01
 0.10001694452E+02 0.18443717897E+02 0.31436624247E+02 0.47674223457E+02 0.64190437643E+02
 0.69366154004E+02 0.76778196944E+02 0.75367638956E+02 0.65614917270E+02 0.50699484148E+02
 0.34761455702E+02 0.21159132943E+02 0.11698109064E+02 0.66020471409E+01 0.47023794123E+01
 0.40285596422E+01 0.37326434338E+01 0.37878767619E+01 0.42010740331E+01 0.50799668177E+01
 0.78172250132E+01 0.14238842095E+02 0.25078214516E+02 0.39637148256E+02 0.55634614709E+02
 0.55631264174E+02 0.64183460640E+02 0.65614917270E+02 0.59415831801E+02 0.47671936043E+02
 0.33896065469E+02 0.21387508054E+02 0.12209541342E+02 0.69415255993E+01 0.47947079175E+01
 0.40398235197E+01 0.36578039121E+01 0.36033742002E+01 0.38661763148E+01 0.44642854787E+01
 0.59167288447E+01 0.99484775560E+01 0.17723734629E+02 0.29163336635E+02 0.42761226197E+02
 0.39633390672E+02 0.47668660111E+02 0.50699484148E+02 0.47671936043E+02 0.39638388189E+02
 0.29166625828E+02 0.19063612308E+02 0.11324457499E+02 0.67018969458E+01 0.47123894628E+01
 0.39641644044E+01 0.35428825054E+01 0.34106711065E+01 0.35428752501E+01 0.39641771220E+01
 0.47123638901E+01 0.67014996140E+01 0.11323023669E+02 0.19060503490E+02 0.29161934383E+02
 0.25075944781E+02 0.31433962984E+02 0.34761455702E+02 0.33896065469E+02 0.29166625828E+02
 0.22199188968E+02 0.15070860283E+02 0.94262138045E+01 0.59878553545E+01 0.44658792215E+01
 0.38091089382E+01 0.33996182887E+01 0.32304777696E+01 0.32706474330E+01 0.35310756813E+01
 0.40417780630E+01 0.48879748056E+01 0.70208545492E+01 0.11322772471E+02 0.17722619709E+02
 0.14238092959E+02 0.18443212045E+02 0.21159132943E+02 0.21387508054E+02 0.19063612308E+02
 0.15070860283E+02 0.10747121173E+02 0.72472097019E+01 0.51120165217E+01 0.41365866024E+01
 0.35979731518E+01 0.32417800062E+01 0.30748180586E+01 0.30654614196E+01 0.32085384785E+01
 0.35378122046E+01 0.40705056624E+01 0.48880061850E+01 0.67014416750E+01 0.99480750058E+01
 0.78171324352E+01 0.10001891863E+02 0.11698109064E+02 0.12209541342E+02 0.11324457499E+02
 0.94262138045E+01 0.72472097019E+01 0.54631520987E+01 0.43754636475E+01 0.37924593683E+01
 0.33648580261E+01 0.30851677142E+01 0.29479695407E+01 0.29239667570E+01 0.29994820799E+01
 0.31929163469E+01 0.35378075375E+01 0.40418034665E+01 0.47123881029E+01 0.59166673875E+01
 0.50799543481E+01 0.58686269525E+01 0.66020471409E+01 0.69415255993E+01 0.67018969458E+01
 0.59878553545E+01 0.51120165217E+01 0.43754636475E+01 0.38668686065E+01 0.34587513639E+01
 0.31450850992E+01 0.29463202737E+01 0.28508274746E+01 0.28343769019E+01 0.28821096371E+01
 0.29994709600E+01 0.32085139607E+01 0.35310594233E+01 0.39641686779E+01 0.44642606821E+01
 0.42010716910E+01 0.44919847896E+01 0.47023794123E+01 0.47947079175E+01 0.47123894628E+01
 0.44658792215E+01 0.41365866024E+01 0.37924593683E+01 0.34587513639E+01 0.31744009907E+01
 0.29656857221E+01 0.28392727849E+01 0.27854210651E+01 0.27877930739E+01 0.28343881407E+01
 0.29239741910E+01 0.30654565960E+01 0.32706396771E+01 0.35428727949E+01 0.38661738717E+01
 0.37879095864E+01 0.39381620520E+01 0.40285596422E+01 0.40398235197E+01 0.39641644044E+01
 0.38091089382E+01 0.35979731518E+01 0.33648580261E+01 0.31450850992E+01 0.29656857221E+01
 0.28407600933E+01 0.27727575490E+01 0.27568872108E+01 0.27854277236E+01 0.28508468205E+01
 0.29479898193E+01 0.30748275179E+01 0.32304820235E+01 0.34106858060E+01 0.36034039591E+01
 0.37326560154E+01 0.37587060929E+01 0.37326434338E+01 0.36578039121E+01 0.35428825054E+01
 0.33996182887E+01 0.32417800062E+01 0.30851677142E+01 0.29463202737E+01 0.28392727849E+01
 0.27727575490E+01 0.27503373338E+01 0.27727487175E+01 0.28392684681E+01 0.29463272520E+01
 0.30851750607E+01 0.32417735239E+01 0.33996011322E+01 0.35428727949E+01 0.36578112843E+01
 0.40285457573E+01 0.39381387226E+01 0.37878767619E+01 0.36033742002E+01 0.34106711065E+01
 0.32304777696E+01 0.30748180586E+01 0.29479695407E+01 0.28508274746E+01 0.27854210651E+01
 0.27568872108E+01 0.27727487175E+01 0.28407425794E+01 0.29656824902E+01 0.31451179197E+01
 0.33649202771E+01 0.35980334063E+01 0.38091412222E+01 0.39641686779E+01 0.40398149479E+01
 0.47023140670E+01 0.44919635992E+01 0.42010740331E+01 0.38661763148E+01 0.35428752501E+01
 0.32706474330E+01 0.30654614196E+01 0.29239667570E+01 0.28343769019E+01 0.27877930739E+01
 0.27854277236E+01 0.28392684681E+01 0.29656824902E+01 0.31744591959E+01 0.34589289769E+01
 0.37927359635E+01 0.41368540407E+01 0.44660245282E+01 0.47123881029E+01 0.47946307072E+01
 0.66016749996E+01 0.58685037369E+01 0.50799668177E+01 0.44642854787E+01 0.39641771220E+01
 0.35310756813E+01 0.32085384785E+01 0.29994820799E+01 0.28821096371E+01 0.28343881407E+01
 0.28508468205E+01 0.29463272520E+01 0.31451179197E+01 0.34589289769E+01 0.38672703713E+01
 0.43759755222E+01 0.51123502258E+01 0.59877762874E+01 0.67014416750E+01 0.69409736572E+01
 0.11697244659E+02 0.10001694452E+02 0.78172250132E+01 0.59167288447E+01 0.47123638901E+01
 0.40417780630E+01 0.35378122046E+01 0.31929163469E+01 0.29994709600E+01 0.29239741910E+01
 0.29479898193E+01 0.30851750607E+01 0.33649202771E+01 0.37927359635E+01 0.43759755222E+01
 0.54635671691E+01 0.72469915591E+01 0.94250969592E+01 0.11322772471E+02 0.12208001838E+02
 0.21158492656E+02 0.18443717897E+02 0.14238842095E+02 0.99484775560E+01 0.67014996140E+01
 0.48879748056E+01 0.40705056624E+01 0.35378075375E+01 0.32085139607E+01 0.30654565960E+01
 0.30748275179E+01 0.32417735239E+01 0.35980334063E+01 0.41368540407E+01 0.51123502258E+01
 0.72469915591E+01 0.10745651266E+02 0.15068106677E+02 0.19060503490E+02 0.21385318277E+02
 0.34762879192E+02 0.31436624247E+02 0.25078214516E+02 0.17723734629E+02 0.11323023669E+02
 0.70208545492E+01 0.48880061850E+01 0.40418034665E+01 0.35310594233E+01 0.32706396771E+01
 0.32304820235E+01 0.33996011322E+01 0.38091412222E+01 0.44660245282E+01 0.59877762874E+01
 0.94250969592E+01 0.15068106677E+02 0.22195327261E+02 0.29163336635E+02 0.33894996255E+02
 0.50704616277E+02 0.47674223457E+02 0.39637148256E+02 0.29163336635E+02 0.19060503490E+02
 0.11322772471E+02 0.67014416750E+01 0.47123881029E+01 0.39641686779E+01 0.35428727949E+01
 0.34106858060E+01 0.35428727949E+01 0.39641686779E+01 0.47123881029E+01 0.67014416750E+01
 0.11322772471E+02 0.19060503490E+02 0.29163336635E+02 0.39637148256E+02 0.47674223457E+02
 0.65623255882E+02 0.64190437643E+02 0.55634614709E+02 0.42761226197E+02 0.29161934383E+02
 0.17722619709E+02 0.99480750058E+01 0.59166673875E+01 0.44642606821E+01 0.38661738717E+01
 0.36034039591E+01 0.36578112843E+01 0.40398149479E+01 0.47946307072E+01 0.69409736572E+01
 0.12208001838E+02 0.21385318277E+02 0.33894996255E+02 0.47674223457E+02 0.59422138606E+02
 0.56164023202E+02 0.59414883139E+02 0.55631264174E+02 0.46144676086E+02 0.33946664141E+02
 0.22195331666E+02 0.13087902388E+02 0.74876314955E+01 0.49732056261E+01 0.41044523702E+01
 0.36508828831E+01 0.35117246831E+01 0.36666773818E+01 0.41404871249E+01 0.50407676766E+01
 0.76342772861E+01 0.13411935126E+02 0.22782938488E+02 0.34762879192E+02 0.46976379698E+02
 0.59414883139E+02 0.65614269652E+02 0.64183460640E+02 0.55631773566E+02 0.42761777587E+02
 0.29163760200E+02 0.17724324428E+02 0.99494111613E+01 0.59175734885E+01 0.44643931573E+01
 0.38655447849E+01 0.36028046696E+01 0.36580215281E+01 0.40405969461E+01 0.47950732849E+01
 0.69408498406E+01 0.12208130775E+02 0.21386105424E+02 0.33894996255E+02 0.47670992757E+02
 0.55631264174E+02 0.64183460640E+02 0.65614917270E+02 0.59415831801E+02 0.47671936043E+02
 0.33896065469E+02 0.21387508054E+02 0.12209541342E+02 0.69415255993E+01 0.47947079175E+01
 0.40398235197E+01 0.36578039121E+01 0.36033742002E+01 0.38661763148E+01 0.44642854787E+01
 0.59167288447E+01 0.99484775560E+01 0.17723734629E+02 0.29163336635E+02 0.42761226197E+02
 0.46144676086E+02 0.55631773566E+02 0.59415831801E+02 0.56165203441E+02 0.46977881380E+02
 0.34764912793E+02 0.22785210606E+02 0.13413549824E+02 0.76345480376E+01 0.50400386451E+01
 0.41398670167E+01 0.36668846635E+01 0.35123890316E+01 0.36511137294E+01 0.41039267990E+01
 0.49724487623E+01 0.74872654088E+01 0.13087928275E+02 0.22195327261E+02 0.33946489481E+02
 0.33946664141E+02 0.42761777587E+02 0.47671936043E+02 0.46977881380E+02 0.40893369556E+02
 0.31439602238E+02 0.21388732759E+02 0.13068084863E+02 0.76676026511E+01 0.50848592734E+01
 0.41421809772E+01 0.36245535427E+01 0.33973633593E+01 0.34300625592E+01 0.37304145606E+01
 0.43123553502E+01 0.55715299202E+01 0.88762182469E+01 0.15068106677E+02 0.23903911371E+02
 0.22195331666E+02 0.29163760200E+02 0.33896065469E+02 0.34764912793E+02 0.31439602238E+02
 0.25081292548E+02 0.17725587080E+02 0.11322972423E+02 0.70195883471E+01 0.48869545687E+01
 0.40417636675E+01 0.35315911444E+01 0.32708350335E+01 0.32300963099E+01 0.33992120339E+01
 0.38093071852E+01 0.44666057461E+01 0.59882047884E+01 0.94250969592E+01 0.15067919405E+02
 0.13087902388E+02 0.17724324428E+02 0.21387508054E+02 0.22785210606E+02 0.21388732759E+02
 0.17725587080E+02 0.13088044689E+02 0.88747560794E+01 0.59864220682E+01 0.45274715146E+01
 0.38550538918E+01 0.33972369646E+01 0.31434823379E+01 0.30662228524E+01 0.31435097197E+01
 0.33972916564E+01 0.38553530894E+01 0.45283464350E+01 0.59877762874E+01 0.88757960607E+01
 0.74876314955E+01 0.99494111613E+01 0.12209541342E+02 0.13413549824E+02 0.13068084863E+02
 0.11322972423E+02 0.88747560794E+01 0.65705454632E+01 0.49782302368E+01 0.41364475240E+01
 0.36157661648E+01 0.32396268855E+01 0.30238343191E+01 0.29418509308E+01 0.29684469753E+01
 0.31102603076E+01 0.33995954388E+01 0.38548862021E+01 0.44660245282E+01 0.55713125199E+01
 0.49732056261E+01 0.59175734885E+01 0.69415255993E+01 0.76345480376E+01 0.76676026511E+01
 0.70195883471E+01 0.59864220682E+01 0.49782302368E+01 0.42556965883E+01 0.37652102787E+01
 0.33649063677E+01 0.30821045145E+01 0.29194724647E+01 0.28534562060E+01 0.28614193803E+01
 0.29404855522E+01 0.31099476804E+01 0.33968392753E+01 0.38091412222E+01 0.43127173287E+01
 0.41044523702E+01 0.44643931573E+01 0.47947079175E+01 0.50400386451E+01 0.50848592734E+01
 0.48869545687E+01 0.45274715146E+01 0.41364475240E+01 0.37652102787E+01 0.34193594946E+01
 0.31392486606E+01 0.29462560534E+01 0.28378000200E+01 0.27969002686E+01 0.28067318840E+01
 0.28613321415E+01 0.29682927511E+01 0.31435301175E+01 0.33996011322E+01 0.37310541693E+01
 0.36508828831E+01 0.38655447849E+01 0.40398235197E+01 0.41398670167E+01 0.41421809772E+01
 0.40417636675E+01 0.38550538918E+01 0.36157661648E+01 0.33649063677E+01 0.31392486606E+01
 0.29631144841E+01 0.28460048325E+01 0.27854078824E+01 0.27722962877E+01 0.27969584238E+01
 0.28535483620E+01 0.29420327242E+01 0.30665523470E+01 0.32304820235E+01 0.34302510540E+01
 0.35117246831E+01 0.36028046696E+01 0.36578039121E+01 0.36668846635E+01 0.36245535427E+01
 0.35315911444E+01 0.33972369646E+01 0.32396268855E+01 0.30821045145E+01 0.29462560534E+01
 0.28460048325E+01 0.27864905722E+01 0.27671879828E+01 0.27854915862E+01 0.28379490992E+01
 0.29196561509E+01 0.30240000588E+01 0.31435301175E+01 0.32706396771E+01 0.33968734243E+01
 0.36666773818E+01 0.36580215281E+01 0.36033742002E+01 0.35123890316E+01 0.33973633593E+01
 0.32708350335E+01 0.31434823379E+01 0.30238343191E+01 0.29194724647E+01 0.28378000200E+01
 0.27854078824E+01 0.27671879828E+01 0.27865629748E+01 0.28461020849E+01 0.29463131836E+01
 0.30820577046E+01 0.32394189720E+01 0.33968392753E+01 0.35310594233E+01 0.36240652002E+01
 0.41404871249E+01 0.40405969461E+01 0.38661763148E+01 0.36511137294E+01 0.34300625592E+01
 0.32300963099E+01 0.30662228524E+01 0.29418509308E+01 0.28534562060E+01 0.27969002686E+01
 0.27722962877E+01 0.27854915862E+01 0.28461020849E+01 0.29630944644E+01 0.31390486745E+01
 0.33645933596E+01 0.36154713032E+01 0.38548862021E+01 0.40418034665E+01 0.41425030771E+01
 0.50407676766E+01 0.47950732849E+01 0.44642854787E+01 0.41039267990E+01 0.37304145606E+01
 0.33992120339E+01 0.31435097197E+01 0.29684469753E+01 0.28614193803E+01 0.28067318840E+01
 0.27969584238E+01 0.28379490992E+01 0.29463131836E+01 0.31390486745E+01 0.34190290029E+01
 0.37651168604E+01 0.41368649354E+01 0.45283464350E+01 0.48880061850E+01 0.50858261629E+01
 0.76342772861E+01 0.69408498406E+01 0.59167288447E+01 0.49724487623E+01 0.43123553502E+01
 0.38093071852E+01 0.33972916564E+01 0.31102603076E+01 0.29404855522E+01 0.28613321415E+01
 0.28535483620E+01 0.29196561509E+01 0.30820577046E+01 0.33645933596E+01 0.37651168604E+01
 0.42564049274E+01 0.49797824545E+01 0.59882047884E+01 0.70208545492E+01 0.76680275396E+01
 0.13411935126E+02 0.12208130775E+02 0.99484775560E+01 0.74872654088E+01 0.55715299202E+01
 0.44666057461E+01 0.38553530894E+01 0.33995954388E+01 0.31099476804E+01 0.29682927511E+01
 0.29420327242E+01 0.30240000588E+01 0.32394189720E+01 0.36154713032E+01 0.41368649354E+01
 0.49797824545E+01 0.65726470345E+01 0.88762182469E+01 0.11323023669E+02 0.13066916726E+02
 0.22782938488E+02 0.21386105424E+02 0.17723734629E+02 0.13087928275E+02 0.88762182469E+01
 0.59882047884E+01 0.45283464350E+01 0.38548862021E+01 0.33968392753E+01 0.31435301175E+01
 0.30665523470E+01 0.31435301175E+01 0.33968392753E+01 0.38548862021E+01 0.45283464350E+01
 0.59882047884E+01 0.88762182469E+01 0.13087928275E+02 0.17723734629E+02 0.21386105424E+02
 0.34762879192E+02 0.33894996255E+02 0.29163336635E+02 0.22195327261E+02 0.15068106677E+02
 0.94250969592E+01 0.59877762874E+01 0.44660245282E+01 0.38091412222E+01 0.33996011322E+01
 0.32304820235E+01 0.32706396771E+01 0.35310594233E+01 0.40418034665E+01 0.48880061850E+01
 0.70208545492E+01 0.11323023669E+02 0.17723734629E+02 0.25078214516E+02 0.31436624247E+02
 0.46976379698E+02 0.47670992757E+02 0.42761226197E+02 0.33946489481E+02 0.23903911371E+02
 0.15067919405E+02 0.88757960607E+01 0.55713125199E+01 0.43127173287E+01 0.37310541693E+01
 0.34302510540E+01 0.33968734243E+01 0.36240652002E+01 0.41425030771E+01 0.50858261629E+01
 0.76680275396E+01 0.13066916726E+02 0.21386105424E+02 0.31436624247E+02 0.40891030479E+02
 0.37213015815E+02 0.40886230181E+02 0.39633390672E+02 0.33946664141E+02 0.25754655183E+02
 0.17414120827E+02 0.10746343828E+02 0.65729716956E+01 0.46608181629E+01 0.39218592702E+01
 0.34828706977E+01 0.33039471310E+01 0.33578092934E+01 0.36572147373E+01 0.42285403177E+01
 0.52863380486E+01 0.80498487881E+01 0.13411935126E+02 0.21158492656E+02 0.29860889742E+02
 0.40886230181E+02 0.46971724261E+02 0.47668660111E+02 0.42761777587E+02 0.33948790873E+02
 0.23906475185E+02 0.15069966339E+02 0.88771394592E+01 0.55718294178E+01 0.43124026616E+01