   1   1   0   0
  0.1133259E+02  0.2450852E-09  0.2450852E-09  0.2450852E-09  0.5000000E-15
  1.000000000000000E-004
  CAR 
 bcc Fe                                  
     45.11194003     -5.06165342  301      5.72806126      1.00000000
     -5.062  0.0000E+00  0.0000E+00  0.0000E+00  0.0000E+00
     -4.894  0.0000E+00  0.0000E+00  0.0000E+00  0.0000E+00
     -4.727  0.0000E+00  0.0000E+00  0.0000E+00  0.0000E+00
     -4.560  0.0000E+00  0.0000E+00  0.0000E+00  0.0000E+00
     -4.393 -0.6424E-30  0.0000E+00 -0.1074E-30  0.0000E+00
     -4.225 -0.2040E-24  0.0000E+00 -0.3412E-25  0.0000E+00
     -4.058 -0.1579E-19 -0.1729E-31 -0.2641E-20 -0.2892E-32
     -3.891 -0.2876E-15 -0.7997E-26 -0.4811E-16 -0.1337E-26
     -3.724 -0.1293E-11 -0.9021E-21 -0.2163E-12 -0.1509E-21
     -3.556 -0.1388E-08 -0.2400E-16 -0.2324E-09 -0.4015E-17
     -3.389 -0.3500E-06 -0.1579E-12 -0.5878E-07 -0.2642E-13
     -3.222 -0.2001E-04 -0.2486E-09 -0.3405E-05 -0.4160E-10
     -3.055 -0.2269E-03 -0.9239E-07 -0.4135E-04 -0.1549E-07
     -2.887  0.1140E-03 -0.7881E-05 -0.2229E-04 -0.1334E-05
     -2.720  0.5513E-02 -0.1414E-03  0.8998E-03 -0.2497E-04
     -2.553  0.1436E-01 -0.2288E-03  0.3301E-02 -0.6324E-04
     -2.386  0.1989E-01  0.3335E-02  0.6627E-02  0.4946E-03
     -2.218  0.2762E-01  0.1233E-01  0.1125E-01  0.2557E-02
     -2.051  0.2506E-01  0.1779E-01  0.1544E-01  0.5532E-02
     -1.884  0.3768E-01  0.2618E-01  0.2174E-01  0.9910E-02
     -1.717  0.3877E-01  0.2511E-01  0.2822E-01  0.1411E-01
     -1.550  0.3320E-01  0.3186E-01  0.3378E-01  0.1944E-01
     -1.382  0.5228E-01  0.4140E-01  0.4252E-01  0.2636E-01
     -1.215  0.5203E-01  0.3063E-01  0.5122E-01  0.3148E-01
     -1.048  0.4651E-01  0.4485E-01  0.5900E-01  0.3899E-01
     -0.881  0.5559E-01  0.5222E-01  0.6830E-01  0.4772E-01
     -0.713  0.7297E-01  0.4769E-01  0.8050E-01  0.5569E-01
     -0.546  0.6554E-01  0.4403E-01  0.9146E-01  0.6306E-01
     -0.379  0.7112E-01  0.6630E-01  0.1034E+00  0.7415E-01
     -0.212  0.7488E-01  0.6368E-01  0.1159E+00  0.8480E-01
     -0.044  0.9999E-01  0.6279E-01  0.1326E+00  0.9530E-01
      0.123  0.1064E+00  0.6531E-01  0.1504E+00  0.1062E+00
      0.290  0.1012E+00  0.7328E-01  0.1673E+00  0.1185E+00
      0.457  0.1167E+00  0.8927E-01  0.1869E+00  0.1334E+00
      0.625  0.1958E+00  0.8816E-01  0.2196E+00  0.1482E+00
      0.792  0.2754E+00  0.8856E-01  0.2657E+00  0.1630E+00
      0.959  0.4104E+00  0.8436E-01  0.3343E+00  0.1771E+00
      1.126  0.5652E+00  0.1247E+00  0.4288E+00  0.1979E+00
      1.294  0.6274E+00  0.1366E+00  0.5338E+00  0.2208E+00
      1.461  0.7650E+00  0.1284E+00  0.6617E+00  0.2423E+00
      1.628  0.9406E+00  0.1158E+00  0.8190E+00  0.2616E+00
      1.795  0.7579E+00  0.2219E+00  0.9458E+00  0.2988E+00
      1.963  0.5501E+00  0.2779E+00  0.1038E+01  0.3452E+00
      2.130  0.3902E+00  0.3060E+00  0.1103E+01  0.3964E+00
      2.297  0.7687E+00  0.3620E+00  0.1232E+01  0.4569E+00
      2.464  0.1440E+01  0.4166E+00  0.1473E+01  0.5266E+00
      2.632  0.1305E+01  0.4325E+00  0.1691E+01  0.5990E+00
      2.799  0.1052E+01  0.5524E+00  0.1867E+01  0.6913E+00
      2.966  0.1057E+01  0.7038E+00  0.2043E+01  0.8091E+00
      3.133  0.1306E+01  0.6423E+00  0.2262E+01  0.9165E+00
      3.301  0.1468E+01  0.4935E+00  0.2507E+01  0.9990E+00
      3.468  0.9639E+00  0.3560E+00  0.2669E+01  0.1059E+01
      3.635  0.5192E+00  0.2991E+00  0.2755E+01  0.1109E+01
      3.802  0.4602E+00  0.6869E+00  0.2832E+01  0.1223E+01
      3.970  0.3721E+00  0.1260E+01  0.2895E+01  0.1434E+01
      4.137  0.4534E+00  0.1272E+01  0.2970E+01  0.1647E+01
      4.304  0.7079E+00  0.1160E+01  0.3089E+01  0.1841E+01
      4.471  0.1043E+01  0.1106E+01  0.3263E+01  0.2026E+01
      4.639  0.1515E+01  0.1156E+01  0.3517E+01  0.2219E+01
      4.806  0.2057E+01  0.1235E+01  0.3861E+01  0.2426E+01
      4.973  0.2306E+01  0.1131E+01  0.4246E+01  0.2615E+01
      5.140  0.1819E+01  0.7601E+00  0.4551E+01  0.2742E+01
      5.308  0.1152E+01  0.4625E+00  0.4743E+01  0.2819E+01
      5.475  0.7692E+00  0.3498E+00  0.4872E+01  0.2878E+01
      5.642  0.7204E+00  0.2255E+00  0.4992E+01  0.2915E+01
      5.809  0.8499E+00  0.2543E+00  0.5135E+01  0.2958E+01
      5.977  0.6243E+00  0.3911E+00  0.5239E+01  0.3023E+01
      6.144  0.2935E+00  0.4523E+00  0.5288E+01  0.3099E+01
      6.311  0.1526E+00  0.6033E+00  0.5314E+01  0.3200E+01
      6.478  0.1820E+00  0.8409E+00  0.5344E+01  0.3341E+01
      6.646  0.1823E+00  0.1130E+01  0.5374E+01  0.3530E+01
      6.813  0.1334E+00  0.1278E+01  0.5397E+01  0.3743E+01
      6.980  0.1226E+00  0.1399E+01  0.5417E+01  0.3977E+01
      7.147  0.1055E+00  0.1665E+01  0.5435E+01  0.4256E+01
      7.314  0.1949E+00  0.2130E+01  0.5468E+01  0.4612E+01
      7.482  0.2045E+00  0.1618E+01  0.5502E+01  0.4883E+01
      7.649  0.1054E+00  0.1003E+01  0.5519E+01  0.5050E+01
      7.816  0.9784E-01  0.7522E+00  0.5536E+01  0.5176E+01
      7.983  0.1459E+00  0.5261E+00  0.5560E+01  0.5264E+01
      8.151  0.1141E+00  0.3577E+00  0.5579E+01  0.5324E+01
      8.318  0.1456E+00  0.2767E+00  0.5604E+01  0.5370E+01
      8.485  0.1923E+00  0.1904E+00  0.5636E+01  0.5402E+01
      8.652  0.1148E+00  0.1502E+00  0.5655E+01  0.5427E+01
      8.820  0.9941E-01  0.1594E+00  0.5672E+01  0.5454E+01
      8.987  0.9202E-01  0.2133E+00  0.5687E+01  0.5490E+01
      9.154  0.9742E-01  0.2061E+00  0.5703E+01  0.5524E+01
      9.321  0.1376E+00  0.1432E+00  0.5726E+01  0.5548E+01
      9.489  0.1290E+00  0.1362E+00  0.5748E+01  0.5571E+01
      9.656  0.1188E+00  0.1194E+00  0.5768E+01  0.5591E+01
      9.823  0.1233E+00  0.1888E+00  0.5788E+01  0.5622E+01
      9.990  0.8771E-01  0.1886E+00  0.5803E+01  0.5654E+01
     10.158  0.7897E-01  0.1331E+00  0.5816E+01  0.5676E+01
     10.325  0.5259E-01  0.9953E-01  0.5825E+01  0.5693E+01
     10.492  0.7980E-01  0.1103E+00  0.5838E+01  0.5711E+01
     10.659  0.1179E+00  0.1282E+00  0.5858E+01  0.5733E+01
     10.827  0.1145E+00  0.1344E+00  0.5877E+01  0.5755E+01
     10.994  0.7521E-01  0.1583E+00  0.5890E+01  0.5782E+01
     11.161  0.7919E-01  0.1238E+00  0.5903E+01  0.5802E+01
     11.328  0.4368E-01  0.7717E-01  0.5910E+01  0.5815E+01
     11.496  0.4956E-01  0.5784E-01  0.5919E+01  0.5825E+01
     11.663  0.5901E-01  0.9502E-01  0.5928E+01  0.5841E+01
     11.830  0.3552E-01  0.1074E+00  0.5934E+01  0.5859E+01
     11.997  0.4671E-01  0.1238E+00  0.5942E+01  0.5879E+01
     12.165  0.9088E-01  0.1031E+00  0.5957E+01  0.5897E+01
     12.332  0.4800E-01  0.5205E-01  0.5965E+01  0.5905E+01
     12.499  0.2228E-01  0.5238E-01  0.5969E+01  0.5914E+01
     12.666  0.2711E-01  0.6319E-01  0.5974E+01  0.5925E+01
     12.834  0.1615E-01  0.5293E-01  0.5976E+01  0.5934E+01
     13.001  0.7254E-02  0.5502E-01  0.5978E+01  0.5943E+01
     13.168  0.1017E+00  0.7237E-01  0.5995E+01  0.5955E+01
     13.335  0.2661E+00  0.5932E-01  0.6039E+01  0.5965E+01
     13.503  0.2550E+00  0.3266E-01  0.6082E+01  0.5970E+01
     13.670  0.2323E+00  0.1787E-01  0.6121E+01  0.5973E+01
     13.837  0.2617E+00  0.2596E-01  0.6164E+01  0.5978E+01
     14.004  0.1747E+00  0.3182E-01  0.6194E+01  0.5983E+01
     14.172  0.1572E+00  0.1935E-01  0.6220E+01  0.5986E+01
     14.339  0.2140E+00  0.6650E-01  0.6256E+01  0.5997E+01
     14.506  0.1681E+00  0.2354E+00  0.6284E+01  0.6037E+01
     14.673  0.1710E+00  0.3196E+00  0.6312E+01  0.6090E+01
     14.841  0.1452E+00  0.2987E+00  0.6337E+01  0.6140E+01
     15.008  0.1152E+00  0.2529E+00  0.6356E+01  0.6182E+01
     15.175  0.1822E+00  0.2047E+00  0.6386E+01  0.6217E+01
     15.342  0.2203E+00  0.2015E+00  0.6423E+01  0.6250E+01
     15.510  0.1718E+00  0.1704E+00  0.6452E+01  0.6279E+01
     15.677  0.1614E+00  0.1960E+00  0.6479E+01  0.6312E+01
     15.844  0.2184E+00  0.1818E+00  0.6516E+01  0.6342E+01
     16.011  0.1877E+00  0.1461E+00  0.6547E+01  0.6366E+01
     16.179  0.1889E+00  0.1837E+00  0.6579E+01  0.6397E+01
     16.346  0.2077E+00  0.2415E+00  0.6613E+01  0.6437E+01
     16.513  0.2073E+00  0.2112E+00  0.6648E+01  0.6473E+01
     16.680  0.1795E+00  0.1990E+00  0.6678E+01  0.6506E+01
     16.847  0.1838E+00  0.1969E+00  0.6709E+01  0.6539E+01
     17.015  0.1933E+00  0.1777E+00  0.6741E+01  0.6569E+01
     17.182  0.1800E+00  0.2044E+00  0.6771E+01  0.6603E+01
     17.349  0.1780E+00  0.2259E+00  0.6801E+01  0.6641E+01
     17.516  0.1588E+00  0.2311E+00  0.6827E+01  0.6679E+01
     17.684  0.1863E+00  0.1707E+00  0.6859E+01  0.6708E+01
     17.851  0.2247E+00  0.1849E+00  0.6896E+01  0.6739E+01
     18.018  0.1721E+00  0.1797E+00  0.6925E+01  0.6769E+01
     18.185  0.1734E+00  0.1621E+00  0.6954E+01  0.6796E+01
     18.353  0.1605E+00  0.1905E+00  0.6981E+01  0.6828E+01
     18.520  0.1914E+00  0.2068E+00  0.7013E+01  0.6862E+01
     18.687  0.2369E+00  0.2385E+00  0.7052E+01  0.6902E+01
     18.854  0.1594E+00  0.1676E+00  0.7079E+01  0.6930E+01
     19.022  0.1721E+00  0.1592E+00  0.7108E+01  0.6957E+01
     19.189  0.1186E+00  0.1720E+00  0.7128E+01  0.6986E+01
     19.356  0.1327E+00  0.2029E+00  0.7150E+01  0.7020E+01
     19.523  0.2060E+00  0.2348E+00  0.7184E+01  0.7059E+01
     19.691  0.2178E+00  0.1824E+00  0.7221E+01  0.7089E+01
     19.858  0.1967E+00  0.1615E+00  0.7254E+01  0.7116E+01
     20.025  0.1531E+00  0.9641E-01  0.7279E+01  0.7133E+01
     20.192  0.1416E+00  0.1492E+00  0.7303E+01  0.7158E+01
     20.360  0.1326E+00  0.2418E+00  0.7325E+01  0.7198E+01
     20.527  0.2169E+00  0.2289E+00  0.7362E+01  0.7236E+01
     20.694  0.2508E+00  0.1805E+00  0.7403E+01  0.7266E+01
     20.861  0.1470E+00  0.1759E+00  0.7428E+01  0.7296E+01
     21.029  0.1186E+00  0.1151E+00  0.7448E+01  0.7315E+01
     21.196  0.1303E+00  0.1656E+00  0.7470E+01  0.7343E+01
     21.363  0.1029E+00  0.2503E+00  0.7487E+01  0.7385E+01
     21.530  0.1386E+00  0.1995E+00  0.7510E+01  0.7418E+01
     21.698  0.2434E+00  0.1373E+00  0.7551E+01  0.7441E+01
     21.865  0.2977E+00  0.1317E+00  0.7601E+01  0.7463E+01
     22.032  0.1860E+00  0.1209E+00  0.7632E+01  0.7483E+01
     22.199  0.1131E+00  0.1244E+00  0.7651E+01  0.7504E+01
     22.367  0.2030E+00  0.1899E+00  0.7685E+01  0.7536E+01
     22.534  0.2040E+00  0.2983E+00  0.7719E+01  0.7586E+01
     22.701  0.2201E+00  0.2001E+00  0.7755E+01  0.7619E+01
     22.868  0.2620E+00  0.1114E+00  0.7799E+01  0.7638E+01
     23.036  0.2238E+00  0.2028E+00  0.7837E+01  0.7672E+01
     23.203  0.2033E+00  0.2070E+00  0.7871E+01  0.7706E+01
     23.370  0.2137E+00  0.2157E+00  0.7906E+01  0.7742E+01
     23.537  0.1611E+00  0.2425E+00  0.7933E+01  0.7783E+01
     23.705  0.2166E+00  0.2344E+00  0.7970E+01  0.7822E+01
     23.872  0.3575E+00  0.2390E+00  0.8029E+01  0.7862E+01
     24.039  0.3704E+00  0.2477E+00  0.8091E+01  0.7904E+01
     24.206  0.2896E+00  0.2165E+00  0.8140E+01  0.7940E+01
     24.374  0.1816E+00  0.2360E+00  0.8170E+01  0.7979E+01
     24.541  0.1611E+00  0.3404E+00  0.8197E+01  0.8036E+01
     24.708  0.3092E+00  0.3711E+00  0.8249E+01  0.8098E+01
     24.875  0.2719E+00  0.3035E+00  0.8294E+01  0.8149E+01
     25.043  0.2061E+00  0.1772E+00  0.8329E+01  0.8179E+01
     25.210  0.2077E+00  0.1733E+00  0.8363E+01  0.8208E+01
     25.377  0.2877E+00  0.3040E+00  0.8412E+01  0.8258E+01
     25.544  0.3032E+00  0.3004E+00  0.8462E+01  0.8309E+01
     25.711  0.2370E+00  0.1986E+00  0.8502E+01  0.8342E+01
     25.879  0.2491E+00  0.2126E+00  0.8544E+01  0.8377E+01
     26.046  0.3134E+00  0.3138E+00  0.8596E+01  0.8430E+01
     26.213  0.3297E+00  0.2758E+00  0.8651E+01  0.8476E+01
     26.380  0.2258E+00  0.2933E+00  0.8689E+01  0.8525E+01
     26.548  0.1568E+00  0.2686E+00  0.8715E+01  0.8570E+01
     26.715  0.1795E+00  0.3164E+00  0.8745E+01  0.8623E+01
     26.882  0.2403E+00  0.2785E+00  0.8785E+01  0.8670E+01
     27.049  0.1798E+00  0.1639E+00  0.8815E+01  0.8697E+01
     27.217  0.1750E+00  0.1769E+00  0.8845E+01  0.8727E+01
     27.384  0.2170E+00  0.2431E+00  0.8881E+01  0.8767E+01
     27.551  0.2072E+00  0.2229E+00  0.8916E+01  0.8804E+01
     27.718  0.1803E+00  0.1735E+00  0.8946E+01  0.8834E+01
     27.886  0.1706E+00  0.1887E+00  0.8974E+01  0.8865E+01
     28.053  0.1251E+00  0.1714E+00  0.8995E+01  0.8894E+01
     28.220  0.1444E+00  0.2188E+00  0.9019E+01  0.8930E+01
     28.387  0.1677E+00  0.2047E+00  0.9047E+01  0.8965E+01
     28.555  0.1308E+00  0.1428E+00  0.9069E+01  0.8988E+01
     28.722  0.1585E+00  0.1390E+00  0.9096E+01  0.9012E+01
     28.889  0.1288E+00  0.1812E+00  0.9117E+01  0.9042E+01
     29.056  0.1040E+00  0.9244E-01  0.9135E+01  0.9057E+01
     29.224  0.1180E+00  0.1248E+00  0.9154E+01  0.9078E+01
     29.391  0.1108E+00  0.1968E+00  0.9173E+01  0.9111E+01
     29.558  0.1571E+00  0.1451E+00  0.9199E+01  0.9135E+01
     29.725  0.1890E+00  0.1054E+00  0.9231E+01  0.9153E+01
     29.893  0.1774E+00  0.8695E-01  0.9261E+01  0.9168E+01
     30.060  0.1965E+00  0.1133E+00  0.9293E+01  0.9187E+01
     30.227  0.1877E+00  0.1773E+00  0.9325E+01  0.9216E+01
     30.394  0.2453E+00  0.2053E+00  0.9366E+01  0.9251E+01
     30.562  0.3969E+00  0.1839E+00  0.9432E+01  0.9281E+01
     30.729  0.3278E+00  0.2141E+00  0.9487E+01  0.9317E+01
     30.896  0.2601E+00  0.2363E+00  0.9531E+01  0.9357E+01
     31.063  0.1982E+00  0.3110E+00  0.9564E+01  0.9409E+01
     31.231  0.2397E+00  0.3685E+00  0.9604E+01  0.9470E+01
     31.398  0.2323E+00  0.2632E+00  0.9643E+01  0.9514E+01
     31.565  0.1573E+00  0.2470E+00  0.9669E+01  0.9556E+01
     31.732  0.1175E+00  0.2205E+00  0.9689E+01  0.9593E+01
     31.900  0.1260E+00  0.2206E+00  0.9710E+01  0.9629E+01
     32.067  0.1076E+00  0.2139E+00  0.9728E+01  0.9665E+01
     32.234  0.1005E+00  0.1702E+00  0.9744E+01  0.9694E+01
     32.401  0.1685E+00  0.1078E+00  0.9773E+01  0.9712E+01
     32.569  0.1494E+00  0.9645E-01  0.9798E+01  0.9728E+01
     32.736  0.5516E-01  0.1270E+00  0.9807E+01  0.9749E+01
     32.903  0.2424E-01  0.1495E+00  0.9811E+01  0.9774E+01
     33.070  0.2263E-01  0.9690E-01  0.9815E+01  0.9790E+01
     33.238  0.7136E-01  0.7816E-01  0.9827E+01  0.9803E+01
     33.405  0.1273E+00  0.5373E-01  0.9848E+01  0.9812E+01
     33.572  0.7965E-01  0.4709E-01  0.9861E+01  0.9820E+01
     33.739  0.3220E-01  0.1288E+00  0.9867E+01  0.9842E+01
     33.907  0.2407E-01  0.1035E+00  0.9871E+01  0.9859E+01
     34.074  0.2191E-01  0.1131E-01  0.9874E+01  0.9861E+01
     34.241  0.3326E-01  0.2311E-01  0.9880E+01  0.9865E+01
     34.408  0.6619E-01  0.3282E-01  0.9891E+01  0.9870E+01
     34.575  0.7886E-01  0.3313E-01  0.9904E+01  0.9876E+01
     34.743  0.1496E-01  0.6560E-01  0.9907E+01  0.9887E+01
     34.910  0.1808E-01  0.8234E-01  0.9910E+01  0.9901E+01
     35.077  0.5270E-01  0.4394E-01  0.9918E+01  0.9908E+01
     35.244  0.3220E-01  0.1442E-01  0.9924E+01  0.9910E+01
     35.412  0.2446E-01  0.4841E-01  0.9928E+01  0.9918E+01
     35.579  0.3883E-01  0.2983E-01  0.9934E+01  0.9923E+01
     35.746  0.1754E-01  0.1827E-01  0.9937E+01  0.9926E+01
     35.913  0.9099E-02  0.3593E-01  0.9939E+01  0.9932E+01
     36.081  0.8850E-02  0.3034E-01  0.9940E+01  0.9938E+01
     36.248  0.1024E-01  0.1276E-01  0.9942E+01  0.9940E+01
     36.415  0.2720E-01  0.2912E-02  0.9947E+01  0.9940E+01
     36.582  0.6648E-01  0.1625E-01  0.9958E+01  0.9943E+01
     36.750  0.3939E-01  0.3493E-01  0.9964E+01  0.9949E+01
     36.917 -0.7985E-03  0.5736E-01  0.9964E+01  0.9958E+01
     37.084 -0.1951E-02  0.3559E-01  0.9964E+01  0.9964E+01
     37.251  0.4008E-02 -0.5304E-03  0.9965E+01  0.9964E+01
     37.419  0.1306E-01 -0.1382E-02  0.9967E+01  0.9964E+01
     37.586  0.6126E-02  0.9849E-02  0.9968E+01  0.9966E+01
     37.753  0.1241E-01  0.1294E-01  0.9970E+01  0.9968E+01
     37.920  0.3001E-01  0.1211E-02  0.9975E+01  0.9968E+01
     38.088  0.1290E-01  0.1584E-01  0.9977E+01  0.9971E+01
     38.255  0.2864E-02  0.2843E-01  0.9978E+01  0.9975E+01
     38.422  0.1199E-01  0.1175E-01  0.9980E+01  0.9977E+01
     38.589  0.1824E-01  0.9404E-02  0.9983E+01  0.9979E+01
     38.757  0.1947E-01  0.1100E-01  0.9986E+01  0.9981E+01
     38.924  0.1004E-01  0.1713E-01  0.9987E+01  0.9984E+01
     39.091  0.4839E-03  0.1566E-01  0.9988E+01  0.9986E+01
     39.258 -0.4554E-03  0.7956E-02  0.9988E+01  0.9988E+01
     39.426 -0.4257E-03  0.5478E-04  0.9987E+01  0.9988E+01
     39.593  0.8469E-03 -0.5453E-03  0.9988E+01  0.9987E+01
     39.760  0.9806E-02 -0.2410E-03  0.9989E+01  0.9987E+01
     39.927  0.7374E-02  0.6930E-02  0.9990E+01  0.9989E+01
     40.095  0.1864E-03  0.1040E-01  0.9990E+01  0.9990E+01
     40.262  0.1603E-01  0.3692E-03  0.9993E+01  0.9990E+01
     40.429  0.1933E-01  0.4839E-02  0.9996E+01  0.9991E+01
     40.596  0.1489E-02  0.2265E-01  0.9997E+01  0.9995E+01
     40.764 -0.7667E-03  0.1031E-01  0.9997E+01  0.9997E+01
     40.931 -0.5391E-04 -0.9255E-03  0.9997E+01  0.9997E+01
     41.098 -0.2723E-04 -0.2970E-03  0.9996E+01  0.9997E+01
     41.265 -0.1764E-03 -0.1152E-04  0.9996E+01  0.9996E+01
     41.433  0.1002E-02 -0.6761E-04  0.9997E+01  0.9996E+01
     41.600  0.3724E-02 -0.1061E-03  0.9997E+01  0.9996E+01
     41.767  0.1592E-02  0.2066E-02  0.9998E+01  0.9997E+01
     41.934  0.2546E-02  0.3616E-02  0.9998E+01  0.9997E+01
     42.102  0.3175E-02  0.3244E-02  0.9998E+01  0.9998E+01
     42.269  0.9100E-04  0.3095E-02  0.9998E+01  0.9998E+01
     42.436  0.6626E-05  0.1768E-03  0.9998E+01  0.9999E+01
     42.603  0.4333E-02 -0.3600E-03  0.9999E+01  0.9998E+01
     42.771  0.4600E-02  0.2588E-02  0.1000E+02  0.9999E+01
     42.938  0.2465E-03  0.5667E-02  0.1000E+02  0.1000E+02
     43.105 -0.1755E-03  0.1306E-02  0.1000E+02  0.1000E+02
     43.272 -0.1095E-04 -0.2597E-03  0.1000E+02  0.1000E+02
     43.439 -0.1235E-06 -0.3438E-04  0.1000E+02  0.1000E+02
     43.607 -0.3077E-09 -0.6628E-06  0.1000E+02  0.1000E+02
     43.774 -0.1786E-12 -0.2717E-08  0.1000E+02  0.1000E+02
     43.941 -0.2589E-16 -0.2564E-11  0.1000E+02  0.1000E+02
     44.108  0.0000E+00 -0.5735E-15  0.1000E+02  0.1000E+02
     44.276  0.0000E+00  0.0000E+00  0.1000E+02  0.1000E+02
     44.443  0.0000E+00  0.0000E+00  0.1000E+02  0.1000E+02
     44.610  0.0000E+00  0.0000E+00  0.1000E+02  0.1000E+02
     44.777  0.0000E+00  0.0000E+00  0.1000E+02  0.1000E+02
     44.945  0.0000E+00  0.0000E+00  0.1000E+02  0.1000E+02
     45.112  0.0000E+00  0.0000E+00  0.1000E+02  0.1000E+02
