    1    1    1    2
  0.1133259E+02  0.2450852E-09  0.2450852E-09  0.2450852E-09  0.5000000E-15
  1.000000000000000E-004
  CAR 
 bcc Fe                                  
      8    250     10
 
  0.2500000E-01  0.2500000E-01  0.2500000E-01  0.1000000E-02
    1       -2.677389     -2.297712   1.000000   1.000000
    2        3.386675      5.128190   1.000000   1.000094
    3        3.386675      5.128190   1.000000   1.000094
    4        3.517607      5.272295   1.000000   1.002936
    5        4.756441      6.987088   1.000000  -0.000000
    6        4.756441      6.987088   1.000000  -0.000000
    7       29.871945     30.127497   0.000000   0.000000
    8       29.871945     30.127497   0.000000   0.000000
    9       30.740672     30.899495   0.000000   0.000000
   10       35.474612     36.212578   0.000000   0.000000
 
  0.7500000E-01  0.2500000E-01  0.2500000E-01  0.3000000E-02
    1       -2.371487     -1.989395   1.000000   1.000000
    2        3.300192      5.028009   1.000000   1.000004
    3        3.363194      5.094008   1.000000   1.000035
    4        3.697539      5.464935   1.000000   1.034336
    5        4.684543      6.896429   1.000000  -0.000000
    6        4.769791      7.001854   1.000000  -0.000000
    7       28.236267     28.642975   0.000000   0.000000
    8       29.184613     29.525540   0.000000   0.000000
    9       30.838390     31.027183   0.000000   0.000000
   10       33.592093     34.417404   0.000000   0.000000
 
  0.1250000E+00  0.2500000E-01  0.2500000E-01  0.3000000E-02
    1       -1.880147     -1.491324   1.000000   1.000000
    2        3.168570      4.875896   1.000000   1.000000
    3        3.317264      5.029605   1.000000   1.000005
    4        3.970501      5.758095   1.000000   0.374493
    5        4.607340      6.793005   1.000000  -0.000000
    6        4.790430      7.025559   1.000000  -0.000000
    7       26.146250     26.700723   0.000000   0.000000
    8       28.306641     28.709943   0.000000   0.000000
    9       30.733041     31.006742   0.000000   0.000000
   10       31.939431     32.739521   0.000000   0.000000
 
  0.1750000E+00  0.2500000E-01  0.2500000E-01  0.3000000E-02
    1       -1.238659     -0.831438   1.000000   1.000000
    2        3.006961      4.689929   1.000000   1.000000
    3        3.252814      4.927688   1.000000   1.000000
    4        4.325161      6.140083   1.000000  -0.006552
    5        4.571969      6.728640   1.000000  -0.000000
    6        4.817439      7.057892   1.000000  -0.000000
    7       23.855372     24.532296   0.000000   0.000000
    8       27.324482     27.753552   0.000000   0.000000
    9       30.451683     30.871278   0.000000   0.000000
   10       30.488467     31.230773   0.000000   0.000000
 
  0.2250000E+00  0.2500000E-01  0.2500000E-01  0.3000000E-02
    1       -0.518027     -0.060571   1.000000   1.000000
    2        2.835035      4.492182   1.000000   1.000000
    3        3.225573      4.819887   1.000000   1.000000
    4        4.585747      6.587590   1.000000  -0.000000
    5        4.747322      6.725297   1.000000  -0.000000
    6        4.845550      7.094607   1.000000  -0.000000
    7       21.514179     22.291992   0.000000   0.000000
    8       26.336449     26.764697   0.000000   0.000000
    9       29.097270     29.853574   0.000000   0.000000
   10       30.233778     30.715763   0.000000   0.000000
 
  0.2750000E+00  0.2500000E-01  0.2500000E-01  0.3000000E-02
    1        0.145714      0.729312   1.000000   1.000000
    2        2.666441      4.299668   1.000000   1.000000
    3        3.373665      4.799700   1.000000   1.000000
    4        4.648031      6.766357   1.000000  -0.000000
    5        4.880576      7.072107   1.000000  -0.000000
    6        5.195232      7.139374   1.000539  -0.000000
    7       19.220153     20.090507   0.000000   0.000000
    8       25.435509     25.848768   0.000000   0.000000
    9       27.882662     28.609881   0.000000   0.000000
   10       29.997642     30.562749   0.000000   0.000000
 
  0.3250000E+00  0.2500000E-01  0.2500000E-01  0.3000000E-02
    1        0.579772      1.391787   1.000000   1.000000
    2        2.518458      4.131211   1.000000   1.000000
    3        3.843671      4.999149   1.000000   1.000002
    4        4.732870      6.835283   1.000000  -0.000000
    5        4.916622      7.185883   1.000000  -0.000000
    6        5.646970      7.541906   0.813853  -0.000000
    7       17.052782     18.022060   0.000000   0.000000
    8       24.679936     25.073366   0.000000   0.000000
    9       26.850664     27.544248   0.000000   0.000000
   10       29.813934     30.442010   0.000000   0.000000
 
  0.3750000E+00  0.2500000E-01  0.2500000E-01  0.3000000E-02
    1        0.755068      1.798271   1.000000   1.000000
    2        2.403374      4.000627   1.000000   1.000000
    3        4.523020      5.482556   1.000000   1.035457
    4        4.872408      6.898681   1.000000  -0.000000
    5        4.945782      7.225267   1.000000  -0.000000
    6        6.089375      7.956172  -0.014180  -0.000000
    7       15.133036     16.219967   0.000000   0.000000
    8       24.110601     24.485768   0.000000   0.000000
    9       26.058115     26.718746   0.000000   0.000000
   10       29.683931     30.355807   0.000000   0.000000
 
  0.4250000E+00  0.2500000E-01  0.2500000E-01  0.3000000E-02
    1        0.794880      1.971366   1.000000   1.000000
    2        2.330462      3.918098   1.000000   1.000000
    3        4.774363      6.056016   1.000000  -0.021238
    4        4.963960      6.932643   1.000000  -0.000000
    5        5.326896      7.251070   1.007845  -0.000000
    6        6.532271      8.263204  -0.000000  -0.000000
    7       13.672402     14.893830   0.000000   0.000000
    8       23.758998     24.121138   0.000000   0.000000
    9       25.555891     26.192029   0.000000   0.000000
   10       29.603969     30.302007   0.000000   0.000000
 
  0.4750000E+00  0.2500000E-01  0.2500000E-01  0.1500000E-02
    1        0.798941      2.014400   1.000000   1.000000
    2        2.305571      3.889930   1.000000   1.000000
    3        4.806314      6.328274   1.000000  -0.000093
    4        4.973560      6.933975   1.000001  -0.000000
    5        5.548582      7.262813   1.010944  -0.000000
    6        6.777833      8.386164  -0.000000  -0.000000
    7       13.089486     14.385435   0.000000   0.000000
    8       23.639960     23.997439   0.000000   0.000000
    9       25.384438     26.011333   0.000000   0.000000
   10       29.578674     30.285201   0.000000   0.000000
 
 -0.2500000E-01  0.2500000E-01  0.2500000E-01  0.7500000E-03
    1       -2.781036     -2.401963   1.000000   1.000000
    2        3.417813      5.163964   1.000000   1.000246
    3        3.417904      5.164060   1.000000   1.000247
    4        3.429005      5.178708   1.000000   1.000359
    5        4.749967      6.980610   1.000000  -0.000000
    6        4.787242      7.024366   1.000000  -0.000000
    7       30.233810     30.429741   0.000000   0.000000
    8       30.563420     30.738910   0.000000   0.000000
    9       30.563425     30.738915   0.000000   0.000000
   10       35.255996     35.757292   0.000000   0.000000
 
  0.7500000E-01  0.7500000E-01  0.2500000E-01  0.3000000E-02
    1       -1.975625     -1.588785   1.000000   1.000000
    2        3.217601      4.929410   1.000000   1.000000
    3        3.264642      4.980084   1.000000   1.000001
    4        3.950978      5.734735   1.000000   0.471778
    5        4.634609      6.832302   1.000000  -0.000000
    6        4.773698      7.002966   1.000000  -0.000000
    7       26.958059     27.449950   0.000000   0.000000
    8       27.718314     28.182650   0.000000   0.000000
    9       31.214981     31.402786   0.000000   0.000000
   10       31.647324     32.454333   0.000000   0.000000
 
  0.1250000E+00  0.7500000E-01  0.2500000E-01  0.6000000E-02
    1       -1.410641     -1.011941   1.000000   1.000000
    2        3.074692      4.763196   1.000000   1.000000
    3        3.176263      4.868242   1.000000   1.000000
    4        4.293072      6.096469   1.000000  -0.012868
    5        4.579128      6.751929   1.000000  -0.000000
    6        4.808224      7.042172   1.000000  -0.000000
    7       25.009854     25.620271   0.000000   0.000000
    8       26.555068     27.076402   0.000000   0.000000
    9       29.995257     30.764571   0.000000   0.000000
   10       31.359312     31.608778   0.000000   0.000000
 
  0.1750000E+00  0.7500000E-01  0.2500000E-01  0.6000000E-02
    1       -0.724663     -0.295344   1.000000   1.000000
    2        2.904416      4.567051   1.000000   1.000000
    3        3.097008      4.743285   1.000000   1.000000
    4        4.562077      6.533813   1.000000  -0.000000
    5        4.712810      6.715162   1.000000  -0.000000
    6        4.849744      7.090392   1.000000  -0.000000
    7       22.756079     23.476590   0.000000   0.000000
    8       25.558530     26.100060   0.000000   0.000000
    9       28.596226     29.333855   0.000000   0.000000
   10       31.277174     31.620484   0.000000   0.000000
 
  0.2250000E+00  0.7500000E-01  0.2500000E-01  0.6000000E-02
    1       -0.015218      0.494307   1.000000   1.000000
    2        2.732363      4.369364   1.000000   1.000000
    3        3.101786      4.649773   1.000000   1.000000
    4        4.597014      6.728371   1.000000  -0.000000
    5        4.886978      7.022458   1.000000  -0.000000
    6        5.191801      7.147673   1.000496  -0.000000
    7       20.449006     21.263676   0.000000   0.000000
    8       24.666398     25.209470   0.000000   0.000000
    9       27.385882     28.095105   0.000000   0.000000
   10       31.077032     31.513616   0.000000   0.000000
 
  0.2750000E+00  0.7500000E-01  0.2500000E-01  0.6000000E-02
    1        0.548058      1.238288   1.000000   1.000000
    2        2.577059      4.190543   1.000000   1.000000
    3        3.335585      4.692352   1.000000   1.000000
    4        4.668919      6.789668   1.000000  -0.000000
    5        4.931484      7.185768   1.000000  -0.000000
    6        5.714489      7.553362   0.557282  -0.000000
    7       18.216019     19.121161   0.000000   0.000000
    8       23.902156     24.435648   0.000000   0.000000
    9       26.359660     27.039152   0.000000   0.000000
   10       30.881660     31.390666   0.000000   0.000000
 
  0.3250000E+00  0.7500000E-01  0.2500000E-01  0.6000000E-02
    1        0.832439      1.777152   1.000000   1.000000
    2        2.450235      4.044797   1.000000   1.000000
    3        3.847206      4.979547   1.000000   1.000001
    4        4.750043      6.861816   1.000000  -0.000000
    5        4.983892      7.235567   1.000001  -0.000000
    6        6.282489      8.064195  -0.000315  -0.000000
    7       16.143332     17.151837   0.000000   0.000000
    8       23.291379     23.811578   0.000000   0.000000
    9       25.534259     26.183051   0.000000   0.000000
   10       30.717673     31.280300   0.000000   0.000000
 
  0.3750000E+00  0.7500000E-01  0.2500000E-01  0.6000000E-02
    1        0.912034      2.046368   1.000000   1.000000
    2        2.359828      3.941524   1.000000   1.000000
    3        4.385996      5.458173   1.000000   1.033447
    4        4.808684      6.917519   1.000000  -0.000000
    5        5.082525      7.282193   1.000025  -0.000000
    6        6.902421      8.533826  -0.000000  -0.000000
    7       14.391068     15.525694   0.000000   0.000000
    8       22.863139     23.371642   0.000000   0.000000
    9       24.951557     25.573317   0.000000   0.000000
   10       30.597904     31.196086   0.000000   0.000000
 
  0.4250000E+00  0.7500000E-01  0.2500000E-01  0.6000000E-02
    1        0.919981      2.136839   1.000000   1.000000
    2        2.312105      3.887527   1.000000   1.000000
    3        4.658400      5.832421   1.000000   0.118166
    4        4.815095      6.939872   1.000000  -0.000000
    5        5.226954      7.322255   1.001130  -0.000000
    6        7.425780      8.866507  -0.000000  -0.000000
    7       13.271937     14.528821   0.000000   0.000000
    8       22.638423     23.140819   0.000000   0.000000
    9       24.649674     25.255153   0.000000   0.000000
   10       30.529632     31.145882   0.000000   0.000000
 
 -0.7500000E-01  0.7500000E-01  0.2500000E-01  0.3000000E-02
    1       -2.574486     -2.194117   1.000000   1.000000
    2        3.365966      5.103421   1.000000   1.000046
    3        3.414052      5.153718   1.000000   1.000188
    4        3.543661      5.299701   1.000000   1.004924
    5        4.685417      6.899785   1.000000  -0.000000
    6        4.802988      7.042381   1.000000  -0.000000
    7       29.094831     29.409466   0.000000   0.000000
    8       30.252662     30.483172   0.000000   0.000000
    9       30.408431     30.648103   0.000000   0.000000
   10       34.458960     34.968010   0.000000   0.000000
 
  0.1250000E+00  0.1250000E+00  0.2500000E-01  0.3000000E-02
    1       -0.795316     -0.374982   1.000000   1.000000
    2        2.971761      4.629768   1.000000   1.000000
    3        3.007359      4.676771   1.000000   1.000000
    4        4.547877      6.526473   1.000000  -0.000000
    5        4.707509      6.701019   1.000000  -0.000000
    6        4.860597      7.097864   1.000000  -0.000000
    7       23.688359     24.356983   0.000000   0.000000
    8       24.716640     25.335086   0.000000   0.000000
    9       28.443506     29.170785   0.000000   0.000000
   10       31.748727     32.018185   0.000000   0.000000
 
  0.1750000E+00  0.1250000E+00  0.2500000E-01  0.6000000E-02
    1       -0.098296      0.373020   1.000000   1.000000
    2        2.805762      4.442129   1.000000   1.000000
    3        2.914879      4.528408   1.000000   1.000000
    4        4.552002      6.687764   1.000000  -0.000000
    5        4.904547      7.009489   1.000000  -0.000000
    6        5.212626      7.177187   1.000815  -0.000000
    7       21.723055     22.480212   0.000000   0.000000
    8       23.450510     24.101483   0.000000   0.000000
    9       27.187118     27.876816   0.000000   0.000000
   10       31.864987     32.199889   0.000000   0.000000
 
  0.2250000E+00  0.1250000E+00  0.2500000E-01  0.6000000E-02
    1        0.552249      1.146599   1.000000   1.000000
    2        2.637101      4.247429   1.000000   1.000000
    3        2.957895      4.462499   1.000000   1.000000
    4        4.600415      6.725301   1.000000  -0.000000
    5        4.957334      7.197475   1.000000  -0.000000
    6        5.784882      7.603013   0.269991  -0.000000
    7       19.497525     20.340092   0.000000   0.000000
    8       22.567500     23.227123   0.000000   0.000000
    9       26.155364     26.814123   0.000000   0.000000
   10       31.806392     32.215833   0.000000   0.000000
 
  0.2750000E+00  0.1250000E+00  0.2500000E-01  0.6000000E-02
    1        0.970800      1.800545   1.000000   1.000000
    2        2.501623      4.088759   1.000000   1.000000
    3        3.235629      4.554351   1.000000   1.000000
    4        4.679504      6.798196   1.000000  -0.000000
    5        5.008334      7.249433   1.000002  -0.000000
    6        6.440469      8.193850  -0.000003  -0.000000
    7       17.332992     18.264201   0.000000   0.000000
    8       21.873295     22.530947   0.000000   0.000000
    9       25.321515     25.952429   0.000000   0.000000
   10       31.697051     32.167495   0.000000   0.000000
 
  0.3250000E+00  0.1250000E+00  0.2500000E-01  0.6000000E-02
    1        1.116592      2.191317   1.000000   1.000000
    2        2.403221      3.974387   1.000000   1.000000
    3        3.681314      4.862809   1.000000   1.000000
    4        4.759219      6.877150   1.000000  -0.000000
    5        5.080020      7.297590   1.000023  -0.000000
    6        7.193101      8.810449  -0.000000  -0.000000
    7       15.371737     16.409704   0.000000   0.000000
    8       21.354600     22.005083   0.000000   0.000000
    9       24.698547     25.304734   0.000000   0.000000
   10       31.591407     32.106233   0.000000   0.000000
 
  0.3750000E+00  0.1250000E+00  0.2500000E-01  0.6000000E-02
    1        1.133294      2.342852   1.000000   1.000000
    2        2.342836      3.904756   1.000000   1.000000
    3        4.034483      5.227051   1.000000   1.001132
    4        4.801856      6.928352   1.000000  -0.000000
    5        5.173236      7.343690   1.000312  -0.000000
    6        7.966448      9.384941  -0.000000  -0.000000
    7       13.820483     14.988105   0.000000   0.000000
    8       21.028841     21.672159   0.000000   0.000000
    9       24.311189     24.899787   0.000000   0.000000
   10       31.518862     32.060479   0.000000   0.000000
 
  0.4250000E+00  0.1250000E+00  0.2500000E-01  0.3000000E-02
    1        1.129715      2.376770   1.000000   1.000000
    2        2.323422      3.881995   1.000000   1.000000
    3        4.157087      5.384673   1.000000   1.017815
    4        4.811387      6.943741   1.000000  -0.000000
    5        5.226255      7.369610   1.001112  -0.000000
    6        8.363501      9.662354  -0.000000  -0.000000
    7       13.164058     14.412063   0.000000   0.000000
    8       20.920085     21.559940   0.000000   0.000000
    9       24.180678     24.762688   0.000000   0.000000
   10       31.497931     32.048080   0.000000   0.000000
 
 -0.1250000E+00  0.1250000E+00  0.2500000E-01  0.3000000E-02
    1       -2.172027     -1.787654   1.000000   1.000000
    2        3.258769      4.979200   1.000000   1.000001
    3        3.390872      5.116976   1.000000   1.000068
    4        3.760555      5.534148   1.000000   1.021674
    5        4.595658      6.785757   1.000000  -0.000000
    6        4.818656      7.059697   1.000000  -0.000000
    7       27.233431     27.713073   0.000000   0.000000
    8       29.496697     29.800258   0.000000   0.000000
    9       30.136005     30.480514   0.000000   0.000000
   10       33.871899     34.674213   0.000000   0.000000
 
 -0.7500000E-01  0.1250000E+00  0.2500000E-01  0.3000000E-02
    1       -2.270849     -1.887769   1.000000   1.000000
    2        3.325047      5.052814   1.000000   1.000010
    3        3.377583      5.107510   1.000000   1.000052
    4        3.691551      5.458623   1.000000   1.033513
    5        4.583674      6.774534   1.000000  -0.000000
    6        4.835810      7.080420   1.000000  -0.000000
    7       27.903307     28.310116   0.000000   0.000000
    8       29.212145     29.607978   0.000000   0.000000
    9       30.486650     30.751754   0.000000   0.000000
   10       33.684813     34.217755   0.000000   0.000000
 
  0.1750000E+00  0.1750000E+00  0.2500000E-01  0.3000000E-02
    1        0.559942      1.116303   1.000000   1.000000
    2        2.676979      4.279883   1.000000   1.000000
    3        2.807895      4.371928   1.000000   1.000000
    4        4.572687      6.697582   1.000000  -0.000000
    5        4.967912      7.202857   1.000001  -0.000000
    6        5.813447      7.627501   0.172631  -0.000000
    7       20.562679     21.370630   0.000000   0.000000
    8       21.448069     22.157651   0.000000   0.000000
    9       26.118378     26.775873   0.000000   0.000000
   10       32.233189     32.587604   0.000000   0.000000
 
  0.2250000E+00  0.1750000E+00  0.2500000E-01  0.6000000E-02
    1        1.099454      1.830835   1.000000   1.000000
    2        2.531573      4.100828   1.000000   1.000000
    3        2.872307      4.332588   1.000000   1.000000
    4        4.627905      6.747835   1.000000  -0.000000
    5        5.020521      7.256632   1.000003  -0.000000
    6        6.527444      8.275142  -0.000000  -0.000000
    7       18.643926     19.511763   0.000000   0.000000
    8       20.362230     21.099356   0.000000   0.000000
    9       25.276924     25.914285   0.000000   0.000000
   10       32.391648     32.787433   0.000000   0.000000
 
  0.2750000E+00  0.1750000E+00  0.2500000E-01  0.6000000E-02
    1        1.363715      2.357771   1.000000   1.000000
    2        2.433458      3.981322   1.000000   1.000000
    3        3.131837      4.437891   1.000000   1.000000
    4        4.708972      6.828273   1.000000  -0.000000
    5        5.073901      7.294750   1.000019  -0.000000
    6        7.372978      9.000586  -0.000000  -0.000000
    7       16.576851     17.526221   0.000000   0.000000
    8       19.717122     20.457865   0.000000   0.000000
    9       24.635897     25.257513   0.000000   0.000000
   10       32.440400     32.878978   0.000000   0.000000
 
  0.3250000E+00  0.1750000E+00  0.2500000E-01  0.6000000E-02
    1        1.413422      2.605222   1.000000   1.000000
    2        2.375032      3.914339   1.000000   1.000000
    3        3.448536      4.689722   1.000000   1.000000
    4        4.781256      6.905995   1.000000  -0.000000
    5        5.133050      7.324946   1.000107  -0.000000
    6        8.326557      9.776542  -0.000000  -0.000000
    7       14.730233     15.788185   0.000000   0.000000
    8       19.281009     20.016421   0.000000   0.000000
    9       24.196474     24.806355   0.000000   0.000000
   10       32.428086     32.901867   0.000000   0.000000
 
  0.3750000E+00  0.1750000E+00  0.2500000E-01  0.6000000E-02
    1        1.403757      2.674527   1.000000   1.000000
    2        2.348072      3.883782   1.000000   1.000000
    3        3.639149      4.900121   1.000000   1.000000
    4        4.820230      6.952186   1.000000  -0.000000
    5        5.188591      7.352822   1.000458  -0.000000
    6        9.155692     10.425666  -0.000000  -0.000000
    7       13.442285     14.621954   0.000000   0.000000
    8       19.059520     19.789259   0.000000   0.000000
    9       23.973535     24.576750   0.000000   0.000000
   10       32.420336     32.911858   0.000000   0.000000
 
 -0.1750000E+00  0.1750000E+00  0.2500000E-01  0.3000000E-02
    1       -1.598776     -1.203234   1.000000   1.000000
    2        3.112335      4.810727   1.000000   1.000000
    3        3.338797      5.038094   1.000000   1.000006
    4        4.069724      5.869253   1.000000   0.038064
    5        4.529428      6.690127   1.000000  -0.000000
    6        4.839142      7.082865   1.000000  -0.000000
    7       25.017215     25.638443   0.000000   0.000000
    8       28.456006     28.807734   0.000000   0.000000
    9       29.771927     30.239880   0.000000   0.000000
   10       32.321056     33.083535   0.000000   0.000000
 
 -0.1250000E+00  0.1750000E+00  0.2500000E-01  0.6000000E-02
    1       -1.783448     -1.393039   1.000000   1.000000
    2        3.214981      4.922919   1.000000   1.000000
    3        3.329118      5.042751   1.000000   1.000007
    4        3.958762      5.745101   1.000000   0.428187
    5        4.486500      6.647345   1.000000  -0.000000
    6        4.870215      7.117806   1.000000  -0.000000
    7       26.115678     26.662770   0.000000   0.000000
    8       27.987783     28.465033   0.000000   0.000000
    9       30.280309     30.634457   0.000000   0.000000
   10       32.431128     33.158809   0.000000   0.000000
 
  0.2250000E+00  0.2250000E+00  0.2500000E-01  0.3000000E-02
    1        1.501417      2.440255   1.000000   1.000000
    2        2.428640      3.953212   1.000000   1.000000
    3        2.907726      4.299091   1.000000   1.000000
    4        4.687995      6.807423   1.000000  -0.000000
    5        5.071706      7.292670   1.000018  -0.000000
    6        7.432280      9.065834  -0.000000  -0.000000
    7       17.654479     18.578554   0.000000   0.000000
    8       18.476105     19.239895   0.000000   0.000000
    9       24.622811     25.254176   0.000000   0.000000
   10       32.842549     33.238223   0.000000   0.000000
 
  0.2750000E+00  0.2250000E+00  0.2500000E-01  0.6000000E-02
    1        1.671988      2.837040   1.000000   1.000000
    2        2.382861      3.879239   1.000000   1.000000
    3        3.047963      4.362118   1.000000   1.000000
    4        4.766719      6.890156   1.000000  -0.000000
    5        5.110981      7.308386   1.000057  -0.000000
    6        8.499419      9.976835  -0.000000  -0.000000
    7       15.901235     16.873380   0.000000   0.000000
    8       17.682675     18.480816   0.000000   0.000000
    9       24.160319     24.789916   0.000000   0.000000
   10       33.137190     33.551197   0.000000   0.000000
 
  0.3250000E+00  0.2250000E+00  0.2500000E-01  0.6000000E-02
    1        1.693578      2.986543   1.000000   1.000000
    2        2.378631      3.872586   1.000000   1.000000
    3        3.191250      4.485721   1.000000   1.000000
    4        4.836940      6.967711   1.000000  -0.000000
    5        5.138214      7.311126   1.000124  -0.000000
    6        9.642722     10.944205  -0.000000  -0.000000
    7       14.196393     15.267840   0.000000   0.000000
    8       17.327592     18.128234   0.000000   0.000000
    9       23.882996     24.511729   0.000000   0.000000
   10       33.298960     33.734973   0.000000   0.000000
 
  0.3750000E+00  0.2250000E+00  0.2500000E-01  0.3000000E-02
    1        1.686914      3.012968   1.000000   1.000000
    2        2.379841      3.876048   1.000000   1.000000
    3        3.246187      4.548963   1.000000   1.000000
    4        4.862971      6.998910   1.000000  -0.000000
    5        5.148515      7.309740   1.000164  -0.000000
    6       10.314162     11.501641  -0.000000   0.000000
    7       13.324413     14.480977   0.000000   0.000000
    8       17.210829     18.009902   0.000000   0.000000
    9       23.788521     24.417291   0.000000   0.000000
   10       33.342657     33.789037   0.000000   0.000000
 
 -0.2250000E+00  0.2250000E+00  0.2500000E-01  0.3000000E-02
    1       -0.905394     -0.478999   1.000000   1.000000
    2        2.946422      4.619549   1.000000   1.000000
    3        3.283159      4.926036   1.000000   1.000000
    4        4.451035      6.284010   1.000000  -0.000303
    5        4.525573      6.657425   1.000000  -0.000000
    6        4.865116      7.113242   1.000000  -0.000000
    7       22.680447     23.412679   0.000000   0.000000
    8       27.352029     27.720277   0.000000   0.000000
    9       29.272554     29.875582   0.000000   0.000000
   10       31.049227     31.742326   0.000000   0.000000
 
 -0.1750000E+00  0.2250000E+00  0.2500000E-01  0.6000000E-02
    1       -1.147798     -0.737975   1.000000   1.000000
    2        3.060171      4.744700   1.000000   1.000000
    3        3.260933      4.941983   1.000000   1.000000
    4        4.311569      6.125672   1.000000  -0.008308
    5        4.440604      6.568488   1.000000  -0.000000
    6        4.905620      7.155902   1.000000  -0.000000
    7       23.909374     24.585587   0.000000   0.000000
    8       26.887505     27.387801   0.000000   0.000000
    9       29.651296     30.155529   0.000000   0.000000
   10       31.397491     32.041611   0.000000   0.000000
 
 -0.1250000E+00  0.2250000E+00  0.2500000E-01  0.3000000E-02
    1       -1.230168     -0.825560   1.000000   1.000000
    2        3.144959      4.829516   1.000000   1.000000
    3        3.202696      4.901650   1.000000   1.000000
    4        4.280128      6.083865   1.000000  -0.015251
    5        4.400376      6.528301   1.000000  -0.000000
    6        4.923867      7.175533   1.000000  -0.000000
    7       24.775506     25.396733   0.000000   0.000000
    8       26.079406     26.672860   0.000000   0.000000
    9       30.432223     30.805493   0.000000   0.000000
   10       30.910556     31.608518   0.000000   0.000000
 
  0.2750000E+00  0.2750000E+00  0.2500000E-01  0.3000000E-02
    1        1.846201      3.157430   1.000000   1.000000
    2        2.396726      3.842330   1.000000   1.000000
    3        2.976994      4.306248   1.000000   1.000000
    4        4.846432      6.976693   1.000000  -0.000000
    5        5.113115      7.288587   1.000061  -0.000000
    6        9.792975     11.115163  -0.000000  -0.000000
    7       14.983478     16.004364   0.000000   0.000000
    8       16.220016     17.048767   0.000000   0.000000
    9       23.857060     24.496291   0.000000   0.000000
   10       33.757763     34.161332   0.000000   0.000000
 
  0.3250000E+00  0.2750000E+00  0.2500000E-01  0.6000000E-02
    1        1.896142      3.280296   1.000000   1.000000
    2        2.458235      3.887999   1.000000   1.000000
    3        2.920026      4.257069   1.000000   1.000000
    4        4.918862      7.057239   1.000000  -0.000000
    5        5.091942      7.250807   1.000033  -0.000000
    6       11.085034     12.267225  -0.000000   0.000000
    7       13.605100     14.689140   0.000000   0.000000
    8       15.748670     16.607120   0.000000   0.000000
    9       23.706951     24.352129   0.000000   0.000000
   10       34.183999     34.593150   0.000000   0.000000
 
 -0.2750000E+00  0.2750000E+00  0.2500000E-01  0.3000000E-02
    1       -0.192460      0.316109   1.000000   1.000000
    2        2.773598      4.422268   1.000000   1.000000
    3        3.321981      4.844308   1.000000   1.000000
    4        4.577916      6.687739   1.000000  -0.000000
    5        4.876159      6.748379   1.000000  -0.000000
    6        4.898601      7.151555   1.000000  -0.000000
    7       20.348706     21.175935   0.000000   0.000000
    8       26.314019     26.679654   0.000000   0.000000
    9       28.471126     29.174725   0.000000   0.000000
   10       30.241121     30.881072   0.000000   0.000000
 
 -0.2250000E+00  0.2750000E+00  0.2500000E-01  0.6000000E-02
    1       -0.434652      0.026857   1.000000   1.000000
    2        2.888021      4.548566   1.000000   1.000000