       N       E                     dE             d eps       ncg     rms          rms(c)
DAV:   1     0.776773503292E+01    0.77677E+01   -0.27592E+03 10954   0.569E+02
DAV:   2    -0.100446110473E+02   -0.17812E+02   -0.16533E+02 10182   0.988E+01
DAV:   3    -0.102600363196E+02   -0.21543E+00   -0.21489E+00 11056   0.133E+01
DAV:   4    -0.102608197642E+02   -0.78344E-03   -0.78338E-03 10732   0.766E-01
DAV:   5    -0.102608253899E+02   -0.56258E-05   -0.56259E-05 10844   0.628E-02    0.873E+00
DAV:   6    -0.927461716203E+01    0.98621E+00   -0.12010E+01 10842   0.476E+01    0.274E+00
DAV:   7    -0.918829504176E+01    0.86322E-01   -0.74919E-01 10984   0.115E+01    0.680E-01
DAV:   8    -0.917286299383E+01    0.15432E-01   -0.10333E-02 12742   0.738E-01    0.301E-01
DAV:   9    -0.916944689291E+01    0.34161E-02   -0.20963E-03 11988   0.321E-01    0.171E-01
DAV:  10    -0.916941901693E+01    0.27876E-04   -0.47020E-04 10972   0.319E-01    0.499E-02
DAV:  11    -0.916939508459E+01    0.23932E-04   -0.15313E-04 11002   0.149E-01    0.143E-02
DAV:  12    -0.916939617902E+01   -0.10944E-05   -0.64496E-07  6340   0.947E-03    0.155E-02
DAV:  13    -0.916939496972E+01    0.12093E-05   -0.35892E-07  5146   0.695E-03    0.286E-03
DAV:  14    -0.916939492104E+01    0.48673E-07   -0.49925E-07  5082   0.913E-03
   1 F= -.91693949E+01 E0= -.91689967E+01  d E =-.119463E-02  mag=     2.1325
