a= 2.63
 running on    1 total cores
 distrk:  each k-point on    1 cores,    1 groups
 distr:  one band on    1 cores,    1 groups
 using from now: INCAR     
 vasp.5.4.4.18Apr17-6-g9f103f2a35 (build May 20 2018 16:52:39) complex          
  
 POSCAR found type information on POSCAR  Fe
 POSCAR found :  1 types and       1 ions
 scaLAPACK will be used
 LDA part: xc-table for Ceperly-Alder, standard interpolation
 POSCAR, INCAR and KPOINTS ok, starting setup
 FFT: planning ...
 WAVECAR not read
 entering main loop
       N       E                     dE             d eps       ncg     rms          rms(c)
DAV:   1     0.704569740051E+01    0.70457E+01   -0.27973E+03 11032   0.604E+02
DAV:   2    -0.972575861170E+01   -0.16771E+02   -0.15587E+02 10248   0.987E+01
DAV:   3    -0.991759060100E+01   -0.19183E+00   -0.19004E+00 10840   0.128E+01
DAV:   4    -0.991819076300E+01   -0.60016E-03   -0.60013E-03 10720   0.676E-01
DAV:   5    -0.991819422331E+01   -0.34603E-05   -0.34601E-05 10816   0.500E-02    0.887E+00
DAV:   6    -0.913458687756E+01    0.78361E+00   -0.69920E+00 10660   0.389E+01    0.119E+00
DAV:   7    -0.910034159348E+01    0.34245E-01   -0.94807E-02 10940   0.448E+00    0.651E-01
DAV:   8    -0.908196240134E+01    0.18379E-01   -0.76225E-03 11786   0.681E-01    0.330E-01
DAV:   9    -0.907785481435E+01    0.41076E-02   -0.20242E-03 11674   0.319E-01    0.860E-02
DAV:  10    -0.907785428385E+01    0.53050E-06   -0.75372E-05 11120   0.112E-01    0.308E-02
DAV:  11    -0.907787153603E+01   -0.17252E-04   -0.17823E-05 11258   0.533E-02    0.129E-02
DAV:  12    -0.907787218330E+01   -0.64727E-06   -0.20643E-07  5974   0.387E-03
   1 F= -.90778722E+01 E0= -.90782649E+01  d E =0.117809E-02  mag=     1.6692
a= 2.65
 running on    1 total cores
 distrk:  each k-point on    1 cores,    1 groups
 distr:  one band on    1 cores,    1 groups
 using from now: INCAR     
 vasp.5.4.4.18Apr17-6-g9f103f2a35 (build May 20 2018 16:52:39) complex          
  
 POSCAR found type information on POSCAR  Fe
 POSCAR found :  1 types and       1 ions
 scaLAPACK will be used
 LDA part: xc-table for Ceperly-Alder, standard interpolation
 POSCAR, INCAR and KPOINTS ok, starting setup
 FFT: planning ...
 WAVECAR not read
 entering main loop
       N       E                     dE             d eps       ncg     rms          rms(c)
DAV:   1     0.672998305403E+01    0.67300E+01   -0.27596E+03 11188   0.600E+02
DAV:   2    -0.981126636060E+01   -0.16541E+02   -0.15236E+02 10208   0.982E+01
DAV:   3    -0.100032597391E+02   -0.19199E+00   -0.19172E+00 10866   0.127E+01
DAV:   4    -0.100038570569E+02   -0.59732E-03   -0.59728E-03 10716   0.667E-01
DAV:   5    -0.100038606141E+02   -0.35572E-05   -0.35565E-05 10826   0.498E-02    0.886E+00
DAV:   6    -0.918558355152E+01    0.81828E+00   -0.74637E+00 10696   0.399E+01    0.127E+00
DAV:   7    -0.915117236137E+01    0.34411E-01   -0.12182E-01 10968   0.513E+00    0.646E-01
DAV:   8    -0.913269908184E+01    0.18473E-01   -0.78038E-03 11714   0.657E-01    0.327E-01
DAV:   9    -0.912895262263E+01    0.37465E-02   -0.19736E-03 11738   0.307E-01    0.892E-02
DAV:  10    -0.912894732561E+01    0.52970E-05   -0.88743E-05 11058   0.122E-01    0.319E-02
DAV:  11    -0.912896324104E+01   -0.15915E-04   -0.16678E-05 11354   0.513E-02    0.124E-02
DAV:  12    -0.912896425953E+01   -0.10185E-05   -0.19390E-07  5986   0.411E-03    0.149E-02
DAV:  13    -0.912896346152E+01    0.79801E-06   -0.21832E-07  5084   0.569E-03
   1 F= -.91289635E+01 E0= -.91294147E+01  d E =0.135358E-02  mag=     1.7173
a= 2.67
 running on    1 total cores
 distrk:  each k-point on    1 cores,    1 groups
 distr:  one band on    1 cores,    1 groups
 using from now: INCAR     
 vasp.5.4.4.18Apr17-6-g9f103f2a35 (build May 20 2018 16:52:39) complex          
  
 POSCAR found type information on POSCAR  Fe
 POSCAR found :  1 types and       1 ions
 scaLAPACK will be used
 LDA part: xc-table for Ceperly-Alder, standard interpolation
 POSCAR, INCAR and KPOINTS ok, starting setup
 FFT: planning ...
 WAVECAR not read
 entering main loop
       N       E                     dE             d eps       ncg     rms          rms(c)
DAV:   1     0.691965520599E+01    0.69197E+01   -0.27450E+03 11024   0.591E+02
DAV:   2    -0.989355549280E+01   -0.16813E+02   -0.15682E+02 10202   0.995E+01
DAV:   3    -0.100753501434E+02   -0.18179E+00   -0.18106E+00 10892   0.125E+01
DAV:   4    -0.100759280188E+02   -0.57788E-03   -0.57784E-03 10690   0.663E-01
DAV:   5    -0.100759316275E+02   -0.36087E-05   -0.36089E-05 10850   0.510E-02    0.884E+00
DAV:   6    -0.922609760581E+01    0.84983E+00   -0.79405E+00 10728   0.409E+01    0.137E+00
DAV:   7    -0.919032372593E+01    0.35774E-01   -0.15556E-01 10980   0.580E+00    0.643E-01
DAV:   8    -0.917187512611E+01    0.18449E-01   -0.79830E-03 11742   0.635E-01    0.321E-01
DAV:   9    -0.916840904557E+01    0.34661E-02   -0.19633E-03 11710   0.300E-01    0.922E-02
DAV:  10    -0.916839736747E+01    0.11678E-04   -0.14549E-04 10994   0.161E-01    0.253E-02
DAV:  11    -0.916841154584E+01   -0.14178E-04   -0.11187E-05 11678   0.330E-02    0.118E-02
DAV:  12    -0.916841298231E+01   -0.14365E-05   -0.18940E-07  5448   0.443E-03    0.154E-02
DAV:  13    -0.916841205826E+01    0.92406E-06   -0.15821E-07  5086   0.449E-03
   1 F= -.91684121E+01 E0= -.91689500E+01  d E =0.161393E-02  mag=     1.7625
a= 2.69
 running on    1 total cores
 distrk:  each k-point on    1 cores,    1 groups
 distr:  one band on    1 cores,    1 groups
 using from now: INCAR     
 vasp.5.4.4.18Apr17-6-g9f103f2a35 (build May 20 2018 16:52:39) complex          
  
 POSCAR found type information on POSCAR  Fe
 POSCAR found :  1 types and       1 ions
 scaLAPACK will be used
 LDA part: xc-table for Ceperly-Alder, standard interpolation
 POSCAR, INCAR and KPOINTS ok, starting setup
 FFT: planning ...
 WAVECAR not read
 entering main loop
       N       E                     dE             d eps       ncg     rms          rms(c)
DAV:   1     0.670200643126E+01    0.67020E+01   -0.27759E+03 11092   0.592E+02
DAV:   2    -0.995171532036E+01   -0.16654E+02   -0.15440E+02 10198   0.979E+01
DAV:   3    -0.101348912601E+02   -0.18318E+00   -0.18281E+00 10958   0.125E+01
DAV:   4    -0.101354686309E+02   -0.57737E-03   -0.57734E-03 10738   0.666E-01
DAV:   5    -0.101354723599E+02   -0.37290E-05   -0.37283E-05 10812   0.515E-02    0.883E+00
DAV:   6    -0.925737170191E+01    0.87810E+00   -0.84233E+00 10732   0.419E+01    0.148E+00
DAV:   7    -0.921908234112E+01    0.38289E-01   -0.19769E-01 10988   0.648E+00    0.643E-01
DAV:   8    -0.920072393677E+01    0.18358E-01   -0.83207E-03 11740   0.626E-01    0.316E-01
DAV:   9    -0.919747997153E+01    0.32440E-02   -0.19211E-03 11600   0.295E-01    0.959E-02
DAV:  10    -0.919747079041E+01    0.91811E-05   -0.30912E-04 11038   0.241E-01    0.304E-02
DAV:  11    -0.919747470932E+01   -0.39189E-05   -0.39396E-05 11200   0.705E-02    0.111E-02
DAV:  12    -0.919747623542E+01   -0.15261E-05   -0.34614E-07  5682   0.740E-03    0.151E-02
DAV:  13    -0.919747535737E+01    0.87806E-06   -0.19452E-07  5110   0.492E-03
   1 F= -.91974754E+01 E0= -.91980010E+01  d E =0.157689E-02  mag=     1.8072
a= 2.71
 running on    1 total cores
 distrk:  each k-point on    1 cores,    1 groups
 distr:  one band on    1 cores,    1 groups
 using from now: INCAR     
 vasp.5.4.4.18Apr17-6-g9f103f2a35 (build May 20 2018 16:52:39) complex          
  
 POSCAR found type information on POSCAR  Fe
 POSCAR found :  1 types and       1 ions
 scaLAPACK will be used
 LDA part: xc-table for Ceperly-Alder, standard interpolation
 POSCAR, INCAR and KPOINTS ok, starting setup
 FFT: planning ...
 WAVECAR not read
 entering main loop
       N       E                     dE             d eps       ncg     rms          rms(c)
DAV:   1     0.721747682657E+01    0.72175E+01   -0.27714E+03 11034   0.592E+02
DAV:   2    -0.998858976099E+01   -0.17206E+02   -0.15903E+02 10230   0.990E+01
DAV:   3    -0.101826627984E+02   -0.19407E+00   -0.19355E+00 10930   0.129E+01
DAV:   4    -0.101832762306E+02   -0.61343E-03   -0.61340E-03 10724   0.680E-01
DAV:   5    -0.101832802207E+02   -0.39901E-05   -0.39906E-05 10774   0.532E-02    0.880E+00
DAV:   6    -0.928013183422E+01    0.90315E+00   -0.89123E+00 10756   0.428E+01    0.159E+00
DAV:   7    -0.923815645988E+01    0.41975E-01   -0.24852E-01 11004   0.717E+00    0.647E-01
DAV:   8    -0.921991897996E+01    0.18237E-01   -0.88434E-03 11946   0.637E-01    0.311E-01
DAV:   9    -0.921687078549E+01    0.30482E-02   -0.18975E-03 11620   0.295E-01    0.101E-01
DAV:  10    -0.921688537547E+01   -0.14590E-04   -0.59873E-04 11054   0.342E-01    0.532E-02
DAV:  11    -0.921685913158E+01    0.26244E-04   -0.14084E-04 10980   0.153E-01    0.112E-02
DAV:  12    -0.921686039908E+01   -0.12675E-05   -0.93084E-07  6022   0.134E-02    0.143E-02
DAV:  13    -0.921685969768E+01    0.70140E-06   -0.76068E-07  5126   0.123E-02
   1 F= -.92168597E+01 E0= -.92172382E+01  d E =0.113564E-02  mag=     1.8533
a= 2.73
 running on    1 total cores
 distrk:  each k-point on    1 cores,    1 groups
 distr:  one band on    1 cores,    1 groups
 using from now: INCAR     
 vasp.5.4.4.18Apr17-6-g9f103f2a35 (build May 20 2018 16:52:39) complex          
  
 POSCAR found type information on POSCAR  Fe
 POSCAR found :  1 types and       1 ions
 scaLAPACK will be used
 LDA part: xc-table for Ceperly-Alder, standard interpolation
 POSCAR, INCAR and KPOINTS ok, starting setup
 FFT: planning ...
 WAVECAR not read
 entering main loop
       N       E                     dE             d eps       ncg     rms          rms(c)
DAV:   1     0.670580137096E+01    0.67058E+01   -0.27699E+03 11120   0.581E+02
DAV:   2    -0.100214703585E+02   -0.16727E+02   -0.15293E+02 10204   0.964E+01
DAV:   3    -0.102193739838E+02   -0.19790E+00   -0.19747E+00 10930   0.129E+01
DAV:   4    -0.102200030100E+02   -0.62903E-03   -0.62899E-03 10740   0.686E-01
DAV:   5    -0.102200071539E+02   -0.41440E-05   -0.41439E-05 10826   0.542E-02    0.878E+00
DAV:   6    -0.929508048410E+01    0.92493E+00   -0.94064E+00 10766   0.437E+01    0.173E+00
DAV:   7    -0.924818498828E+01    0.46895E-01   -0.30806E-01 10988   0.789E+00    0.654E-01
DAV:   8    -0.923016043703E+01    0.18025E-01   -0.95547E-03 12288   0.671E-01    0.307E-01
DAV:   9    -0.922722816809E+01    0.29323E-02   -0.18812E-03 11686   0.299E-01    0.106E-01
DAV:  10    -0.922725586879E+01   -0.27701E-04   -0.80534E-04 11074   0.400E-01    0.606E-02
DAV:  11    -0.922720715267E+01    0.48716E-04   -0.23111E-04 11018   0.200E-01    0.133E-02
DAV:  12    -0.922720806596E+01   -0.91329E-06   -0.14055E-06  6124   0.164E-02
   1 F= -.92272081E+01 E0= -.92273570E+01  d E =0.446857E-03  mag=     1.9004
a= 2.75
 running on    1 total cores
 distrk:  each k-point on    1 cores,    1 groups
 distr:  one band on    1 cores,    1 groups
 using from now: INCAR     
 vasp.5.4.4.18Apr17-6-g9f103f2a35 (build May 20 2018 16:52:39) complex          
  
 POSCAR found type information on POSCAR  Fe
 POSCAR found :  1 types and       1 ions
 scaLAPACK will be used
 LDA part: xc-table for Ceperly-Alder, standard interpolation
 POSCAR, INCAR and KPOINTS ok, starting setup
 FFT: planning ...
 WAVECAR not read
 entering main loop
       N       E                     dE             d eps       ncg     rms          rms(c)
DAV:   1     0.662840080824E+01    0.66284E+01   -0.27596E+03 11086   0.578E+02
DAV:   2    -0.100474076994E+02   -0.16676E+02   -0.15398E+02 10204   0.967E+01
DAV:   3    -0.102457437464E+02   -0.19834E+00   -0.19810E+00 11022   0.128E+01
DAV:   4    -0.102464371467E+02   -0.69340E-03   -0.69336E-03 10668   0.716E-01
DAV:   5    -0.102464419258E+02   -0.47791E-05   -0.47787E-05 10922   0.576E-02    0.876E+00
DAV:   6    -0.930291830798E+01    0.94352E+00   -0.99099E+00 10784   0.445E+01    0.188E+00
DAV:   7    -0.925005397120E+01    0.52864E-01   -0.37760E-01 10986   0.861E+00    0.664E-01
DAV:   8    -0.923238261474E+01    0.17671E-01   -0.10196E-02 12772   0.712E-01    0.306E-01
DAV:   9    -0.922942827397E+01    0.29543E-02   -0.19038E-03 11704   0.305E-01    0.112E-01
DAV:  10    -0.922943912070E+01   -0.10847E-04   -0.78767E-04 11042   0.399E-01    0.504E-02
DAV:  11    -0.922939847405E+01    0.40647E-04   -0.21380E-04 11028   0.190E-01    0.152E-02
DAV:  12    -0.922939895273E+01   -0.47867E-06   -0.85399E-07  6176   0.117E-02
   1 F= -.92293990E+01 E0= -.92292702E+01  d E =-.386307E-03  mag=     1.9489
a= 2.77
 running on    1 total cores
 distrk:  each k-point on    1 cores,    1 groups
 distr:  one band on    1 cores,    1 groups
 using from now: INCAR     
 vasp.5.4.4.18Apr17-6-g9f103f2a35 (build May 20 2018 16:52:39) complex          
  
 POSCAR found type information on POSCAR  Fe
 POSCAR found :  1 types and       1 ions
 scaLAPACK will be used
 LDA part: xc-table for Ceperly-Alder, standard interpolation
 POSCAR, INCAR and KPOINTS ok, starting setup
 FFT: planning ...
 WAVECAR not read
 entering main loop
       N       E                     dE             d eps       ncg     rms          rms(c)
DAV:   1     0.719862222983E+01    0.71986E+01   -0.27434E+03 10912   0.577E+02
DAV:   2    -0.100673411854E+02   -0.17266E+02   -0.15930E+02 10176   0.979E+01
DAV:   3    -0.102624464390E+02   -0.19511E+00   -0.19443E+00 11066   0.129E+01
DAV:   4    -0.102631218540E+02   -0.67541E-03   -0.67537E-03 10720   0.711E-01
DAV:   5    -0.102631264989E+02   -0.46449E-05   -0.46447E-05 10868   0.572E-02    0.874E+00
DAV:   6    -0.930414580053E+01    0.95898E+00   -0.10420E+01 10802   0.453E+01    0.207E+00
DAV:   7    -0.924424156439E+01    0.59904E-01   -0.45636E-01 10994   0.934E+00    0.672E-01
DAV:   8    -0.922704648975E+01    0.17195E-01   -0.10616E-02 13106   0.744E-01    0.307E-01
DAV:   9    -0.922399493707E+01    0.30516E-02   -0.19707E-03 11872   0.314E-01    0.120E-01
DAV:  10    -0.922398519963E+01    0.97374E-05   -0.70792E-04 11048   0.380E-01    0.401E-02
DAV:  11    -0.922395824537E+01    0.26954E-04   -0.16947E-04 11022   0.163E-01    0.160E-02
DAV:  12    -0.922395857174E+01   -0.32637E-06   -0.68593E-07  6414   0.929E-03
   1 F= -.92239586E+01 E0= -.92235281E+01  d E =-.129132E-02  mag=     1.9991
a= 2.79
 running on    1 total cores
 distrk:  each k-point on    1 cores,    1 groups
 distr:  one band on    1 cores,    1 groups
 using from now: INCAR     
 vasp.5.4.4.18Apr17-6-g9f103f2a35 (build May 20 2018 16:52:39) complex          
  
 POSCAR found type information on POSCAR  Fe
 POSCAR found :  1 types and       1 ions
 scaLAPACK will be used
 LDA part: xc-table for Ceperly-Alder, standard interpolation
 POSCAR, INCAR and KPOINTS ok, starting setup
 FFT: planning ...
 WAVECAR not read
 entering main loop
       N       E                     dE             d eps       ncg     rms          rms(c)
DAV:   1     0.816650970343E+01    0.81665E+01   -0.27523E+03 10846   0.575E+02
DAV:   2    -0.100539636549E+02   -0.18220E+02   -0.16864E+02 10190   0.100E+02
DAV:   3    -0.102699949025E+02   -0.21603E+00   -0.21552E+00 11056   0.133E+01
DAV:   4    -0.102707428255E+02   -0.74792E-03   -0.74787E-03 10706   0.748E-01
DAV:   5    -0.102707480193E+02   -0.51938E-05   -0.51941E-05 10902   0.603E-02    0.873E+00
DAV:   6    -0.929944629994E+01    0.97130E+00   -0.10938E+01 10824   0.461E+01    0.227E+00
DAV:   7    -0.923165040437E+01    0.67796E-01   -0.54474E-01 10992   0.101E+01    0.676E-01
DAV:   8    -0.921500995345E+01    0.16640E-01   -0.10772E-02 13110   0.756E-01    0.309E-01
DAV:   9    -0.921185946121E+01    0.31505E-02   -0.20278E-03 12008   0.324E-01    0.134E-01
DAV:  10    -0.921184172358E+01    0.17738E-04   -0.63954E-04 11058   0.362E-01    0.368E-02
DAV:  11    -0.921182107509E+01    0.20648E-04   -0.15078E-04 11024   0.148E-01    0.163E-02
DAV:  12    -0.921182141716E+01   -0.34207E-06   -0.75503E-07  6684   0.975E-03
   1 F= -.92118214E+01 E0= -.92111915E+01  d E =-.188970E-02  mag=     2.0504
a= 2.81
 running on    1 total cores
 distrk:  each k-point on    1 cores,    1 groups
 distr:  one band on    1 cores,    1 groups
 using from now: INCAR     
 vasp.5.4.4.18Apr17-6-g9f103f2a35 (build May 20 2018 16:52:39) complex          
  
 POSCAR found type information on POSCAR  Fe
 POSCAR found :  1 types and       1 ions
 scaLAPACK will be used
 LDA part: xc-table for Ceperly-Alder, standard interpolation
 POSCAR, INCAR and KPOINTS ok, starting setup
 FFT: planning ...
 WAVECAR not read
 entering main loop
       N       E                     dE             d eps       ncg     rms          rms(c)
DAV:   1     0.753270592833E+01    0.75327E+01   -0.27519E+03 10984   0.573E+02
DAV:   2    -0.100561510705E+02   -0.17589E+02   -0.16143E+02 10152   0.978E+01
DAV:   3    -0.102690627936E+02   -0.21291E+00   -0.21244E+00 11106   0.133E+01
DAV:   4    -0.102697994753E+02   -0.73668E-03   -0.73663E-03 10736   0.741E-01
DAV:   5    -0.102698046798E+02   -0.52044E-05   -0.52040E-05 10904   0.605E-02    0.872E+00
DAV:   6    -0.928945135056E+01    0.98035E+00   -0.11468E+01 10826   0.469E+01    0.250E+00
DAV:   7    -0.921284101805E+01    0.76610E-01   -0.64228E-01 10992   0.108E+01    0.677E-01
DAV:   8    -0.919678832046E+01    0.16053E-01   -0.10729E-02 12918   0.753E-01    0.307E-01
DAV:   9    -0.919354800616E+01    0.32403E-02   -0.20352E-03 12022   0.328E-01    0.153E-01
DAV:  10    -0.919353324325E+01    0.14763E-04   -0.57584E-04 11044   0.346E-01    0.411E-02
DAV:  11    -0.919351043091E+01    0.22812E-04   -0.15964E-04 11026   0.150E-01    0.156E-02
DAV:  12    -0.919351104325E+01   -0.61235E-06   -0.74536E-07  6506   0.104E-02
   1 F= -.91935110E+01 E0= -.91929201E+01  d E =-.177278E-02  mag=     2.0967
a= 2.83
 running on    1 total cores
 distrk:  each k-point on    1 cores,    1 groups
 distr:  one band on    1 cores,    1 groups
 using from now: INCAR     
 vasp.5.4.4.18Apr17-6-g9f103f2a35 (build May 20 2018 16:52:39) complex          
  
 POSCAR found type information on POSCAR  Fe
 POSCAR found :  1 types and       1 ions
 scaLAPACK will be used
 LDA part: xc-table for Ceperly-Alder, standard interpolation
 POSCAR, INCAR and KPOINTS ok, starting setup
 FFT: planning ...
 WAVECAR not read
 entering main loop
       N       E                     dE             d eps       ncg     rms          rms(c)
DAV:   1     0.776773503292E+01    0.77677E+01   -0.27592E+03 10954   0.569E+02
DAV:   2    -0.100446110473E+02   -0.17812E+02   -0.16533E+02 10182   0.988E+01
DAV:   3    -0.102600363196E+02   -0.21543E+00   -0.21489E+00 11056   0.133E+01
DAV:   4    -0.102608197642E+02   -0.78344E-03   -0.78338E-03 10732   0.766E-01
DAV:   5    -0.102608253899E+02   -0.56258E-05   -0.56259E-05 10844   0.628E-02    0.873E+00
DAV:   6    -0.927461716203E+01    0.98621E+00   -0.12010E+01 10842   0.476E+01    0.274E+00
DAV:   7    -0.918829504176E+01    0.86322E-01   -0.74919E-01 10984   0.115E+01    0.680E-01
DAV:   8    -0.917286299383E+01    0.15432E-01   -0.10333E-02 12742   0.738E-01    0.301E-01
DAV:   9    -0.916944689291E+01    0.34161E-02   -0.20963E-03 11988   0.321E-01    0.171E-01
DAV:  10    -0.916941901693E+01    0.27876E-04   -0.47020E-04 10972   0.319E-01    0.499E-02
DAV:  11    -0.916939508459E+01    0.23932E-04   -0.15313E-04 11002   0.149E-01    0.143E-02
DAV:  12    -0.916939617902E+01   -0.10944E-05   -0.64496E-07  6340   0.947E-03    0.155E-02
DAV:  13    -0.916939496972E+01    0.12093E-05   -0.35892E-07  5146   0.695E-03    0.286E-03
DAV:  14    -0.916939492104E+01    0.48673E-07   -0.49925E-07  5082   0.913E-03
   1 F= -.91693949E+01 E0= -.91689967E+01  d E =-.119463E-02  mag=     2.1325
