<?xml version="1.0" encoding="ISO-8859-1"?>
<modeling>
 <generator>
  <i name="program" type="string">vasp </i>
  <i name="version" type="string">5.4.4.18Apr17-6-g9f103f2a35  </i>
  <i name="subversion" type="string">(build May 20 2018 16:52:39) complex            parallel </i>
  <i name="platform" type="string">LinuxIFC </i>
  <i name="date" type="string">2022 10 31 </i>
  <i name="time" type="string">00:19:22 </i>
 </generator>
 <incar>
  <i type="string" name="SYSTEM"> bcc Fe</i>
  <i type="string" name="PREC">normal</i>
  <i type="int" name="ISPIN">     2</i>
  <i name="EDIFF">      0.00000100</i>
  <v name="MAGMOM">      3.00000000</v>
  <i type="logical" name="LWAVE"> F  </i>
  <v type="int" name="KPOINT_BSE">    -1     0     0     0</v>
 </incar>
 <structure name="primitive_cell" >
  <crystal>
   <varray name="basis" >
    <v>      -1.41500000       1.41500000       1.41500000 </v>
    <v>       1.41500000      -1.41500000       1.41500000 </v>
    <v>       1.41500000       1.41500000      -1.41500000 </v>
   </varray>
   <i name="volume">     11.33259350 </i>
   <varray name="rec_basis" >
    <v>       0.00000000       0.35335689       0.35335689 </v>
    <v>       0.35335689       0.00000000       0.35335689 </v>
    <v>       0.35335689       0.35335689       0.00000000 </v>
   </varray>
  </crystal>
  <varray name="positions" >
   <v>       0.00000000       0.00000000       0.00000000 </v>
  </varray>
 </structure>
 <varray name="primitive_index" >
  <v type="int" >        1 </v>
 </varray>
 <kpoints>
  <generation param="Monkhorst-Pack">
   <v type="int" name="divisions">      20       20       20 </v>
   <v name="usershift">      0.00000000       0.00000000       0.00000000 </v>
   <v name="genvec1">      0.05000000       0.00000000       0.00000000 </v>
   <v name="genvec2">      0.00000000       0.05000000       0.00000000 </v>
   <v name="genvec3">      0.00000000       0.00000000       0.05000000 </v>
   <v name="shift">      0.50000000       0.50000000       0.50000000 </v>
  </generation>
  <varray name="kpointlist" >
   <v>       0.02500000       0.02500000       0.02500000 </v>
   <v>       0.07500000       0.02500000       0.02500000 </v>
   <v>       0.12500000       0.02500000       0.02500000 </v>
   <v>       0.17500000       0.02500000       0.02500000 </v>
   <v>       0.22500000       0.02500000       0.02500000 </v>
   <v>       0.27500000       0.02500000       0.02500000 </v>
   <v>       0.32500000       0.02500000       0.02500000 </v>
   <v>       0.37500000       0.02500000       0.02500000 </v>
   <v>       0.42500000       0.02500000       0.02500000 </v>
   <v>       0.47500000       0.02500000       0.02500000 </v>
   <v>      -0.02500000       0.02500000       0.02500000 </v>
   <v>       0.07500000       0.07500000       0.02500000 </v>
   <v>       0.12500000       0.07500000       0.02500000 </v>
   <v>       0.17500000       0.07500000       0.02500000 </v>
   <v>       0.22500000       0.07500000       0.02500000 </v>
   <v>       0.27500000       0.07500000       0.02500000 </v>
   <v>       0.32500000       0.07500000       0.02500000 </v>
   <v>       0.37500000       0.07500000       0.02500000 </v>
   <v>       0.42500000       0.07500000       0.02500000 </v>
   <v>      -0.07500000       0.07500000       0.02500000 </v>
   <v>       0.12500000       0.12500000       0.02500000 </v>
   <v>       0.17500000       0.12500000       0.02500000 </v>
   <v>       0.22500000       0.12500000       0.02500000 </v>
   <v>       0.27500000       0.12500000       0.02500000 </v>
   <v>       0.32500000       0.12500000       0.02500000 </v>
   <v>       0.37500000       0.12500000       0.02500000 </v>
   <v>       0.42500000       0.12500000       0.02500000 </v>
   <v>      -0.12500000       0.12500000       0.02500000 </v>
   <v>      -0.07500000       0.12500000       0.02500000 </v>
   <v>       0.17500000       0.17500000       0.02500000 </v>
   <v>       0.22500000       0.17500000       0.02500000 </v>
   <v>       0.27500000       0.17500000       0.02500000 </v>
   <v>       0.32500000       0.17500000       0.02500000 </v>
   <v>       0.37500000       0.17500000       0.02500000 </v>
   <v>      -0.17500000       0.17500000       0.02500000 </v>
   <v>      -0.12500000       0.17500000       0.02500000 </v>
   <v>       0.22500000       0.22500000       0.02500000 </v>
   <v>       0.27500000       0.22500000       0.02500000 </v>
   <v>       0.32500000       0.22500000       0.02500000 </v>
   <v>       0.37500000       0.22500000       0.02500000 </v>
   <v>      -0.22500000       0.22500000       0.02500000 </v>
   <v>      -0.17500000       0.22500000       0.02500000 </v>
   <v>      -0.12500000       0.22500000       0.02500000 </v>
   <v>       0.27500000       0.27500000       0.02500000 </v>
   <v>       0.32500000       0.27500000       0.02500000 </v>
   <v>      -0.27500000       0.27500000       0.02500000 </v>
   <v>      -0.22500000       0.27500000       0.02500000 </v>
   <v>      -0.17500000       0.27500000       0.02500000 </v>
   <v>       0.32500000       0.32500000       0.02500000 </v>
   <v>      -0.32500000       0.32500000       0.02500000 </v>
   <v>      -0.27500000       0.32500000       0.02500000 </v>
   <v>      -0.22500000       0.32500000       0.02500000 </v>
   <v>      -0.17500000       0.32500000       0.02500000 </v>
   <v>      -0.37500000       0.37500000       0.02500000 </v>
   <v>      -0.32500000       0.37500000       0.02500000 </v>
   <v>      -0.27500000       0.37500000       0.02500000 </v>
   <v>      -0.22500000       0.37500000       0.02500000 </v>
   <v>      -0.42500000       0.42500000       0.02500000 </v>
   <v>      -0.37500000       0.42500000       0.02500000 </v>
   <v>      -0.32500000       0.42500000       0.02500000 </v>
   <v>      -0.27500000       0.42500000       0.02500000 </v>
   <v>      -0.22500000       0.42500000       0.02500000 </v>
   <v>      -0.47500000       0.47500000       0.02500000 </v>
   <v>      -0.42500000       0.47500000       0.02500000 </v>
   <v>      -0.37500000       0.47500000       0.02500000 </v>
   <v>      -0.32500000       0.47500000       0.02500000 </v>
   <v>      -0.27500000       0.47500000       0.02500000 </v>
   <v>      -0.47500000      -0.47500000       0.02500000 </v>
   <v>      -0.42500000      -0.47500000       0.02500000 </v>
   <v>      -0.37500000      -0.47500000       0.02500000 </v>
   <v>      -0.32500000      -0.47500000       0.02500000 </v>
   <v>      -0.27500000      -0.47500000       0.02500000 </v>
   <v>      -0.42500000      -0.42500000       0.02500000 </v>
   <v>      -0.37500000      -0.42500000       0.02500000 </v>
   <v>      -0.32500000      -0.42500000       0.02500000 </v>
   <v>      -0.37500000      -0.37500000       0.02500000 </v>
   <v>      -0.32500000      -0.37500000       0.02500000 </v>
   <v>       0.07500000       0.07500000       0.07500000 </v>
   <v>       0.12500000       0.07500000       0.07500000 </v>
   <v>       0.17500000       0.07500000       0.07500000 </v>
   <v>       0.22500000       0.07500000       0.07500000 </v>
   <v>       0.27500000       0.07500000       0.07500000 </v>
   <v>       0.32500000       0.07500000       0.07500000 </v>
   <v>       0.37500000       0.07500000       0.07500000 </v>
   <v>       0.42500000       0.07500000       0.07500000 </v>
   <v>      -0.07500000       0.07500000       0.07500000 </v>
   <v>       0.12500000       0.12500000       0.07500000 </v>
   <v>       0.17500000       0.12500000       0.07500000 </v>
   <v>       0.22500000       0.12500000       0.07500000 </v>
   <v>       0.27500000       0.12500000       0.07500000 </v>
   <v>       0.32500000       0.12500000       0.07500000 </v>
   <v>       0.37500000       0.12500000       0.07500000 </v>
   <v>      -0.12500000       0.12500000       0.07500000 </v>
   <v>       0.17500000       0.17500000       0.07500000 </v>
   <v>       0.22500000       0.17500000       0.07500000 </v>
   <v>       0.27500000       0.17500000       0.07500000 </v>
   <v>       0.32500000       0.17500000       0.07500000 </v>
   <v>       0.37500000       0.17500000       0.07500000 </v>
   <v>      -0.17500000       0.17500000       0.07500000 </v>
   <v>      -0.12500000       0.17500000       0.07500000 </v>
   <v>       0.22500000       0.22500000       0.07500000 </v>
   <v>       0.27500000       0.22500000       0.07500000 </v>
   <v>       0.32500000       0.22500000       0.07500000 </v>
   <v>      -0.22500000       0.22500000       0.07500000 </v>
   <v>      -0.17500000       0.22500000       0.07500000 </v>
   <v>       0.27500000       0.27500000       0.07500000 </v>
   <v>       0.32500000       0.27500000       0.07500000 </v>
   <v>      -0.27500000       0.27500000       0.07500000 </v>
   <v>      -0.22500000       0.27500000       0.07500000 </v>
   <v>      -0.17500000       0.27500000       0.07500000 </v>
   <v>      -0.32500000       0.32500000       0.07500000 </v>
   <v>      -0.27500000       0.32500000       0.07500000 </v>
   <v>      -0.22500000       0.32500000       0.07500000 </v>
   <v>      -0.37500000       0.37500000       0.07500000 </v>
   <v>      -0.32500000       0.37500000       0.07500000 </v>
   <v>      -0.27500000       0.37500000       0.07500000 </v>
   <v>      -0.22500000       0.37500000       0.07500000 </v>
   <v>      -0.42500000       0.42500000       0.07500000 </v>
   <v>      -0.37500000       0.42500000       0.07500000 </v>
   <v>      -0.32500000       0.42500000       0.07500000 </v>
   <v>      -0.27500000       0.42500000       0.07500000 </v>
   <v>      -0.47500000       0.47500000       0.07500000 </v>
   <v>      -0.42500000       0.47500000       0.07500000 </v>
   <v>      -0.37500000       0.47500000       0.07500000 </v>
   <v>      -0.32500000       0.47500000       0.07500000 </v>
   <v>      -0.27500000       0.47500000       0.07500000 </v>
   <v>      -0.47500000      -0.47500000       0.07500000 </v>
   <v>      -0.42500000      -0.47500000       0.07500000 </v>
   <v>      -0.37500000      -0.47500000       0.07500000 </v>
   <v>      -0.32500000      -0.47500000       0.07500000 </v>
   <v>      -0.42500000      -0.42500000       0.07500000 </v>
   <v>      -0.37500000      -0.42500000       0.07500000 </v>
   <v>      -0.32500000      -0.42500000       0.07500000 </v>
   <v>      -0.37500000      -0.37500000       0.07500000 </v>
   <v>       0.12500000       0.12500000       0.12500000 </v>
   <v>       0.17500000       0.12500000       0.12500000 </v>
   <v>       0.22500000       0.12500000       0.12500000 </v>
   <v>       0.27500000       0.12500000       0.12500000 </v>
   <v>       0.32500000       0.12500000       0.12500000 </v>
   <v>       0.37500000       0.12500000       0.12500000 </v>
   <v>      -0.12500000       0.12500000       0.12500000 </v>
   <v>       0.17500000       0.17500000       0.12500000 </v>
   <v>       0.22500000       0.17500000       0.12500000 </v>
   <v>       0.27500000       0.17500000       0.12500000 </v>
   <v>       0.32500000       0.17500000       0.12500000 </v>
   <v>      -0.17500000       0.17500000       0.12500000 </v>
   <v>       0.22500000       0.22500000       0.12500000 </v>
   <v>       0.27500000       0.22500000       0.12500000 </v>
   <v>       0.32500000       0.22500000       0.12500000 </v>
   <v>      -0.22500000       0.22500000       0.12500000 </v>
   <v>      -0.17500000       0.22500000       0.12500000 </v>
   <v>       0.27500000       0.27500000       0.12500000 </v>
   <v>      -0.27500000       0.27500000       0.12500000 </v>
   <v>      -0.22500000       0.27500000       0.12500000 </v>
   <v>      -0.32500000       0.32500000       0.12500000 </v>
   <v>      -0.27500000       0.32500000       0.12500000 </v>
   <v>      -0.22500000       0.32500000       0.12500000 </v>
   <v>      -0.37500000       0.37500000       0.12500000 </v>
   <v>      -0.32500000       0.37500000       0.12500000 </v>
   <v>      -0.27500000       0.37500000       0.12500000 </v>
   <v>      -0.42500000       0.42500000       0.12500000 </v>
   <v>      -0.37500000       0.42500000       0.12500000 </v>
   <v>      -0.32500000       0.42500000       0.12500000 </v>
   <v>      -0.27500000       0.42500000       0.12500000 </v>
   <v>      -0.47500000       0.47500000       0.12500000 </v>
   <v>      -0.42500000       0.47500000       0.12500000 </v>
   <v>      -0.37500000       0.47500000       0.12500000 </v>
   <v>      -0.32500000       0.47500000       0.12500000 </v>
   <v>      -0.47500000      -0.47500000       0.12500000 </v>
   <v>      -0.42500000      -0.47500000       0.12500000 </v>
   <v>      -0.37500000      -0.47500000       0.12500000 </v>
   <v>      -0.32500000      -0.47500000       0.12500000 </v>
   <v>      -0.42500000      -0.42500000       0.12500000 </v>
   <v>      -0.37500000      -0.42500000       0.12500000 </v>
   <v>      -0.37500000      -0.37500000       0.12500000 </v>
   <v>       0.17500000       0.17500000       0.17500000 </v>
   <v>       0.22500000       0.17500000       0.17500000 </v>
   <v>       0.27500000       0.17500000       0.17500000 </v>
   <v>       0.32500000       0.17500000       0.17500000 </v>
   <v>      -0.17500000       0.17500000       0.17500000 </v>
   <v>       0.22500000       0.22500000       0.17500000 </v>
   <v>       0.27500000       0.22500000       0.17500000 </v>
   <v>      -0.22500000       0.22500000       0.17500000 </v>
   <v>       0.27500000       0.27500000       0.17500000 </v>
   <v>      -0.27500000       0.27500000       0.17500000 </v>
   <v>      -0.22500000       0.27500000       0.17500000 </v>
   <v>      -0.32500000       0.32500000       0.17500000 </v>
   <v>      -0.27500000       0.32500000       0.17500000 </v>
   <v>      -0.37500000       0.37500000       0.17500000 </v>
   <v>      -0.32500000       0.37500000       0.17500000 </v>
   <v>      -0.27500000       0.37500000       0.17500000 </v>
   <v>      -0.42500000       0.42500000       0.17500000 </v>
   <v>      -0.37500000       0.42500000       0.17500000 </v>
   <v>      -0.32500000       0.42500000       0.17500000 </v>
   <v>      -0.47500000       0.47500000       0.17500000 </v>
   <v>      -0.42500000       0.47500000       0.17500000 </v>
   <v>      -0.37500000       0.47500000       0.17500000 </v>
   <v>      -0.32500000       0.47500000       0.17500000 </v>
   <v>      -0.47500000      -0.47500000       0.17500000 </v>
   <v>      -0.42500000      -0.47500000       0.17500000 </v>
   <v>      -0.37500000      -0.47500000       0.17500000 </v>
   <v>      -0.42500000      -0.42500000       0.17500000 </v>
   <v>      -0.37500000      -0.42500000       0.17500000 </v>
   <v>       0.22500000       0.22500000       0.22500000 </v>
   <v>       0.27500000       0.22500000       0.22500000 </v>
   <v>      -0.22500000       0.22500000       0.22500000 </v>
   <v>      -0.27500000       0.27500000       0.22500000 </v>
   <v>      -0.32500000       0.32500000       0.22500000 </v>
   <v>      -0.27500000       0.32500000       0.22500000 </v>
   <v>      -0.37500000       0.37500000       0.22500000 </v>
   <v>      -0.32500000       0.37500000       0.22500000 </v>
   <v>      -0.42500000       0.42500000       0.22500000 </v>
   <v>      -0.37500000       0.42500000       0.22500000 </v>
   <v>      -0.32500000       0.42500000       0.22500000 </v>
   <v>      -0.47500000       0.47500000       0.22500000 </v>
   <v>      -0.42500000       0.47500000       0.22500000 </v>
   <v>      -0.37500000       0.47500000       0.22500000 </v>
   <v>      -0.47500000      -0.47500000       0.22500000 </v>
   <v>      -0.42500000      -0.47500000       0.22500000 </v>
   <v>      -0.37500000      -0.47500000       0.22500000 </v>
   <v>      -0.42500000      -0.42500000       0.22500000 </v>
   <v>      -0.27500000       0.27500000       0.27500000 </v>
   <v>      -0.32500000       0.32500000       0.27500000 </v>
   <v>      -0.37500000       0.37500000       0.27500000 </v>
   <v>      -0.32500000       0.37500000       0.27500000 </v>
   <v>      -0.42500000       0.42500000       0.27500000 </v>
   <v>      -0.37500000       0.42500000       0.27500000 </v>
   <v>      -0.47500000       0.47500000       0.27500000 </v>
   <v>      -0.42500000       0.47500000       0.27500000 </v>
   <v>      -0.37500000       0.47500000       0.27500000 </v>
   <v>      -0.47500000      -0.47500000       0.27500000 </v>
   <v>      -0.42500000      -0.47500000       0.27500000 </v>
   <v>      -0.42500000      -0.42500000       0.27500000 </v>
   <v>      -0.32500000       0.32500000       0.32500000 </v>
   <v>      -0.37500000       0.37500000       0.32500000 </v>
   <v>      -0.42500000       0.42500000       0.32500000 </v>
   <v>      -0.37500000       0.42500000       0.32500000 </v>
   <v>      -0.47500000       0.47500000       0.32500000 </v>
   <v>      -0.42500000       0.47500000       0.32500000 </v>
   <v>      -0.47500000      -0.47500000       0.32500000 </v>
   <v>      -0.42500000      -0.47500000       0.32500000 </v>
   <v>      -0.37500000       0.37500000       0.37500000 </v>
   <v>      -0.42500000       0.42500000       0.37500000 </v>
   <v>      -0.47500000       0.47500000       0.37500000 </v>
   <v>      -0.42500000       0.47500000       0.37500000 </v>
   <v>      -0.47500000      -0.47500000       0.37500000 </v>
   <v>      -0.42500000       0.42500000       0.42500000 </v>
   <v>      -0.47500000       0.47500000       0.42500000 </v>
   <v>      -0.47500000      -0.47500000       0.42500000 </v>
   <v>      -0.47500000       0.47500000       0.47500000 </v>
  </varray>
  <varray name="weights" >
   <v>       0.00100000 </v>
   <v>       0.00300000 </v>
   <v>       0.00300000 </v>
   <v>       0.00300000 </v>
   <v>       0.00300000 </v>
   <v>       0.00300000 </v>
   <v>       0.00300000 </v>
   <v>       0.00300000 </v>
   <v>       0.00300000 </v>
   <v>       0.00150000 </v>
   <v>       0.00075000 </v>
   <v>       0.00300000 </v>
   <v>       0.00600000 </v>
   <v>       0.00600000 </v>
   <v>       0.00600000 </v>
   <v>       0.00600000 </v>
   <v>       0.00600000 </v>
   <v>       0.00600000 </v>
   <v>       0.00600000 </v>
   <v>       0.00300000 </v>
   <v>       0.00300000 </v>
   <v>       0.00600000 </v>
   <v>       0.00600000 </v>
   <v>       0.00600000 </v>
   <v>       0.00600000 </v>
   <v>       0.00600000 </v>
   <v>       0.00300000 </v>
   <v>       0.00300000 </v>
   <v>       0.00300000 </v>
   <v>       0.00300000 </v>
   <v>       0.00600000 </v>
   <v>       0.00600000 </v>
   <v>       0.00600000 </v>
   <v>       0.00600000 </v>
   <v>       0.00300000 </v>
   <v>       0.00600000 </v>
   <v>       0.00300000 </v>
   <v>       0.00600000 </v>
   <v>       0.00600000 </v>
   <v>       0.00300000 </v>
   <v>       0.00300000 </v>
   <v>       0.00600000 </v>
   <v>       0.00300000 </v>
   <v>       0.00300000 </v>
   <v>       0.00600000 </v>
   <v>       0.00300000 </v>
   <v>       0.00600000 </v>
   <v>       0.00600000 </v>
   <v>       0.00100000 </v>
   <v>       0.00300000 </v>
   <v>       0.00600000 </v>
   <v>       0.00600000 </v>
   <v>       0.00300000 </v>
   <v>       0.00300000 </v>
   <v>       0.00600000 </v>
   <v>       0.00600000 </v>
   <v>       0.00600000 </v>
   <v>       0.00300000 </v>
   <v>       0.00600000 </v>
   <v>       0.00600000 </v>
   <v>       0.00600000 </v>
   <v>       0.00300000 </v>
   <v>       0.00300000 </v>
   <v>       0.00600000 </v>
   <v>       0.00600000 </v>
   <v>       0.00600000 </v>
   <v>       0.00600000 </v>
   <v>       0.00300000 </v>
   <v>       0.00600000 </v>
   <v>       0.00600000 </v>
   <v>       0.00600000 </v>
   <v>       0.00300000 </v>
   <v>       0.00300000 </v>
   <v>       0.00600000 </v>
   <v>       0.00600000 </v>
   <v>       0.00300000 </v>
   <v>       0.00300000 </v>
   <v>       0.00100000 </v>
   <v>       0.00300000 </v>
   <v>       0.00300000 </v>
   <v>       0.00300000 </v>
   <v>       0.00300000 </v>
   <v>       0.00300000 </v>
   <v>       0.00300000 </v>
   <v>       0.00150000 </v>
   <v>       0.00075000 </v>
   <v>       0.00300000 </v>
   <v>       0.00600000 </v>
   <v>       0.00600000 </v>
   <v>       0.00600000 </v>
   <v>       0.00600000 </v>
   <v>       0.00600000 </v>
   <v>       0.00300000 </v>
   <v>       0.00300000 </v>
   <v>       0.00600000 </v>
   <v>       0.00600000 </v>
   <v>       0.00600000 </v>
   <v>       0.00300000 </v>
   <v>       0.00300000 </v>
   <v>       0.00300000 </v>
   <v>       0.00300000 </v>
   <v>       0.00600000 </v>
   <v>       0.00600000 </v>
   <v>       0.00300000 </v>
   <v>       0.00600000 </v>
   <v>       0.00300000 </v>
   <v>       0.00300000 </v>
   <v>       0.00300000 </v>
   <v>       0.00600000 </v>
   <v>       0.00300000 </v>
   <v>       0.00300000 </v>
   <v>       0.00600000 </v>
   <v>       0.00600000 </v>
   <v>       0.00300000 </v>
   <v>       0.00600000 </v>
   <v>       0.00600000 </v>
   <v>       0.00300000 </v>
   <v>       0.00300000 </v>
   <v>       0.00600000 </v>
   <v>       0.00600000 </v>
   <v>       0.00600000 </v>
   <v>       0.00300000 </v>
   <v>       0.00600000 </v>
   <v>       0.00600000 </v>
   <v>       0.00600000 </v>
   <v>       0.00300000 </v>
   <v>       0.00300000 </v>
   <v>       0.00600000 </v>
   <v>       0.00600000 </v>
   <v>       0.00600000 </v>
   <v>       0.00300000 </v>
   <v>       0.00600000 </v>
   <v>       0.00300000 </v>
   <v>       0.00300000 </v>
   <v>       0.00100000 </v>
   <v>       0.00300000 </v>
   <v>       0.00300000 </v>
   <v>       0.00300000 </v>
   <v>       0.00300000 </v>
   <v>       0.00150000 </v>
   <v>       0.00075000 </v>
   <v>       0.00300000 </v>
   <v>       0.00600000 </v>
   <v>       0.00600000 </v>
   <v>       0.00600000 </v>
   <v>       0.00300000 </v>
   <v>       0.00300000 </v>
   <v>       0.00600000 </v>
   <v>       0.00300000 </v>
   <v>       0.00300000 </v>
   <v>       0.00300000 </v>
   <v>       0.00300000 </v>
   <v>       0.00300000 </v>
   <v>       0.00600000 </v>
   <v>       0.00300000 </v>
   <v>       0.00600000 </v>
   <v>       0.00300000 </v>
   <v>       0.00300000 </v>
   <v>       0.00600000 </v>
   <v>       0.00600000 </v>
   <v>       0.00300000 </v>
   <v>       0.00600000 </v>
   <v>       0.00600000 </v>
   <v>       0.00300000 </v>
   <v>       0.00300000 </v>
   <v>       0.00600000 </v>
   <v>       0.00600000 </v>
   <v>       0.00600000 </v>
   <v>       0.00300000 </v>
   <v>       0.00600000 </v>
   <v>       0.00600000 </v>
   <v>       0.00300000 </v>
   <v>       0.00300000 </v>
   <v>       0.00600000 </v>
   <v>       0.00100000 </v>
   <v>       0.00100000 </v>
   <v>       0.00300000 </v>
   <v>       0.00300000 </v>
   <v>       0.00150000 </v>
   <v>       0.00075000 </v>
   <v>       0.00300000 </v>
   <v>       0.00600000 </v>
   <v>       0.00300000 </v>
   <v>       0.00100000 </v>
   <v>       0.00300000 </v>
   <v>       0.00300000 </v>
   <v>       0.00300000 </v>
   <v>       0.00600000 </v>
   <v>       0.00300000 </v>
   <v>       0.00600000 </v>
   <v>       0.00300000 </v>
   <v>       0.00300000 </v>
   <v>       0.00600000 </v>
   <v>       0.00600000 </v>
   <v>       0.00300000 </v>
   <v>       0.00600000 </v>
   <v>       0.00600000 </v>
   <v>       0.00300000 </v>
   <v>       0.00300000 </v>
   <v>       0.00600000 </v>
   <v>       0.00600000 </v>
   <v>       0.00300000 </v>
   <v>       0.00300000 </v>
   <v>       0.00100000 </v>
   <v>       0.00150000 </v>
   <v>       0.00075000 </v>
   <v>       0.00300000 </v>
   <v>       0.00300000 </v>
   <v>       0.00300000 </v>
   <v>       0.00300000 </v>
   <v>       0.00600000 </v>
   <v>       0.00300000 </v>
   <v>       0.00600000 </v>
   <v>       0.00300000 </v>
   <v>       0.00300000 </v>
   <v>       0.00600000 </v>
   <v>       0.00600000 </v>
   <v>       0.00300000 </v>
   <v>       0.00600000 </v>
   <v>       0.00300000 </v>
   <v>       0.00300000 </v>
   <v>       0.00075000 </v>
   <v>       0.00300000 </v>
   <v>       0.00300000 </v>
   <v>       0.00300000 </v>
   <v>       0.00300000 </v>
   <v>       0.00600000 </v>
   <v>       0.00300000 </v>
   <v>       0.00600000 </v>
   <v>       0.00300000 </v>
   <v>       0.00300000 </v>
   <v>       0.00600000 </v>
   <v>       0.00100000 </v>
   <v>       0.00075000 </v>
   <v>       0.00300000 </v>
   <v>       0.00300000 </v>
   <v>       0.00300000 </v>
   <v>       0.00300000 </v>
   <v>       0.00600000 </v>
   <v>       0.00300000 </v>
   <v>       0.00300000 </v>
   <v>       0.00075000 </v>
   <v>       0.00300000 </v>
   <v>       0.00300000 </v>
   <v>       0.00300000 </v>
   <v>       0.00300000 </v>
   <v>       0.00075000 </v>
   <v>       0.00300000 </v>
   <v>       0.00100000 </v>
   <v>       0.00075000 </v>
  </varray>
 </kpoints>
 <parameters>
  <separator name="general" >
   <i type="string" name="SYSTEM">bcc Fe</i>
   <i type="logical" name="LCOMPAT"> F  </i>
  </separator>
  <separator name="electronic" >
   <i type="string" name="PREC">normal</i>
   <i name="ENMAX">    267.96900000</i>
   <i name="ENAUG">    511.36800000</i>
   <i name="EDIFF">      0.00000100</i>
   <i type="int" name="IALGO">    38</i>
   <i type="int" name="IWAVPR">    10</i>
   <i type="int" name="NBANDS">    10</i>
   <i name="NELECT">      8.00000000</i>
   <i type="int" name="TURBO">     0</i>
   <i type="int" name="IRESTART">     0</i>
   <i type="int" name="NREBOOT">     0</i>
   <i type="int" name="NMIN">     0</i>
   <i name="EREF">      0.00000000</i>
   <separator name="electronic smearing" >
    <i type="int" name="ISMEAR">     1</i>
    <i name="SIGMA">      0.20000000</i>
    <i name="KSPACING">      0.50000000</i>
    <i type="logical" name="KGAMMA"> T  </i>
   </separator>
   <separator name="electronic projectors" >
    <i type="logical" name="LREAL"> F  </i>
    <v name="ROPT">      0.00000000</v>
    <i type="int" name="LMAXPAW">  -100</i>
    <i type="int" name="LMAXMIX">     2</i>
    <i type="logical" name="NLSPLINE"> F  </i>
   </separator>
   <separator name="electronic startup" >
    <i type="int" name="ISTART">     0</i>
    <i type="int" name="ICHARG">     2</i>
    <i type="int" name="INIWAV">     1</i>
   </separator>
   <separator name="electronic spin" >
    <i type="int" name="ISPIN">     2</i>
    <i type="logical" name="LNONCOLLINEAR"> F  </i>
    <v name="MAGMOM">      3.00000000</v>
    <i name="NUPDOWN">     -1.00000000</i>
    <i type="logical" name="LSORBIT"> F  </i>
    <v name="SAXIS">      0.00000000      0.00000000      1.00000000</v>
    <i type="logical" name="LSPIRAL"> F  </i>
    <v name="QSPIRAL">      0.00000000      0.00000000      0.00000000</v>
    <i type="logical" name="LZEROZ"> F  </i>
   </separator>
   <separator name="electronic exchange-correlation" >
    <i type="logical" name="LASPH"> F  </i>
    <i type="logical" name="LMETAGGA"> F  </i>
   </separator>
   <separator name="electronic convergence" >
    <i type="int" name="NELM">    60</i>
    <i type="int" name="NELMDL">    -5</i>
    <i type="int" name="NELMIN">     2</i>
    <i name="ENINI">    267.96900000</i>
    <separator name="electronic convergence detail" >
     <i type="logical" name="LDIAG"> T  </i>
     <i type="logical" name="LSUBROT"> F  </i>
     <i name="WEIMIN">      0.00000000</i>
     <i name="EBREAK">      0.00000002</i>
     <i name="DEPER">      0.30000000</i>
     <i type="int" name="NRMM">     4</i>
     <i name="TIME">      0.40000000</i>
    </separator>
   </separator>
   <separator name="electronic mixer" >
    <i name="AMIX">      0.40000000</i>
    <i name="BMIX">      1.00000000</i>
    <i name="AMIN">      0.10000000</i>
    <i name="AMIX_MAG">      1.60000000</i>
    <i name="BMIX_MAG">      1.00000000</i>
    <separator name="electronic mixer details" >
     <i type="int" name="IMIX">     4</i>
     <i type="logical" name="MIXFIRST"> F  </i>
     <i type="int" name="MAXMIX">   -45</i>
     <i name="WC">    100.00000000</i>
     <i type="int" name="INIMIX">     1</i>
     <i type="int" name="MIXPRE">     1</i>
     <i type="int" name="MREMOVE">     5</i>
    </separator>
   </separator>
   <separator name="electronic dipolcorrection" >
    <i type="logical" name="LDIPOL"> F  </i>
    <i type="logical" name="LMONO"> F  </i>
    <i type="int" name="IDIPOL">     0</i>
    <i name="EPSILON">      1.00000000</i>
    <v name="DIPOL">   -100.00000000   -100.00000000   -100.00000000</v>
    <i name="EFIELD">      0.00000000</i>
   </separator>
  </separator>
  <separator name="grids" >
   <i type="int" name="NGX">    10</i>
   <i type="int" name="NGY">    10</i>
   <i type="int" name="NGZ">    10</i>
   <i type="int" name="NGXF">    20</i>
   <i type="int" name="NGYF">    20</i>
   <i type="int" name="NGZF">    20</i>
   <i type="logical" name="ADDGRID"> F  </i>
  </separator>
  <separator name="ionic" >
   <i type="int" name="NSW">     0</i>
   <i type="int" name="IBRION">    -1</i>
   <i type="int" name="MDALGO">     0</i>
   <i type="int" name="ISIF">     2</i>
   <i name="PSTRESS">      0.00000000</i>
   <i name="EDIFFG">      0.00001000</i>
   <i type="int" name="NFREE">     0</i>
   <i name="POTIM">      0.50000000</i>
   <i name="SMASS">     -3.00000000</i>
   <i name="SCALEE">      1.00000000</i>
  </separator>
  <separator name="ionic md" >
   <i name="TEBEG">      0.00010000</i>
   <i name="TEEND">      0.00010000</i>
   <i type="int" name="NBLOCK">     1</i>
   <i type="int" name="KBLOCK">     1</i>
   <i type="int" name="NPACO">   256</i>
   <i name="APACO">     16.00000000</i>
  </separator>
  <separator name="symmetry" >
   <i type="int" name="ISYM">     2</i>
   <i name="SYMPREC">      0.00001000</i>
  </separator>
  <separator name="dos" >
   <i type="int" name="LORBIT">     0</i>
   <v name="RWIGS">     -1.00000000</v>
   <i type="int" name="NEDOS">   301</i>
   <i name="EMIN">     10.00000000</i>
   <i name="EMAX">    -10.00000000</i>
   <i name="EFERMI">      0.00000000</i>
  </separator>
  <separator name="writing" >
   <i type="int" name="NWRITE">     2</i>
   <i type="logical" name="LWAVE"> F  </i>
   <i type="logical" name="LDOWNSAMPLE"> F  </i>
   <i type="logical" name="LCHARG"> T  </i>
   <i type="logical" name="LPARD"> F  </i>
   <i type="logical" name="LVTOT"> F  </i>
   <i type="logical" name="LVHAR"> F  </i>
   <i type="logical" name="LELF"> F  </i>
   <i type="logical" name="LOPTICS"> F  </i>
   <v name="STM">      0.00000000      0.00000000      0.00000000      0.00000000      0.00000000      0.00000000      0.00000000</v>
  </separator>
  <separator name="performance" >
   <i type="int" name="NPAR">     1</i>
   <i type="int" name="NSIM">     4</i>
   <i type="int" name="NBLK">    -1</i>
   <i type="logical" name="LPLANE"> T  </i>
   <i type="logical" name="LSCALAPACK"> T  </i>
   <i type="logical" name="LSCAAWARE"> F  </i>
   <i type="logical" name="LSCALU"> F  </i>
   <i type="logical" name="LASYNC"> F  </i>
   <i type="logical" name="LORBITALREAL"> F  </i>
  </separator>
  <separator name="miscellaneous" >
   <i type="int" name="IDIOT">     3</i>
   <i type="int" name="ISPECIAL">     0</i>
   <i type="logical" name="LMUSIC"> F  </i>
   <v name="POMASS">     55.84700000</v>
   <v name="DARWINR">      0.00000000</v>
   <v name="DARWINV">      1.00000000</v>
   <i type="logical" name="LCORR"> T  </i>
  </separator>
  <i type="logical" name="GGA_COMPAT"> T  </i>
  <i type="logical" name="LBERRY"> F  </i>
  <i type="int" name="ICORELEVEL">     0</i>
  <i type="logical" name="LDAU"> F  </i>
  <i type="int" name="I_CONSTRAINED_M">     0</i>
  <separator name="electronic exchange-correlation" >
   <i type="string" name="GGA">--</i>
   <i type="int" name="VOSKOWN">     0</i>
   <i type="logical" name="LHFCALC"> F  </i>
   <i type="string" name="PRECFOCK"></i>
   <i type="logical" name="LSYMGRAD"> F  </i>
   <i type="logical" name="LHFONE"> F  </i>
   <i type="logical" name="LRHFCALC"> F  </i>
   <i type="logical" name="LTHOMAS"> F  </i>
   <i type="logical" name="LMODELHF"> F  </i>
   <i name="ENCUT4O">     -1.00000000</i>
   <i type="int" name="EXXOEP">     0</i>
   <i type="int" name="FOURORBIT">     0</i>
   <i name="AEXX">      0.00000000</i>
   <i name="HFALPHA">      0.00000000</i>
   <i name="MCALPHA">      0.00000000</i>
   <i name="ALDAX">      1.00000000</i>
   <i name="AGGAX">      1.00000000</i>
   <i name="ALDAC">      1.00000000</i>
   <i name="AGGAC">      1.00000000</i>
   <i type="int" name="NKREDX">     1</i>
   <i type="int" name="NKREDY">     1</i>
   <i type="int" name="NKREDZ">     1</i>
   <i type="logical" name="SHIFTRED"> F  </i>
   <i type="logical" name="ODDONLY"> F  </i>
   <i type="logical" name="EVENONLY"> F  </i>
   <i type="int" name="LMAXFOCK">     0</i>
   <i type="int" name="NMAXFOCKAE">     0</i>
   <i type="logical" name="LFOCKAEDFT"> F  </i>
   <i name="HFSCREEN">      0.00000000</i>
   <i name="HFSCREENC">      0.00000000</i>
   <i type="int" name="NBANDSGWLOW">     0</i>
  </separator>
  <separator name="vdW DFT" >
   <i type="logical" name="LUSE_VDW"> F  </i>
   <i name="Zab_VDW">     -0.84910000</i>
   <i name="PARAM1">      0.12340000</i>
   <i name="PARAM2">      1.00000000</i>
   <i name="PARAM3">      0.00000000</i>
  </separator>
  <separator name="model GW" >
   <i type="int" name="MODEL_GW">     0</i>
   <i name="MODEL_EPS0">      6.79955610</i>
   <i name="MODEL_ALPHA">      1.00000000</i>
  </separator>
  <separator name="linear response parameters" >
   <i type="logical" name="LEPSILON"> F  </i>
   <i type="logical" name="LRPA"> F  </i>
   <i type="logical" name="LNABLA"> F  </i>
   <i type="logical" name="LVEL"> F  </i>
   <i type="int" name="KINTER">     0</i>
   <i name="CSHIFT">      0.10000000</i>
   <i name="OMEGAMAX">     -1.00000000</i>
   <i name="DEG_THRESHOLD">      0.00200000</i>
   <i name="RTIME">     -0.10000000</i>
   <i name="WPLASMAI">      0.00000000</i>
   <v name="DFIELD">      0.00000000      0.00000000      0.00000000</v>
   <v name="WPLASMA">      0.00000000      0.00000000      0.00000000      0.00000000      0.00000000      0.00000000      0.00000000      0.00000000      0.00000000</v>
  </separator>
  <separator name="orbital magnetization" >
   <i type="logical" name="NUCIND"> F  </i>
   <v name="MAGPOS">      0.00000000      0.00000000      0.00000000</v>
   <i type="logical" name="LNICSALL"> T  </i>
   <i type="logical" name="ORBITALMAG"> F  </i>
   <i type="logical" name="LMAGBLOCH"> F  </i>
   <i type="logical" name="LCHIMAG"> F  </i>
   <i type="logical" name="LGAUGE"> T  </i>
   <i type="int" name="MAGATOM">     0</i>
   <v name="MAGDIPOL">      0.00000000      0.00000000      0.00000000</v>
   <v name="AVECCONST">      0.00000000      0.00000000      0.00000000</v>
  </separator>
  <separator name="response functions" >
   <i type="logical" name="LADDER"> F  </i>
   <i type="logical" name="LRPAFORCE"> F  </i>
   <i type="logical" name="LFXC"> F  </i>
   <i type="logical" name="LHARTREE"> T  </i>
   <i type="int" name="IBSE">     0</i>
   <v type="int" name="KPOINT">    -1     0     0     0</v>
   <i type="logical" name="LTCTE"> F  </i>
   <i type="logical" name="LTETE"> F  </i>
   <i type="logical" name="LTRIPLET"> F  </i>
   <i type="logical" name="LFXCEPS"> F  </i>
   <i type="logical" name="LFXHEG"> F  </i>
   <i type="int" name="NATURALO">     2</i>
   <i type="logical" name="L2ORDER"> F  </i>
   <i type="logical" name="LMP2LT"> F  </i>
   <i type="logical" name="LUSEW"> F  </i>
   <i name="ENCUTGW">     -2.00000000</i>
   <i name="ENCUTGWSOFT">     -2.00000000</i>
   <i name="ENCUTLF">     -1.00000000</i>
   <i type="int" name="LMAXMP2">    -1</i>
   <i name="SCISSOR">      0.00000000</i>
   <i type="int" name="NOMEGA">     0</i>
   <i type="int" name="NOMEGAR">     0</i>
   <i type="int" name="NBANDSGW">    -1</i>
   <i type="int" name="NBANDSO">    -1</i>
   <i type="int" name="NBANDSV">    -1</i>
   <i type="int" name="NELM">     1</i>
   <i type="int" name="NELMHF">     1</i>
   <i type="int" name="DIM">     3</i>
   <i type="int" name="ANTIRES">     0</i>
   <i name="OMEGAMAX">    -30.00000000</i>
   <i name="OMEGAMIN">    -30.00000000</i>
   <i name="OMEGATL">   -200.00000000</i>
   <i type="int" name="OMEGAGRID">   140</i>
   <i name="CSHIFT">     -0.10000000</i>
   <i type="logical" name="SELFENERGY"> F  </i>
   <i type="logical" name="LSPECTRAL"> F  </i>
   <i type="logical" name="LSPECTRALGW"> F  </i>
   <i type="logical" name="LSINGLES"> F  </i>
   <i type="logical" name="LFERMIGW"> F  </i>
   <i type="logical" name="ODDONLYGW"> F  </i>
   <i type="logical" name="EVENONLYGW"> F  </i>
   <i type="int" name="NKREDLFX">     1</i>
   <i type="int" name="NKREDLFY">     1</i>
   <i type="int" name="NKREDLFZ">     1</i>
   <i type="int" name="MAXMEM">  2800</i>
   <i type="int" name="TELESCOPE">     0</i>
   <i type="int" name="TAUPAR">     1</i>
   <i type="int" name="OMEGAPAR">    -1</i>
   <i name="LAMBDA">      1.00000000</i>
  </separator>
  <separator name="External order field" >
   <i name="OFIELD_KAPPA">      0.00000000</i>
   <v name="OFIELD_K">      0.00000000      0.00000000      0.00000000</v>
   <i name="OFIELD_Q6_NEAR">      0.00000000</i>
   <i name="OFIELD_Q6_FAR">      0.00000000</i>
   <i name="OFIELD_A">      0.00000000</i>
  </separator>
 </parameters>
 <atominfo>
  <atoms>       1 </atoms>
  <types>       1 </types>
  <array name="atoms" >
   <dimension dim="1">ion</dimension>
   <field type="string">element</field>
   <field type="int">atomtype</field>
   <set>
    <rc><c>Fe</c><c>   1</c></rc>
   </set>
  </array>
  <array name="atomtypes" >
   <dimension dim="1">type</dimension>
   <field type="int">atomspertype</field>
   <field type="string">element</field>
   <field>mass</field>
   <field>valence</field>
   <field type="string">pseudopotential</field>
   <set>
    <rc><c>   1</c><c>Fe</c><c>     55.84700000</c><c>      8.00000000</c><c>  PAW Fe                                </c></rc>
   </set>
  </array>
 </atominfo>
 <structure name="initialpos" >
  <crystal>
   <varray name="basis" >
    <v>      -1.41500000       1.41500000       1.41500000 </v>
    <v>       1.41500000      -1.41500000       1.41500000 </v>
    <v>       1.41500000       1.41500000      -1.41500000 </v>
   </varray>
   <i name="volume">     11.33259350 </i>
   <varray name="rec_basis" >
    <v>       0.00000000       0.35335689       0.35335689 </v>
    <v>       0.35335689       0.00000000       0.35335689 </v>
    <v>       0.35335689       0.35335689       0.00000000 </v>
   </varray>
  </crystal>
  <varray name="positions" >
   <v>       0.00000000       0.00000000       0.00000000 </v>
  </varray>
 </structure>
 <calculation>
  <scstep>
   <time name="dav">    0.67    1.20</time>
   <time name="total">    0.70    1.24</time>
   <energy>
    <i name="alphaZ">     59.09385667 </i>
    <i name="ewald">   -592.55617941 </i>
    <i name="hartreedc">   -110.86883875 </i>
    <i name="XCdc">      5.59719903 </i>
    <i name="pawpsdc">    478.07446770 </i>
    <i name="pawaedc">   -487.43411278 </i>
    <i name="eentropy">     -0.00023368 </i>
    <i name="bandstr">     58.53122402 </i>
    <i name="atom">    597.33035224 </i>
    <i name="e_fr_energy">      7.76773503 </i>
    <i name="e_wo_entrp">      7.76796871 </i>
    <i name="e_0_energy">      7.76781293 </i>
   </energy>
  </scstep>
  <scstep>
   <time name="dav">    0.62    1.27</time>
   <time name="total">    0.63    1.30</time>
   <energy>
    <i name="e_fr_energy">    -10.04461105 </i>
    <i name="e_wo_entrp">    -10.04518988 </i>
    <i name="e_0_energy">    -10.04480399 </i>
   </energy>
  </scstep>
  <scstep>
   <time name="dav">    0.68    1.37</time>
   <time name="total">    0.69    1.41</time>
   <energy>
    <i name="e_fr_energy">    -10.26003632 </i>
    <i name="e_wo_entrp">    -10.26037650 </i>
    <i name="e_0_energy">    -10.26014971 </i>
   </energy>
  </scstep>
  <scstep>
   <time name="dav">    0.65    1.00</time>
   <time name="total">    0.66    1.01</time>
   <energy>
    <i name="e_fr_energy">    -10.26081976 </i>
    <i name="e_wo_entrp">    -10.26116061 </i>
    <i name="e_0_energy">    -10.26093338 </i>
   </energy>
  </scstep>
  <scstep>
   <time name="dav">    0.64    1.26</time>
   <time name="total">    0.69    1.35</time>
   <energy>
    <i name="e_fr_energy">    -10.26082539 </i>
    <i name="e_wo_entrp">    -10.26116624 </i>
    <i name="e_0_energy">    -10.26093901 </i>
   </energy>
  </scstep>
  <scstep>
   <time name="dav">    0.64    1.02</time>
   <time name="total">    0.70    1.08</time>
   <energy>
    <i name="e_fr_energy">     -9.27461716 </i>
    <i name="e_wo_entrp">     -9.27378045 </i>
    <i name="e_0_energy">     -9.27433826 </i>
   </energy>
  </scstep>
  <scstep>
   <time name="dav">    0.65    1.37</time>
   <time name="total">    0.71    1.48</time>
   <energy>
    <i name="e_fr_energy">     -9.18829504 </i>
    <i name="e_wo_entrp">     -9.18677224 </i>
    <i name="e_0_energy">     -9.18778744 </i>
   </energy>
  </scstep>
  <scstep>
   <time name="dav">    0.77    1.55</time>
   <time name="total">    0.82    1.65</time>
   <energy>
    <i name="e_fr_energy">     -9.17286299 </i>
    <i name="e_wo_entrp">     -9.17170627 </i>
    <i name="e_0_energy">     -9.17247742 </i>
   </energy>
  </scstep>
  <scstep>
   <time name="dav">    0.73    1.45</time>
   <time name="total">    0.78    1.55</time>
   <energy>
    <i name="e_fr_energy">     -9.16944689 </i>
    <i name="e_wo_entrp">     -9.16832022 </i>
    <i name="e_0_energy">     -9.16907134 </i>
   </energy>
  </scstep>
  <scstep>
   <time name="dav">    0.66    1.30</time>
   <time name="total">    0.71    1.42</time>
   <energy>
    <i name="e_fr_energy">     -9.16941902 </i>
    <i name="e_wo_entrp">     -9.16818866 </i>
    <i name="e_0_energy">     -9.16900890 </i>
   </energy>
  </scstep>
  <scstep>
   <time name="dav">    0.65    1.31</time>
   <time name="total">    0.70    1.42</time>
   <energy>
    <i name="e_fr_energy">     -9.16939508 </i>
    <i name="e_wo_entrp">     -9.16819988 </i>
    <i name="e_0_energy">     -9.16899668 </i>
   </energy>
  </scstep>
  <scstep>
   <time name="dav">    0.44    0.88</time>
   <time name="total">    0.49    0.99</time>
   <energy>
    <i name="e_fr_energy">     -9.16939618 </i>
    <i name="e_wo_entrp">     -9.16820163 </i>
    <i name="e_0_energy">     -9.16899800 </i>
   </energy>
  </scstep>
  <scstep>
   <time name="dav">    0.39    0.78</time>
   <time name="total">    0.44    0.89</time>
   <energy>
    <i name="e_fr_energy">     -9.16939497 </i>
    <i name="e_wo_entrp">     -9.16820148 </i>
    <i name="e_0_energy">     -9.16899714 </i>
   </energy>
  </scstep>
  <scstep>
   <time name="dav">    0.39    0.78</time>
   <time name="total">    0.41    0.83</time>
   <energy>
    <i name="alphaZ">     59.09385667 </i>
    <i name="ewald">   -592.55617941 </i>
    <i name="hartreedc">    -94.59826101 </i>
    <i name="XCdc">      4.59563290 </i>
    <i name="pawpsdc">    515.93891036 </i>
    <i name="pawaedc">   -526.48442024 </i>
    <i name="eentropy">     -0.00119463 </i>
    <i name="bandstr">     27.51190821 </i>
    <i name="atom">    597.33035224 </i>
    <i name="e_fr_energy">     -9.16939492 </i>
    <i name="e_wo_entrp">     -9.16820029 </i>
    <i name="e_0_energy">     -9.16899671 </i>
   </energy>
  </scstep>
  <structure>
   <crystal>
    <varray name="basis" >
     <v>      -1.41500000       1.41500000       1.41500000 </v>
     <v>       1.41500000      -1.41500000       1.41500000 </v>
     <v>       1.41500000       1.41500000      -1.41500000 </v>
    </varray>
    <i name="volume">     11.33259350 </i>
    <varray name="rec_basis" >
     <v>       0.00000000       0.35335689       0.35335689 </v>
     <v>       0.35335689       0.00000000       0.35335689 </v>
     <v>       0.35335689       0.35335689       0.00000000 </v>
    </varray>
   </crystal>
   <varray name="positions" >
    <v>       0.00000000       0.00000000       0.00000000 </v>
   </varray>
  </structure>
  <varray name="forces" >
   <v>       0.00000000      -0.00000000      -0.00000000 </v>
  </varray>
  <varray name="stress" >
   <v>    -217.23796551      -0.00000000       0.00000000 </v>
   <v>       0.00000000    -217.23796551       0.00000000 </v>
   <v>       0.00000000       0.00000000    -217.23796551 </v>
  </varray>
  <energy>
   <i name="e_fr_energy">     -9.16939492 </i>
   <i name="e_wo_entrp">     -9.16899671 </i>
   <i name="e_0_energy">     -0.00119463 </i>
  </energy>
  <time name="totalsc">    9.61   18.39</time>
  <eigenvalues>
   <array>
    <dimension dim="1">band</dimension>
    <dimension dim="2">kpoint</dimension>
    <dimension dim="3">spin</dimension>
    <field>eigene</field>
    <field>occ</field>
    <set>
     <set comment="spin 1">
      <set comment="kpoint 1">
       <r>   -2.6774    1.0000 </r>
       <r>    3.3867    1.0000 </r>
       <r>    3.3867    1.0000 </r>
       <r>    3.5176    1.0000 </r>
       <r>    4.7564    1.0000 </r>
       <r>    4.7564    1.0000 </r>
       <r>   29.8719    0.0000 </r>
       <r>   29.8719    0.0000 </r>
       <r>   30.7407    0.0000 </r>
       <r>   35.4746    0.0000 </r>
      </set>
      <set comment="kpoint 2">
       <r>   -2.3715    1.0000 </r>
       <r>    3.3002    1.0000 </r>
       <r>    3.3632    1.0000 </r>
       <r>    3.6975    1.0000 </r>
       <r>    4.6845    1.0000 </r>
       <r>    4.7698    1.0000 </r>
       <r>   28.2363    0.0000 </r>
       <r>   29.1846    0.0000 </r>
       <r>   30.8384    0.0000 </r>
       <r>   33.5921    0.0000 </r>
      </set>
      <set comment="kpoint 3">
       <r>   -1.8801    1.0000 </r>
       <r>    3.1686    1.0000 </r>
       <r>    3.3173    1.0000 </r>
       <r>    3.9705    1.0000 </r>
       <r>    4.6073    1.0000 </r>
       <r>    4.7904    1.0000 </r>
       <r>   26.1462    0.0000 </r>
       <r>   28.3066    0.0000 </r>
       <r>   30.7330    0.0000 </r>
       <r>   31.9394    0.0000 </r>
      </set>
      <set comment="kpoint 4">
       <r>   -1.2387    1.0000 </r>
       <r>    3.0070    1.0000 </r>
       <r>    3.2528    1.0000 </r>
       <r>    4.3252    1.0000 </r>
       <r>    4.5720    1.0000 </r>
       <r>    4.8174    1.0000 </r>
       <r>   23.8554    0.0000 </r>
       <r>   27.3245    0.0000 </r>
       <r>   30.4517    0.0000 </r>
       <r>   30.4885    0.0000 </r>
      </set>
      <set comment="kpoint 5">
       <r>   -0.5180    1.0000 </r>
       <r>    2.8350    1.0000 </r>
       <r>    3.2256    1.0000 </r>
       <r>    4.5857    1.0000 </r>
       <r>    4.7473    1.0000 </r>
       <r>    4.8456    1.0000 </r>
       <r>   21.5142    0.0000 </r>
       <r>   26.3364    0.0000 </r>
       <r>   29.0973    0.0000 </r>
       <r>   30.2338    0.0000 </r>
      </set>
      <set comment="kpoint 6">
       <r>    0.1457    1.0000 </r>
       <r>    2.6664    1.0000 </r>
       <r>    3.3737    1.0000 </r>
       <r>    4.6480    1.0000 </r>
       <r>    4.8806    1.0000 </r>
       <r>    5.1952    1.0005 </r>
       <r>   19.2202    0.0000 </r>
       <r>   25.4355    0.0000 </r>
       <r>   27.8827    0.0000 </r>
       <r>   29.9976    0.0000 </r>
      </set>
      <set comment="kpoint 7">
       <r>    0.5798    1.0000 </r>
       <r>    2.5185    1.0000 </r>
       <r>    3.8437    1.0000 </r>
       <r>    4.7329    1.0000 </r>
       <r>    4.9166    1.0000 </r>
       <r>    5.6470    0.8139 </r>
       <r>   17.0528    0.0000 </r>
       <r>   24.6799    0.0000 </r>
       <r>   26.8507    0.0000 </r>
       <r>   29.8139    0.0000 </r>
      </set>
      <set comment="kpoint 8">
       <r>    0.7551    1.0000 </r>
       <r>    2.4034    1.0000 </r>
       <r>    4.5230    1.0000 </r>
       <r>    4.8724    1.0000 </r>
       <r>    4.9458    1.0000 </r>
       <r>    6.0894   -0.0142 </r>
       <r>   15.1330    0.0000 </r>
       <r>   24.1106    0.0000 </r>
       <r>   26.0581    0.0000 </r>
       <r>   29.6839    0.0000 </r>
      </set>
      <set comment="kpoint 9">
       <r>    0.7949    1.0000 </r>
       <r>    2.3305    1.0000 </r>
       <r>    4.7744    1.0000 </r>
       <r>    4.9640    1.0000 </r>
       <r>    5.3269    1.0078 </r>
       <r>    6.5323   -0.0000 </r>
       <r>   13.6724    0.0000 </r>
       <r>   23.7590    0.0000 </r>
       <r>   25.5559    0.0000 </r>
       <r>   29.6040    0.0000 </r>
      </set>
      <set comment="kpoint 10">
       <r>    0.7989    1.0000 </r>
       <r>    2.3056    1.0000 </r>
       <r>    4.8063    1.0000 </r>
       <r>    4.9736    1.0000 </r>
       <r>    5.5486    1.0109 </r>
       <r>    6.7778   -0.0000 </r>
       <r>   13.0895    0.0000 </r>
       <r>   23.6400    0.0000 </r>
       <r>   25.3844    0.0000 </r>
       <r>   29.5787    0.0000 </r>
      </set>
      <set comment="kpoint 11">
       <r>   -2.7810    1.0000 </r>
       <r>    3.4178    1.0000 </r>
       <r>    3.4179    1.0000 </r>
       <r>    3.4290    1.0000 </r>
       <r>    4.7500    1.0000 </r>
       <r>    4.7872    1.0000 </r>
       <r>   30.2338    0.0000 </r>
       <r>   30.5634    0.0000 </r>
       <r>   30.5634    0.0000 </r>
       <r>   35.2560    0.0000 </r>
      </set>
      <set comment="kpoint 12">
       <r>   -1.9756    1.0000 </r>
       <r>    3.2176    1.0000 </r>
       <r>    3.2646    1.0000 </r>
       <r>    3.9510    1.0000 </r>
       <r>    4.6346    1.0000 </r>
       <r>    4.7737    1.0000 </r>
       <r>   26.9581    0.0000 </r>
       <r>   27.7183    0.0000 </r>
       <r>   31.2150    0.0000 </r>
       <r>   31.6473    0.0000 </r>
      </set>
      <set comment="kpoint 13">
       <r>   -1.4106    1.0000 </r>
       <r>    3.0747    1.0000 </r>
       <r>    3.1763    1.0000 </r>
       <r>    4.2931    1.0000 </r>
       <r>    4.5791    1.0000 </r>
       <r>    4.8082    1.0000 </r>
       <r>   25.0099    0.0000 </r>
       <r>   26.5551    0.0000 </r>
       <r>   29.9953    0.0000 </r>
       <r>   31.3593    0.0000 </r>
      </set>
      <set comment="kpoint 14">
       <r>   -0.7247    1.0000 </r>
       <r>    2.9044    1.0000 </r>
       <r>    3.0970    1.0000 </r>
       <r>    4.5621    1.0000 </r>
       <r>    4.7128    1.0000 </r>
       <r>    4.8497    1.0000 </r>
       <r>   22.7561    0.0000 </r>
       <r>   25.5585    0.0000 </r>
       <r>   28.5962    0.0000 </r>
       <r>   31.2772    0.0000 </r>
      </set>
      <set comment="kpoint 15">
       <r>   -0.0152    1.0000 </r>
       <r>    2.7324    1.0000 </r>
       <r>    3.1018    1.0000 </r>
       <r>    4.5970    1.0000 </r>
       <r>    4.8870    1.0000 </r>
       <r>    5.1918    1.0005 </r>
       <r>   20.4490    0.0000 </r>
       <r>   24.6664    0.0000 </r>
       <r>   27.3859    0.0000 </r>
       <r>   31.0770    0.0000 </r>
      </set>
      <set comment="kpoint 16">
       <r>    0.5481    1.0000 </r>
       <r>    2.5771    1.0000 </r>
       <r>    3.3356    1.0000 </r>
       <r>    4.6689    1.0000 </r>
       <r>    4.9315    1.0000 </r>
       <r>    5.7145    0.5573 </r>
       <r>   18.2160    0.0000 </r>
       <r>   23.9022    0.0000 </r>
       <r>   26.3597    0.0000 </r>
       <r>   30.8817    0.0000 </r>
      </set>
      <set comment="kpoint 17">
       <r>    0.8324    1.0000 </r>
       <r>    2.4502    1.0000 </r>
       <r>    3.8472    1.0000 </r>
       <r>    4.7500    1.0000 </r>
       <r>    4.9839    1.0000 </r>
       <r>    6.2825   -0.0003 </r>
       <r>   16.1433    0.0000 </r>
       <r>   23.2914    0.0000 </r>
       <r>   25.5343    0.0000 </r>
       <r>   30.7177    0.0000 </r>
      </set>
      <set comment="kpoint 18">
       <r>    0.9120    1.0000 </r>
       <r>    2.3598    1.0000 </r>
       <r>    4.3860    1.0000 </r>
       <r>    4.8087    1.0000 </r>
       <r>    5.0825    1.0000 </r>
       <r>    6.9024   -0.0000 </r>
       <r>   14.3911    0.0000 </r>
       <r>   22.8631    0.0000 </r>
       <r>   24.9516    0.0000 </r>
       <r>   30.5979    0.0000 </r>
      </set>
      <set comment="kpoint 19">
       <r>    0.9200    1.0000 </r>
       <r>    2.3121    1.0000 </r>
       <r>    4.6584    1.0000 </r>
       <r>    4.8151    1.0000 </r>
       <r>    5.2270    1.0011 </r>
       <r>    7.4258   -0.0000 </r>
       <r>   13.2719    0.0000 </r>
       <r>   22.6384    0.0000 </r>
       <r>   24.6497    0.0000 </r>
       <r>   30.5296    0.0000 </r>
      </set>
      <set comment="kpoint 20">
       <r>   -2.5745    1.0000 </r>
       <r>    3.3660    1.0000 </r>
       <r>    3.4141    1.0000 </r>
       <r>    3.5437    1.0000 </r>
       <r>    4.6854    1.0000 </r>
       <r>    4.8030    1.0000 </r>
       <r>   29.0948    0.0000 </r>
       <r>   30.2527    0.0000 </r>
       <r>   30.4084    0.0000 </r>
       <r>   34.4590    0.0000 </r>
      </set>
      <set comment="kpoint 21">
       <r>   -0.7953    1.0000 </r>
       <r>    2.9718    1.0000 </r>
       <r>    3.0074    1.0000 </r>
       <r>    4.5479    1.0000 </r>
       <r>    4.7075    1.0000 </r>
       <r>    4.8606    1.0000 </r>
       <r>   23.6884    0.0000 </r>
       <r>   24.7166    0.0000 </r>
       <r>   28.4435    0.0000 </r>
       <r>   31.7487    0.0000 </r>
      </set>
      <set comment="kpoint 22">
       <r>   -0.0983    1.0000 </r>
       <r>    2.8058    1.0000 </r>
       <r>    2.9149    1.0000 </r>
       <r>    4.5520    1.0000 </r>
       <r>    4.9045    1.0000 </r>
       <r>    5.2126    1.0008 </r>
       <r>   21.7231    0.0000 </r>
       <r>   23.4505    0.0000 </r>
       <r>   27.1871    0.0000 </r>
       <r>   31.8650    0.0000 </r>
      </set>
      <set comment="kpoint 23">
       <r>    0.5522    1.0000 </r>
       <r>    2.6371    1.0000 </r>
       <r>    2.9579    1.0000 </r>
       <r>    4.6004    1.0000 </r>
       <r>    4.9573    1.0000 </r>
       <r>    5.7849    0.2700 </r>
       <r>   19.4975    0.0000 </r>
       <r>   22.5675    0.0000 </r>
       <r>   26.1554    0.0000 </r>
       <r>   31.8064    0.0000 </r>
      </set>
      <set comment="kpoint 24">
       <r>    0.9708    1.0000 </r>
       <r>    2.5016    1.0000 </r>
       <r>    3.2356    1.0000 </r>
       <r>    4.6795    1.0000 </r>
       <r>    5.0083    1.0000 </r>
       <r>    6.4405   -0.0000 </r>
       <r>   17.3330    0.0000 </r>
       <r>   21.8733    0.0000 </r>
       <r>   25.3215    0.0000 </r>
       <r>   31.6971    0.0000 </r>
      </set>
      <set comment="kpoint 25">
       <r>    1.1166    1.0000 </r>
       <r>    2.4032    1.0000 </r>
       <r>    3.6813    1.0000 </r>
       <r>    4.7592    1.0000 </r>
       <r>    5.0800    1.0000 </r>
       <r>    7.1931   -0.0000 </r>
       <r>   15.3717    0.0000 </r>
       <r>   21.3546    0.0000 </r>
       <r>   24.6985    0.0000 </r>
       <r>   31.5914    0.0000 </r>
      </set>
      <set comment="kpoint 26">
       <r>    1.1333    1.0000 </r>
       <r>    2.3428    1.0000 </r>
       <r>    4.0345    1.0000 </r>
       <r>    4.8019    1.0000 </r>
       <r>    5.1732    1.0003 </r>
       <r>    7.9664   -0.0000 </r>
       <r>   13.8205    0.0000 </r>
       <r>   21.0288    0.0000 </r>
       <r>   24.3112    0.0000 </r>
       <r>   31.5189    0.0000 </r>
      </set>
      <set comment="kpoint 27">
       <r>    1.1297    1.0000 </r>
       <r>    2.3234    1.0000 </r>
       <r>    4.1571    1.0000 </r>
       <r>    4.8114    1.0000 </r>
       <r>    5.2263    1.0011 </r>
       <r>    8.3635   -0.0000 </r>
       <r>   13.1641    0.0000 </r>
       <r>   20.9201    0.0000 </r>
       <r>   24.1807    0.0000 </r>
       <r>   31.4979    0.0000 </r>
      </set>
      <set comment="kpoint 28">
       <r>   -2.1720    1.0000 </r>
       <r>    3.2588    1.0000 </r>
       <r>    3.3909    1.0000 </r>
       <r>    3.7606    1.0000 </r>
       <r>    4.5957    1.0000 </r>
       <r>    4.8187    1.0000 </r>
       <r>   27.2334    0.0000 </r>
       <r>   29.4967    0.0000 </r>
       <r>   30.1360    0.0000 </r>
       <r>   33.8719    0.0000 </r>
      </set>
      <set comment="kpoint 29">
       <r>   -2.2708    1.0000 </r>
       <r>    3.3250    1.0000 </r>
       <r>    3.3776    1.0000 </r>
       <r>    3.6916    1.0000 </r>
       <r>    4.5837    1.0000 </r>
       <r>    4.8358    1.0000 </r>
       <r>   27.9033    0.0000 </r>
       <r>   29.2121    0.0000 </r>
       <r>   30.4867    0.0000 </r>
       <r>   33.6848    0.0000 </r>
      </set>
      <set comment="kpoint 30">
       <r>    0.5599    1.0000 </r>
       <r>    2.6770    1.0000 </r>
       <r>    2.8079    1.0000 </r>
       <r>    4.5727    1.0000 </r>
       <r>    4.9679    1.0000 </r>
       <r>    5.8134    0.1726 </r>
       <r>   20.5627    0.0000 </r>
       <r>   21.4481    0.0000 </r>
       <r>   26.1184    0.0000 </r>
       <r>   32.2332    0.0000 </r>
      </set>
      <set comment="kpoint 31">
       <r>    1.0995    1.0000 </r>
       <r>    2.5316    1.0000 </r>
       <r>    2.8723    1.0000 </r>
       <r>    4.6279    1.0000 </r>
       <r>    5.0205    1.0000 </r>
       <r>    6.5274   -0.0000 </r>
       <r>   18.6439    0.0000 </r>
       <r>   20.3622    0.0000 </r>
       <r>   25.2769    0.0000 </r>
       <r>   32.3916    0.0000 </r>
      </set>
      <set comment="kpoint 32">
       <r>    1.3637    1.0000 </r>
       <r>    2.4335    1.0000 </r>
       <r>    3.1318    1.0000 </r>
       <r>    4.7090    1.0000 </r>
       <r>    5.0739    1.0000 </r>
       <r>    7.3730   -0.0000 </r>
       <r>   16.5769    0.0000 </r>
       <r>   19.7171    0.0000 </r>
       <r>   24.6359    0.0000 </r>
       <r>   32.4404    0.0000 </r>
      </set>
      <set comment="kpoint 33">
       <r>    1.4134    1.0000 </r>
       <r>    2.3750    1.0000 </r>
       <r>    3.4485    1.0000 </r>
       <r>    4.7813    1.0000 </r>
       <r>    5.1331    1.0001 </r>
       <r>    8.3266   -0.0000 </r>
       <r>   14.7302    0.0000 </r>
       <r>   19.2810    0.0000 </r>
       <r>   24.1965    0.0000 </r>
       <r>   32.4281    0.0000 </r>
      </set>
      <set comment="kpoint 34">
       <r>    1.4038    1.0000 </r>
       <r>    2.3481    1.0000 </r>
       <r>    3.6391    1.0000 </r>
       <r>    4.8202    1.0000 </r>
       <r>    5.1886    1.0005 </r>
       <r>    9.1557   -0.0000 </r>
       <r>   13.4423    0.0000 </r>
       <r>   19.0595    0.0000 </r>
       <r>   23.9735    0.0000 </r>
       <r>   32.4203    0.0000 </r>
      </set>
      <set comment="kpoint 35">
       <r>   -1.5988    1.0000 </r>
       <r>    3.1123    1.0000 </r>
       <r>    3.3388    1.0000 </r>
       <r>    4.0697    1.0000 </r>
       <r>    4.5294    1.0000 </r>
       <r>    4.8391    1.0000 </r>
       <r>   25.0172    0.0000 </r>
       <r>   28.4560    0.0000 </r>
       <r>   29.7719    0.0000 </r>
       <r>   32.3211    0.0000 </r>
      </set>
      <set comment="kpoint 36">
       <r>   -1.7834    1.0000 </r>
       <r>    3.2150    1.0000 </r>
       <r>    3.3291    1.0000 </r>
       <r>    3.9588    1.0000 </r>
       <r>    4.4865    1.0000 </r>
       <r>    4.8702    1.0000 </r>
       <r>   26.1157    0.0000 </r>
       <r>   27.9878    0.0000 </r>
       <r>   30.2803    0.0000 </r>
       <r>   32.4311    0.0000 </r>
      </set>
      <set comment="kpoint 37">
       <r>    1.5014    1.0000 </r>
       <r>    2.4286    1.0000 </r>
       <r>    2.9077    1.0000 </r>
       <r>    4.6880    1.0000 </r>
       <r>    5.0717    1.0000 </r>
       <r>    7.4323   -0.0000 </r>
       <r>   17.6545    0.0000 </r>
       <r>   18.4761    0.0000 </r>
       <r>   24.6228    0.0000 </r>
       <r>   32.8425    0.0000 </r>
      </set>
      <set comment="kpoint 38">
       <r>    1.6720    1.0000 </r>
       <r>    2.3829    1.0000 </r>
       <r>    3.0480    1.0000 </r>
       <r>    4.7667    1.0000 </r>
       <r>    5.1110    1.0001 </r>
       <r>    8.4994   -0.0000 </r>
       <r>   15.9012    0.0000 </r>
       <r>   17.6827    0.0000 </r>
       <r>   24.1603    0.0000 </r>
       <r>   33.1372    0.0000 </r>
      </set>
      <set comment="kpoint 39">
       <r>    1.6936    1.0000 </r>
       <r>    2.3786    1.0000 </r>
       <r>    3.1912    1.0000 </r>
       <r>    4.8369    1.0000 </r>
       <r>    5.1382    1.0001 </r>
       <r>    9.6427   -0.0000 </r>
       <r>   14.1964    0.0000 </r>
       <r>   17.3276    0.0000 </r>
       <r>   23.8830    0.0000 </r>
       <r>   33.2990    0.0000 </r>
      </set>
      <set comment="kpoint 40">
       <r>    1.6869    1.0000 </r>
       <r>    2.3798    1.0000 </r>
       <r>    3.2462    1.0000 </r>
       <r>    4.8630    1.0000 </r>
       <r>    5.1485    1.0002 </r>
       <r>   10.3142   -0.0000 </r>
       <r>   13.3244    0.0000 </r>
       <r>   17.2108    0.0000 </r>
       <r>   23.7885    0.0000 </r>
       <r>   33.3427    0.0000 </r>
      </set>
      <set comment="kpoint 41">
       <r>   -0.9054    1.0000 </r>
       <r>    2.9464    1.0000 </r>
       <r>    3.2832    1.0000 </r>
       <r>    4.4510    1.0000 </r>
       <r>    4.5256    1.0000 </r>
       <r>    4.8651    1.0000 </r>
       <r>   22.6804    0.0000 </r>
       <r>   27.3520    0.0000 </r>
       <r>   29.2726    0.0000 </r>
       <r>   31.0492    0.0000 </r>
      </set>
      <set comment="kpoint 42">
       <r>   -1.1478    1.0000 </r>
       <r>    3.0602    1.0000 </r>
       <r>    3.2609    1.0000 </r>
       <r>    4.3116    1.0000 </r>
       <r>    4.4406    1.0000 </r>
       <r>    4.9056    1.0000 </r>
       <r>   23.9094    0.0000 </r>
       <r>   26.8875    0.0000 </r>
       <r>   29.6513    0.0000 </r>
       <r>   31.3975    0.0000 </r>
      </set>
      <set comment="kpoint 43">
       <r>   -1.2302    1.0000 </r>
       <r>    3.1450    1.0000 </r>
       <r>    3.2027    1.0000 </r>
       <r>    4.2801    1.0000 </r>
       <r>    4.4004    1.0000 </r>
       <r>    4.9239    1.0000 </r>
       <r>   24.7755    0.0000 </r>
       <r>   26.0794    0.0000 </r>
       <r>   30.4322    0.0000 </r>
       <r>   30.9106    0.0000 </r>
      </set>
      <set comment="kpoint 44">
       <r>    1.8462    1.0000 </r>
       <r>    2.3967    1.0000 </r>
       <r>    2.9770    1.0000 </r>
       <r>    4.8464    1.0000 </r>
       <r>    5.1131    1.0001 </r>
       <r>    9.7930   -0.0000 </r>
       <r>   14.9835    0.0000 </r>
       <r>   16.2200    0.0000 </r>
       <r>   23.8571    0.0000 </r>
       <r>   33.7578    0.0000 </r>
      </set>
      <set comment="kpoint 45">
       <r>    1.8961    1.0000 </r>
       <r>    2.4582    1.0000 </r>
       <r>    2.9200    1.0000 </r>
       <r>    4.9189    1.0000 </r>
       <r>    5.0919    1.0000 </r>
       <r>   11.0850   -0.0000 </r>
       <r>   13.6051    0.0000 </r>
       <r>   15.7487    0.0000 </r>
       <r>   23.7070    0.0000 </r>
       <r>   34.1840    0.0000 </r>
      </set>
      <set comment="kpoint 46">
       <r>   -0.1925    1.0000 </r>
       <r>    2.7736    1.0000 </r>
       <r>    3.3220    1.0000 </r>
       <r>    4.5779    1.0000 </r>
       <r>    4.8762    1.0000 </r>
       <r>    4.8986    1.0000 </r>
       <r>   20.3487    0.0000 </r>
       <r>   26.3140    0.0000 </r>
       <r>   28.4711    0.0000 </r>
       <r>   30.2411    0.0000 </r>
      </set>
      <set comment="kpoint 47">
       <r>   -0.4347    1.0000 </r>
       <r>    2.8880    1.0000 </r>
       <r>    3.2141    1.0000 </r>
       <r>    4.4616    1.0000 </r>
       <r>    4.7303    1.0000 </r>
       <r>    4.9528    1.0000 </r>
       <r>   21.5816    0.0000 </r>
       <r>   25.8930    0.0000 </r>
       <r>   28.6496    0.0000 </r>
       <r>   30.8173    0.0000 </r>
      </set>
      <set comment="kpoint 48">
       <r>   -0.5606    1.0000 </r>
       <r>    2.9989    1.0000 </r>
       <r>    3.1028    1.0000 </r>
       <r>    4.3757    1.0000 </r>
       <r>    4.6841    1.0000 </r>
       <r>    4.9923    1.0000 </r>
       <r>   22.8370    0.0000 </r>
       <r>   24.6798    0.0000 </r>
       <r>   29.4430    0.0000 </r>
       <r>   30.5489    0.0000 </r>
      </set>
      <set comment="kpoint 49">
       <r>    1.9620    1.0000 </r>
       <r>    2.6562    1.0000 </r>
       <r>    2.6562    1.0000 </r>
       <r>    5.0101    1.0000 </r>
       <r>    5.0101    1.0000 </r>
       <r>   12.5279    0.0000 </r>
       <r>   12.5280    0.0000 </r>
       <r>   15.1293    0.0000 </r>
       <r>   23.6477    0.0000 </r>
       <r>   35.0757    0.0000 </r>
      </set>
      <set comment="kpoint 50">
       <r>    0.3733    1.0000 </r>
       <r>    2.6131    1.0000 </r>
       <r>    3.6147    1.0000 </r>
       <r>    4.6737    1.0000 </r>
       <r>    4.9470    1.0000 </r>
       <r>    5.3009    1.0050 </r>
       <r>   18.1058    0.0000 </r>
       <r>   25.4222    0.0000 </r>
       <r>   27.4899    0.0000 </r>
       <r>   29.8343    0.0000 </r>
      </set>
      <set comment="kpoint 51">
       <r>    0.2219    1.0000 </r>
       <r>    2.7221    1.0000 </r>
       <r>    3.3098    1.0000 </r>
       <r>    4.5530    1.0000 </r>
       <r>    4.9868    1.0000 </r>
       <r>    5.2072    1.0007 </r>
       <r>   19.2889    0.0000 </r>
       <r>   25.0143    0.0000 </r>
       <r>   27.5781    0.0000 </r>
       <r>   30.4849    0.0000 </r>
      </set>
      <set comment="kpoint 52">
       <r>    0.1304    1.0000 </r>
       <r>    2.8215    1.0000 </r>
       <r>    3.0801    1.0000 </r>
       <r>    4.4283    1.0000 </r>
       <r>    4.9801    1.0000 </r>
       <r>    5.2474    1.0018 </r>
       <r>   20.5824    0.0000 </r>
       <r>   23.6949    0.0000 </r>
       <r>   28.2024    0.0000 </r>
       <r>   30.5433    0.0000 </r>
      </set>
      <set comment="kpoint 53">
       <r>    0.1000    1.0000 </r>
       <r>    2.8680    1.0000 </r>
       <r>    2.9924    1.0000 </r>
       <r>    4.3761    1.0000 </r>
       <r>    4.9748    1.0000 </r>
       <r>    5.2718    1.0029 </r>
       <r>   21.6191    0.0000 </r>
       <r>   22.6030    0.0000 </r>
       <r>   28.5543    0.0000 </r>
       <r>   30.4758    0.0000 </r>
      </set>
      <set comment="kpoint 54">
       <r>    0.6693    1.0000 </r>
       <r>    2.4793    1.0000 </r>
       <r>    4.1842    1.0000 </r>
       <r>    4.7890    1.0000 </r>
       <r>    5.0769    1.0000 </r>
       <r>    5.6840    0.6816 </r>
       <r>   16.0432    0.0000 </r>
       <r>   24.7187    0.0000 </r>
       <r>   26.6035    0.0000 </r>
       <r>   29.6156    0.0000 </r>
      </set>
      <set comment="kpoint 55">
       <r>    0.6510    1.0000 </r>
       <r>    2.5777    1.0000 </r>
       <r>    3.6535    1.0000 </r>
       <r>    4.6771    1.0000 </r>
       <r>    5.1025    1.0000 </r>
       <r>    5.6750    0.7158 </r>
       <r>   17.1166    0.0000 </r>
       <r>   24.2805    0.0000 </r>
       <r>   26.6236    0.0000 </r>
       <r>   30.2762    0.0000 </r>
      </set>
      <set comment="kpoint 56">
       <r>    0.6809    1.0000 </r>
       <r>    2.6673    1.0000 </r>
       <r>    3.2131    1.0000 </r>
       <r>    4.5387    1.0000 </r>
       <r>    5.0771    1.0000 </r>
       <r>    5.7877    0.2597 </r>
       <r>   18.3494    0.0000 </r>
       <r>   22.9033    0.0000 </r>
       <r>   27.1478    0.0000 </r>
       <r>   30.5104    0.0000 </r>
      </set>
      <set comment="kpoint 57">
       <r>    0.7179    1.0000 </r>
       <r>    2.6908    1.0000 </r>
       <r>    2.9988    1.0000 </r>
       <r>    4.4404    1.0000 </r>
       <r>    5.0650    1.0000 </r>
       <r>    5.8617    0.0517 </r>
       <r>   19.6690    0.0000 </r>
       <r>   21.4066    0.0000 </r>
       <r>   27.5852    0.0000 </r>
       <r>   30.5843    0.0000 </r>
      </set>
      <set comment="kpoint 58">
       <r>    0.7625    1.0000 </r>
       <r>    2.3833    1.0000 </r>
       <r>    4.6110    1.0000 </r>
       <r>    4.8473    1.0000 </r>
       <r>    5.5804    0.9726 </r>
       <r>    5.9750   -0.0354 </r>
       <r>   14.3161    0.0000 </r>
       <r>   24.2326    0.0000 </r>
       <r>   25.9525    0.0000 </r>
       <r>   29.4872    0.0000 </r>
      </set>
      <set comment="kpoint 59">
       <r>    0.8221    1.0000 </r>
       <r>    2.4649    1.0000 </r>
       <r>    4.1036    1.0000 </r>
       <r>    4.7596    1.0000 </r>
       <r>    5.3702    1.0148 </r>
       <r>    6.1754   -0.0035 </r>
       <r>   15.1834    0.0000 </r>
       <r>   23.7244    0.0000 </r>
       <r>   25.8804    0.0000 </r>
       <r>   30.1274    0.0000 </r>
      </set>
      <set comment="kpoint 60">
       <r>    0.9595    1.0000 </r>
       <r>    2.5489    1.0000 </r>
       <r>    3.5287    1.0000 </r>
       <r>    4.6560    1.0000 </r>
       <r>    5.2173    1.0009 </r>
       <r>    6.4322   -0.0000 </r>
       <r>   16.2609    0.0000 </r>
       <r>   22.2767    0.0000 </r>
       <r>   26.3124    0.0000 </r>
       <r>   30.4752    0.0000 </r>
      </set>
      <set comment="kpoint 61">
       <r>    1.1297    1.0000 </r>
       <r>    2.5710    1.0000 </r>
       <r>    3.1265    1.0000 </r>
       <r>    4.5535    1.0000 </r>
       <r>    5.1493    1.0002 </r>
       <r>    6.5972   -0.0000 </r>
       <r>   17.5202    0.0000 </r>
       <r>   20.6636    0.0000 </r>
       <r>   26.7605    0.0000 </r>
       <r>   30.6962    0.0000 </r>
      </set>
      <set comment="kpoint 62">
       <r>    1.2186    1.0000 </r>
       <r>    2.5294    1.0000 </r>
       <r>    3.0113    1.0000 </r>
       <r>    4.5053    1.0000 </r>
       <r>    5.1297    1.0001 </r>
       <r>    6.6509   -0.0000 </r>
       <r>   18.6315    0.0000 </r>
       <r>   19.4175    0.0000 </r>
       <r>   26.9389    0.0000 </r>
       <r>   30.7998    0.0000 </r>
      </set>
      <set comment="kpoint 63">
       <r>    0.7781    1.0000 </r>
       <r>    2.3335    1.0000 </r>
       <r>    4.7618    1.0000 </r>
       <r>    4.8393    1.0000 </r>
       <r>    6.1339   -0.0073 </r>
       <r>    6.1871   -0.0028 </r>
       <r>   13.2366    0.0000 </r>
       <r>   23.9855    0.0000 </r>
       <r>   25.6103    0.0000 </r>
       <r>   29.4296    0.0000 </r>
      </set>
      <set comment="kpoint 64">
       <r>    0.8588    1.0000 </r>
       <r>    2.3937    1.0000 </r>
       <r>    4.3936    1.0000 </r>
       <r>    4.7681    1.0000 </r>
       <r>    5.7043    0.5999 </r>
       <r>    6.7343   -0.0000 </r>
       <r>   13.7009    0.0000 </r>
       <r>   23.3758    0.0000 </r>
       <r>   25.4106    0.0000 </r>
       <r>   30.0414    0.0000 </r>
      </set>
      <set comment="kpoint 65">
       <r>    1.0341    1.0000 </r>
       <r>    2.4679    1.0000 </r>
       <r>    3.8528    1.0000 </r>
       <r>    4.7170    1.0000 </r>
       <r>    5.4319    1.0285 </r>
       <r>    7.1780   -0.0000 </r>
       <r>   14.4758    0.0000 </r>
       <r>   21.8363    0.0000 </r>
       <r>   25.7326    0.0000 </r>
       <r>   30.4528    0.0000 </r>
      </set>
      <set comment="kpoint 66">
       <r>    1.2796    1.0000 </r>
       <r>    2.5057    1.0000 </r>
       <r>    3.3515    1.0000 </r>
       <r>    4.6554    1.0000 </r>
       <r>    5.2709    1.0029 </r>
       <r>    7.4710   -0.0000 </r>
       <r>   15.5294    0.0000 </r>
       <r>   20.1211    0.0000 </r>
       <r>   26.1340    0.0000 </r>
       <r>   30.7630    0.0000 </r>
      </set>
      <set comment="kpoint 67">
       <r>    1.5133    1.0000 </r>
       <r>    2.4394    1.0000 </r>
       <r>    3.0774    1.0000 </r>
       <r>    4.6118    1.0000 </r>
       <r>    5.1955    1.0005 </r>
       <r>    7.6137   -0.0000 </r>
       <r>   16.7825    0.0000 </r>
       <r>   18.5176    0.0000 </r>
       <r>   26.3847    0.0000 </r>
       <r>   31.0500    0.0000 </r>
      </set>
      <set comment="kpoint 68">
       <r>    0.8616    1.0000 </r>
       <r>    2.3693    1.0000 </r>
       <r>    4.4908    1.0000 </r>
       <r>    4.7544    1.0000 </r>
       <r>    5.8354    0.1103 </r>
       <r>    7.0419   -0.0000 </r>
       <r>   13.1017    0.0000 </r>
       <r>   23.2575    0.0000 </r>
       <r>   25.2498    0.0000 </r>
       <r>   30.0108    0.0000 </r>
      </set>
      <set comment="kpoint 69">
       <r>    1.0388    1.0000 </r>
       <r>    2.4269    1.0000 </r>
       <r>    4.0313    1.0000 </r>
       <r>    4.7263    1.0000 </r>
       <r>    5.5979    0.9416 </r>
       <r>    7.8162   -0.0000 </r>
       <r>   13.3101    0.0000 </r>
       <r>   21.6079    0.0000 </r>
       <r>   25.4357    0.0000 </r>
       <r>   30.4445    0.0000 </r>
      </set>
      <set comment="kpoint 70">
       <r>    1.2956    1.0000 </r>
       <r>    2.4705    1.0000 </r>
       <r>    3.5410    1.0000 </r>
       <r>    4.7095    1.0000 </r>
       <r>    5.4098    1.0235 </r>
       <r>    8.3874   -0.0000 </r>
       <r>   13.9173    0.0000 </r>
       <r>   19.7828    0.0000 </r>
       <r>   25.7458    0.0000 </r>
       <r>   30.8078    0.0000 </r>
      </set>
      <set comment="kpoint 71">
       <r>    1.5946    1.0000 </r>
       <r>    2.4434    1.0000 </r>
       <r>    3.1571    1.0000 </r>
       <r>    4.7124    1.0000 </r>
       <r>    5.2728    1.0030 </r>
       <r>    8.7161   -0.0000 </r>
       <r>   14.9087    0.0000 </r>
       <r>   18.0542    0.0000 </r>
       <r>   25.9902    0.0000 </r>
       <r>   31.2466    0.0000 </r>
      </set>
      <set comment="kpoint 72">
       <r>    1.7770    1.0000 </r>
       <r>    2.3587    1.0000 </r>
       <r>    3.0207    1.0000 </r>
       <r>    4.7186    1.0000 </r>
       <r>    5.2180    1.0009 </r>
       <r>    8.8167   -0.0000 </r>
       <r>   15.8517    0.0000 </r>
       <r>   16.8674    0.0000 </r>
       <r>   26.0768    0.0000 </r>
       <r>   31.5040    0.0000 </r>
      </set>
      <set comment="kpoint 73">
       <r>    1.2893    1.0000 </r>
       <r>    2.4592    1.0000 </r>
       <r>    3.6105    1.0000 </r>
       <r>    4.7215    1.0000 </r>
       <r>    5.4713    1.0350 </r>
       <r>    8.8701   -0.0000 </r>
       <r>   13.1978    0.0000 </r>
       <r>   19.6678    0.0000 </r>
       <r>   25.6141    0.0000 </r>
       <r>   30.8222    0.0000 </r>
      </set>
      <set comment="kpoint 74">
       <r>    1.5908    1.0000 </r>
       <r>    2.4672    1.0000 </r>
       <r>    3.2073    1.0000 </r>
       <r>    4.7664    1.0000 </r>
       <r>    5.3338    1.0088 </r>
       <r>    9.7029   -0.0000 </r>
       <r>   13.5210    0.0000 </r>
       <r>   17.8245    0.0000 </r>
       <r>   25.7838    0.0000 </r>
       <r>   31.3589    0.0000 </r>
      </set>
      <set comment="kpoint 75">
       <r>    1.8758    1.0000 </r>
       <r>    2.4017    1.0000 </r>
       <r>    2.9373    1.0000 </r>
       <r>    4.8279    1.0000 </r>
       <r>    5.2225    1.0010 </r>
       <r>   10.1220   -0.0000 </r>
       <r>   14.2927    0.0000 </r>
       <r>   16.2744    0.0000 </r>
       <r>   25.8791    0.0000 </r>
       <r>   31.9020    0.0000 </r>
      </set>
      <set comment="kpoint 76">
       <r>    1.8844    1.0000 </r>
       <r>    2.4594    1.0000 </r>
       <r>    2.8851    1.0000 </r>
       <r>    4.8761    1.0000 </r>
       <r>    5.2179    1.0009 </r>
       <r>   10.9630   -0.0000 </r>
       <r>   13.3072    0.0000 </r>
       <r>   16.1293    0.0000 </r>
       <r>   25.8092    0.0000 </r>
       <r>   32.0744    0.0000 </r>
      </set>
      <set comment="kpoint 77">
       <r>    2.0473    1.0000 </r>
       <r>    2.4629    1.0000 </r>
       <r>    2.7043    1.0000 </r>
       <r>    4.9661    1.0000 </r>
       <r>    5.1284    1.0001 </r>
       <r>   11.6029    0.0000 </r>
       <r>   13.2917    0.0000 </r>
       <r>   15.2845    0.0000 </r>
       <r>   25.8196    0.0000 </r>
       <r>   32.6274    0.0000 </r>
      </set>
      <set comment="kpoint 78">
       <r>   -1.5002    1.0000 </r>
       <r>    3.1092    1.0000 </r>
       <r>    3.1092    1.0000 </r>
       <r>    4.2924    1.0000 </r>
       <r>    4.7009    1.0000 </r>
       <r>    4.7009    1.0000 </r>
       <r>   25.9598    0.0000 </r>
       <r>   25.9598    0.0000 </r>
       <r>   29.5024    0.0000 </r>
       <r>   31.8641    0.0000 </r>
      </set>
      <set comment="kpoint 79">
       <r>   -0.8759    1.0000 </r>
       <r>    2.9352    1.0000 </r>
       <r>    2.9963    1.0000 </r>
       <r>    4.6577    1.0000 </r>
       <r>    4.7176    1.0000 </r>
       <r>    4.7697    1.0000 </r>
       <r>   23.9222    0.0000 </r>
       <r>   24.9982    0.0000 </r>
       <r>   27.7605    0.0000 </r>
       <r>   32.2974    0.0000 </r>
      </set>
      <set comment="kpoint 80">
       <r>   -0.1674    1.0000 </r>
       <r>    2.7598    1.0000 </r>
       <r>    2.9131    1.0000 </r>
       <r>    4.6571    1.0000 </r>
       <r>    4.8268    1.0000 </r>
       <r>    5.2099    1.0008 </r>
       <r>   21.6959    0.0000 </r>
       <r>   24.1108    0.0000 </r>
       <r>   26.3825    0.0000 </r>
       <r>   32.4289    0.0000 </r>
      </set>
      <set comment="kpoint 81">
       <r>    0.4935    1.0000 </r>
       <r>    2.5982    1.0000 </r>
       <r>    2.9673    1.0000 </r>
       <r>    4.6935    1.0000 </r>
       <r>    4.8783    1.0000 </r>
       <r>    5.7678    0.3353 </r>
       <r>   19.4370    0.0000 </r>
       <r>   23.3352    0.0000 </r>
       <r>   25.2795    0.0000 </r>
       <r>   32.3351    0.0000 </r>
      </set>
      <set comment="kpoint 82">
       <r>    0.9146    1.0000 </r>
       <r>    2.4617    1.0000 </r>
       <r>    3.3018    1.0000 </r>
       <r>    4.7495    1.0000 </r>
       <r>    4.9219    1.0000 </r>
       <r>    6.3954   -0.0000 </r>
       <r>   17.2715    0.0000 </r>
       <r>   22.6969    0.0000 </r>
       <r>   24.3998    0.0000 </r>
       <r>   32.1619    0.0000 </r>
      </set>
      <set comment="kpoint 83">
       <r>    1.0595    1.0000 </r>
       <r>    2.3581    1.0000 </r>
       <r>    3.8520    1.0000 </r>
       <r>    4.8035    1.0000 </r>
       <r>    4.9525    1.0000 </r>
       <r>    7.1006   -0.0000 </r>
       <r>   15.3190    0.0000 </r>
       <r>   22.2185    0.0000 </r>
       <r>   23.7404    0.0000 </r>
       <r>   32.0023    0.0000 </r>
      </set>
      <set comment="kpoint 84">
       <r>    1.0768    1.0000 </r>
       <r>    2.2950    1.0000 </r>
       <r>    4.3273    1.0000 </r>
       <r>    4.8386    1.0000 </r>
       <r>    4.9718    1.0000 </r>
       <r>    7.8202   -0.0000 </r>
       <r>   13.7899    0.0000 </r>
       <r>   21.9269    0.0000 </r>
       <r>   23.3262    0.0000 </r>
       <r>   31.9117    0.0000 </r>
      </set>
      <set comment="kpoint 85">
       <r>    1.0735    1.0000 </r>
       <r>    2.2730    1.0000 </r>
       <r>    4.5109    1.0000 </r>
       <r>    4.8472    1.0000 </r>
       <r>    4.9809    1.0000 </r>
       <r>    8.1852   -0.0000 </r>
       <r>   13.1515    0.0000 </r>
       <r>   21.8272    0.0000 </r>
       <r>   23.1865    0.0000 </r>
       <r>   31.8747    0.0000 </r>
      </set>
      <set comment="kpoint 86">
       <r>   -2.3707    1.0000 </r>
       <r>    3.4201    1.0000 </r>
       <r>    3.4202    1.0000 </r>
       <r>    3.5519    1.0000 </r>
       <r>    4.5651    1.0000 </r>
       <r>    4.8623    1.0000 </r>
       <r>   28.4301    0.0000 </r>
       <r>   30.0419    0.0000 </r>
       <r>   30.0419    0.0000 </r>
[...]
       <r>    30.2271     0.1877     9.3248 </r>
       <r>    30.3944     0.2453     9.3658 </r>
       <r>    30.5616     0.3969     9.4322 </r>
       <r>    30.7288     0.3278     9.4870 </r>
       <r>    30.8961     0.2601     9.5305 </r>
       <r>    31.0633     0.1982     9.5637 </r>
       <r>    31.2306     0.2397     9.6038 </r>
       <r>    31.3978     0.2323     9.6426 </r>
       <r>    31.5651     0.1573     9.6689 </r>
       <r>    31.7323     0.1175     9.6886 </r>
       <r>    31.8996     0.1260     9.7097 </r>
       <r>    32.0668     0.1076     9.7277 </r>
       <r>    32.2341     0.1005     9.7445 </r>
       <r>    32.4013     0.1685     9.7726 </r>
       <r>    32.5685     0.1494     9.7976 </r>
       <r>    32.7358     0.0552     9.8069 </r>
       <r>    32.9030     0.0242     9.8109 </r>
       <r>    33.0703     0.0226     9.8147 </r>
       <r>    33.2375     0.0714     9.8266 </r>
       <r>    33.4048     0.1273     9.8479 </r>
       <r>    33.5720     0.0796     9.8612 </r>
       <r>    33.7393     0.0322     9.8666 </r>
       <r>    33.9065     0.0241     9.8707 </r>
       <r>    34.0737     0.0219     9.8743 </r>
       <r>    34.2410     0.0333     9.8799 </r>
       <r>    34.4082     0.0662     9.8910 </r>
       <r>    34.5755     0.0789     9.9041 </r>
       <r>    34.7427     0.0150     9.9066 </r>
       <r>    34.9100     0.0181     9.9097 </r>
       <r>    35.0772     0.0527     9.9185 </r>
       <r>    35.2445     0.0322     9.9239 </r>
       <r>    35.4117     0.0245     9.9280 </r>
       <r>    35.5790     0.0388     9.9345 </r>
       <r>    35.7462     0.0175     9.9374 </r>
       <r>    35.9134     0.0091     9.9389 </r>
       <r>    36.0807     0.0088     9.9404 </r>
       <r>    36.2479     0.0102     9.9421 </r>
       <r>    36.4152     0.0272     9.9466 </r>
       <r>    36.5824     0.0665     9.9578 </r>
       <r>    36.7497     0.0394     9.9644 </r>
       <r>    36.9169    -0.0008     9.9642 </r>
       <r>    37.0842    -0.0020     9.9639 </r>
       <r>    37.2514     0.0040     9.9646 </r>
       <r>    37.4187     0.0131     9.9667 </r>
       <r>    37.5859     0.0061     9.9678 </r>
       <r>    37.7531     0.0124     9.9698 </r>
       <r>    37.9204     0.0300     9.9749 </r>
       <r>    38.0876     0.0129     9.9770 </r>
       <r>    38.2549     0.0029     9.9775 </r>
       <r>    38.4221     0.0120     9.9795 </r>
       <r>    38.5894     0.0182     9.9826 </r>
       <r>    38.7566     0.0195     9.9858 </r>
       <r>    38.9239     0.0100     9.9875 </r>
       <r>    39.0911     0.0005     9.9876 </r>
       <r>    39.2584    -0.0005     9.9875 </r>
       <r>    39.4256    -0.0004     9.9874 </r>
       <r>    39.5928     0.0008     9.9876 </r>
       <r>    39.7601     0.0098     9.9892 </r>
       <r>    39.9273     0.0074     9.9904 </r>
       <r>    40.0946     0.0002     9.9905 </r>
       <r>    40.2618     0.0160     9.9932 </r>
       <r>    40.4291     0.0193     9.9964 </r>
       <r>    40.5963     0.0015     9.9966 </r>
       <r>    40.7636    -0.0008     9.9965 </r>
       <r>    40.9308    -0.0001     9.9965 </r>
       <r>    41.0981    -0.0000     9.9965 </r>
       <r>    41.2653    -0.0002     9.9965 </r>
       <r>    41.4325     0.0010     9.9966 </r>
       <r>    41.5998     0.0037     9.9973 </r>
       <r>    41.7670     0.0016     9.9975 </r>
       <r>    41.9343     0.0025     9.9979 </r>
       <r>    42.1015     0.0032     9.9985 </r>
       <r>    42.2688     0.0001     9.9985 </r>
       <r>    42.4360     0.0000     9.9985 </r>
       <r>    42.6033     0.0043     9.9992 </r>
       <r>    42.7705     0.0046    10.0000 </r>
       <r>    42.9378     0.0002    10.0000 </r>
       <r>    43.1050    -0.0002    10.0000 </r>
       <r>    43.2722    -0.0000    10.0000 </r>
       <r>    43.4395    -0.0000    10.0000 </r>
       <r>    43.6067    -0.0000    10.0000 </r>
       <r>    43.7740    -0.0000    10.0000 </r>
       <r>    43.9412    -0.0000    10.0000 </r>
       <r>    44.1085     0.0000    10.0000 </r>
       <r>    44.2757     0.0000    10.0000 </r>
       <r>    44.4430     0.0000    10.0000 </r>
       <r>    44.6102     0.0000    10.0000 </r>
       <r>    44.7774     0.0000    10.0000 </r>
       <r>    44.9447     0.0000    10.0000 </r>
       <r>    45.1119     0.0000    10.0000 </r>
      </set>
      <set comment="spin 2">
       <r>    -5.0617     0.0000     0.0000 </r>
       <r>    -4.8944     0.0000     0.0000 </r>
       <r>    -4.7272     0.0000     0.0000 </r>
       <r>    -4.5599     0.0000     0.0000 </r>
       <r>    -4.3927     0.0000     0.0000 </r>
       <r>    -4.2254     0.0000     0.0000 </r>
       <r>    -4.0582    -0.0000    -0.0000 </r>
       <r>    -3.8909    -0.0000    -0.0000 </r>
       <r>    -3.7237    -0.0000    -0.0000 </r>
       <r>    -3.5564    -0.0000    -0.0000 </r>
       <r>    -3.3892    -0.0000    -0.0000 </r>
       <r>    -3.2220    -0.0000    -0.0000 </r>
       <r>    -3.0547    -0.0000    -0.0000 </r>
       <r>    -2.8875    -0.0000    -0.0000 </r>
       <r>    -2.7202    -0.0001    -0.0000 </r>
       <r>    -2.5530    -0.0002    -0.0001 </r>
       <r>    -2.3857     0.0033     0.0005 </r>
       <r>    -2.2185     0.0123     0.0026 </r>
       <r>    -2.0512     0.0178     0.0055 </r>
       <r>    -1.8840     0.0262     0.0099 </r>
       <r>    -1.7167     0.0251     0.0141 </r>
       <r>    -1.5495     0.0319     0.0194 </r>
       <r>    -1.3823     0.0414     0.0264 </r>
       <r>    -1.2150     0.0306     0.0315 </r>
       <r>    -1.0478     0.0449     0.0390 </r>
       <r>    -0.8805     0.0522     0.0477 </r>
       <r>    -0.7133     0.0477     0.0557 </r>
       <r>    -0.5460     0.0440     0.0631 </r>
       <r>    -0.3788     0.0663     0.0741 </r>
       <r>    -0.2115     0.0637     0.0848 </r>
       <r>    -0.0443     0.0628     0.0953 </r>
       <r>     0.1230     0.0653     0.1062 </r>
       <r>     0.2902     0.0733     0.1185 </r>
       <r>     0.4574     0.0893     0.1334 </r>
       <r>     0.6247     0.0882     0.1482 </r>
       <r>     0.7919     0.0886     0.1630 </r>
       <r>     0.9592     0.0844     0.1771 </r>
       <r>     1.1264     0.1247     0.1979 </r>
       <r>     1.2937     0.1366     0.2208 </r>
       <r>     1.4609     0.1284     0.2423 </r>
       <r>     1.6282     0.1158     0.2616 </r>
       <r>     1.7954     0.2219     0.2988 </r>
       <r>     1.9626     0.2779     0.3452 </r>
       <r>     2.1299     0.3060     0.3964 </r>
       <r>     2.2971     0.3620     0.4569 </r>
       <r>     2.4644     0.4166     0.5266 </r>
       <r>     2.6316     0.4325     0.5990 </r>
       <r>     2.7989     0.5524     0.6913 </r>
       <r>     2.9661     0.7038     0.8091 </r>
       <r>     3.1334     0.6423     0.9165 </r>
       <r>     3.3006     0.4935     0.9990 </r>
       <r>     3.4679     0.3560     1.0585 </r>
       <r>     3.6351     0.2991     1.1086 </r>
       <r>     3.8023     0.6869     1.2235 </r>
       <r>     3.9696     1.2602     1.4342 </r>
       <r>     4.1368     1.2721     1.6470 </r>
       <r>     4.3041     1.1599     1.8410 </r>
       <r>     4.4713     1.1055     2.0258 </r>
       <r>     4.6386     1.1557     2.2191 </r>
       <r>     4.8058     1.2349     2.4257 </r>
       <r>     4.9731     1.1306     2.6147 </r>
       <r>     5.1403     0.7601     2.7419 </r>
       <r>     5.3076     0.4625     2.8192 </r>
       <r>     5.4748     0.3498     2.8777 </r>
       <r>     5.6420     0.2255     2.9154 </r>
       <r>     5.8093     0.2543     2.9580 </r>
       <r>     5.9765     0.3911     3.0234 </r>
       <r>     6.1438     0.4523     3.0990 </r>
       <r>     6.3110     0.6033     3.1999 </r>
       <r>     6.4783     0.8409     3.3406 </r>
       <r>     6.6455     1.1305     3.5296 </r>
       <r>     6.8128     1.2784     3.7434 </r>
       <r>     6.9800     1.3991     3.9774 </r>
       <r>     7.1473     1.6645     4.2558 </r>
       <r>     7.3145     2.1302     4.6121 </r>
       <r>     7.4817     1.6180     4.8827 </r>
       <r>     7.6490     1.0026     5.0503 </r>
       <r>     7.8162     0.7522     5.1761 </r>
       <r>     7.9835     0.5261     5.2641 </r>
       <r>     8.1507     0.3577     5.3239 </r>
       <r>     8.3180     0.2767     5.3702 </r>
       <r>     8.4852     0.1904     5.4021 </r>
       <r>     8.6525     0.1502     5.4272 </r>
       <r>     8.8197     0.1594     5.4538 </r>
       <r>     8.9870     0.2133     5.4895 </r>
       <r>     9.1542     0.2061     5.5240 </r>
       <r>     9.3214     0.1432     5.5479 </r>
       <r>     9.4887     0.1362     5.5707 </r>
       <r>     9.6559     0.1194     5.5907 </r>
       <r>     9.8232     0.1888     5.6223 </r>
       <r>     9.9904     0.1886     5.6538 </r>
       <r>    10.1577     0.1331     5.6761 </r>
       <r>    10.3249     0.0995     5.6927 </r>
       <r>    10.4922     0.1103     5.7112 </r>
       <r>    10.6594     0.1282     5.7326 </r>
       <r>    10.8267     0.1344     5.7551 </r>
       <r>    10.9939     0.1583     5.7816 </r>
       <r>    11.1611     0.1238     5.8023 </r>
       <r>    11.3284     0.0772     5.8152 </r>
       <r>    11.4956     0.0578     5.8248 </r>
       <r>    11.6629     0.0950     5.8407 </r>
       <r>    11.8301     0.1074     5.8587 </r>
       <r>    11.9974     0.1238     5.8794 </r>
       <r>    12.1646     0.1031     5.8966 </r>
       <r>    12.3319     0.0521     5.9054 </r>
       <r>    12.4991     0.0524     5.9141 </r>
       <r>    12.6663     0.0632     5.9247 </r>
       <r>    12.8336     0.0529     5.9335 </r>
       <r>    13.0008     0.0550     5.9427 </r>
       <r>    13.1681     0.0724     5.9548 </r>
       <r>    13.3353     0.0593     5.9648 </r>
       <r>    13.5026     0.0327     5.9702 </r>
       <r>    13.6698     0.0179     5.9732 </r>
       <r>    13.8371     0.0260     5.9776 </r>
       <r>    14.0043     0.0318     5.9829 </r>
       <r>    14.1716     0.0193     5.9861 </r>
       <r>    14.3388     0.0665     5.9972 </r>
       <r>    14.5060     0.2354     6.0366 </r>
       <r>    14.6733     0.3196     6.0901 </r>
       <r>    14.8405     0.2987     6.1400 </r>
       <r>    15.0078     0.2529     6.1823 </r>
       <r>    15.1750     0.2047     6.2165 </r>
       <r>    15.3423     0.2015     6.2502 </r>
       <r>    15.5095     0.1704     6.2787 </r>
       <r>    15.6768     0.1960     6.3115 </r>
       <r>    15.8440     0.1818     6.3419 </r>
       <r>    16.0113     0.1461     6.3664 </r>
       <r>    16.1785     0.1837     6.3971 </r>
       <r>    16.3457     0.2415     6.4375 </r>
       <r>    16.5130     0.2112     6.4728 </r>
       <r>    16.6802     0.1990     6.5061 </r>
       <r>    16.8475     0.1969     6.5390 </r>
       <r>    17.0147     0.1777     6.5687 </r>
       <r>    17.1820     0.2044     6.6029 </r>
       <r>    17.3492     0.2259     6.6407 </r>
       <r>    17.5165     0.2311     6.6793 </r>
       <r>    17.6837     0.1707     6.7079 </r>
       <r>    17.8510     0.1849     6.7388 </r>
       <r>    18.0182     0.1797     6.7689 </r>
       <r>    18.1854     0.1621     6.7960 </r>
       <r>    18.3527     0.1905     6.8278 </r>
       <r>    18.5199     0.2068     6.8624 </r>
       <r>    18.6872     0.2385     6.9023 </r>
       <r>    18.8544     0.1676     6.9303 </r>
       <r>    19.0217     0.1592     6.9569 </r>
       <r>    19.1889     0.1720     6.9857 </r>
       <r>    19.3562     0.2029     7.0197 </r>
       <r>    19.5234     0.2348     7.0589 </r>
       <r>    19.6907     0.1824     7.0894 </r>
       <r>    19.8579     0.1615     7.1164 </r>
       <r>    20.0251     0.0964     7.1325 </r>
       <r>    20.1924     0.1492     7.1575 </r>
       <r>    20.3596     0.2418     7.1979 </r>
       <r>    20.5269     0.2289     7.2362 </r>
       <r>    20.6941     0.1805     7.2664 </r>
       <r>    20.8614     0.1759     7.2958 </r>
       <r>    21.0286     0.1151     7.3151 </r>
       <r>    21.1959     0.1656     7.3428 </r>
       <r>    21.3631     0.2503     7.3847 </r>
       <r>    21.5304     0.1995     7.4180 </r>
       <r>    21.6976     0.1373     7.4410 </r>
       <r>    21.8648     0.1317     7.4630 </r>
       <r>    22.0321     0.1209     7.4832 </r>
       <r>    22.1993     0.1244     7.5041 </r>
       <r>    22.3666     0.1899     7.5358 </r>
       <r>    22.5338     0.2983     7.5857 </r>
       <r>    22.7011     0.2001     7.6192 </r>
       <r>    22.8683     0.1114     7.6378 </r>
       <r>    23.0356     0.2028     7.6717 </r>
       <r>    23.2028     0.2070     7.7063 </r>
       <r>    23.3700     0.2157     7.7424 </r>
       <r>    23.5373     0.2425     7.7830 </r>
       <r>    23.7045     0.2344     7.8222 </r>
       <r>    23.8718     0.2390     7.8622 </r>
       <r>    24.0390     0.2477     7.9036 </r>
       <r>    24.2063     0.2165     7.9398 </r>
       <r>    24.3735     0.2360     7.9792 </r>
       <r>    24.5408     0.3404     8.0362 </r>
       <r>    24.7080     0.3711     8.0982 </r>
       <r>    24.8753     0.3035     8.1490 </r>
       <r>    25.0425     0.1772     8.1786 </r>
       <r>    25.2097     0.1733     8.2076 </r>
       <r>    25.3770     0.3040     8.2585 </r>
       <r>    25.5442     0.3004     8.3087 </r>
       <r>    25.7115     0.1986     8.3419 </r>
       <r>    25.8787     0.2126     8.3775 </r>
       <r>    26.0460     0.3138     8.4300 </r>
       <r>    26.2132     0.2758     8.4761 </r>
       <r>    26.3805     0.2933     8.5252 </r>
       <r>    26.5477     0.2686     8.5701 </r>
       <r>    26.7150     0.3164     8.6230 </r>
       <r>    26.8822     0.2785     8.6696 </r>
       <r>    27.0494     0.1639     8.6970 </r>
       <r>    27.2167     0.1769     8.7265 </r>
       <r>    27.3839     0.2431     8.7672 </r>
       <r>    27.5512     0.2229     8.8045 </r>
       <r>    27.7184     0.1735     8.8335 </r>
       <r>    27.8857     0.1887     8.8651 </r>
       <r>    28.0529     0.1714     8.8937 </r>
       <r>    28.2202     0.2188     8.9303 </r>
       <r>    28.3874     0.2047     8.9646 </r>
       <r>    28.5547     0.1428     8.9884 </r>
       <r>    28.7219     0.1390     9.0117 </r>
       <r>    28.8891     0.1812     9.0420 </r>
       <r>    29.0564     0.0924     9.0574 </r>
       <r>    29.2236     0.1248     9.0783 </r>
       <r>    29.3909     0.1968     9.1112 </r>
       <r>    29.5581     0.1451     9.1355 </r>
       <r>    29.7254     0.1054     9.1531 </r>
       <r>    29.8926     0.0869     9.1677 </r>
       <r>    30.0599     0.1133     9.1866 </r>
       <r>    30.2271     0.1773     9.2163 </r>
       <r>    30.3944     0.2053     9.2506 </r>
       <r>    30.5616     0.1839     9.2814 </r>
       <r>    30.7288     0.2141     9.3172 </r>
       <r>    30.8961     0.2363     9.3567 </r>
       <r>    31.0633     0.3110     9.4087 </r>
       <r>    31.2306     0.3685     9.4703 </r>
       <r>    31.3978     0.2632     9.5143 </r>
       <r>    31.5651     0.2470     9.5557 </r>
       <r>    31.7323     0.2205     9.5925 </r>
       <r>    31.8996     0.2206     9.6294 </r>
       <r>    32.0668     0.2139     9.6652 </r>
       <r>    32.2341     0.1702     9.6936 </r>
       <r>    32.4013     0.1078     9.7117 </r>
       <r>    32.5685     0.0965     9.7278 </r>
       <r>    32.7358     0.1270     9.7490 </r>
       <r>    32.9030     0.1495     9.7740 </r>
       <r>    33.0703     0.0969     9.7902 </r>
       <r>    33.2375     0.0782     9.8033 </r>
       <r>    33.4048     0.0537     9.8123 </r>
       <r>    33.5720     0.0471     9.8202 </r>
       <r>    33.7393     0.1288     9.8417 </r>
       <r>    33.9065     0.1035     9.8590 </r>
       <r>    34.0737     0.0113     9.8609 </r>
       <r>    34.2410     0.0231     9.8648 </r>
       <r>    34.4082     0.0328     9.8703 </r>
       <r>    34.5755     0.0331     9.8758 </r>
       <r>    34.7427     0.0656     9.8868 </r>
       <r>    34.9100     0.0823     9.9005 </r>
       <r>    35.0772     0.0439     9.9079 </r>
       <r>    35.2445     0.0144     9.9103 </r>
       <r>    35.4117     0.0484     9.9184 </r>
       <r>    35.5790     0.0298     9.9234 </r>
       <r>    35.7462     0.0183     9.9264 </r>
       <r>    35.9134     0.0359     9.9325 </r>
       <r>    36.0807     0.0303     9.9375 </r>
       <r>    36.2479     0.0128     9.9397 </r>
       <r>    36.4152     0.0029     9.9401 </r>
       <r>    36.5824     0.0163     9.9429 </r>
       <r>    36.7497     0.0349     9.9487 </r>
       <r>    36.9169     0.0574     9.9583 </r>
       <r>    37.0842     0.0356     9.9643 </r>
       <r>    37.2514    -0.0005     9.9642 </r>
       <r>    37.4187    -0.0014     9.9639 </r>
       <r>    37.5859     0.0098     9.9656 </r>
       <r>    37.7531     0.0129     9.9677 </r>
       <r>    37.9204     0.0012     9.9679 </r>
       <r>    38.0876     0.0158     9.9706 </r>
       <r>    38.2549     0.0284     9.9754 </r>
       <r>    38.4221     0.0118     9.9773 </r>
       <r>    38.5894     0.0094     9.9789 </r>
       <r>    38.7566     0.0110     9.9807 </r>
       <r>    38.9239     0.0171     9.9836 </r>
       <r>    39.0911     0.0157     9.9862 </r>
       <r>    39.2584     0.0080     9.9875 </r>
       <r>    39.4256     0.0001     9.9876 </r>
       <r>    39.5928    -0.0005     9.9875 </r>
       <r>    39.7601    -0.0002     9.9874 </r>
       <r>    39.9273     0.0069     9.9886 </r>
       <r>    40.0946     0.0104     9.9903 </r>
       <r>    40.2618     0.0004     9.9904 </r>
       <r>    40.4291     0.0048     9.9912 </r>
       <r>    40.5963     0.0227     9.9950 </r>
       <r>    40.7636     0.0103     9.9967 </r>
       <r>    40.9308    -0.0009     9.9966 </r>
       <r>    41.0981    -0.0003     9.9965 </r>
       <r>    41.2653    -0.0000     9.9965 </r>
       <r>    41.4325    -0.0001     9.9965 </r>
       <r>    41.5998    -0.0001     9.9965 </r>
       <r>    41.7670     0.0021     9.9968 </r>
       <r>    41.9343     0.0036     9.9974 </r>
       <r>    42.1015     0.0032     9.9980 </r>
       <r>    42.2688     0.0031     9.9985 </r>
       <r>    42.4360     0.0002     9.9985 </r>
       <r>    42.6033    -0.0004     9.9985 </r>
       <r>    42.7705     0.0026     9.9989 </r>
       <r>    42.9378     0.0057     9.9998 </r>
       <r>    43.1050     0.0013    10.0000 </r>
       <r>    43.2722    -0.0003    10.0000 </r>
       <r>    43.4395    -0.0000    10.0000 </r>
       <r>    43.6067    -0.0000    10.0000 </r>
       <r>    43.7740    -0.0000    10.0000 </r>
       <r>    43.9412    -0.0000    10.0000 </r>
       <r>    44.1085    -0.0000    10.0000 </r>
       <r>    44.2757     0.0000    10.0000 </r>
       <r>    44.4430     0.0000    10.0000 </r>
       <r>    44.6102     0.0000    10.0000 </r>
       <r>    44.7774     0.0000    10.0000 </r>
       <r>    44.9447     0.0000    10.0000 </r>
       <r>    45.1119     0.0000    10.0000 </r>
      </set>
     </set>
    </array>
   </total>
  </dos>
 </calculation>
 <structure name="finalpos" >
  <crystal>
   <varray name="basis" >
    <v>      -1.41500000       1.41500000       1.41500000 </v>
    <v>       1.41500000      -1.41500000       1.41500000 </v>
    <v>       1.41500000       1.41500000      -1.41500000 </v>
   </varray>
   <i name="volume">     11.33259350 </i>
   <varray name="rec_basis" >
    <v>       0.00000000       0.35335689       0.35335689 </v>
    <v>       0.35335689       0.00000000       0.35335689 </v>
    <v>       0.35335689       0.35335689       0.00000000 </v>
   </varray>
  </crystal>
  <varray name="positions" >
   <v>       0.00000000       0.00000000       0.00000000 </v>
  </varray>
 </structure>
</modeling>
