Si                                      
   5.43000000000000     
     1.000000    0.000000    0.000000
     0.000000    1.000000    0.000000
     0.000000    0.000000    1.000000
   Si
     8
Direct
  0.000000  0.000000  0.000000
  0.500000  0.500000  0.000000
  0.000000  0.500000  0.500000
  0.500000  0.000000  0.500000
  0.250000  0.250000  0.250000
  0.750000  0.750000  0.250000
  0.250000  0.750000  0.750000
  0.750000  0.250000  0.750000
 
   48   48   48
 -29.998     -23.824     -7.2215      14.873      36.508      52.812      61.284      62.016      57.068      49.402    
  41.311      33.665      26.939      21.340      16.857      13.351      10.636      8.5422      6.9399      5.7344    
  4.8519      4.2321      3.8274      3.6011      3.5287      3.6011      3.8274      4.2321      4.8519      5.7344    
  6.9399      8.5422      10.636      13.351      16.857      21.340      26.939      33.665      41.311      49.402    
  57.068      62.016      61.284      52.812      36.508      14.873     -7.2215     -23.824     -23.824     -17.945    
 -2.1562      18.797      39.201      54.399      62.029      62.233      57.042      49.338      41.272      33.662    
  26.972      21.400      16.934      13.437      10.724      8.6300      7.0257      5.8176      4.9321      4.3094    
  3.9021      3.6741      3.6011      3.6741      3.9021      4.3094      4.9321      5.8176      7.0257      8.6300    
  10.724      13.437      16.934      21.400      26.972      33.662      41.272      49.338      57.042      62.233    
  62.029      54.399      39.201      18.797     -2.1562     -17.945     -7.2215     -2.1562      11.395      29.216    
  46.259      58.456      63.827      62.644      56.855      49.099      41.125      33.637      27.061      21.575    
  17.164      13.694      10.991      8.8972      7.2883      6.0734      5.1801      4.5494      4.1349      3.9021    
  3.8274      3.9021      4.1349      4.5494      5.1801      6.0734      7.2883      8.8972      10.991      13.694    
  17.164      21.575      27.061      33.637      41.125      49.099      56.855      62.644      63.827      58.456    
  46.259      29.216      11.395     -2.1562      14.873      18.797      29.216      42.679      55.086      63.205    
  65.585      62.667      56.256      48.568      40.801      33.547      27.179      21.849      17.539      14.123    
  11.445      9.3557      7.7430      6.5197      5.6158      4.9739      4.5494      4.3094      4.2321      4.3094    
  4.5494      4.9739      5.6158      6.5197      7.7430      9.3557      11.445      14.123      17.539      21.849    
  27.179      33.547      40.801      48.568      56.256      62.667      65.585      63.205      55.086      42.679    
  29.216      18.797      36.508      39.201      46.259      55.086      62.640      66.606      66.097      61.701    
  55.018      47.612      40.218      33.340      27.294      22.204      18.052      14.729      12.096      10.025    
  8.4143      7.1846      6.2700      5.6158      5.1801      4.9321      4.8519      4.9321      5.1801      5.6158    
  6.2700      7.1846      8.4143      10.025      12.096      14.729      18.052      22.204      27.294      33.340    
  40.218      47.612      55.018      61.701      66.097      66.606      62.640      55.086      46.259      39.201    
  52.812      54.399      58.456      63.205      66.606      67.199      64.590      59.450      53.028      46.139    
  39.316      32.975      27.375      22.622      18.699      15.517      12.964      10.932      9.3364      8.1069    
  7.1846      6.5197      6.0734      5.8176      5.7344      5.8176      6.0734      6.5197      7.1846      8.1069    
  9.3364      10.932      12.964      15.517      18.699      22.622      27.375      32.975      39.316      46.139    
  53.028      59.450      64.590      67.199      66.606      63.205      58.456      54.399      61.284      62.029    
  63.827      65.585      66.097      64.590      61.032      56.050      50.267      44.135      38.078      32.431    
  27.405      23.089      19.475      16.498      14.071      12.111      10.552      9.3364      8.4143      7.7430    
  7.2883      7.0257      6.9399      7.0257      7.2883      7.7430      8.4143      9.3364      10.552      12.111    
  14.071      16.498      19.475      23.089      27.405      32.431      38.078      44.135      50.267      56.050    
  61.032      64.590      66.097      65.585      63.827      62.029      62.016      62.233      62.644      62.667    
  61.701      59.450      56.050      51.753      46.844      41.662      36.531      31.712      27.375      23.597    
  20.380      17.682      15.441      13.600      12.111      10.932      10.025      9.3557      8.8972      8.6300    
  8.5422      8.6300      8.8972      9.3557      10.025      10.932      12.111      13.600      15.441      17.682    
  20.380      23.597      27.375      31.712      36.531      41.662      46.844      51.753      56.050      59.450    
  61.701      62.667      62.644      62.233      57.068      57.042      56.855      56.256      55.018      53.028    
  50.267      46.844      42.957      38.845      34.743      30.848      27.294      24.146      21.416      19.080    
  17.101      15.441      14.071      12.964      12.096      11.445      10.991      10.724      10.636      10.724    
  10.991      11.445      12.096      12.964      14.071      15.441      17.101      19.080      21.416      24.146    
  27.294      30.848      34.743      38.845      42.957      46.844      50.267      53.028      55.018      56.256    
  56.855      57.042      49.402      49.338      49.099      48.568      47.612      46.139      44.135      41.662    
  38.845      35.839      32.806      29.885      27.179      24.742      22.589      20.709      19.080      17.682    
  16.498      15.517      14.729      14.123      13.694      13.437      13.351      13.437      13.694      14.123    
  14.729      15.517      16.498      17.682      19.080      20.709      22.589      24.742      27.179      29.885    
  32.806      35.839      38.845      41.662      44.135      46.139      47.612      48.568      49.099      49.338    
  41.311      41.272      41.125      40.801      40.218      39.316      38.078      36.531      34.743      32.806    
  30.821      28.882      27.061      25.400      23.912      22.589      21.416      20.380      19.475      18.699    
  18.052      17.539      17.164      16.934      16.857      16.934      17.164      17.539      18.052      18.699    
  19.475      20.380      21.416      22.589      23.912      25.400      27.061      28.882      30.821      32.806    
  34.743      36.531      38.078      39.316      40.218      40.801      41.125      41.272      33.665      33.662    
  33.637      33.547      33.340      32.975      32.431      31.712      30.848      29.885      28.882      27.895    
  26.972      26.139      25.400      24.742      24.146      23.597      23.089      22.622      22.204      21.849    
  21.575      21.400      21.340      21.400      21.575      21.849      22.204      22.622      23.089      23.597    
  24.146      24.742      25.400      26.139      26.972      27.895      28.882      29.885      30.848      31.712    
  32.431      32.975      33.340      33.547      33.637      33.662      26.939      26.972      27.061      27.179    
  27.294      27.375      27.405      27.375      27.294      27.179      27.061      26.972      26.939      26.972    
  27.061      27.179      27.294      27.375      27.405      27.375      27.294      27.179      27.061      26.972    
  26.939      26.972      27.061      27.179      27.294      27.375      27.405      27.375      27.294      27.179    
  27.061      26.972      26.939      26.972      27.061      27.179      27.294      27.375      27.405      27.375    
  27.294      27.179      27.061      26.972      21.340      21.400      21.575      21.849      22.204      22.622    
  23.089      23.597      24.146      24.742      25.400      26.139      26.972      27.895      28.882      29.885    
  30.848      31.712      32.431      32.975      33.340      33.547      33.637      33.662      33.665      33.662    
  33.637      33.547      33.340      32.975      32.431      31.712      30.848      29.885      28.882      27.895    
  26.972      26.139      25.400      24.742      24.146      23.597      23.089      22.622      22.204      21.849    
  21.575      21.400      16.857      16.934      17.164      17.539      18.052      18.699      19.475      20.380    
  21.416      22.589      23.912      25.400      27.061      28.882      30.821      32.806      34.743      36.531    
  38.078      39.316      40.218      40.801      41.125      41.272      41.311      41.272      41.125      40.801    
  40.218      39.316      38.078      36.531      34.743      32.806      30.821      28.882      27.061      25.400    
  23.912      22.589      21.416      20.380      19.475      18.699      18.052      17.539      17.164      16.934    
  13.351      13.437      13.694      14.123      14.729      15.517      16.498      17.682      19.080      20.709    
  22.589      24.742      27.179      29.885      32.806      35.839      38.845      41.662      44.135      46.139    
  47.612      48.568      49.099      49.338      49.402      49.338      49.099      48.568      47.612      46.139    
  44.135      41.662      38.845      35.839      32.806      29.885      27.179      24.742      22.589      20.709    
  19.080      17.682      16.498      15.517      14.729      14.123      13.694      13.437      10.636      10.724    
  10.991      11.445      12.096      12.964      14.071      15.441      17.101      19.080      21.416      24.146    
  27.294      30.848      34.743      38.845      42.957      46.844      50.267      53.028      55.018      56.256    
  56.855      57.042      57.068      57.042      56.855      56.256      55.018      53.028      50.267      46.844    
  42.957      38.845      34.743      30.848      27.294      24.146      21.416      19.080      17.101      15.441    
  14.071      12.964      12.096      11.445      10.991      10.724      8.5422      8.6300      8.8972      9.3557    
  10.025      10.932      12.111      13.600      15.441      17.682      20.380      23.597      27.375      31.712    
  36.531      41.662      46.844      51.753      56.050      59.450      61.701      62.667      62.644      62.233    
  62.016      62.233      62.644      62.667      61.701      59.450      56.050      51.753      46.844      41.662    
  36.531      31.712      27.375      23.597      20.380      17.682      15.441      13.600      12.111      10.932    
  10.025      9.3557      8.8972      8.6300      6.9399      7.0257      7.2883      7.7430      8.4143      9.3364    
  10.552      12.111      14.071      16.498      19.475      23.089      27.405      32.431      38.078      44.135    
  50.267      56.050      61.032      64.590      66.097      65.585      63.827      62.029      61.284      62.029    
  63.827      65.585      66.097      64.590      61.032      56.050      50.267      44.135      38.078      32.431    
  27.405      23.089      19.475      16.498      14.071      12.111      10.552      9.3364      8.4143      7.7430    
  7.2883      7.0257      5.7344      5.8176      6.0734      6.5197      7.1846      8.1069      9.3364      10.932    
  12.964      15.517      18.699      22.622      27.375      32.975      39.316      46.139      53.028      59.450    
  64.590      67.199      66.606      63.205      58.456      54.399      52.812      54.399      58.456      63.205    
  66.606      67.199      64.590      59.450      53.028      46.139      39.316      32.975      27.375      22.622    
  18.699      15.517      12.964      10.932      9.3364      8.1069      7.1846      6.5197      6.0734      5.8176    
  4.8519      4.9321      5.1801      5.6158      6.2700      7.1846      8.4143      10.025      12.096      14.729    
  18.052      22.204      27.294      33.340      40.218      47.612      55.018      61.701      66.097      66.606    
  62.640      55.086      46.259      39.201      36.508      39.201      46.259      55.086      62.640      66.606    
  66.097      61.701      55.018      47.612      40.218      33.340      27.294      22.204      18.052      14.729    
  12.096      10.025      8.4143      7.1846      6.2700      5.6158      5.1801      4.9321      4.2321      4.3094    
  4.5494      4.9739      5.6158      6.5197      7.7430      9.3557      11.445      14.123      17.539      21.849    
  27.179      33.547      40.801      48.568      56.256      62.667      65.585      63.205      55.086      42.679    
  29.216      18.797      14.873      18.797      29.216      42.679      55.086      63.205      65.585      62.667    
  56.256      48.568      40.801      33.547      27.179      21.849      17.539      14.123      11.445      9.3557    
  7.7430      6.5197      5.6158      4.9739      4.5494      4.3094      3.8274      3.9021      4.1349      4.5494    
  5.1801      6.0734      7.2883      8.8972      10.991      13.694      17.164      21.575      27.061      33.637    
  41.125      49.099      56.855      62.644      63.827      58.456      46.259      29.216      11.395     -2.1562    
 -7.2215     -2.1562      11.395      29.216      46.259      58.456      63.827      62.644      56.855      49.099    
  41.125      33.637      27.061      21.575      17.164      13.694      10.991      8.8972      7.2883      6.0734    
  5.1801      4.5494      4.1349      3.9021      3.6011      3.6741      3.9021      4.3094      4.9321      5.8176    
  7.0257      8.6300      10.724      13.437      16.934      21.400      26.972      33.662      41.272      49.338    
  57.042      62.233      62.029      54.399      39.201      18.797     -2.1562     -17.945     -23.824     -17.945    
 -2.1562      18.797      39.201      54.399      62.029      62.233      57.042      49.338      41.272      33.662    
  26.972      21.400      16.934      13.437      10.724      8.6300      7.0257      5.8176      4.9321      4.3094    
  3.9021      3.6741      3.5287      3.6011      3.8274      4.2321      4.8519      5.7344      6.9399      8.5422    
  10.636      13.351      16.857      21.340      26.939      33.665      41.311      49.402      57.068      62.016    
  61.284      52.812      36.508      14.873     -7.2215     -23.824     -29.998     -23.824     -7.2215      14.873    
  36.508      52.812      61.284      62.016      57.068      49.402      41.311      33.665      26.939      21.340    
  16.857      13.351      10.636      8.5422      6.9399      5.7344      4.8519      4.2321      3.8274      3.6011    
  3.6011      3.6741      3.9021      4.3094      4.9321      5.8176      7.0257      8.6300      10.724      13.437    
  16.934      21.400      26.972      33.662      41.272      49.338      57.042      62.233      62.029      54.399    
  39.201      18.797     -2.1562     -17.945     -23.824     -17.945     -2.1562      18.797      39.201      54.399    
  62.029      62.233      57.042      49.338      41.272      33.662      26.972      21.400      16.934      13.437    
  10.724      8.6300      7.0257      5.8176      4.9321      4.3094      3.9021      3.6741      3.8274      3.9021    
  4.1349      4.5494      5.1801      6.0734      7.2883      8.8972      10.991      13.694      17.164      21.575    
  27.061      33.637      41.125      49.099      56.855      62.644      63.827      58.456      46.259      29.216    
  11.395     -2.1562     -7.2215     -2.1562      11.395      29.216      46.259      58.456      63.827      62.644    
  56.855      49.099      41.125      33.637      27.061      21.575      17.164      13.694      10.991      8.8972    
  7.2883      6.0734      5.1801      4.5494      4.1349      3.9021      4.2321      4.3094      4.5494      4.9739    
  5.6158      6.5197      7.7430      9.3557      11.445      14.123      17.539      21.849      27.179      33.547    
  40.801      48.568      56.256      62.667      65.585      63.205      55.086      42.679      29.216      18.797    
  14.873      18.797      29.216      42.679      55.086      63.205      65.585      62.667      56.256      48.568    
  40.801      33.547      27.179      21.849      17.539      14.123      11.445      9.3557      7.7430      6.5197    
  5.6158      4.9739      4.5494      4.3094      4.8519      4.9321      5.1801      5.6158      6.2700      7.1846    
  8.4143      10.025      12.096      14.729      18.052      22.204      27.294      33.340      40.218      47.612    
  55.018      61.701      66.097      66.606      62.640      55.086      46.259      39.201      36.508      39.201    
  46.259      55.086      62.640      66.606      66.097      61.701      55.018      47.612      40.218      33.340    
  27.294      22.204      18.052      14.729      12.096      10.025      8.4143      7.1846      6.2700      5.6158    
  5.1801      4.9321      5.7344      5.8176      6.0734      6.5197      7.1846      8.1069      9.3364      10.932    
  12.964      15.517      18.699      22.622      27.375      32.975      39.316      46.139      53.028      59.450    
  64.590      67.199      66.606      63.205      58.456      54.399      52.812      54.399      58.456      63.205    
  66.606      67.199      64.590      59.450      53.028      46.139      39.316      32.975      27.375      22.622    
  18.699      15.517      12.964      10.932      9.3364      8.1069      7.1846      6.5197      6.0734      5.8176    
  6.9399      7.0257      7.2883      7.7430      8.4143      9.3364      10.552      12.111      14.071      16.498    
  19.475      23.089      27.405      32.431      38.078      44.135      50.267      56.050      61.032      64.590    
  66.097      65.585      63.827      62.029      61.284      62.029      63.827      65.585      66.097      64.590    
  61.032      56.050      50.267      44.135      38.078      32.431      27.405      23.089      19.475      16.498    
  14.071      12.111      10.552      9.3364      8.4143      7.7430      7.2883      7.0257      8.5422      8.6300    
  8.8972      9.3557      10.025      10.932      12.111      13.600      15.441      17.682      20.380      23.597    
  27.375      31.712      36.531      41.662      46.844      51.753      56.050      59.450      61.701      62.667    
  62.644      62.233      62.016      62.233      62.644      62.667      61.701      59.450      56.050      51.753    
  46.844      41.662      36.531      31.712      27.375      23.597      20.380      17.682      15.441      13.600    
  12.111      10.932      10.025      9.3557      8.8972      8.6300      10.636      10.724      10.991      11.445    
  12.096      12.964      14.071      15.441      17.101      19.080      21.416      24.146      27.294      30.848    
  34.743      38.845      42.957      46.844      50.267      53.028      55.018      56.256      56.855      57.042    
  57.068      57.042      56.855      56.256      55.018      53.028      50.267      46.844      42.957      38.845    
  34.743      30.848      27.294      24.146      21.416      19.080      17.101      15.441      14.071      12.964    
  12.096      11.445      10.991      10.724      13.351      13.437      13.694      14.123      14.729      15.517    
  16.498      17.682      19.080      20.709      22.589      24.742      27.179      29.885      32.806      35.839    
  38.845      41.662      44.135      46.139      47.612      48.568      49.099      49.338      49.402      49.338    
  49.099      48.568      47.612      46.139      44.135      41.662      38.845      35.839      32.806      29.885    
  27.179      24.742      22.589      20.709      19.080      17.682      16.498      15.517      14.729      14.123    
  13.694      13.437      16.857      16.934      17.164      17.539      18.052      18.699      19.475      20.380    
  21.416      22.589      23.912      25.400      27.061      28.882      30.821      32.806      34.743      36.531    
  38.078      39.316      40.218      40.801      41.125      41.272      41.311      41.272      41.125      40.801    
  40.218      39.316      38.078      36.531      34.743      32.806      30.821      28.882      27.061      25.400    
  23.912      22.589      21.416      20.380      19.475      18.699      18.052      17.539      17.164      16.934    
  21.340      21.400      21.575      21.849      22.204      22.622      23.089      23.597      24.146      24.742    
  25.400      26.139      26.972      27.895      28.882      29.885      30.848      31.712      32.431      32.975    
  33.340      33.547      33.637      33.662      33.665      33.662      33.637      33.547      33.340      32.975    
  32.431      31.712      30.848      29.885      28.882      27.895      26.972      26.139      25.400      24.742    
  24.146      23.597      23.089      22.622      22.204      21.849      21.575      21.400      26.939      26.972    
  27.061      27.179      27.294      27.375      27.405      27.375      27.294      27.179      27.061      26.972    
  26.939      26.972      27.061      27.179      27.294      27.375      27.405      27.375      27.294      27.179    
  27.061      26.972      26.939      26.972      27.061      27.179      27.294      27.375      27.405      27.375    
  27.294      27.179      27.061      26.972      26.939      26.972      27.061      27.179      27.294      27.375    
  27.405      27.375      27.294      27.179      27.061      26.972      33.665      33.662      33.637      33.547    
  33.340      32.975      32.431      31.712      30.848      29.885      28.882      27.895      26.972      26.139    
  25.400      24.742      24.146      23.597      23.089      22.622      22.204      21.849      21.575      21.400    
  21.340      21.400      21.575      21.849      22.204      22.622      23.089      23.597      24.146      24.742    
  25.400      26.139      26.972      27.895      28.882      29.885      30.848      31.712      32.431      32.975    
  33.340      33.547      33.637      33.662      41.311      41.272      41.125      40.801      40.218      39.316    
  38.078      36.531      34.743      32.806      30.821      28.882      27.061      25.400      23.912      22.589    
  21.416      20.380      19.475      18.699      18.052      17.539      17.164      16.934      16.857      16.934    
  17.164      17.539      18.052      18.699      19.475      20.380      21.416      22.589      23.912      25.400    
  27.061      28.882      30.821      32.806      34.743      36.531      38.078      39.316      40.218      40.801    
  41.125      41.272      49.402      49.338      49.099      48.568      47.612      46.139      44.135      41.662    
  38.845      35.839      32.806      29.885      27.179      24.742      22.589      20.709      19.080      17.682    
  16.498      15.517      14.729      14.123      13.694      13.437      13.351      13.437      13.694      14.123    
  14.729      15.517      16.498      17.682      19.080      20.709      22.589      24.742      27.179      29.885    
  32.806      35.839      38.845      41.662      44.135      46.139      47.612      48.568      49.099      49.338    
  57.068      57.042      56.855      56.256      55.018      53.028      50.267      46.844      42.957      38.845    
  34.743      30.848      27.294      24.146      21.416      19.080      17.101      15.441      14.071      12.964    
  12.096      11.445      10.991      10.724      10.636      10.724      10.991      11.445      12.096      12.964    
  14.071      15.441      17.101      19.080      21.416      24.146      27.294      30.848      34.743      38.845    
  42.957      46.844      50.267      53.028      55.018      56.256      56.855      57.042      62.016      62.233    
  62.644      62.667      61.701      59.450      56.050      51.753      46.844      41.662      36.531      31.712    
  27.375      23.597      20.380      17.682      15.441      13.600      12.111      10.932      10.025      9.3557    
  8.8972      8.6300      8.5422      8.6300      8.8972      9.3557      10.025      10.932      12.111      13.600    
  15.441      17.682      20.380      23.597      27.375      31.712      36.531      41.662      46.844      51.753    
  56.050      59.450      61.701      62.667      62.644      62.233      61.284      62.029      63.827      65.585    
  66.097      64.590      61.032      56.050      50.267      44.135      38.078      32.431      27.405      23.089    
  19.475      16.498      14.071      12.111      10.552      9.3364      8.4143      7.7430      7.2883      7.0257    
  6.9399      7.0257      7.2883      7.7430      8.4143      9.3364      10.552      12.111      14.071      16.498    
  19.475      23.089      27.405      32.431      38.078      44.135      50.267      56.050      61.032      64.590    
  66.097      65.585      63.827      62.029      52.812      54.399      58.456      63.205      66.606      67.199    
  64.590      59.450      53.028      46.139      39.316      32.975      27.375      22.622      18.699      15.517    
  12.964      10.932      9.3364      8.1069      7.1846      6.5197      6.0734      5.8176      5.7344      5.8176    
  6.0734      6.5197      7.1846      8.1069      9.3364      10.932      12.964      15.517      18.699      22.622    
  27.375      32.975      39.316      46.139      53.028      59.450      64.590      67.199      66.606      63.205    
  58.456      54.399      36.508      39.201      46.259      55.086      62.640      66.606      66.097      61.701    
  55.018      47.612      40.218      33.340      27.294      22.204      18.052      14.729      12.096      10.025    
  8.4143      7.1846      6.2700      5.6158      5.1801      4.9321      4.8519      4.9321      5.1801      5.6158    
  6.2700      7.1846      8.4143      10.025      12.096      14.729      18.052      22.204      27.294      33.340    
  40.218      47.612      55.018      61.701      66.097      66.606      62.640      55.086      46.259      39.201    
  14.873      18.797      29.216      42.679      55.086      63.205      65.585      62.667      56.256      48.568    
  40.801      33.547      27.179      21.849      17.539      14.123      11.445      9.3557      7.7430      6.5197    
  5.6158      4.9739      4.5494      4.3094      4.2321      4.3094      4.5494      4.9739      5.6158      6.5197    
  7.7430      9.3557      11.445      14.123      17.539      21.849      27.179      33.547      40.801      48.568    
  56.256      62.667      65.585      63.205      55.086      42.679      29.216      18.797     -7.2215     -2.1562    
  11.395      29.216      46.259      58.456      63.827      62.644      56.855      49.099      41.125      33.637    
  27.061      21.575      17.164      13.694      10.991      8.8972      7.2883      6.0734      5.1801      4.5494    
  4.1349      3.9021      3.8274      3.9021      4.1349      4.5494      5.1801      6.0734      7.2883      8.8972    
  10.991      13.694      17.164      21.575      27.061      33.637      41.125      49.099      56.855      62.644    
  63.827      58.456      46.259      29.216      11.395     -2.1562     -23.824     -17.945     -2.1562      18.797    
  39.201      54.399      62.029      62.233      57.042      49.338      41.272      33.662      26.972      21.400    
  16.934      13.437      10.724      8.6300      7.0257      5.8176      4.9321      4.3094      3.9021      3.6741    
  3.6011      3.6741      3.9021      4.3094      4.9321      5.8176      7.0257      8.6300      10.724      13.437    
  16.934      21.400      26.972      33.662      41.272      49.338      57.042      62.233      62.029      54.399    
  39.201      18.797     -2.1562     -17.945     -23.824     -17.945     -2.1562      18.797      39.201      54.399    
  62.029      62.233      57.042      49.338      41.272      33.662      26.972      21.400      16.934      13.437    
  10.724      8.6300      7.0257      5.8176      4.9321      4.3094      3.9021      3.6741      3.6011      3.6741    
  3.9021      4.3094      4.9321      5.8176      7.0257      8.6300      10.724      13.437      16.934      21.400    
  26.972      33.662      41.272      49.338      57.042      62.233      62.029      54.399      39.201      18.797    
 -2.1562     -17.945     -17.945     -11.200      4.7131      25.094      44.462      58.471      65.030      64.430    
  58.731      50.749      42.492      34.726      27.895      22.192      17.607      14.002      11.196      9.0230    
  7.3525      6.0883      5.1545      4.4891      4.0435      3.7803      3.6741      3.7152      3.9117      4.2862    
  4.8727      5.7167      6.8755      8.4195      10.439      13.056      16.433      20.749      26.139      32.620    
  40.000      47.824      55.309      60.436      60.420      53.313      39.033      19.944     0.60485     -13.498    
 -2.1562      4.7131      19.210      37.041      53.360      64.461      68.710      66.599      60.145      51.934    
  43.586      35.765      28.882      23.112      18.446      14.753      11.861      9.6076      7.8659      6.5394    
  5.5505      4.8359      4.3462      4.0435      3.9021      3.9117      4.0790      4.4248      4.9803      5.7880    
  6.9026      8.3905      10.336      12.856      16.100      20.237      25.400      31.609      38.695      46.239    