Si                                      
   5.43000000000000     
     1.000000    0.000000    0.000000
     0.000000    1.000000    0.000000
     0.000000    0.000000    1.000000
   Si
     8
Direct
  0.000000  0.000000  0.000000
  0.500000  0.500000  0.000000
  0.000000  0.500000  0.500000
  0.500000  0.000000  0.500000
  0.250000  0.250000  0.250000
  0.750000  0.750000  0.250000
  0.250000  0.750000  0.750000
  0.750000  0.250000  0.750000
 
   48   48   48
 -.29997855465E+02 -.23823563062E+02 -.72215160798E+01 0.14873033401E+02 0.36508232723E+02
 0.52811575759E+02 0.61283953581E+02 0.62016369843E+02 0.57067522825E+02 0.49401632371E+02
 0.41311496198E+02 0.33665133949E+02 0.26939161974E+02 0.21339852379E+02 0.16857251511E+02
 0.13351116203E+02 0.10636029401E+02 0.85421760526E+01 0.69398843998E+01 0.57344001447E+01
 0.48518779007E+01 0.42321391383E+01 0.38273715184E+01 0.36011238238E+01 0.35287342993E+01
 0.36011238238E+01 0.38273715184E+01 0.42321391383E+01 0.48518779007E+01 0.57344001447E+01
 0.69398843998E+01 0.85421760526E+01 0.10636029401E+02 0.13351116203E+02 0.16857251511E+02
 0.21339852379E+02 0.26939161974E+02 0.33665133949E+02 0.41311496198E+02 0.49401632371E+02
 0.57067522825E+02 0.62016369843E+02 0.61283953581E+02 0.52811575759E+02 0.36508232723E+02
 0.14873033401E+02 -.72215160798E+01 -.23823563062E+02 -.23823563062E+02 -.17944683146E+02
 -.21561824882E+01 0.18796786972E+02 0.39201394720E+02 0.54398890037E+02 0.62029177106E+02
 0.62232927862E+02 0.57041572092E+02 0.49337573023E+02 0.41271723341E+02 0.33662262428E+02
 0.26972064253E+02 0.21400045943E+02 0.16934472334E+02 0.13436755704E+02 0.10724329205E+02
 0.86299575050E+01 0.70256738237E+01 0.58175600997E+01 0.49321102842E+01 0.43094245053E+01
 0.39020998812E+01 0.36741220493E+01 0.36011238238E+01 0.36741220493E+01 0.39020998812E+01
 0.43094245053E+01 0.49321102842E+01 0.58175600997E+01 0.70256738237E+01 0.86299575050E+01
 0.10724329205E+02 0.13436755704E+02 0.16934472334E+02 0.21400045943E+02 0.26972064253E+02
 0.33662262428E+02 0.41271723341E+02 0.49337573023E+02 0.57041572092E+02 0.62232927862E+02
 0.62029177106E+02 0.54398890037E+02 0.39201394720E+02 0.18796786972E+02 -.21561824882E+01
 -.17944683146E+02 -.72215160798E+01 -.21561824882E+01 0.11394761601E+02 0.29216231600E+02
 0.46259387817E+02 0.58456058105E+02 0.63826783966E+02 0.62643664093E+02 0.56855227322E+02
 0.49098682670E+02 0.41124785434E+02 0.33637067953E+02 0.27060712762E+02 0.21574884302E+02
 0.17163650290E+02 0.13693801749E+02 0.10991468213E+02 0.88972355674E+01 0.72883158775E+01
 0.60733920439E+01 0.51800833127E+01 0.45493505997E+01 0.41349430699E+01 0.39020998812E+01
 0.38273715184E+01 0.39020998812E+01 0.41349430699E+01 0.45493505997E+01 0.51800833127E+01
 0.60733920439E+01 0.72883158775E+01 0.88972355674E+01 0.10991468213E+02 0.13693801749E+02
 0.17163650290E+02 0.21574884302E+02 0.27060712762E+02 0.33637067953E+02 0.41124785434E+02
 0.49098682670E+02 0.56855227322E+02 0.62643664093E+02 0.63826783966E+02 0.58456058105E+02
 0.46259387817E+02 0.29216231600E+02 0.11394761601E+02 -.21561824882E+01 0.14873033401E+02
 0.18796786972E+02 0.29216231600E+02 0.42679151594E+02 0.55086175083E+02 0.63205146178E+02
 0.65585335216E+02 0.62666729012E+02 0.56256203467E+02 0.48567639619E+02 0.40800613209E+02
 0.33546893099E+02 0.27178869830E+02 0.21849351691E+02 0.17538590547E+02 0.14123359232E+02
 0.11444503524E+02 0.93557280866E+01 0.77430216597E+01 0.65197411512E+01 0.56158207947E+01
 0.49738542295E+01 0.45493505997E+01 0.43094245053E+01 0.42321391383E+01 0.43094245053E+01
 0.45493505997E+01 0.49738542295E+01 0.56158207947E+01 0.65197411512E+01 0.77430216597E+01
 0.93557280866E+01 0.11444503524E+02 0.14123359232E+02 0.17538590547E+02 0.21849351691E+02
 0.27178869830E+02 0.33546893099E+02 0.40800613209E+02 0.48567639619E+02 0.56256203467E+02
 0.62666729012E+02 0.65585335216E+02 0.63205146178E+02 0.55086175083E+02 0.42679151594E+02
 0.29216231600E+02 0.18796786972E+02 0.36508232723E+02 0.39201394720E+02 0.46259387817E+02
 0.55086175083E+02 0.62639779725E+02 0.66606186099E+02 0.66096966632E+02 0.61700888305E+02
 0.55018404868E+02 0.47611549611E+02 0.40217732523E+02 0.33340215713E+02 0.27293633178E+02
 0.22204387076E+02 0.18052204928E+02 0.14728989634E+02 0.12095988006E+02 0.10024975962E+02
 0.84143274218E+01 0.71846119819E+01 0.62699573932E+01 0.56158207947E+01 0.51800833127E+01
 0.49321102842E+01 0.48518779007E+01 0.49321102842E+01 0.51800833127E+01 0.56158207947E+01
 0.62699573932E+01 0.71846119819E+01 0.84143274218E+01 0.10024975962E+02 0.12095988006E+02
 0.14728989634E+02 0.18052204928E+02 0.22204387076E+02 0.27293633178E+02 0.33340215713E+02
 0.40217732523E+02 0.47611549611E+02 0.55018404868E+02 0.61700888305E+02 0.66096966632E+02
 0.66606186099E+02 0.62639779725E+02 0.55086175083E+02 0.46259387817E+02 0.39201394720E+02
 0.52811575759E+02 0.54398890037E+02 0.58456058105E+02 0.63205146178E+02 0.66606186099E+02
 0.67199019977E+02 0.64590295311E+02 0.59450434579E+02 0.53027621623E+02 0.46139181377E+02
 0.39316122534E+02 0.32975010675E+02 0.27375494250E+02 0.22622123702E+02 0.18698895143E+02
 0.15517491155E+02 0.12964024023E+02 0.10932295996E+02 0.93363566306E+01 0.81068534521E+01
 0.71846119819E+01 0.65197411512E+01 0.60733920439E+01 0.58175600997E+01 0.57344001447E+01
 0.58175600997E+01 0.60733920439E+01 0.65197411512E+01 0.71846119819E+01 0.81068534521E+01
 0.93363566306E+01 0.10932295996E+02 0.12964024023E+02 0.15517491155E+02 0.18698895143E+02
 0.22622123702E+02 0.27375494250E+02 0.32975010675E+02 0.39316122534E+02 0.46139181377E+02
 0.53027621623E+02 0.59450434579E+02 0.64590295311E+02 0.67199019977E+02 0.66606186099E+02
 0.63205146178E+02 0.58456058105E+02 0.54398890037E+02 0.61283953581E+02 0.62029177106E+02
 0.63826783966E+02 0.65585335216E+02 0.66096966632E+02 0.64590295311E+02 0.61032411575E+02
 0.56050490975E+02 0.50267254719E+02 0.44134907078E+02 0.38077831316E+02 0.32430794448E+02
 0.27405002813E+02 0.23089043409E+02 0.19475340551E+02 0.16498193894E+02 0.14070877544E+02
 0.12111467335E+02 0.10552144848E+02 0.93363566306E+01 0.84143274218E+01 0.77430216597E+01
 0.72883158775E+01 0.70256738237E+01 0.69398843998E+01 0.70256738237E+01 0.72883158775E+01
 0.77430216597E+01 0.84143274218E+01 0.93363566306E+01 0.10552144848E+02 0.12111467335E+02
 0.14070877544E+02 0.16498193894E+02 0.19475340551E+02 0.23089043409E+02 0.27405002813E+02
 0.32430794448E+02 0.38077831316E+02 0.44134907078E+02 0.50267254719E+02 0.56050490975E+02
 0.61032411575E+02 0.64590295311E+02 0.66096966632E+02 0.65585335216E+02 0.63826783966E+02
 0.62029177106E+02 0.62016369843E+02 0.62232927862E+02 0.62643664093E+02 0.62666729012E+02
 0.61700888305E+02 0.59450434579E+02 0.56050490975E+02 0.51753432409E+02 0.46844465613E+02
 0.41662115928E+02 0.36531229572E+02 0.31712464663E+02 0.27375494250E+02 0.23597303321E+02
 0.20380429422E+02 0.17681715085E+02 0.15440965919E+02 0.13600437715E+02 0.12111467335E+02
 0.10932295996E+02 0.10024975962E+02 0.93557280866E+01 0.88972355674E+01 0.86299575050E+01
 0.85421760526E+01 0.86299575050E+01 0.88972355674E+01 0.93557280866E+01 0.10024975962E+02
 0.10932295996E+02 0.12111467335E+02 0.13600437715E+02 0.15440965919E+02 0.17681715085E+02
 0.20380429422E+02 0.23597303321E+02 0.27375494250E+02 0.31712464663E+02 0.36531229572E+02
 0.41662115928E+02 0.46844465613E+02 0.51753432409E+02 0.56050490975E+02 0.59450434579E+02
 0.61700888305E+02 0.62666729012E+02 0.62643664093E+02 0.62232927862E+02 0.57067522825E+02
 0.57041572092E+02 0.56855227322E+02 0.56256203467E+02 0.55018404868E+02 0.53027621623E+02
 0.50267254719E+02 0.46844465613E+02 0.42956987809E+02 0.38844659332E+02 0.34743274953E+02
 0.30848397954E+02 0.27293633178E+02 0.24145837763E+02 0.21416030482E+02 0.19080119821E+02
 0.17100559398E+02 0.15440965919E+02 0.14070877544E+02 0.12964024023E+02 0.12095988006E+02
 0.11444503524E+02 0.10991468213E+02 0.10724329205E+02 0.10636029401E+02 0.10724329205E+02
 0.10991468213E+02 0.11444503524E+02 0.12095988006E+02 0.12964024023E+02 0.14070877544E+02
 0.15440965919E+02 0.17100559398E+02 0.19080119821E+02 0.21416030482E+02 0.24145837763E+02
 0.27293633178E+02 0.30848397954E+02 0.34743274953E+02 0.38844659332E+02 0.42956987809E+02
 0.46844465613E+02 0.50267254719E+02 0.53027621623E+02 0.55018404868E+02 0.56256203467E+02
 0.56855227322E+02 0.57041572092E+02 0.49401632371E+02 0.49337573023E+02 0.49098682670E+02
 0.48567639619E+02 0.47611549611E+02 0.46139181377E+02 0.44134907078E+02 0.41662115928E+02
 0.38844659332E+02 0.35839052591E+02 0.32805998665E+02 0.29885481844E+02 0.27178869830E+02
 0.24741739318E+02 0.22588978446E+02 0.20709020141E+02 0.19080119821E+02 0.17681715085E+02
 0.16498193894E+02 0.15517491155E+02 0.14728989634E+02 0.14123359232E+02 0.13693801749E+02
 0.13436755704E+02 0.13351116203E+02 0.13436755704E+02 0.13693801749E+02 0.14123359232E+02
 0.14728989634E+02 0.15517491155E+02 0.16498193894E+02 0.17681715085E+02 0.19080119821E+02
 0.20709020141E+02 0.22588978446E+02 0.24741739318E+02 0.27178869830E+02 0.29885481844E+02
 0.32805998665E+02 0.35839052591E+02 0.38844659332E+02 0.41662115928E+02 0.44134907078E+02
 0.46139181377E+02 0.47611549611E+02 0.48567639619E+02 0.49098682670E+02 0.49337573023E+02
 0.41311496198E+02 0.41271723341E+02 0.41124785434E+02 0.40800613209E+02 0.40217732523E+02
 0.39316122534E+02 0.38077831316E+02 0.36531229572E+02 0.34743274953E+02 0.32805998665E+02
 0.30820723937E+02 0.28881553954E+02 0.27060712762E+02 0.25400051855E+02 0.23911997990E+02
 0.22588978446E+02 0.21416030482E+02 0.20380429422E+02 0.19475340551E+02 0.18698895143E+02
 0.18052204928E+02 0.17538590547E+02 0.17163650290E+02 0.16934472334E+02 0.16857251511E+02
 0.16934472334E+02 0.17163650290E+02 0.17538590547E+02 0.18052204928E+02 0.18698895143E+02
 0.19475340551E+02 0.20380429422E+02 0.21416030482E+02 0.22588978446E+02 0.23911997990E+02
 0.25400051855E+02 0.27060712762E+02 0.28881553954E+02 0.30820723937E+02 0.32805998665E+02
 0.34743274953E+02 0.36531229572E+02 0.38077831316E+02 0.39316122534E+02 0.40217732523E+02
 0.40800613209E+02 0.41124785434E+02 0.41271723341E+02 0.33665133949E+02 0.33662262428E+02
 0.33637067953E+02 0.33546893099E+02 0.33340215713E+02 0.32975010675E+02 0.32430794448E+02
 0.31712464663E+02 0.30848397954E+02 0.29885481844E+02 0.28881553954E+02 0.27894851919E+02
 0.26972064253E+02 0.26139263238E+02 0.25400051855E+02 0.24741739318E+02 0.24145837763E+02
 0.23597303321E+02 0.23089043409E+02 0.22622123702E+02 0.22204387076E+02 0.21849351691E+02
 0.21574884302E+02 0.21400045943E+02 0.21339852379E+02 0.21400045943E+02 0.21574884302E+02
 0.21849351691E+02 0.22204387076E+02 0.22622123702E+02 0.23089043409E+02 0.23597303321E+02
 0.24145837763E+02 0.24741739318E+02 0.25400051855E+02 0.26139263238E+02 0.26972064253E+02
 0.27894851919E+02 0.28881553954E+02 0.29885481844E+02 0.30848397954E+02 0.31712464663E+02
 0.32430794448E+02 0.32975010675E+02 0.33340215713E+02 0.33546893099E+02 0.33637067953E+02
 0.33662262428E+02 0.26939161974E+02 0.26972064253E+02 0.27060712762E+02 0.27178869830E+02
 0.27293633178E+02 0.27375494250E+02 0.27405002813E+02 0.27375494250E+02 0.27293633178E+02
 0.27178869830E+02 0.27060712762E+02 0.26972064253E+02 0.26939161974E+02 0.26972064253E+02
 0.27060712762E+02 0.27178869830E+02 0.27293633178E+02 0.27375494250E+02 0.27405002813E+02
 0.27375494250E+02 0.27293633178E+02 0.27178869830E+02 0.27060712762E+02 0.26972064253E+02
 0.26939161974E+02 0.26972064253E+02 0.27060712762E+02 0.27178869830E+02 0.27293633178E+02
 0.27375494250E+02 0.27405002813E+02 0.27375494250E+02 0.27293633178E+02 0.27178869830E+02
 0.27060712762E+02 0.26972064253E+02 0.26939161974E+02 0.26972064253E+02 0.27060712762E+02
 0.27178869830E+02 0.27293633178E+02 0.27375494250E+02 0.27405002813E+02 0.27375494250E+02
 0.27293633178E+02 0.27178869830E+02 0.27060712762E+02 0.26972064253E+02 0.21339852379E+02
 0.21400045943E+02 0.21574884302E+02 0.21849351691E+02 0.22204387076E+02 0.22622123702E+02
 0.23089043409E+02 0.23597303321E+02 0.24145837763E+02 0.24741739318E+02 0.25400051855E+02
 0.26139263238E+02 0.26972064253E+02 0.27894851919E+02 0.28881553954E+02 0.29885481844E+02
 0.30848397954E+02 0.31712464663E+02 0.32430794448E+02 0.32975010675E+02 0.33340215713E+02
 0.33546893099E+02 0.33637067953E+02 0.33662262428E+02 0.33665133949E+02 0.33662262428E+02
 0.33637067953E+02 0.33546893099E+02 0.33340215713E+02 0.32975010675E+02 0.32430794448E+02
 0.31712464663E+02 0.30848397954E+02 0.29885481844E+02 0.28881553954E+02 0.27894851919E+02
 0.26972064253E+02 0.26139263238E+02 0.25400051855E+02 0.24741739318E+02 0.24145837763E+02
 0.23597303321E+02 0.23089043409E+02 0.22622123702E+02 0.22204387076E+02 0.21849351691E+02
 0.21574884302E+02 0.21400045943E+02 0.16857251511E+02 0.16934472334E+02 0.17163650290E+02
 0.17538590547E+02 0.18052204928E+02 0.18698895143E+02 0.19475340551E+02 0.20380429422E+02
 0.21416030482E+02 0.22588978446E+02 0.23911997990E+02 0.25400051855E+02 0.27060712762E+02
 0.28881553954E+02 0.30820723937E+02 0.32805998665E+02 0.34743274953E+02 0.36531229572E+02
 0.38077831316E+02 0.39316122534E+02 0.40217732523E+02 0.40800613209E+02 0.41124785434E+02
 0.41271723341E+02 0.41311496198E+02 0.41271723341E+02 0.41124785434E+02 0.40800613209E+02
 0.40217732523E+02 0.39316122534E+02 0.38077831316E+02 0.36531229572E+02 0.34743274953E+02
 0.32805998665E+02 0.30820723937E+02 0.28881553954E+02 0.27060712762E+02 0.25400051855E+02
 0.23911997990E+02 0.22588978446E+02 0.21416030482E+02 0.20380429422E+02 0.19475340551E+02
 0.18698895143E+02 0.18052204928E+02 0.17538590547E+02 0.17163650290E+02 0.16934472334E+02
 0.13351116203E+02 0.13436755704E+02 0.13693801749E+02 0.14123359232E+02 0.14728989634E+02
 0.15517491155E+02 0.16498193894E+02 0.17681715085E+02 0.19080119821E+02 0.20709020141E+02
 0.22588978446E+02 0.24741739318E+02 0.27178869830E+02 0.29885481844E+02 0.32805998665E+02
 0.35839052591E+02 0.38844659332E+02 0.41662115928E+02 0.44134907078E+02 0.46139181377E+02
 0.47611549611E+02 0.48567639619E+02 0.49098682670E+02 0.49337573023E+02 0.49401632371E+02
 0.49337573023E+02 0.49098682670E+02 0.48567639619E+02 0.47611549611E+02 0.46139181377E+02
 0.44134907078E+02 0.41662115928E+02 0.38844659332E+02 0.35839052591E+02 0.32805998665E+02
 0.29885481844E+02 0.27178869830E+02 0.24741739318E+02 0.22588978446E+02 0.20709020141E+02
 0.19080119821E+02 0.17681715085E+02 0.16498193894E+02 0.15517491155E+02 0.14728989634E+02
 0.14123359232E+02 0.13693801749E+02 0.13436755704E+02 0.10636029401E+02 0.10724329205E+02
 0.10991468213E+02 0.11444503524E+02 0.12095988006E+02 0.12964024023E+02 0.14070877544E+02
 0.15440965919E+02 0.17100559398E+02 0.19080119821E+02 0.21416030482E+02 0.24145837763E+02
 0.27293633178E+02 0.30848397954E+02 0.34743274953E+02 0.38844659332E+02 0.42956987809E+02
 0.46844465613E+02 0.50267254719E+02 0.53027621623E+02 0.55018404868E+02 0.56256203467E+02
 0.56855227322E+02 0.57041572092E+02 0.57067522825E+02 0.57041572092E+02 0.56855227322E+02
 0.56256203467E+02 0.55018404868E+02 0.53027621623E+02 0.50267254719E+02 0.46844465613E+02
 0.42956987809E+02 0.38844659332E+02 0.34743274953E+02 0.30848397954E+02 0.27293633178E+02
 0.24145837763E+02 0.21416030482E+02 0.19080119821E+02 0.17100559398E+02 0.15440965919E+02
 0.14070877544E+02 0.12964024023E+02 0.12095988006E+02 0.11444503524E+02 0.10991468213E+02
 0.10724329205E+02 0.85421760526E+01 0.86299575050E+01 0.88972355674E+01 0.93557280866E+01
 0.10024975962E+02 0.10932295996E+02 0.12111467335E+02 0.13600437715E+02 0.15440965919E+02
 0.17681715085E+02 0.20380429422E+02 0.23597303321E+02 0.27375494250E+02 0.31712464663E+02
 0.36531229572E+02 0.41662115928E+02 0.46844465613E+02 0.51753432409E+02 0.56050490975E+02
 0.59450434579E+02 0.61700888305E+02 0.62666729012E+02 0.62643664093E+02 0.62232927862E+02
 0.62016369843E+02 0.62232927862E+02 0.62643664093E+02 0.62666729012E+02 0.61700888305E+02
 0.59450434579E+02 0.56050490975E+02 0.51753432409E+02 0.46844465613E+02 0.41662115928E+02
 0.36531229572E+02 0.31712464663E+02 0.27375494250E+02 0.23597303321E+02 0.20380429422E+02
 0.17681715085E+02 0.15440965919E+02 0.13600437715E+02 0.12111467335E+02 0.10932295996E+02
 0.10024975962E+02 0.93557280866E+01 0.88972355674E+01 0.86299575050E+01 0.69398843998E+01
 0.70256738237E+01 0.72883158775E+01 0.77430216597E+01 0.84143274218E+01 0.93363566306E+01
 0.10552144848E+02 0.12111467335E+02 0.14070877544E+02 0.16498193894E+02 0.19475340551E+02
 0.23089043409E+02 0.27405002813E+02 0.32430794448E+02 0.38077831316E+02 0.44134907078E+02
 0.50267254719E+02 0.56050490975E+02 0.61032411575E+02 0.64590295311E+02 0.66096966632E+02
 0.65585335216E+02 0.63826783966E+02 0.62029177106E+02 0.61283953581E+02 0.62029177106E+02
 0.63826783966E+02 0.65585335216E+02 0.66096966632E+02 0.64590295311E+02 0.61032411575E+02
 0.56050490975E+02 0.50267254719E+02 0.44134907078E+02 0.38077831316E+02 0.32430794448E+02
 0.27405002813E+02 0.23089043409E+02 0.19475340551E+02 0.16498193894E+02 0.14070877544E+02
 0.12111467335E+02 0.10552144848E+02 0.93363566306E+01 0.84143274218E+01 0.77430216597E+01
 0.72883158775E+01 0.70256738237E+01 0.57344001447E+01 0.58175600997E+01 0.60733920439E+01
 0.65197411512E+01 0.71846119819E+01 0.81068534521E+01 0.93363566306E+01 0.10932295996E+02
 0.12964024023E+02 0.15517491155E+02 0.18698895143E+02 0.22622123702E+02 0.27375494250E+02
 0.32975010675E+02 0.39316122534E+02 0.46139181377E+02 0.53027621623E+02 0.59450434579E+02
 0.64590295311E+02 0.67199019977E+02 0.66606186099E+02 0.63205146178E+02 0.58456058105E+02
 0.54398890037E+02 0.52811575759E+02 0.54398890037E+02 0.58456058105E+02 0.63205146178E+02
 0.66606186099E+02 0.67199019977E+02 0.64590295311E+02 0.59450434579E+02 0.53027621623E+02
 0.46139181377E+02 0.39316122534E+02 0.32975010675E+02 0.27375494250E+02 0.22622123702E+02
 0.18698895143E+02 0.15517491155E+02 0.12964024023E+02 0.10932295996E+02 0.93363566306E+01
 0.81068534521E+01 0.71846119819E+01 0.65197411512E+01 0.60733920439E+01 0.58175600997E+01
 0.48518779007E+01 0.49321102842E+01 0.51800833127E+01 0.56158207947E+01 0.62699573932E+01
 0.71846119819E+01 0.84143274218E+01 0.10024975962E+02 0.12095988006E+02 0.14728989634E+02
 0.18052204928E+02 0.22204387076E+02 0.27293633178E+02 0.33340215713E+02 0.40217732523E+02
 0.47611549611E+02 0.55018404868E+02 0.61700888305E+02 0.66096966632E+02 0.66606186099E+02
 0.62639779725E+02 0.55086175083E+02 0.46259387817E+02 0.39201394720E+02 0.36508232723E+02
 0.39201394720E+02 0.46259387817E+02 0.55086175083E+02 0.62639779725E+02 0.66606186099E+02
 0.66096966632E+02 0.61700888305E+02 0.55018404868E+02 0.47611549611E+02 0.40217732523E+02
 0.33340215713E+02 0.27293633178E+02 0.22204387076E+02 0.18052204928E+02 0.14728989634E+02
 0.12095988006E+02 0.10024975962E+02 0.84143274218E+01 0.71846119819E+01 0.62699573932E+01
 0.56158207947E+01 0.51800833127E+01 0.49321102842E+01 0.42321391383E+01 0.43094245053E+01
 0.45493505997E+01 0.49738542295E+01 0.56158207947E+01 0.65197411512E+01 0.77430216597E+01
 0.93557280866E+01 0.11444503524E+02 0.14123359232E+02 0.17538590547E+02 0.21849351691E+02
 0.27178869830E+02 0.33546893099E+02 0.40800613209E+02 0.48567639619E+02 0.56256203467E+02
 0.62666729012E+02 0.65585335216E+02 0.63205146178E+02 0.55086175083E+02 0.42679151594E+02
 0.29216231600E+02 0.18796786972E+02 0.14873033401E+02 0.18796786972E+02 0.29216231600E+02
 0.42679151594E+02 0.55086175083E+02 0.63205146178E+02 0.65585335216E+02 0.62666729012E+02
 0.56256203467E+02 0.48567639619E+02 0.40800613209E+02 0.33546893099E+02 0.27178869830E+02
 0.21849351691E+02 0.17538590547E+02 0.14123359232E+02 0.11444503524E+02 0.93557280866E+01
 0.77430216597E+01 0.65197411512E+01 0.56158207947E+01 0.49738542295E+01 0.45493505997E+01
 0.43094245053E+01 0.38273715184E+01 0.39020998812E+01 0.41349430699E+01 0.45493505997E+01
 0.51800833127E+01 0.60733920439E+01 0.72883158775E+01 0.88972355674E+01 0.10991468213E+02
 0.13693801749E+02 0.17163650290E+02 0.21574884302E+02 0.27060712762E+02 0.33637067953E+02
 0.41124785434E+02 0.49098682670E+02 0.56855227322E+02 0.62643664093E+02 0.63826783966E+02
 0.58456058105E+02 0.46259387817E+02 0.29216231600E+02 0.11394761601E+02 -.21561824882E+01
 -.72215160798E+01 -.21561824882E+01 0.11394761601E+02 0.29216231600E+02 0.46259387817E+02
 0.58456058105E+02 0.63826783966E+02 0.62643664093E+02 0.56855227322E+02 0.49098682670E+02
 0.41124785434E+02 0.33637067953E+02 0.27060712762E+02 0.21574884302E+02 0.17163650290E+02
 0.13693801749E+02 0.10991468213E+02 0.88972355674E+01 0.72883158775E+01 0.60733920439E+01
 0.51800833127E+01 0.45493505997E+01 0.41349430699E+01 0.39020998812E+01 0.36011238238E+01
 0.36741220493E+01 0.39020998812E+01 0.43094245053E+01 0.49321102842E+01 0.58175600997E+01
 0.70256738237E+01 0.86299575050E+01 0.10724329205E+02 0.13436755704E+02 0.16934472334E+02
 0.21400045943E+02 0.26972064253E+02 0.33662262428E+02 0.41271723341E+02 0.49337573023E+02
 0.57041572092E+02 0.62232927862E+02 0.62029177106E+02 0.54398890037E+02 0.39201394720E+02
 0.18796786972E+02 -.21561824882E+01 -.17944683146E+02 -.23823563062E+02 -.17944683146E+02
 -.21561824882E+01 0.18796786972E+02 0.39201394720E+02 0.54398890037E+02 0.62029177106E+02
 0.62232927862E+02 0.57041572092E+02 0.49337573023E+02 0.41271723341E+02 0.33662262428E+02
 0.26972064253E+02 0.21400045943E+02 0.16934472334E+02 0.13436755704E+02 0.10724329205E+02
 0.86299575050E+01 0.70256738237E+01 0.58175600997E+01 0.49321102842E+01 0.43094245053E+01
 0.39020998812E+01 0.36741220493E+01 0.35287342993E+01 0.36011238238E+01 0.38273715184E+01
 0.42321391383E+01 0.48518779007E+01 0.57344001447E+01 0.69398843998E+01 0.85421760526E+01
 0.10636029401E+02 0.13351116203E+02 0.16857251511E+02 0.21339852379E+02 0.26939161974E+02
 0.33665133949E+02 0.41311496198E+02 0.49401632371E+02 0.57067522825E+02 0.62016369843E+02
 0.61283953581E+02 0.52811575759E+02 0.36508232723E+02 0.14873033401E+02 -.72215160798E+01
 -.23823563062E+02 -.29997855465E+02 -.23823563062E+02 -.72215160798E+01 0.14873033401E+02
 0.36508232723E+02 0.52811575759E+02 0.61283953581E+02 0.62016369843E+02 0.57067522825E+02
 0.49401632371E+02 0.41311496198E+02 0.33665133949E+02 0.26939161974E+02 0.21339852379E+02
 0.16857251511E+02 0.13351116203E+02 0.10636029401E+02 0.85421760526E+01 0.69398843998E+01
 0.57344001447E+01 0.48518779007E+01 0.42321391383E+01 0.38273715184E+01 0.36011238238E+01
 0.36011238238E+01 0.36741220493E+01 0.39020998812E+01 0.43094245053E+01 0.49321102842E+01
 0.58175600997E+01 0.70256738237E+01 0.86299575050E+01 0.10724329205E+02 0.13436755704E+02
 0.16934472334E+02 0.21400045943E+02 0.26972064253E+02 0.33662262428E+02 0.41271723341E+02
 0.49337573023E+02 0.57041572092E+02 0.62232927862E+02 0.62029177106E+02 0.54398890037E+02
 0.39201394720E+02 0.18796786972E+02 -.21561824882E+01 -.17944683146E+02 -.23823563062E+02
 -.17944683146E+02 -.21561824882E+01 0.18796786972E+02 0.39201394720E+02 0.54398890037E+02
 0.62029177106E+02 0.62232927862E+02 0.57041572092E+02 0.49337573023E+02 0.41271723341E+02
 0.33662262428E+02 0.26972064253E+02 0.21400045943E+02 0.16934472334E+02 0.13436755704E+02
 0.10724329205E+02 0.86299575050E+01 0.70256738237E+01 0.58175600997E+01 0.49321102842E+01
 0.43094245053E+01 0.39020998812E+01 0.36741220493E+01 0.38273715184E+01 0.39020998812E+01
 0.41349430699E+01 0.45493505997E+01 0.51800833127E+01 0.60733920439E+01 0.72883158775E+01
 0.88972355674E+01 0.10991468213E+02 0.13693801749E+02 0.17163650290E+02 0.21574884302E+02
 0.27060712762E+02 0.33637067953E+02 0.41124785434E+02 0.49098682670E+02 0.56855227322E+02
 0.62643664093E+02 0.63826783966E+02 0.58456058105E+02 0.46259387817E+02 0.29216231600E+02
 0.11394761601E+02 -.21561824882E+01 -.72215160798E+01 -.21561824882E+01 0.11394761601E+02
 0.29216231600E+02 0.46259387817E+02 0.58456058105E+02 0.63826783966E+02 0.62643664093E+02
 0.56855227322E+02 0.49098682670E+02 0.41124785434E+02 0.33637067953E+02 0.27060712762E+02
 0.21574884302E+02 0.17163650290E+02 0.13693801749E+02 0.10991468213E+02 0.88972355674E+01
 0.72883158775E+01 0.60733920439E+01 0.51800833127E+01 0.45493505997E+01 0.41349430699E+01
 0.39020998812E+01 0.42321391383E+01 0.43094245053E+01 0.45493505997E+01 0.49738542295E+01
 0.56158207947E+01 0.65197411512E+01 0.77430216597E+01 0.93557280866E+01 0.11444503524E+02
 0.14123359232E+02 0.17538590547E+02 0.21849351691E+02 0.27178869830E+02 0.33546893099E+02
 0.40800613209E+02 0.48567639619E+02 0.56256203467E+02 0.62666729012E+02 0.65585335216E+02
 0.63205146178E+02 0.55086175083E+02 0.42679151594E+02 0.29216231600E+02 0.18796786972E+02
 0.14873033401E+02 0.18796786972E+02 0.29216231600E+02 0.42679151594E+02 0.55086175083E+02
 0.63205146178E+02 0.65585335216E+02 0.62666729012E+02 0.56256203467E+02 0.48567639619E+02
 0.40800613209E+02 0.33546893099E+02 0.27178869830E+02 0.21849351691E+02 0.17538590547E+02
 0.14123359232E+02 0.11444503524E+02 0.93557280866E+01 0.77430216597E+01 0.65197411512E+01
 0.56158207947E+01 0.49738542295E+01 0.45493505997E+01 0.43094245053E+01 0.48518779007E+01
 0.49321102842E+01 0.51800833127E+01 0.56158207947E+01 0.62699573932E+01 0.71846119819E+01
 0.84143274218E+01 0.10024975962E+02 0.12095988006E+02 0.14728989634E+02 0.18052204928E+02
 0.22204387076E+02 0.27293633178E+02 0.33340215713E+02 0.40217732523E+02 0.47611549611E+02
 0.55018404868E+02 0.61700888305E+02 0.66096966632E+02 0.66606186099E+02 0.62639779725E+02
 0.55086175083E+02 0.46259387817E+02 0.39201394720E+02 0.36508232723E+02 0.39201394720E+02
 0.46259387817E+02 0.55086175083E+02 0.62639779725E+02 0.66606186099E+02 0.66096966632E+02
 0.61700888305E+02 0.55018404868E+02 0.47611549611E+02 0.40217732523E+02 0.33340215713E+02
 0.27293633178E+02 0.22204387076E+02 0.18052204928E+02 0.14728989634E+02 0.12095988006E+02
 0.10024975962E+02 0.84143274218E+01 0.71846119819E+01 0.62699573932E+01 0.56158207947E+01
 0.51800833127E+01 0.49321102842E+01 0.57344001447E+01 0.58175600997E+01 0.60733920439E+01
 0.65197411512E+01 0.71846119819E+01 0.81068534521E+01 0.93363566306E+01 0.10932295996E+02
 0.12964024023E+02 0.15517491155E+02 0.18698895143E+02 0.22622123702E+02 0.27375494250E+02
 0.32975010675E+02 0.39316122534E+02 0.46139181377E+02 0.53027621623E+02 0.59450434579E+02
 0.64590295311E+02 0.67199019977E+02 0.66606186099E+02 0.63205146178E+02 0.58456058105E+02
 0.54398890037E+02 0.52811575759E+02 0.54398890037E+02 0.58456058105E+02 0.63205146178E+02
 0.66606186099E+02 0.67199019977E+02 0.64590295311E+02 0.59450434579E+02 0.53027621623E+02
 0.46139181377E+02 0.39316122534E+02 0.32975010675E+02 0.27375494250E+02 0.22622123702E+02
 0.18698895143E+02 0.15517491155E+02 0.12964024023E+02 0.10932295996E+02 0.93363566306E+01
 0.81068534521E+01 0.71846119819E+01 0.65197411512E+01 0.60733920439E+01 0.58175600997E+01
 0.69398843998E+01 0.70256738237E+01 0.72883158775E+01 0.77430216597E+01 0.84143274218E+01
 0.93363566306E+01 0.10552144848E+02 0.12111467335E+02 0.14070877544E+02 0.16498193894E+02
 0.19475340551E+02 0.23089043409E+02 0.27405002813E+02 0.32430794448E+02 0.38077831316E+02
 0.44134907078E+02 0.50267254719E+02 0.56050490975E+02 0.61032411575E+02 0.64590295311E+02
 0.66096966632E+02 0.65585335216E+02 0.63826783966E+02 0.62029177106E+02 0.61283953581E+02
 0.62029177106E+02 0.63826783966E+02 0.65585335216E+02 0.66096966632E+02 0.64590295311E+02
 0.61032411575E+02 0.56050490975E+02 0.50267254719E+02 0.44134907078E+02 0.38077831316E+02
 0.32430794448E+02 0.27405002813E+02 0.23089043409E+02 0.19475340551E+02 0.16498193894E+02
 0.14070877544E+02 0.12111467335E+02 0.10552144848E+02 0.93363566306E+01 0.84143274218E+01
 0.77430216597E+01 0.72883158775E+01 0.70256738237E+01 0.85421760526E+01 0.86299575050E+01
 0.88972355674E+01 0.93557280866E+01 0.10024975962E+02 0.10932295996E+02 0.12111467335E+02
 0.13600437715E+02 0.15440965919E+02 0.17681715085E+02 0.20380429422E+02 0.23597303321E+02
 0.27375494250E+02 0.31712464663E+02 0.36531229572E+02 0.41662115928E+02 0.46844465613E+02
 0.51753432409E+02 0.56050490975E+02 0.59450434579E+02 0.61700888305E+02 0.62666729012E+02
 0.62643664093E+02 0.62232927862E+02 0.62016369843E+02 0.62232927862E+02 0.62643664093E+02
 0.62666729012E+02 0.61700888305E+02 0.59450434579E+02 0.56050490975E+02 0.51753432409E+02
 0.46844465613E+02 0.41662115928E+02 0.36531229572E+02 0.31712464663E+02 0.27375494250E+02
 0.23597303321E+02 0.20380429422E+02 0.17681715085E+02 0.15440965919E+02 0.13600437715E+02
 0.12111467335E+02 0.10932295996E+02 0.10024975962E+02 0.93557280866E+01 0.88972355674E+01
 0.86299575050E+01 0.10636029401E+02 0.10724329205E+02 0.10991468213E+02 0.11444503524E+02
 0.12095988006E+02 0.12964024023E+02 0.14070877544E+02 0.15440965919E+02 0.17100559398E+02
 0.19080119821E+02 0.21416030482E+02 0.24145837763E+02 0.27293633178E+02 0.30848397954E+02
 0.34743274953E+02 0.38844659332E+02 0.42956987809E+02 0.46844465613E+02 0.50267254719E+02
 0.53027621623E+02 0.55018404868E+02 0.56256203467E+02 0.56855227322E+02 0.57041572092E+02
 0.57067522825E+02 0.57041572092E+02 0.56855227322E+02 0.56256203467E+02 0.55018404868E+02
 0.53027621623E+02 0.50267254719E+02 0.46844465613E+02 0.42956987809E+02 0.38844659332E+02
 0.34743274953E+02 0.30848397954E+02 0.27293633178E+02 0.24145837763E+02 0.21416030482E+02
 0.19080119821E+02 0.17100559398E+02 0.15440965919E+02 0.14070877544E+02 0.12964024023E+02
 0.12095988006E+02 0.11444503524E+02 0.10991468213E+02 0.10724329205E+02 0.13351116203E+02
 0.13436755704E+02 0.13693801749E+02 0.14123359232E+02 0.14728989634E+02 0.15517491155E+02
 0.16498193894E+02 0.17681715085E+02 0.19080119821E+02 0.20709020141E+02 0.22588978446E+02
 0.24741739318E+02 0.27178869830E+02 0.29885481844E+02 0.32805998665E+02 0.35839052591E+02
 0.38844659332E+02 0.41662115928E+02 0.44134907078E+02 0.46139181377E+02 0.47611549611E+02
 0.48567639619E+02 0.49098682670E+02 0.49337573023E+02 0.49401632371E+02 0.49337573023E+02
 0.49098682670E+02 0.48567639619E+02 0.47611549611E+02 0.46139181377E+02 0.44134907078E+02
 0.41662115928E+02 0.38844659332E+02 0.35839052591E+02 0.32805998665E+02 0.29885481844E+02