   8   8   0   0
  0.2001288E+02  0.5430000E-09  0.5430000E-09  0.5430000E-09  0.5000000E-15
  1.000000000000000E-004
  CAR 
 Si                                      
     12.62901540     -8.13051461  301      5.85621873      1.00000000
     -8.131  0.0000E+00  0.0000E+00
     -8.061  0.0000E+00  0.0000E+00
     -7.992  0.0000E+00  0.0000E+00
     -7.923  0.0000E+00  0.0000E+00
     -7.854  0.0000E+00  0.0000E+00
     -7.785  0.0000E+00  0.0000E+00
     -7.715  0.0000E+00  0.0000E+00
     -7.646  0.0000E+00  0.0000E+00
     -7.577  0.0000E+00  0.0000E+00
     -7.508  0.0000E+00  0.0000E+00
     -7.439  0.0000E+00  0.0000E+00
     -7.369  0.0000E+00  0.0000E+00
     -7.300  0.0000E+00  0.0000E+00
     -7.231  0.0000E+00  0.0000E+00
     -7.162  0.0000E+00  0.0000E+00
     -7.093  0.0000E+00  0.0000E+00
     -7.023  0.0000E+00  0.0000E+00
     -6.954  0.0000E+00  0.0000E+00
     -6.885  0.0000E+00  0.0000E+00
     -6.816  0.0000E+00  0.0000E+00
     -6.747  0.0000E+00  0.0000E+00
     -6.677  0.0000E+00  0.0000E+00
     -6.608  0.0000E+00  0.0000E+00
     -6.539  0.0000E+00  0.0000E+00
     -6.470  0.0000E+00  0.0000E+00
     -6.401  0.0000E+00  0.0000E+00
     -6.331  0.0000E+00  0.0000E+00
     -6.262  0.0000E+00  0.0000E+00
     -6.193  0.0000E+00  0.0000E+00
     -6.124  0.4373E-02  0.9845E-05
     -6.055  0.3542E+00  0.1187E-01
     -5.985  0.4693E+00  0.3926E-01
     -5.916  0.6286E+00  0.7836E-01
     -5.847  0.6996E+00  0.1237E+00
     -5.778  0.8005E+00  0.1756E+00
     -5.709  0.9076E+00  0.2349E+00
     -5.639  0.9630E+00  0.2994E+00
     -5.570  0.1029E+01  0.3684E+00
     -5.501  0.1106E+01  0.4421E+00
     -5.432  0.1193E+01  0.5216E+00
     -5.363  0.1245E+01  0.6062E+00
     -5.293  0.1301E+01  0.6943E+00
     -5.224  0.1360E+01  0.7863E+00
     -5.155  0.1427E+01  0.8828E+00
     -5.086  0.1495E+01  0.9839E+00
     -5.017  0.1563E+01  0.1090E+01
     -4.947  0.1614E+01  0.1200E+01
     -4.878  0.1669E+01  0.1313E+01
     -4.809  0.1726E+01  0.1431E+01
     -4.740  0.1788E+01  0.1552E+01
     -4.671  0.1858E+01  0.1678E+01
     -4.601  0.1932E+01  0.1809E+01
     -4.532  0.1999E+01  0.1946E+01
     -4.463  0.2061E+01  0.2086E+01
     -4.394  0.2241E+01  0.2233E+01
     -4.325  0.2357E+01  0.2392E+01
     -4.255  0.2418E+01  0.2558E+01
     -4.186  0.2597E+01  0.2732E+01
     -4.117  0.2601E+01  0.2913E+01
     -4.048  0.2525E+01  0.3090E+01
     -3.979  0.2478E+01  0.3263E+01
     -3.909  0.2528E+01  0.3436E+01
     -3.840  0.2927E+01  0.3625E+01
     -3.771  0.3661E+01  0.3854E+01
     -3.702  0.3820E+01  0.4116E+01
     -3.633  0.3230E+01  0.4353E+01
     -3.563  0.3486E+01  0.4585E+01
     -3.494  0.3618E+01  0.4840E+01
     -3.425  0.2919E+01  0.5055E+01
     -3.356  0.3070E+01  0.5258E+01
     -3.287  0.2823E+01  0.5463E+01
     -3.217  0.2971E+01  0.5662E+01
     -3.148  0.3321E+01  0.5882E+01
     -3.079  0.2648E+01  0.6083E+01
     -3.010  0.2425E+01  0.6258E+01
     -2.941  0.2318E+01  0.6422E+01
     -2.871  0.2210E+01  0.6578E+01
     -2.802  0.2115E+01  0.6728E+01
     -2.733  0.2064E+01  0.6872E+01
     -2.664  0.2536E+01  0.7034E+01
     -2.595  0.2250E+01  0.7216E+01
     -2.525  0.1936E+01  0.7360E+01
     -2.456  0.1680E+01  0.7485E+01
     -2.387  0.1464E+01  0.7594E+01
     -2.318  0.1261E+01  0.7688E+01
     -2.249  0.1067E+01  0.7768E+01
     -2.179  0.8930E+00  0.7836E+01
     -2.110  0.7345E+00  0.7892E+01
     -2.041  0.6856E+00  0.7940E+01
     -1.972  0.4810E+00  0.7987E+01
     -1.903  0.3157E+00  0.8011E+01
     -1.833  0.3273E+00  0.8033E+01
     -1.764  0.4710E+00  0.8060E+01
     -1.695  0.6161E+00  0.8098E+01
     -1.626  0.7622E+00  0.8145E+01
     -1.557  0.9100E+00  0.8203E+01
     -1.487  0.1077E+01  0.8272E+01
     -1.418  0.1269E+01  0.8353E+01
     -1.349  0.1505E+01  0.8448E+01
     -1.280  0.1850E+01  0.8564E+01
     -1.211  0.2535E+01  0.8711E+01
     -1.141  0.2469E+01  0.8940E+01
     -1.072  0.3330E+01  0.9125E+01
     -1.003  0.4570E+01  0.9391E+01
     -0.934  0.7558E+01  0.9797E+01
     -0.865  0.5394E+01  0.1025E+02
     -0.795  0.4446E+01  0.1059E+02
     -0.726  0.3795E+01  0.1087E+02
     -0.657  0.3423E+01  0.1112E+02
     -0.588  0.3261E+01  0.1135E+02
     -0.519  0.3010E+01  0.1157E+02
     -0.449  0.2741E+01  0.1177E+02
     -0.380  0.2652E+01  0.1196E+02
     -0.311  0.2324E+01  0.1212E+02
     -0.242  0.2252E+01  0.1228E+02
     -0.173  0.2153E+01  0.1243E+02
     -0.103  0.2033E+01  0.1258E+02
     -0.034  0.1898E+01  0.1272E+02
      0.035  0.1795E+01  0.1284E+02
      0.104  0.1734E+01  0.1296E+02
      0.173  0.1693E+01  0.1308E+02
      0.242  0.1657E+01  0.1320E+02
      0.312  0.1572E+01  0.1331E+02
      0.381  0.1548E+01  0.1342E+02
      0.450  0.1536E+01  0.1353E+02
      0.519  0.1512E+01  0.1363E+02
      0.588  0.1457E+01  0.1373E+02
      0.658  0.1378E+01  0.1383E+02
      0.727  0.1299E+01  0.1392E+02
      0.796  0.1240E+01  0.1401E+02
      0.865  0.1196E+01  0.1410E+02
      0.934  0.1165E+01  0.1418E+02
      1.004  0.1138E+01  0.1426E+02
      1.073  0.1118E+01  0.1434E+02
      1.142  0.1121E+01  0.1441E+02
      1.211  0.1152E+01  0.1449E+02
      1.280  0.1216E+01  0.1457E+02
      1.350  0.1298E+01  0.1466E+02
      1.419  0.1373E+01  0.1475E+02
      1.488  0.1942E+01  0.1486E+02
      1.557  0.2583E+01  0.1502E+02
      1.626  0.3065E+01  0.1523E+02
      1.696  0.3063E+01  0.1543E+02
      1.765  0.3716E+01  0.1566E+02
      1.834  0.4704E+01  0.1596E+02
      1.903  0.4695E+01  0.1629E+02
      1.972  0.4642E+01  0.1661E+02
      2.042  0.5198E+01  0.1694E+02
      2.111  0.4744E+01  0.1728E+02
      2.180  0.4110E+01  0.1759E+02
      2.249  0.3969E+01  0.1787E+02
      2.318  0.3848E+01  0.1814E+02
      2.388  0.3833E+01  0.1840E+02
      2.457  0.4078E+01  0.1867E+02
      2.526  0.4438E+01  0.1897E+02
      2.595  0.5009E+01  0.1929E+02
      2.664  0.5388E+01  0.1965E+02
      2.734  0.5185E+01  0.2003E+02
      2.803  0.4893E+01  0.2037E+02
      2.872  0.5233E+01  0.2073E+02
      2.941  0.4783E+01  0.2105E+02
      3.010  0.6421E+01  0.2145E+02
      3.080  0.6570E+01  0.2192E+02
      3.149  0.4793E+01  0.2231E+02
      3.218  0.4816E+01  0.2263E+02
      3.287  0.6846E+01  0.2301E+02
      3.356  0.6093E+01  0.2347E+02
      3.426  0.5569E+01  0.2385E+02
      3.495  0.5289E+01  0.2422E+02
      3.564  0.5487E+01  0.2459E+02
      3.633  0.6416E+01  0.2500E+02
      3.702  0.6718E+01  0.2547E+02
      3.772  0.5326E+01  0.2589E+02
      3.841  0.4387E+01  0.2623E+02
      3.910  0.4234E+01  0.2652E+02
      3.979  0.4290E+01  0.2681E+02
      4.048  0.4825E+01  0.2713E+02
      4.118  0.5401E+01  0.2748E+02
      4.187  0.5468E+01  0.2785E+02
      4.256  0.5221E+01  0.2822E+02
      4.325  0.4901E+01  0.2857E+02
      4.394  0.4841E+01  0.2891E+02
      4.464  0.4448E+01  0.2923E+02
      4.533  0.4418E+01  0.2953E+02
      4.602  0.6252E+01  0.2993E+02
      4.671  0.3423E+01  0.3022E+02
      4.740  0.3084E+01  0.3045E+02
      4.810  0.2841E+01  0.3065E+02
      4.879  0.2450E+01  0.3083E+02
      4.948  0.2225E+01  0.3100E+02
      5.017  0.2165E+01  0.3115E+02
      5.086  0.1783E+01  0.3128E+02
      5.156  0.1735E+01  0.3141E+02
      5.225  0.1505E+01  0.3152E+02
      5.294  0.1340E+01  0.3161E+02
      5.363  0.1231E+01  0.3170E+02
      5.432  0.9361E+00  0.3178E+02
      5.502  0.1100E+01  0.3184E+02
      5.571  0.8402E+00  0.3191E+02
      5.640  0.4549E+00  0.3195E+02
      5.709  0.3449E+00  0.3198E+02
      5.778  0.1037E+00  0.3200E+02
      5.848  0.0000E+00  0.3200E+02
      5.917  0.0000E+00  0.3200E+02
      5.986  0.0000E+00  0.3200E+02
      6.055  0.0000E+00  0.3200E+02
      6.124  0.0000E+00  0.3200E+02
      6.194  0.0000E+00  0.3200E+02
      6.263  0.0000E+00  0.3200E+02
      6.332  0.0000E+00  0.3200E+02
      6.401  0.0000E+00  0.3200E+02
      6.470  0.1390E+00  0.3200E+02
      6.540  0.3250E+00  0.3202E+02
      6.609  0.5216E+00  0.3205E+02
      6.678  0.1311E+01  0.3211E+02
      6.747  0.1313E+01  0.3220E+02
      6.816  0.1305E+01  0.3229E+02
      6.886  0.1339E+01  0.3238E+02
      6.955  0.1425E+01  0.3248E+02
      7.024  0.1649E+01  0.3258E+02
      7.093  0.1836E+01  0.3270E+02
      7.162  0.1957E+01  0.3283E+02
      7.232  0.2180E+01  0.3298E+02
      7.301  0.2825E+01  0.3315E+02
      7.370  0.2724E+01  0.3334E+02
      7.439  0.2840E+01  0.3353E+02
      7.508  0.3120E+01  0.3374E+02
      7.578  0.3531E+01  0.3397E+02
      7.647  0.3810E+01  0.3424E+02
      7.716  0.3932E+01  0.3450E+02
      7.785  0.4296E+01  0.3478E+02
      7.854  0.4614E+01  0.3509E+02
      7.924  0.4805E+01  0.3542E+02
      7.993  0.5959E+01  0.3578E+02
      8.062  0.6028E+01  0.3621E+02
      8.131  0.6145E+01  0.3663E+02
      8.200  0.6063E+01  0.3706E+02
      8.270  0.6794E+01  0.3749E+02
      8.339  0.5228E+01  0.3789E+02
      8.408  0.5009E+01  0.3825E+02
      8.477  0.4489E+01  0.3857E+02
      8.546  0.4371E+01  0.3888E+02
      8.616  0.3934E+01  0.3917E+02
      8.685  0.3718E+01  0.3943E+02
      8.754  0.3830E+01  0.3969E+02
      8.823  0.3582E+01  0.3995E+02
      8.892  0.3280E+01  0.4018E+02
      8.961  0.2862E+01  0.4040E+02
      9.031  0.1877E+01  0.4057E+02
      9.100  0.2708E+01  0.4071E+02
      9.169  0.7821E+01  0.4103E+02
      9.238  0.3319E+01  0.4139E+02
      9.307  0.1991E+01  0.4157E+02
      9.377  0.1605E+01  0.4169E+02
      9.446  0.1424E+01  0.4179E+02
      9.515  0.9388E+00  0.4187E+02
      9.584  0.5453E+00  0.4192E+02
      9.653  0.2943E+00  0.4195E+02
      9.723  0.1457E+00  0.4197E+02
      9.792  0.9543E-01  0.4197E+02
      9.861  0.7778E-01  0.4198E+02
      9.930  0.6253E-01  0.4199E+02
      9.999  0.4969E-01  0.4199E+02
     10.069  0.3926E-01  0.4199E+02
     10.138  0.3106E-01  0.4199E+02
     10.207  0.2384E-01  0.4200E+02
     10.276  0.1735E-01  0.4200E+02
     10.345  0.1158E-01  0.4200E+02
     10.415  0.6653E-02  0.4200E+02
     10.484  0.3051E-02  0.4200E+02
     10.553  0.8354E-03  0.4200E+02
     10.622  0.6607E-05  0.4200E+02
     10.691  0.0000E+00  0.4200E+02
     10.761  0.0000E+00  0.4200E+02
     10.830  0.0000E+00  0.4200E+02
     10.899  0.0000E+00  0.4200E+02
     10.968  0.0000E+00  0.4200E+02
     11.037  0.0000E+00  0.4200E+02
     11.107  0.0000E+00  0.4200E+02
     11.176  0.0000E+00  0.4200E+02
     11.245  0.0000E+00  0.4200E+02
     11.314  0.0000E+00  0.4200E+02
     11.383  0.0000E+00  0.4200E+02
     11.453  0.0000E+00  0.4200E+02
     11.522  0.0000E+00  0.4200E+02
     11.591  0.0000E+00  0.4200E+02
     11.660  0.0000E+00  0.4200E+02
     11.729  0.0000E+00  0.4200E+02
     11.799  0.0000E+00  0.4200E+02
     11.868  0.0000E+00  0.4200E+02
     11.937  0.0000E+00  0.4200E+02
     12.006  0.0000E+00  0.4200E+02
     12.075  0.0000E+00  0.4200E+02
     12.145  0.0000E+00  0.4200E+02
     12.214  0.0000E+00  0.4200E+02
     12.283  0.0000E+00  0.4200E+02
     12.352  0.0000E+00  0.4200E+02
     12.421  0.0000E+00  0.4200E+02
     12.491  0.0000E+00  0.4200E+02
     12.560  0.0000E+00  0.4200E+02
     12.629  0.0000E+00  0.4200E+02
