       N       E                     dE             d eps       ncg     rms          rms(c)
DAV:   1     0.507571726478E+02    0.50757E+02   -0.88256E+03  2352   0.796E+02
DAV:   2    -0.400657458907E+02   -0.90823E+02   -0.86140E+02  3247   0.138E+02
DAV:   3    -0.439990062813E+02   -0.39333E+01   -0.38860E+01  3022   0.288E+01
DAV:   4    -0.440710664365E+02   -0.72060E-01   -0.71832E-01  2951   0.461E+00
DAV:   5    -0.440726697037E+02   -0.16033E-02   -0.16024E-02  2924   0.619E-01    0.601E+00
DAV:   6    -0.435744726058E+02    0.49820E+00   -0.27719E-01  2712   0.229E+00    0.357E+00
DAV:   7    -0.433466995557E+02    0.22777E+00   -0.54617E-01  2641   0.332E+00    0.310E-01
DAV:   8    -0.433527884370E+02   -0.60889E-02   -0.28318E-02  2794   0.864E-01    0.611E-02
DAV:   9    -0.433531259906E+02   -0.33755E-03   -0.11906E-03  3047   0.181E-01    0.421E-02
DAV:  10    -0.433532485154E+02   -0.12252E-03   -0.27063E-04  2768   0.872E-02    0.975E-03
DAV:  11    -0.433532497138E+02   -0.11984E-05   -0.80516E-06  2867   0.130E-02    0.115E-03
DAV:  12    -0.433532498042E+02   -0.90443E-07   -0.65581E-07  2867   0.498E-03
   1 F= -.43353250E+02 E0= -.43353250E+02  d E =0.000000E+00
