<?xml version="1.0" encoding="ISO-8859-1"?>
<modeling>
 <generator>
  <i name="program" type="string">vasp </i>
  <i name="version" type="string">5.4.4.18Apr17-6-g9f103f2a35  </i>
  <i name="subversion" type="string">(build May 20 2018 16:52:39) complex            parallel </i>
  <i name="platform" type="string">LinuxIFC </i>
  <i name="date" type="string">2022 11 04 </i>
  <i name="time" type="string">18:17:54 </i>
 </generator>
 <incar>
  <i type="string" name="SYSTEM"> Si</i>
  <i type="string" name="PREC">normal</i>
  <i name="EDIFF">      0.00000010</i>
  <i name="ENCUT">    300.00000000</i>
  <i type="int" name="ISMEAR">    -5</i>
  <v type="int" name="KPOINT_BSE">    -1     0     0     0</v>
 </incar>
 <structure name="primitive_cell" >
  <crystal>
   <varray name="basis" >
    <v>       2.71500000       2.71500000       0.00000000 </v>
    <v>       2.71500000       0.00000000      -2.71500000 </v>
    <v>       0.00000000       2.71500000      -2.71500000 </v>
   </varray>
   <i name="volume">     40.02575175 </i>
   <varray name="rec_basis" >
    <v>       0.18416206       0.18416206       0.18416206 </v>
    <v>       0.18416206      -0.18416206      -0.18416206 </v>
    <v>      -0.18416206       0.18416206      -0.18416206 </v>
   </varray>
  </crystal>
  <varray name="positions" >
   <v>       0.00000000       0.00000000       0.00000000 </v>
   <v>      -0.25000000      -0.25000000      -0.25000000 </v>
  </varray>
 </structure>
 <varray name="primitive_index" >
  <v type="int" >        1 </v>
  <v type="int" >        5 </v>
 </varray>
 <kpoints>
  <generation param="Gamma">
   <v type="int" name="divisions">      10       10       10 </v>
   <v name="usershift">      0.00000000       0.00000000       0.00000000 </v>
   <v name="genvec1">      0.10000000       0.00000000       0.00000000 </v>
   <v name="genvec2">      0.00000000       0.10000000       0.00000000 </v>
   <v name="genvec3">      0.00000000       0.00000000       0.10000000 </v>
   <v name="shift">      0.00000000       0.00000000       0.00000000 </v>
  </generation>
  <varray name="kpointlist" >
   <v>       0.00000000       0.00000000       0.00000000 </v>
   <v>       0.10000000       0.00000000       0.00000000 </v>
   <v>       0.20000000       0.00000000       0.00000000 </v>
   <v>       0.30000000       0.00000000       0.00000000 </v>
   <v>       0.40000000       0.00000000       0.00000000 </v>
   <v>       0.50000000       0.00000000       0.00000000 </v>
   <v>       0.10000000       0.10000000       0.00000000 </v>
   <v>       0.20000000       0.10000000       0.00000000 </v>
   <v>       0.30000000       0.10000000       0.00000000 </v>
   <v>       0.40000000       0.10000000       0.00000000 </v>
   <v>       0.50000000       0.10000000       0.00000000 </v>
   <v>       0.20000000       0.20000000       0.00000000 </v>
   <v>       0.30000000       0.20000000       0.00000000 </v>
   <v>       0.40000000       0.20000000       0.00000000 </v>
   <v>       0.50000000       0.20000000       0.00000000 </v>
   <v>       0.30000000       0.30000000       0.00000000 </v>
   <v>       0.40000000       0.30000000       0.00000000 </v>
   <v>       0.50000000       0.30000000       0.00000000 </v>
   <v>       0.40000000       0.40000000       0.00000000 </v>
   <v>       0.50000000       0.40000000       0.00000000 </v>
   <v>       0.50000000       0.50000000       0.00000000 </v>
   <v>       0.10000000       0.10000000       0.10000000 </v>
   <v>       0.20000000       0.10000000       0.10000000 </v>
   <v>       0.30000000       0.10000000       0.10000000 </v>
   <v>       0.40000000       0.10000000       0.10000000 </v>
   <v>       0.50000000       0.10000000       0.10000000 </v>
   <v>       0.20000000       0.20000000       0.10000000 </v>
   <v>       0.30000000       0.20000000       0.10000000 </v>
   <v>       0.40000000       0.20000000       0.10000000 </v>
   <v>       0.50000000       0.20000000       0.10000000 </v>
   <v>       0.30000000       0.30000000       0.10000000 </v>
   <v>       0.40000000       0.30000000       0.10000000 </v>
   <v>       0.50000000       0.30000000       0.10000000 </v>
   <v>       0.40000000       0.40000000       0.10000000 </v>
   <v>       0.50000000       0.40000000       0.10000000 </v>
   <v>       0.50000000       0.50000000       0.10000000 </v>
   <v>       0.20000000       0.20000000       0.20000000 </v>
   <v>       0.30000000       0.20000000       0.20000000 </v>
   <v>       0.40000000       0.20000000       0.20000000 </v>
   <v>       0.50000000       0.20000000       0.20000000 </v>
   <v>       0.30000000       0.30000000       0.20000000 </v>
   <v>       0.40000000       0.30000000       0.20000000 </v>
   <v>       0.50000000       0.30000000       0.20000000 </v>
   <v>       0.40000000       0.40000000       0.20000000 </v>
   <v>       0.50000000       0.40000000       0.20000000 </v>
   <v>       0.50000000       0.50000000       0.20000000 </v>
   <v>       0.30000000       0.30000000       0.30000000 </v>
   <v>       0.40000000       0.30000000       0.30000000 </v>
   <v>       0.50000000       0.30000000       0.30000000 </v>
   <v>       0.40000000       0.40000000       0.30000000 </v>
   <v>       0.50000000       0.40000000       0.30000000 </v>
   <v>       0.50000000       0.50000000       0.30000000 </v>
   <v>       0.40000000       0.40000000       0.40000000 </v>
   <v>       0.50000000       0.40000000       0.40000000 </v>
   <v>       0.50000000       0.50000000       0.40000000 </v>
   <v>       0.50000000       0.50000000       0.50000000 </v>
  </varray>
  <varray name="weights" >
   <v>       0.00100000 </v>
   <v>       0.00600000 </v>
   <v>       0.00600000 </v>
   <v>       0.00600000 </v>
   <v>       0.00600000 </v>
   <v>       0.00300000 </v>
   <v>       0.01200000 </v>
   <v>       0.02400000 </v>
   <v>       0.02400000 </v>
   <v>       0.02400000 </v>
   <v>       0.01200000 </v>
   <v>       0.01200000 </v>
   <v>       0.02400000 </v>
   <v>       0.02400000 </v>
   <v>       0.01200000 </v>
   <v>       0.01200000 </v>
   <v>       0.02400000 </v>
   <v>       0.01200000 </v>
   <v>       0.01200000 </v>
   <v>       0.01200000 </v>
   <v>       0.00300000 </v>
   <v>       0.00800000 </v>
   <v>       0.02400000 </v>
   <v>       0.02400000 </v>
   <v>       0.02400000 </v>
   <v>       0.01200000 </v>
   <v>       0.02400000 </v>
   <v>       0.04800000 </v>
   <v>       0.04800000 </v>
   <v>       0.02400000 </v>
   <v>       0.02400000 </v>
   <v>       0.04800000 </v>
   <v>       0.02400000 </v>
   <v>       0.02400000 </v>
   <v>       0.02400000 </v>
   <v>       0.00600000 </v>
   <v>       0.00800000 </v>
   <v>       0.02400000 </v>
   <v>       0.02400000 </v>
   <v>       0.01200000 </v>
   <v>       0.02400000 </v>
   <v>       0.04800000 </v>
   <v>       0.02400000 </v>
   <v>       0.02400000 </v>
   <v>       0.02400000 </v>
   <v>       0.00600000 </v>
   <v>       0.00800000 </v>
   <v>       0.02400000 </v>
   <v>       0.01200000 </v>
   <v>       0.02400000 </v>
   <v>       0.02400000 </v>
   <v>       0.00600000 </v>
   <v>       0.00800000 </v>
   <v>       0.01200000 </v>
   <v>       0.00600000 </v>
   <v>       0.00100000 </v>
  </varray>
  <varray name="tetrahedronlist"  type="int" >
   <v type="int" >       12        1        2        2        7 </v>
   <v type="int" >       12        2        2        7        7 </v>
   <v type="int" >       12        2        7        7       22 </v>
   <v type="int" >       12        2        3        7        8 </v>
   <v type="int" >       12        2        7        7        8 </v>
   <v type="int" >       12        7        7        8       22 </v>
   <v type="int" >       12        3        7        8        8 </v>
   <v type="int" >       24        7        8        8       23 </v>
   <v type="int" >       24        7        8       22       23 </v>
   <v type="int" >       12        3        4        8        9 </v>
   <v type="int" >       12        3        8        8        9 </v>
   <v type="int" >       12        8        8        9       23 </v>
   <v type="int" >       12        4        8        9        9 </v>
   <v type="int" >       12        8        9        9       24 </v>
   <v type="int" >       12        8        9       23       24 </v>
   <v type="int" >       12        4        5        9       10 </v>
   <v type="int" >       12        4        9        9       10 </v>
   <v type="int" >       12        9        9       10       24 </v>
   <v type="int" >       12        5        9       10       10 </v>
   <v type="int" >       12        9       10       10       25 </v>
   <v type="int" >       12        9       10       24       25 </v>
   <v type="int" >       12        5        6       10       11 </v>
   <v type="int" >       12        5       10       10       11 </v>
   <v type="int" >       12       10       10       11       25 </v>
   <v type="int" >       12        6       10       11       11 </v>
   <v type="int" >       12       10       11       11       26 </v>
   <v type="int" >       12       10       11       25       26 </v>
   <v type="int" >       12        7        8       12       22 </v>
   <v type="int" >       12        8       12       22       23 </v>
   <v type="int" >       12       12       22       23       27 </v>
   <v type="int" >       12        8        9       13       23 </v>
   <v type="int" >       12        8       12       13       23 </v>
   <v type="int" >       12       12       13       23       27 </v>
   <v type="int" >       12        9       13       23       24 </v>
   <v type="int" >       12       13       23       24       28 </v>
   <v type="int" >       12       13       23       27       28 </v>
   <v type="int" >       12        9       10       14       24 </v>
   <v type="int" >       12        9       13       14       24 </v>
   <v type="int" >       12       13       14       24       28 </v>
   <v type="int" >       12       10       14       24       25 </v>
   <v type="int" >       12       14       24       25       29 </v>
   <v type="int" >       12       14       24       28       29 </v>
   <v type="int" >       12       10       11       15       25 </v>
   <v type="int" >       12       10       14       15       25 </v>
   <v type="int" >       12       14       15       25       29 </v>
   <v type="int" >       12       11       15       25       26 </v>
   <v type="int" >       12       15       25       26       30 </v>
   <v type="int" >       12       15       25       29       30 </v>
   <v type="int" >       12       10       11       14       26 </v>
   <v type="int" >       12       11       14       15       26 </v>
   <v type="int" >       12       14       15       26       30 </v>
   <v type="int" >       12       10       14       25       26 </v>
   <v type="int" >       12       14       25       26       29 </v>
   <v type="int" >       12       14       26       29       30 </v>
   <v type="int" >       12        9       10       13       25 </v>
   <v type="int" >       12       10       13       14       25 </v>
   <v type="int" >       12       13       14       25       29 </v>
   <v type="int" >       12        9       13       24       25 </v>
   <v type="int" >       12       13       24       25       28 </v>
   <v type="int" >       12       13       25       28       29 </v>
   <v type="int" >       12        8        9       12       24 </v>
   <v type="int" >       12        9       12       13       24 </v>
   <v type="int" >       12       12       13       24       28 </v>
   <v type="int" >       12        8       12       23       24 </v>
   <v type="int" >       12       12       23       24       27 </v>
   <v type="int" >       12       12       24       27       28 </v>
   <v type="int" >       12        8        8       12       23 </v>
   <v type="int" >       12        8       12       23       27 </v>
   <v type="int" >       12        8       22       23       23 </v>
   <v type="int" >       12        8       23       23       27 </v>
   <v type="int" >       12        2        3        7       22 </v>
   <v type="int" >       12        3        7        8       22 </v>
   <v type="int" >       12        3        8       22       23 </v>
   <v type="int" >       12       12       13       16       27 </v>
   <v type="int" >       12       13       16       27       28 </v>
   <v type="int" >       12       16       27       28       31 </v>
   <v type="int" >       12       13       14       17       28 </v>
   <v type="int" >       12       13       16       17       28 </v>
   <v type="int" >       12       16       17       28       31 </v>
   <v type="int" >       12       14       17       28       29 </v>
   <v type="int" >       12       17       28       29       32 </v>
   <v type="int" >       12       17       28       31       32 </v>
   <v type="int" >       12       14       15       18       29 </v>
   <v type="int" >       12       14       17       18       29 </v>
   <v type="int" >       12       17       18       29       32 </v>
   <v type="int" >       12       15       18       29       30 </v>
   <v type="int" >       12       18       29       30       33 </v>
   <v type="int" >       12       18       29       32       33 </v>
   <v type="int" >       12       14       15       17       30 </v>
   <v type="int" >       12       15       17       18       30 </v>
   <v type="int" >       12       17       18       30       33 </v>
   <v type="int" >       12       14       17       29       30 </v>
   <v type="int" >       12       17       29       30       32 </v>
   <v type="int" >       12       17       30       32       33 </v>
   <v type="int" >       12       13       14       16       29 </v>
   <v type="int" >       12       14       16       17       29 </v>
   <v type="int" >       12       16       17       29       32 </v>
   <v type="int" >       12       13       16       28       29 </v>
   <v type="int" >       12       16       28       29       31 </v>
   <v type="int" >       12       16       29       31       32 </v>
   <v type="int" >       12       12       13       13       28 </v>
   <v type="int" >       12       13       13       16       28 </v>
   <v type="int" >       12       13       16       28       31 </v>
   <v type="int" >       12       12       13       27       28 </v>
   <v type="int" >       12       13       27       28       28 </v>
   <v type="int" >       12       13       28       28       31 </v>
   <v type="int" >       12        8        9       12       27 </v>
   <v type="int" >       12        9       12       13       27 </v>
   <v type="int" >       12        9       13       27       28 </v>
   <v type="int" >       12        8        9       23       27 </v>
   <v type="int" >       12        9       23       24       27 </v>
   <v type="int" >       12        9       24       27       28 </v>
   <v type="int" >       12        3        4        8       23 </v>
   <v type="int" >       12        4        8        9       23 </v>
   <v type="int" >       12        4        9       23       24 </v>
   <v type="int" >       12       16       17       19       31 </v>
   <v type="int" >       12       17       19       31       32 </v>
   <v type="int" >       12       19       31       32       34 </v>
   <v type="int" >       12       17       18       20       32 </v>
   <v type="int" >       12       17       19       20       32 </v>
   <v type="int" >       12       19       20       32       34 </v>
   <v type="int" >       12       18       20       32       33 </v>
   <v type="int" >       12       20       32       33       35 </v>
   <v type="int" >       12       20       32       34       35 </v>
   <v type="int" >       12       17       18       19       33 </v>
   <v type="int" >       12       18       19       20       33 </v>
   <v type="int" >       12       19       20       33       35 </v>
   <v type="int" >       12       17       19       32       33 </v>
   <v type="int" >       12       19       32       33       34 </v>
   <v type="int" >       12       19       33       34       35 </v>
   <v type="int" >       12       16       17       17       32 </v>
   <v type="int" >       12       17       17       19       32 </v>
   <v type="int" >       12       17       19       32       34 </v>
   <v type="int" >       12       16       17       31       32 </v>
   <v type="int" >       12       17       31       32       32 </v>
   <v type="int" >       12       17       32       32       34 </v>
   <v type="int" >       12       13       14       16       31 </v>
   <v type="int" >       12       14       16       17       31 </v>
   <v type="int" >       12       14       17       31       32 </v>
   <v type="int" >       12       13       14       28       31 </v>
   <v type="int" >       12       14       28       29       31 </v>
   <v type="int" >       12       14       29       31       32 </v>
   <v type="int" >       12        9       10       13       28 </v>
   <v type="int" >       12       10       13       14       28 </v>
   <v type="int" >       12       10       14       28       29 </v>
   <v type="int" >       12        9       10       24       28 </v>
   <v type="int" >       12       10       24       25       28 </v>
   <v type="int" >       12       10       25       28       29 </v>
   <v type="int" >       12        4        5        9       24 </v>
   <v type="int" >       12        5        9       10       24 </v>
   <v type="int" >       12        5       10       24       25 </v>
   <v type="int" >       12       19       20       21       34 </v>
   <v type="int" >       12       20       21       34       35 </v>
   <v type="int" >       12       21       34       35       36 </v>
   <v type="int" >       12       19       20       20       35 </v>
   <v type="int" >       12       20       20       21       35 </v>
   <v type="int" >       12       20       21       35       36 </v>
   <v type="int" >       12       19       20       34       35 </v>
   <v type="int" >       12       20       34       35       35 </v>
   <v type="int" >       12       20       35       35       36 </v>
   <v type="int" >       12       17       18       19       34 </v>
   <v type="int" >       12       18       19       20       34 </v>
   <v type="int" >       12       18       20       34       35 </v>
   <v type="int" >       12       17       18       32       34 </v>
   <v type="int" >       12       18       32       33       34 </v>
   <v type="int" >       12       18       33       34       35 </v>
   <v type="int" >       12       14       15       17       32 </v>
   <v type="int" >       12       15       17       18       32 </v>
   <v type="int" >       12       15       18       32       33 </v>
   <v type="int" >       12       14       15       29       32 </v>
   <v type="int" >       12       15       29       30       32 </v>
   <v type="int" >       12       15       30       32       33 </v>
   <v type="int" >       12       10       11       14       29 </v>
   <v type="int" >       12       11       14       15       29 </v>
   <v type="int" >       12       11       15       29       30 </v>
   <v type="int" >       12       10       11       25       29 </v>
   <v type="int" >       12       11       25       26       29 </v>
   <v type="int" >       12       11       26       29       30 </v>
   <v type="int" >       12        5        6       10       25 </v>
   <v type="int" >       12        6       10       11       25 </v>
   <v type="int" >       12        6       11       25       26 </v>
   <v type="int" >       12       19       20       21       36 </v>
   <v type="int" >       12       19       20       35       36 </v>
   <v type="int" >       12       19       34       35       36 </v>
   <v type="int" >       12       17       18       20       35 </v>
   <v type="int" >       12       17       19       20       35 </v>
   <v type="int" >       12       17       19       34       35 </v>
   <v type="int" >       12       17       18       33       35 </v>
   <v type="int" >       12       17       32       33       35 </v>
   <v type="int" >       12       17       32       34       35 </v>
   <v type="int" >       12       14       15       18       33 </v>
   <v type="int" >       12       14       17       18       33 </v>
   <v type="int" >       12       14       17       32       33 </v>
   <v type="int" >       12       14       15       30       33 </v>
   <v type="int" >       12       14       29       30       33 </v>
   <v type="int" >       12       14       29       32       33 </v>
   <v type="int" >       12       10       11       15       30 </v>
   <v type="int" >       12       10       14       15       30 </v>
   <v type="int" >       12       10       14       29       30 </v>
   <v type="int" >       12       10       11       26       30 </v>
   <v type="int" >       12       10       25       26       30 </v>
   <v type="int" >       12       10       25       29       30 </v>
   <v type="int" >       12        5        6       11       26 </v>
   <v type="int" >       12        5       10       11       26 </v>
   <v type="int" >       12        5       10       25       26 </v>
   <v type="int" >       12       16       17       19       34 </v>
   <v type="int" >       12       16       17       32       34 </v>
   <v type="int" >       12       16       31       32       34 </v>
   <v type="int" >       12       13       14       17       32 </v>
   <v type="int" >       12       13       16       17       32 </v>
   <v type="int" >       12       13       16       31       32 </v>
   <v type="int" >       12       13       14       29       32 </v>
   <v type="int" >       12       13       28       29       32 </v>
   <v type="int" >       12       13       28       31       32 </v>
   <v type="int" >       12        9       10       14       29 </v>
   <v type="int" >       12        9       13       14       29 </v>
   <v type="int" >       12        9       13       28       29 </v>
   <v type="int" >       12        9       10       25       29 </v>
   <v type="int" >       12        9       24       25       29 </v>
   <v type="int" >       12        9       24       28       29 </v>
   <v type="int" >       12        4        5       10       25 </v>
   <v type="int" >       12        4        9       10       25 </v>
   <v type="int" >       12        4        9       24       25 </v>
   <v type="int" >       12       12       13       16       31 </v>
   <v type="int" >       12       12       13       28       31 </v>
   <v type="int" >       12       12       27       28       31 </v>
   <v type="int" >       12        8        9       13       28 </v>
   <v type="int" >       12        8       12       13       28 </v>
   <v type="int" >       12        8       12       27       28 </v>
   <v type="int" >       12        8        9       24       28 </v>
   <v type="int" >       12        8       23       24       28 </v>
   <v type="int" >       12        8       23       27       28 </v>
   <v type="int" >       12        3        4        9       24 </v>
   <v type="int" >       12        3        8        9       24 </v>
   <v type="int" >       12        3        8       23       24 </v>
   <v type="int" >       12        7        8       12       27 </v>
   <v type="int" >       12        7        8       23       27 </v>
   <v type="int" >       12        7       22       23       27 </v>
   <v type="int" >       12        2        3        8       23 </v>
   <v type="int" >       12        2        7        8       23 </v>
   <v type="int" >       12        2        7       22       23 </v>
   <v type="int" >       12        1        2        7       22 </v>
   <v type="int" >       12       22       23       23       27 </v>
   <v type="int" >       12       23       23       27       27 </v>
   <v type="int" >       12       23       27       27       37 </v>
   <v type="int" >       12       23       24       27       28 </v>
   <v type="int" >       12       23       27       27       28 </v>
   <v type="int" >       12       27       27       28       37 </v>
   <v type="int" >       12       24       27       28       28 </v>
   <v type="int" >       24       27       28       28       38 </v>
   <v type="int" >       24       27       28       37       38 </v>
   <v type="int" >       12       24       25       28       29 </v>
   <v type="int" >       12       24       28       28       29 </v>
   <v type="int" >       12       28       28       29       38 </v>
   <v type="int" >       12       25       28       29       29 </v>
   <v type="int" >       12       28       29       29       39 </v>
   <v type="int" >       12       28       29       38       39 </v>
   <v type="int" >       12       25       26       29       30 </v>
   <v type="int" >       12       25       29       29       30 </v>
   <v type="int" >       12       29       29       30       39 </v>
   <v type="int" >       12       26       29       30       30 </v>
   <v type="int" >       12       29       30       30       40 </v>
   <v type="int" >       12       29       30       39       40 </v>
   <v type="int" >       12       27       28       31       37 </v>
   <v type="int" >       12       28       31       37       38 </v>
   <v type="int" >       12       31       37       38       41 </v>
   <v type="int" >       12       28       29       32       38 </v>
   <v type="int" >       12       28       31       32       38 </v>
   <v type="int" >       12       31       32       38       41 </v>
   <v type="int" >       12       29       32       38       39 </v>
   <v type="int" >       12       32       38       39       42 </v>
   <v type="int" >       12       32       38       41       42 </v>
   <v type="int" >       12       29       30       33       39 </v>
   <v type="int" >       12       29       32       33       39 </v>
   <v type="int" >       12       32       33       39       42 </v>
   <v type="int" >       12       30       33       39       40 </v>
   <v type="int" >       12       33       39       40       43 </v>
   <v type="int" >       12       33       39       42       43 </v>
   <v type="int" >       12       29       30       32       40 </v>
   <v type="int" >       12       30       32       33       40 </v>
   <v type="int" >       12       32       33       40       43 </v>
   <v type="int" >       12       29       32       39       40 </v>
   <v type="int" >       12       32       39       40       42 </v>
   <v type="int" >       12       32       40       42       43 </v>
   <v type="int" >       12       28       29       31       39 </v>
   <v type="int" >       12       29       31       32       39 </v>
   <v type="int" >       12       31       32       39       42 </v>
   <v type="int" >       12       28       31       38       39 </v>
   <v type="int" >       12       31       38       39       41 </v>
   <v type="int" >       12       31       39       41       42 </v>
   <v type="int" >       12       28       28       31       38 </v>
   <v type="int" >       12       28       31       38       41 </v>
   <v type="int" >       12       28       37       38       38 </v>
   <v type="int" >       12       28       38       38       41 </v>
   <v type="int" >       12       23       24       27       37 </v>
   <v type="int" >       12       24       27       28       37 </v>
   <v type="int" >       12       24       28       37       38 </v>
   <v type="int" >       12       31       32       34       41 </v>
   <v type="int" >       12       32       34       41       42 </v>
   <v type="int" >       12       34       41       42       44 </v>
   <v type="int" >       12       32       33       35       42 </v>
   <v type="int" >       12       32       34       35       42 </v>
   <v type="int" >       12       34       35       42       44 </v>
   <v type="int" >       12       33       35       42       43 </v>
   <v type="int" >       12       35       42       43       45 </v>
   <v type="int" >       12       35       42       44       45 </v>
   <v type="int" >       12       32       33       34       43 </v>
   <v type="int" >       12       33       34       35       43 </v>
   <v type="int" >       12       34       35       43       45 </v>
   <v type="int" >       12       32       34       42       43 </v>
   <v type="int" >       12       34       42       43       44 </v>
   <v type="int" >       12       34       43       44       45 </v>
   <v type="int" >       12       31       32       32       42 </v>
   <v type="int" >       12       32       32       34       42 </v>
   <v type="int" >       12       32       34       42       44 </v>
   <v type="int" >       12       31       32       41       42 </v>
   <v type="int" >       12       32       41       42       42 </v>
   <v type="int" >       12       32       42       42       44 </v>
   <v type="int" >       12       28       29       31       41 </v>
   <v type="int" >       12       29       31       32       41 </v>
   <v type="int" >       12       29       32       41       42 </v>
   <v type="int" >       12       28       29       38       41 </v>
   <v type="int" >       12       29       38       39       41 </v>
   <v type="int" >       12       29       39       41       42 </v>
   <v type="int" >       12       24       25       28       38 </v>
   <v type="int" >       12       25       28       29       38 </v>
   <v type="int" >       12       25       29       38       39 </v>
   <v type="int" >       12       34       35       36       44 </v>
   <v type="int" >       12       35       36       44       45 </v>
   <v type="int" >       12       36       44       45       46 </v>
   <v type="int" >       12       34       35       35       45 </v>
   <v type="int" >       12       35       35       36       45 </v>
   <v type="int" >       12       35       36       45       46 </v>
   <v type="int" >       12       34       35       44       45 </v>
   <v type="int" >       12       35       44       45       45 </v>
   <v type="int" >       12       35       45       45       46 </v>
   <v type="int" >       12       32       33       34       44 </v>
   <v type="int" >       12       33       34       35       44 </v>
   <v type="int" >       12       33       35       44       45 </v>
   <v type="int" >       12       32       33       42       44 </v>
   <v type="int" >       12       33       42       43       44 </v>
   <v type="int" >       12       33       43       44       45 </v>
   <v type="int" >       12       29       30       32       42 </v>
   <v type="int" >       12       30       32       33       42 </v>
   <v type="int" >       12       30       33       42       43 </v>
   <v type="int" >       12       29       30       39       42 </v>
   <v type="int" >       12       30       39       40       42 </v>
   <v type="int" >       12       30       40       42       43 </v>
   <v type="int" >       12       25       26       29       39 </v>
   <v type="int" >       12       26       29       30       39 </v>
   <v type="int" >       12       26       30       39       40 </v>
   <v type="int" >       12       34       35       36       46 </v>
   <v type="int" >       12       34       35       45       46 </v>
   <v type="int" >       12       34       44       45       46 </v>
   <v type="int" >       12       32       33       35       45 </v>
   <v type="int" >       12       32       34       35       45 </v>
   <v type="int" >       12       32       34       44       45 </v>
   <v type="int" >       12       32       33       43       45 </v>
   <v type="int" >       12       32       42       43       45 </v>
   <v type="int" >       12       32       42       44       45 </v>
   <v type="int" >       12       29       30       33       43 </v>
   <v type="int" >       12       29       32       33       43 </v>
   <v type="int" >       12       29       32       42       43 </v>
   <v type="int" >       12       29       30       40       43 </v>
   <v type="int" >       12       29       39       40       43 </v>
   <v type="int" >       12       29       39       42       43 </v>
   <v type="int" >       12       25       26       30       40 </v>
   <v type="int" >       12       25       29       30       40 </v>
   <v type="int" >       12       25       29       39       40 </v>
   <v type="int" >       12       31       32       34       44 </v>
   <v type="int" >       12       31       32       42       44 </v>
   <v type="int" >       12       31       41       42       44 </v>
   <v type="int" >       12       28       29       32       42 </v>
   <v type="int" >       12       28       31       32       42 </v>
   <v type="int" >       12       28       31       41       42 </v>
   <v type="int" >       12       28       29       39       42 </v>
   <v type="int" >       12       28       38       39       42 </v>
   <v type="int" >       12       28       38       41       42 </v>
   <v type="int" >       12       24       25       29       39 </v>
   <v type="int" >       12       24       28       29       39 </v>
   <v type="int" >       12       24       28       38       39 </v>
   <v type="int" >       12       27       28       31       41 </v>
   <v type="int" >       12       27       28       38       41 </v>
   <v type="int" >       12       27       37       38       41 </v>
   <v type="int" >       12       23       24       28       38 </v>
   <v type="int" >       12       23       27       28       38 </v>
   <v type="int" >       12       23       27       37       38 </v>
   <v type="int" >       12       22       23       27       37 </v>
   <v type="int" >       12       37       38       38       41 </v>
   <v type="int" >       12       38       38       41       41 </v>
   <v type="int" >       12       38       41       41       47 </v>
   <v type="int" >       12       38       39       41       42 </v>
   <v type="int" >       12       38       41       41       42 </v>
   <v type="int" >       12       41       41       42       47 </v>
   <v type="int" >       12       39       41       42       42 </v>
   <v type="int" >       24       41       42       42       48 </v>
   <v type="int" >       24       41       42       47       48 </v>
   <v type="int" >       12       39       40       42       43 </v>
   <v type="int" >       12       39       42       42       43 </v>
   <v type="int" >       12       42       42       43       48 </v>
   <v type="int" >       12       40       42       43       43 </v>
   <v type="int" >       12       42       43       43       49 </v>
   <v type="int" >       12       42       43       48       49 </v>
   <v type="int" >       12       41       42       44       47 </v>
   <v type="int" >       12       42       44       47       48 </v>
   <v type="int" >       12       44       47       48       50 </v>
   <v type="int" >       12       42       43       45       48 </v>
   <v type="int" >       12       42       44       45       48 </v>
   <v type="int" >       12       44       45       48       50 </v>
   <v type="int" >       12       43       45       48       49 </v>
   <v type="int" >       12       45       48       49       51 </v>
   <v type="int" >       12       45       48       50       51 </v>
   <v type="int" >       12       42       43       44       49 </v>
   <v type="int" >       12       43       44       45       49 </v>
   <v type="int" >       12       44       45       49       51 </v>
   <v type="int" >       12       42       44       48       49 </v>
   <v type="int" >       12       44       48       49       50 </v>
   <v type="int" >       12       44       49       50       51 </v>
   <v type="int" >       12       42       42       44       48 </v>
   <v type="int" >       12       42       44       48       50 </v>
   <v type="int" >       12       42       47       48       48 </v>
   <v type="int" >       12       42       48       48       50 </v>
   <v type="int" >       12       38       39       41       47 </v>
   <v type="int" >       12       39       41       42       47 </v>
   <v type="int" >       12       39       42       47       48 </v>
   <v type="int" >       12       44       45       46       50 </v>
   <v type="int" >       12       45       46       50       51 </v>
   <v type="int" >       12       46       50       51       52 </v>
   <v type="int" >       12       44       45       45       51 </v>
   <v type="int" >       12       45       45       46       51 </v>
   <v type="int" >       12       45       46       51       52 </v>
   <v type="int" >       12       44       45       50       51 </v>
   <v type="int" >       12       45       50       51       51 </v>
   <v type="int" >       12       45       51       51       52 </v>
   <v type="int" >       12       42       43       44       50 </v>
   <v type="int" >       12       43       44       45       50 </v>
   <v type="int" >       12       43       45       50       51 </v>
   <v type="int" >       12       42       43       48       50 </v>
   <v type="int" >       12       43       48       49       50 </v>
   <v type="int" >       12       43       49       50       51 </v>
   <v type="int" >       12       39       40       42       48 </v>
   <v type="int" >       12       40       42       43       48 </v>
   <v type="int" >       12       40       43       48       49 </v>
   <v type="int" >       12       44       45       46       52 </v>
   <v type="int" >       12       44       45       51       52 </v>
   <v type="int" >       12       44       50       51       52 </v>
   <v type="int" >       12       42       43       45       51 </v>
   <v type="int" >       12       42       44       45       51 </v>
   <v type="int" >       12       42       44       50       51 </v>
   <v type="int" >       12       42       43       49       51 </v>
   <v type="int" >       12       42       48       49       51 </v>
   <v type="int" >       12       42       48       50       51 </v>
   <v type="int" >       12       39       40       43       49 </v>
   <v type="int" >       12       39       42       43       49 </v>
   <v type="int" >       12       39       42       48       49 </v>
   <v type="int" >       12       41       42       44       50 </v>
   <v type="int" >       12       41       42       48       50 </v>
   <v type="int" >       12       41       47       48       50 </v>
   <v type="int" >       12       38       39       42       48 </v>
   <v type="int" >       12       38       41       42       48 </v>
   <v type="int" >       12       38       41       47       48 </v>
   <v type="int" >       12       37       38       41       47 </v>
   <v type="int" >       12       47       48       48       50 </v>
   <v type="int" >       12       48       48       50       50 </v>
   <v type="int" >       12       48       50       50       53 </v>
   <v type="int" >       12       48       49       50       51 </v>
   <v type="int" >       12       48       50       50       51 </v>
   <v type="int" >       12       50       50       51       53 </v>
   <v type="int" >       12       49       50       51       51 </v>
   <v type="int" >       24       50       51       51       54 </v>
   <v type="int" >       24       50       51       53       54 </v>
   <v type="int" >       12       50       51       52       53 </v>
   <v type="int" >       12       51       52       53       54 </v>
   <v type="int" >       12       52       53       54       55 </v>
   <v type="int" >       12       51       51       52       54 </v>
   <v type="int" >       12       51       52       54       55 </v>
   <v type="int" >       12       51       53       54       54 </v>
   <v type="int" >       12       51       54       54       55 </v>
   <v type="int" >       12       48       49       50       53 </v>
   <v type="int" >       12       49       50       51       53 </v>
   <v type="int" >       12       49       51       53       54 </v>
   <v type="int" >       12       50       51       52       55 </v>
   <v type="int" >       12       50       51       54       55 </v>
   <v type="int" >       12       50       53       54       55 </v>
   <v type="int" >       12       48       49       51       54 </v>
   <v type="int" >       12       48       50       51       54 </v>
   <v type="int" >       12       48       50       53       54 </v>
   <v type="int" >       12       47       48       50       53 </v>
   <v type="int" >       12       53       54       54       55 </v>
   <v type="int" >       12       54       54       55       55 </v>
   <v type="int" >       12       54       55       55       56 </v>
   <v type="int" >       12       53       54       55       56 </v>
  </varray>
  <i name="volumeweight">      0.00016667 </i>
 </kpoints>
 <parameters>
  <separator name="general" >
   <i type="string" name="SYSTEM">Si</i>
   <i type="logical" name="LCOMPAT"> F  </i>
  </separator>
  <separator name="electronic" >
   <i type="string" name="PREC">normal</i>
   <i name="ENMAX">    300.00000000</i>
   <i name="ENAUG">    322.06900000</i>
   <i name="EDIFF">      0.00000010</i>
   <i type="int" name="IALGO">    38</i>
   <i type="int" name="IWAVPR">    10</i>
   <i type="int" name="NBANDS">    21</i>
   <i name="NELECT">     32.00000000</i>
   <i type="int" name="TURBO">     0</i>
   <i type="int" name="IRESTART">     0</i>
   <i type="int" name="NREBOOT">     0</i>
   <i type="int" name="NMIN">     0</i>
   <i name="EREF">      0.00000000</i>
   <separator name="electronic smearing" >
    <i type="int" name="ISMEAR">    -5</i>
    <i name="SIGMA">      0.20000000</i>
    <i name="KSPACING">      0.50000000</i>
    <i type="logical" name="KGAMMA"> T  </i>
   </separator>
   <separator name="electronic projectors" >
    <i type="logical" name="LREAL"> F  </i>
    <v name="ROPT">      0.00000000</v>
    <i type="int" name="LMAXPAW">  -100</i>
    <i type="int" name="LMAXMIX">     2</i>
    <i type="logical" name="NLSPLINE"> F  </i>
   </separator>
   <separator name="electronic startup" >
    <i type="int" name="ISTART">     0</i>
    <i type="int" name="ICHARG">     2</i>
    <i type="int" name="INIWAV">     1</i>
   </separator>
   <separator name="electronic spin" >
    <i type="int" name="ISPIN">     1</i>
    <i type="logical" name="LNONCOLLINEAR"> F  </i>
    <v name="MAGMOM">      1.00000000      1.00000000      1.00000000      1.00000000      1.00000000      1.00000000      1.00000000      1.00000000</v>
    <i name="NUPDOWN">     -1.00000000</i>
    <i type="logical" name="LSORBIT"> F  </i>
    <v name="SAXIS">      0.00000000      0.00000000      1.00000000</v>
    <i type="logical" name="LSPIRAL"> F  </i>
    <v name="QSPIRAL">      0.00000000      0.00000000      0.00000000</v>
    <i type="logical" name="LZEROZ"> F  </i>
   </separator>
   <separator name="electronic exchange-correlation" >
    <i type="logical" name="LASPH"> F  </i>
    <i type="logical" name="LMETAGGA"> F  </i>
   </separator>
   <separator name="electronic convergence" >
    <i type="int" name="NELM">    60</i>
    <i type="int" name="NELMDL">    -5</i>
    <i type="int" name="NELMIN">     2</i>
    <i name="ENINI">    300.00000000</i>
    <separator name="electronic convergence detail" >
     <i type="logical" name="LDIAG"> T  </i>
     <i type="logical" name="LSUBROT"> F  </i>
     <i name="WEIMIN">      0.00000000</i>
     <i name="EBREAK">      0.00000000</i>
     <i name="DEPER">      0.30000000</i>
     <i type="int" name="NRMM">     4</i>
     <i name="TIME">      0.40000000</i>
    </separator>
   </separator>
   <separator name="electronic mixer" >
    <i name="AMIX">      0.40000000</i>
    <i name="BMIX">      1.00000000</i>
    <i name="AMIN">      0.10000000</i>
    <i name="AMIX_MAG">      1.60000000</i>
    <i name="BMIX_MAG">      1.00000000</i>
    <separator name="electronic mixer details" >
     <i type="int" name="IMIX">     4</i>
     <i type="logical" name="MIXFIRST"> F  </i>
     <i type="int" name="MAXMIX">   -45</i>
     <i name="WC">    100.00000000</i>
     <i type="int" name="INIMIX">     1</i>
     <i type="int" name="MIXPRE">     1</i>
     <i type="int" name="MREMOVE">     5</i>
    </separator>
   </separator>
   <separator name="electronic dipolcorrection" >
    <i type="logical" name="LDIPOL"> F  </i>
    <i type="logical" name="LMONO"> F  </i>
    <i type="int" name="IDIPOL">     0</i>
    <i name="EPSILON">      1.00000000</i>
    <v name="DIPOL">   -100.00000000   -100.00000000   -100.00000000</v>
    <i name="EFIELD">      0.00000000</i>
   </separator>
  </separator>
  <separator name="grids" >
   <i type="int" name="NGX">    24</i>
   <i type="int" name="NGY">    24</i>
   <i type="int" name="NGZ">    24</i>
   <i type="int" name="NGXF">    48</i>
   <i type="int" name="NGYF">    48</i>
   <i type="int" name="NGZF">    48</i>
   <i type="logical" name="ADDGRID"> F  </i>
  </separator>
  <separator name="ionic" >
   <i type="int" name="NSW">     0</i>
   <i type="int" name="IBRION">    -1</i>
   <i type="int" name="MDALGO">     0</i>
   <i type="int" name="ISIF">     2</i>
   <i name="PSTRESS">      0.00000000</i>
   <i name="EDIFFG">      0.00000100</i>
   <i type="int" name="NFREE">     0</i>
   <i name="POTIM">      0.50000000</i>
   <i name="SMASS">     -3.00000000</i>
   <i name="SCALEE">      1.00000000</i>
  </separator>
  <separator name="ionic md" >
   <i name="TEBEG">      0.00010000</i>
   <i name="TEEND">      0.00010000</i>
   <i type="int" name="NBLOCK">     1</i>
   <i type="int" name="KBLOCK">     1</i>
   <i type="int" name="NPACO">   256</i>
   <i name="APACO">     16.00000000</i>
  </separator>
  <separator name="symmetry" >
   <i type="int" name="ISYM">     2</i>
   <i name="SYMPREC">      0.00001000</i>
  </separator>
  <separator name="dos" >
   <i type="int" name="LORBIT">     0</i>
   <v name="RWIGS">     -1.00000000</v>
   <i type="int" name="NEDOS">   301</i>
   <i name="EMIN">     10.00000000</i>
   <i name="EMAX">    -10.00000000</i>
   <i name="EFERMI">      0.00000000</i>
  </separator>
  <separator name="writing" >
   <i type="int" name="NWRITE">     2</i>
   <i type="logical" name="LWAVE"> T  </i>
   <i type="logical" name="LDOWNSAMPLE"> F  </i>
   <i type="logical" name="LCHARG"> T  </i>
   <i type="logical" name="LPARD"> F  </i>
   <i type="logical" name="LVTOT"> F  </i>
   <i type="logical" name="LVHAR"> F  </i>
   <i type="logical" name="LELF"> F  </i>
   <i type="logical" name="LOPTICS"> F  </i>
   <v name="STM">      0.00000000      0.00000000      0.00000000      0.00000000      0.00000000      0.00000000      0.00000000</v>
  </separator>
  <separator name="performance" >
   <i type="int" name="NPAR">     1</i>
   <i type="int" name="NSIM">     4</i>
   <i type="int" name="NBLK">    -1</i>
   <i type="logical" name="LPLANE"> T  </i>
   <i type="logical" name="LSCALAPACK"> T  </i>
   <i type="logical" name="LSCAAWARE"> F  </i>
   <i type="logical" name="LSCALU"> F  </i>
   <i type="logical" name="LASYNC"> F  </i>
   <i type="logical" name="LORBITALREAL"> F  </i>
  </separator>
  <separator name="miscellaneous" >
   <i type="int" name="IDIOT">     3</i>
   <i type="int" name="ISPECIAL">     0</i>
   <i type="logical" name="LMUSIC"> F  </i>
   <v name="POMASS">     28.08500000</v>
   <v name="DARWINR">      0.00000000</v>
   <v name="DARWINV">      1.00000000</v>
   <i type="logical" name="LCORR"> T  </i>
  </separator>
  <i type="logical" name="GGA_COMPAT"> T  </i>
  <i type="logical" name="LBERRY"> F  </i>
  <i type="int" name="ICORELEVEL">     0</i>
  <i type="logical" name="LDAU"> F  </i>
  <i type="int" name="I_CONSTRAINED_M">     0</i>
  <separator name="electronic exchange-correlation" >
   <i type="string" name="GGA">--</i>
   <i type="int" name="VOSKOWN">     0</i>
   <i type="logical" name="LHFCALC"> F  </i>
   <i type="string" name="PRECFOCK"></i>
   <i type="logical" name="LSYMGRAD"> F  </i>
   <i type="logical" name="LHFONE"> F  </i>
   <i type="logical" name="LRHFCALC"> F  </i>
   <i type="logical" name="LTHOMAS"> F  </i>
   <i type="logical" name="LMODELHF"> F  </i>
   <i name="ENCUT4O">     -1.00000000</i>
   <i type="int" name="EXXOEP">     0</i>
   <i type="int" name="FOURORBIT">     0</i>
   <i name="AEXX">      0.00000000</i>
   <i name="HFALPHA">      0.00000000</i>
   <i name="MCALPHA">      0.00000000</i>
   <i name="ALDAX">      1.00000000</i>
   <i name="AGGAX">      1.00000000</i>
   <i name="ALDAC">      1.00000000</i>
   <i name="AGGAC">      1.00000000</i>
   <i type="int" name="NKREDX">     1</i>
   <i type="int" name="NKREDY">     1</i>
   <i type="int" name="NKREDZ">     1</i>
   <i type="logical" name="SHIFTRED"> F  </i>
   <i type="logical" name="ODDONLY"> F  </i>
   <i type="logical" name="EVENONLY"> F  </i>
   <i type="int" name="LMAXFOCK">     0</i>
   <i type="int" name="NMAXFOCKAE">     0</i>
   <i type="logical" name="LFOCKAEDFT"> F  </i>
   <i name="HFSCREEN">      0.00000000</i>
   <i name="HFSCREENC">      0.00000000</i>
   <i type="int" name="NBANDSGWLOW">     0</i>
  </separator>
  <separator name="vdW DFT" >
   <i type="logical" name="LUSE_VDW"> F  </i>
   <i name="Zab_VDW">     -0.84910000</i>
   <i name="PARAM1">      0.12340000</i>
   <i name="PARAM2">      1.00000000</i>
   <i name="PARAM3">      0.00000000</i>
  </separator>
  <separator name="model GW" >
   <i type="int" name="MODEL_GW">     0</i>
   <i name="MODEL_EPS0">     12.00772552</i>
   <i name="MODEL_ALPHA">      1.00000000</i>
  </separator>
  <separator name="linear response parameters" >
   <i type="logical" name="LEPSILON"> F  </i>
   <i type="logical" name="LRPA"> F  </i>
   <i type="logical" name="LNABLA"> F  </i>
   <i type="logical" name="LVEL"> F  </i>
   <i type="int" name="KINTER">     0</i>
   <i name="CSHIFT">      0.10000000</i>
   <i name="OMEGAMAX">     -1.00000000</i>
   <i name="DEG_THRESHOLD">      0.00200000</i>
   <i name="RTIME">     -0.10000000</i>
   <i name="WPLASMAI">      0.00000000</i>
   <v name="DFIELD">      0.00000000      0.00000000      0.00000000</v>
   <v name="WPLASMA">      0.00000000      0.00000000      0.00000000      0.00000000      0.00000000      0.00000000      0.00000000      0.00000000      0.00000000</v>
  </separator>
  <separator name="orbital magnetization" >
   <i type="logical" name="NUCIND"> F  </i>
   <v name="MAGPOS">      0.00000000      0.00000000      0.00000000</v>
   <i type="logical" name="LNICSALL"> T  </i>
   <i type="logical" name="ORBITALMAG"> F  </i>
   <i type="logical" name="LMAGBLOCH"> F  </i>
   <i type="logical" name="LCHIMAG"> F  </i>
   <i type="logical" name="LGAUGE"> T  </i>
   <i type="int" name="MAGATOM">     0</i>
   <v name="MAGDIPOL">      0.00000000      0.00000000      0.00000000</v>
   <v name="AVECCONST">      0.00000000      0.00000000      0.00000000</v>
  </separator>
  <separator name="response functions" >
   <i type="logical" name="LADDER"> F  </i>
   <i type="logical" name="LRPAFORCE"> F  </i>
   <i type="logical" name="LFXC"> F  </i>
   <i type="logical" name="LHARTREE"> T  </i>
   <i type="int" name="IBSE">     0</i>
   <v type="int" name="KPOINT">    -1     0     0     0</v>
   <i type="logical" name="LTCTE"> F  </i>
   <i type="logical" name="LTETE"> F  </i>
   <i type="logical" name="LTRIPLET"> F  </i>
   <i type="logical" name="LFXCEPS"> F  </i>
   <i type="logical" name="LFXHEG"> F  </i>
   <i type="int" name="NATURALO">     2</i>
   <i type="logical" name="L2ORDER"> F  </i>
   <i type="logical" name="LMP2LT"> F  </i>
   <i type="logical" name="LUSEW"> F  </i>
   <i name="ENCUTGW">     -2.00000000</i>
   <i name="ENCUTGWSOFT">     -2.00000000</i>
   <i name="ENCUTLF">     -1.00000000</i>
   <i type="int" name="LMAXMP2">    -1</i>
   <i name="SCISSOR">      0.00000000</i>
   <i type="int" name="NOMEGA">     0</i>
   <i type="int" name="NOMEGAR">     0</i>
   <i type="int" name="NBANDSGW">    -1</i>
   <i type="int" name="NBANDSO">    -1</i>
   <i type="int" name="NBANDSV">    -1</i>
   <i type="int" name="NELM">     1</i>
   <i type="int" name="NELMHF">     1</i>
   <i type="int" name="DIM">     3</i>
   <i type="int" name="ANTIRES">     0</i>
   <i name="OMEGAMAX">    -30.00000000</i>
   <i name="OMEGAMIN">    -30.00000000</i>
   <i name="OMEGATL">   -200.00000000</i>
   <i type="int" name="OMEGAGRID">   140</i>
   <i name="CSHIFT">     -0.10000000</i>
   <i type="logical" name="SELFENERGY"> F  </i>
   <i type="logical" name="LSPECTRAL"> F  </i>
   <i type="logical" name="LSPECTRALGW"> F  </i>
   <i type="logical" name="LSINGLES"> F  </i>
   <i type="logical" name="LFERMIGW"> F  </i>
   <i type="logical" name="ODDONLYGW"> F  </i>
   <i type="logical" name="EVENONLYGW"> F  </i>
   <i type="int" name="NKREDLFX">     1</i>
   <i type="int" name="NKREDLFY">     1</i>
   <i type="int" name="NKREDLFZ">     1</i>
   <i type="int" name="MAXMEM">  2800</i>
   <i type="int" name="TELESCOPE">     0</i>
   <i type="int" name="TAUPAR">     1</i>
   <i type="int" name="OMEGAPAR">    -1</i>
   <i name="LAMBDA">      1.00000000</i>
  </separator>
  <separator name="External order field" >
   <i name="OFIELD_KAPPA">      0.00000000</i>
   <v name="OFIELD_K">      0.00000000      0.00000000      0.00000000</v>
   <i name="OFIELD_Q6_NEAR">      0.00000000</i>
   <i name="OFIELD_Q6_FAR">      0.00000000</i>
   <i name="OFIELD_A">      0.00000000</i>
  </separator>
 </parameters>
 <atominfo>
  <atoms>       8 </atoms>
  <types>       1 </types>
  <array name="atoms" >
   <dimension dim="1">ion</dimension>
   <field type="string">element</field>
   <field type="int">atomtype</field>
   <set>
    <rc><c>Si</c><c>   1</c></rc>
    <rc><c>Si</c><c>   1</c></rc>
    <rc><c>Si</c><c>   1</c></rc>
    <rc><c>Si</c><c>   1</c></rc>
    <rc><c>Si</c><c>   1</c></rc>
    <rc><c>Si</c><c>   1</c></rc>
    <rc><c>Si</c><c>   1</c></rc>
    <rc><c>Si</c><c>   1</c></rc>
   </set>
  </array>
  <array name="atomtypes" >
   <dimension dim="1">type</dimension>
   <field type="int">atomspertype</field>
   <field type="string">element</field>
   <field>mass</field>
   <field>valence</field>
   <field type="string">pseudopotential</field>
   <set>
    <rc><c>   8</c><c>Si</c><c>     28.08500000</c><c>      4.00000000</c><c> PAW_PBE Si 05Jan2001                   </c></rc>
   </set>
  </array>
 </atominfo>
 <structure name="initialpos" >
  <crystal>
   <varray name="basis" >
    <v>       5.43000000       0.00000000       0.00000000 </v>
    <v>       0.00000000       5.43000000       0.00000000 </v>
    <v>       0.00000000       0.00000000       5.43000000 </v>
   </varray>
   <i name="volume">    160.10300700 </i>
   <varray name="rec_basis" >
    <v>       0.18416206       0.00000000       0.00000000 </v>
    <v>       0.00000000       0.18416206       0.00000000 </v>
    <v>       0.00000000       0.00000000       0.18416206 </v>
   </varray>
  </crystal>
  <varray name="positions" >
   <v>       0.00000000       0.00000000       0.00000000 </v>
   <v>       0.50000000       0.50000000       0.00000000 </v>
   <v>       0.00000000       0.50000000       0.50000000 </v>
   <v>       0.50000000       0.00000000       0.50000000 </v>
   <v>       0.25000000       0.25000000       0.25000000 </v>
   <v>       0.75000000       0.75000000       0.25000000 </v>
   <v>       0.25000000       0.75000000       0.75000000 </v>
   <v>       0.75000000       0.25000000       0.75000000 </v>
  </varray>
 </structure>
 <calculation>
  <scstep>
   <time name="dav">    2.22    2.22</time>
   <time name="total">    2.31    2.31</time>
   <energy>
    <i name="alphaZ">     13.45656811 </i>
    <i name="ewald">   -914.25413255 </i>
    <i name="hartreedc">    -44.00432972 </i>
    <i name="XCdc">    -74.40730106 </i>
    <i name="pawpsdc">    263.82083246 </i>
    <i name="pawaedc">   -123.07410713 </i>
    <i name="eentropy">      0.00000000 </i>
    <i name="bandstr">    104.70089905 </i>
    <i name="atom">    824.51874349 </i>
    <i name="e_fr_energy">     50.75717265 </i>
    <i name="e_wo_entrp">     50.75717265 </i>
    <i name="e_0_energy">     50.75717265 </i>
   </energy>
  </scstep>
  <scstep>
   <time name="dav">    2.80    2.81</time>
   <time name="total">    2.81    2.82</time>
   <energy>
    <i name="e_fr_energy">    -40.06574589 </i>
    <i name="e_wo_entrp">    -40.06574589 </i>
    <i name="e_0_energy">    -40.06574589 </i>
   </energy>
  </scstep>
  <scstep>
   <time name="dav">    2.63    2.64</time>
   <time name="total">    2.63    2.64</time>
   <energy>
    <i name="e_fr_energy">    -43.99900628 </i>
    <i name="e_wo_entrp">    -43.99900628 </i>
    <i name="e_0_energy">    -43.99900628 </i>
   </energy>
  </scstep>
  <scstep>
   <time name="dav">    2.58    2.59</time>
   <time name="total">    2.59    2.59</time>
   <energy>
    <i name="e_fr_energy">    -44.07106644 </i>
    <i name="e_wo_entrp">    -44.07106644 </i>
    <i name="e_0_energy">    -44.07106644 </i>
   </energy>
  </scstep>
  <scstep>
   <time name="dav">    2.56    2.57</time>
   <time name="total">    2.76    2.77</time>
   <energy>
    <i name="e_fr_energy">    -44.07266970 </i>
    <i name="e_wo_entrp">    -44.07266970 </i>
    <i name="e_0_energy">    -44.07266970 </i>
   </energy>
  </scstep>
  <scstep>
   <time name="dav">    2.42    2.43</time>
   <time name="total">    2.69    2.70</time>
   <energy>
    <i name="e_fr_energy">    -43.57447261 </i>
    <i name="e_wo_entrp">    -43.57447261 </i>
    <i name="e_0_energy">    -43.57447261 </i>
   </energy>
  </scstep>
  <scstep>
   <time name="dav">    2.38    2.38</time>
   <time name="total">    2.64    2.65</time>
   <energy>
    <i name="e_fr_energy">    -43.34669956 </i>
    <i name="e_wo_entrp">    -43.34669956 </i>
    <i name="e_0_energy">    -43.34669956 </i>
   </energy>
  </scstep>
  <scstep>
   <time name="dav">    2.48    2.48</time>
   <time name="total">    2.74    2.75</time>
   <energy>
    <i name="e_fr_energy">    -43.35278844 </i>
    <i name="e_wo_entrp">    -43.35278844 </i>
    <i name="e_0_energy">    -43.35278844 </i>
   </energy>
  </scstep>
  <scstep>
   <time name="dav">    2.64    2.65</time>
   <time name="total">    2.91    2.92</time>
   <energy>
    <i name="e_fr_energy">    -43.35312599 </i>
    <i name="e_wo_entrp">    -43.35312599 </i>
    <i name="e_0_energy">    -43.35312599 </i>
   </energy>
  </scstep>
  <scstep>
   <time name="dav">    2.46    2.47</time>
   <time name="total">    2.72    2.73</time>
   <energy>
    <i name="e_fr_energy">    -43.35324852 </i>
    <i name="e_wo_entrp">    -43.35324852 </i>
    <i name="e_0_energy">    -43.35324852 </i>
   </energy>
  </scstep>
  <scstep>
   <time name="dav">    2.53    2.54</time>
   <time name="total">    2.79    2.80</time>
   <energy>
    <i name="e_fr_energy">    -43.35324971 </i>
    <i name="e_wo_entrp">    -43.35324971 </i>
    <i name="e_0_energy">    -43.35324971 </i>
   </energy>
  </scstep>
  <scstep>
   <time name="dav">    2.53    2.53</time>
   <time name="total">    2.59    2.60</time>
   <energy>
    <i name="alphaZ">     13.45656811 </i>
    <i name="ewald">   -914.25413255 </i>
    <i name="hartreedc">    -59.65497853 </i>
    <i name="XCdc">    -71.84009799 </i>
    <i name="pawpsdc">    297.99182475 </i>
    <i name="pawaedc">   -158.15072513 </i>
    <i name="eentropy">      0.00000000 </i>
    <i name="bandstr">     24.57954804 </i>
    <i name="atom">    824.51874349 </i>
    <i name="e_fr_energy">    -43.35324980 </i>
    <i name="e_wo_entrp">    -43.35324980 </i>
    <i name="e_0_energy">    -43.35324980 </i>
   </energy>
  </scstep>
  <structure>
   <crystal>
    <varray name="basis" >
     <v>       5.43000000       0.00000000       0.00000000 </v>
     <v>       0.00000000       5.43000000       0.00000000 </v>
     <v>       0.00000000       0.00000000       5.43000000 </v>
    </varray>
    <i name="volume">    160.10300700 </i>
    <varray name="rec_basis" >
     <v>       0.18416206       0.00000000       0.00000000 </v>
     <v>       0.00000000       0.18416206       0.00000000 </v>
     <v>       0.00000000       0.00000000       0.18416206 </v>
    </varray>
   </crystal>
   <varray name="positions" >
    <v>       0.00000000       0.00000000       0.00000000 </v>
    <v>       0.50000000       0.50000000       0.00000000 </v>
    <v>       0.00000000       0.50000000       0.50000000 </v>
    <v>       0.50000000       0.00000000       0.50000000 </v>
    <v>       0.25000000       0.25000000       0.25000000 </v>
    <v>       0.75000000       0.75000000       0.25000000 </v>
    <v>       0.25000000       0.75000000       0.75000000 </v>
    <v>       0.75000000       0.25000000       0.75000000 </v>
   </varray>
  </structure>
  <varray name="forces" >
   <v>      -0.00000000       0.00000000       0.00000000 </v>
   <v>      -0.00000000       0.00000000      -0.00000000 </v>
   <v>       0.00000000      -0.00000000      -0.00000000 </v>
   <v>      -0.00000000       0.00000000      -0.00000000 </v>
   <v>      -0.00000000      -0.00000000       0.00000000 </v>
   <v>       0.00000000      -0.00000000      -0.00000000 </v>
   <v>       0.00000000       0.00000000       0.00000000 </v>
   <v>       0.00000000      -0.00000000       0.00000000 </v>
  </varray>
  <varray name="stress" >
   <v>      18.65009497      -0.00000000      -0.00000000 </v>
   <v>       0.00000000      18.65009497       0.00000000 </v>
   <v>      -0.00000000       0.00000000      18.65009497 </v>
  </varray>
  <energy>
   <i name="e_fr_energy">    -43.35324980 </i>
   <i name="e_wo_entrp">    -43.35324980 </i>
   <i name="e_0_energy">      0.00000000 </i>
  </energy>
  <time name="totalsc">   35.09   35.21</time>
  <eigenvalues>
   <array>
    <dimension dim="1">band</dimension>
    <dimension dim="2">kpoint</dimension>
    <dimension dim="3">spin</dimension>
    <field>eigene</field>
    <field>occ</field>
    <set>
     <set comment="spin 1">
      <set comment="kpoint 1">
       <r>   -6.1305    1.0000 </r>
       <r>   -1.9845    1.0000 </r>
       <r>   -1.9845    1.0000 </r>
       <r>   -1.9845    1.0000 </r>
       <r>   -1.9845    1.0000 </r>
       <r>   -1.9845    1.0000 </r>
       <r>   -1.9845    1.0000 </r>
       <r>    2.9801    1.0000 </r>
       <r>    2.9801    1.0000 </r>
       <r>    2.9801    1.0000 </r>
       <r>    2.9801    1.0000 </r>
       <r>    2.9801    1.0000 </r>
       <r>    2.9801    1.0000 </r>
       <r>    5.8331    1.0000 </r>
       <r>    5.8331    1.0000 </r>
       <r>    5.8331    1.0000 </r>
       <r>    6.5442    0.0000 </r>
       <r>    6.5442    0.0000 </r>
       <r>    6.5442    0.0000 </r>
       <r>    6.5442    0.0000 </r>
       <r>    6.5442    0.0000 </r>
      </set>
      <set comment="kpoint 2">
       <r>   -6.0868    1.0000 </r>
       <r>   -2.7311    1.0000 </r>
       <r>   -1.9701    1.0000 </r>
       <r>   -1.9701    1.0000 </r>
       <r>   -1.9701    1.0000 </r>
       <r>   -1.9701    1.0000 </r>
       <r>   -1.1858    1.0000 </r>
       <r>    2.8555    1.0000 </r>
       <r>    2.8555    1.0000 </r>
       <r>    2.8555    1.0000 </r>
       <r>    2.8555    1.0000 </r>
       <r>    3.0196    1.0000 </r>
       <r>    3.0196    1.0000 </r>
       <r>    5.5528    1.0000 </r>
       <r>    5.6561    1.0000 </r>
       <r>    5.6561    1.0000 </r>
       <r>    6.4240    0.0000 </r>
       <r>    6.7797    0.0000 </r>
       <r>    6.7797    0.0000 </r>
       <r>    6.7797    0.0000 </r>
       <r>    6.7801    0.0000 </r>
      </set>
      <set comment="kpoint 3">
       <r>   -5.9557    1.0000 </r>
       <r>   -3.4170    1.0000 </r>
       <r>   -1.9314    1.0000 </r>
       <r>   -1.9314    1.0000 </r>
       <r>   -1.9314    1.0000 </r>
       <r>   -1.9314    1.0000 </r>
       <r>   -0.3448    1.0000 </r>
       <r>    2.5707    1.0000 </r>
       <r>    2.5707    1.0000 </r>
       <r>    2.5707    1.0000 </r>
       <r>    2.5707    1.0000 </r>
       <r>    3.1377    1.0000 </r>
       <r>    3.1377    1.0000 </r>
       <r>    4.8946    1.0000 </r>
       <r>    5.2551    1.0000 </r>
       <r>    5.2551    1.0000 </r>
       <r>    6.4154    0.0000 </r>
       <r>    7.1456    0.0000 </r>
       <r>    7.3985    0.0000 </r>
       <r>    7.3985    0.0000 </r>
       <r>    7.3985    0.0000 </r>
      </set>
      <set comment="kpoint 4">
       <r>   -5.7379    1.0000 </r>
       <r>   -4.0353    1.0000 </r>
       <r>   -1.8808    1.0000 </r>
       <r>   -1.8808    1.0000 </r>
       <r>   -1.8808    1.0000 </r>
       <r>   -1.8808    1.0000 </r>
       <r>    0.5270    1.0000 </r>
       <r>    2.2718    1.0000 </r>
       <r>    2.2718    1.0000 </r>
       <r>    2.2718    1.0000 </r>
       <r>    2.2718    1.0000 </r>
       <r>    3.3329    1.0000 </r>
       <r>    3.3329    1.0000 </r>
       <r>    4.0819    1.0000 </r>
       <r>    4.7925    1.0000 </r>
       <r>    4.7925    1.0000 </r>
       <r>    6.5092    0.0000 </r>
       <r>    7.6356    0.0000 </r>
       <r>    7.6640    0.0000 </r>
       <r>    8.2608    0.0000 </r>
       <r>    8.2608    0.0000 </r>
      </set>
      <set comment="kpoint 5">
       <r>   -5.4347    1.0000 </r>
       <r>   -4.5805    1.0000 </r>
       <r>   -1.8376    1.0000 </r>
       <r>   -1.8376    1.0000 </r>
       <r>   -1.8376    1.0000 </r>
       <r>   -1.8376    1.0000 </r>
       <r>    1.4178    1.0000 </r>
       <r>    2.0570    1.0000 </r>
       <r>    2.0570    1.0000 </r>
       <r>    2.0570    1.0000 </r>
       <r>    2.0570    1.0000 </r>
       <r>    3.2104    1.0000 </r>
       <r>    3.6027    1.0000 </r>
       <r>    3.6027    1.0000 </r>
       <r>    4.3442    1.0000 </r>
       <r>    4.3442    1.0000 </r>
       <r>    6.6966    0.0000 </r>
       <r>    7.2969    0.0000 </r>
       <r>    8.2499    0.0000 </r>
       <r>    9.2683    0.0000 </r>
       <r>    9.2683    0.0000 </r>
      </set>
      <set comment="kpoint 6">
       <r>   -5.0481    1.0000 </r>
       <r>   -5.0481    1.0000 </r>
       <r>   -1.8205    1.0000 </r>
       <r>   -1.8205    1.0000 </r>
       <r>   -1.8205    1.0000 </r>
       <r>   -1.8205    1.0000 </r>
       <r>    1.9796    1.0000 </r>
       <r>    1.9796    1.0000 </r>
       <r>    1.9796    1.0000 </r>
       <r>    1.9796    1.0000 </r>
       <r>    2.3167    1.0000 </r>
       <r>    2.3167    1.0000 </r>
       <r>    3.9424    1.0000 </r>
       <r>    3.9424    1.0000 </r>
       <r>    3.9424    1.0000 </r>
       <r>    3.9424    1.0000 </r>
       <r>    6.9650    0.0000 </r>
       <r>    6.9650    0.0000 </r>
       <r>    8.9704    0.0000 </r>
       <r>    8.9704    0.0000 </r>
       <r>   10.1069    0.0000 </r>
      </set>
      <set comment="kpoint 7">
       <r>   -6.0431    1.0000 </r>
       <r>   -2.7073    1.0000 </r>
       <r>   -2.7073    1.0000 </r>
       <r>   -2.0258    1.0000 </r>
       <r>   -1.8898    1.0000 </r>
       <r>   -1.1852    1.0000 </r>
       <r>   -1.1852    1.0000 </r>
       <r>    2.4991    1.0000 </r>
       <r>    2.8752    1.0000 </r>
       <r>    2.8752    1.0000 </r>
       <r>    2.9213    1.0000 </r>
       <r>    2.9213    1.0000 </r>
       <r>    3.0503    1.0000 </r>
       <r>    5.0943    1.0000 </r>
       <r>    5.4801    1.0000 </r>
       <r>    5.7920    1.0000 </r>
       <r>    6.6259    0.0000 </r>
       <r>    6.6707    0.0000 </r>
       <r>    6.6707    0.0000 </r>
       <r>    7.0045    0.0000 </r>
       <r>    7.0045    0.0000 </r>
      </set>
      <set comment="kpoint 8">
       <r>   -5.9124    1.0000 </r>
       <r>   -3.3869    1.0000 </r>
       <r>   -2.6392    1.0000 </r>
       <r>   -2.0691    1.0000 </r>
       <r>   -1.7810    1.0000 </r>
       <r>   -1.1892    1.0000 </r>
       <r>   -0.3650    1.0000 </r>
       <r>    2.1276    1.0000 </r>
       <r>    2.5435    1.0000 </r>
       <r>    2.7011    1.0000 </r>
       <r>    2.9786    1.0000 </r>
       <r>    2.9957    1.0000 </r>
       <r>    3.0738    1.0000 </r>
       <r>    4.4449    1.0000 </r>
       <r>    5.0783    1.0000 </r>
       <r>    5.5508    1.0000 </r>
       <r>    6.6697    0.0000 </r>
       <r>    6.9389    0.0000 </r>
       <r>    7.3092    0.0000 </r>
       <r>    7.3508    0.0000 </r>
       <r>    7.5971    0.0000 </r>
      </set>
      <set comment="kpoint 9">
       <r>   -5.6953    1.0000 </r>
       <r>   -4.0008    1.0000 </r>
       <r>   -2.5359    1.0000 </r>
       <r>   -2.1179    1.0000 </r>
       <r>   -1.6485    1.0000 </r>
       <r>   -1.2126    1.0000 </r>
       <r>    0.4758    1.0000 </r>
       <r>    1.8412    1.0000 </r>
       <r>    2.1810    1.0000 </r>
       <r>    2.4895    1.0000 </r>
       <r>    2.7818    1.0000 </r>
       <r>    3.1636    1.0000 </r>
       <r>    3.3139    1.0000 </r>
       <r>    3.7255    1.0000 </r>
       <r>    4.6133    1.0000 </r>
       <r>    5.0697    1.0000 </r>
       <r>    6.7685    0.0000 </r>
       <r>    7.6291    0.0000 </r>
       <r>    7.8228    0.0000 </r>
       <r>    7.9114    0.0000 </r>
       <r>    8.1865    0.0000 </r>
      </set>
      <set comment="kpoint 10">
       <r>   -5.3932    1.0000 </r>
       <r>   -4.5428    1.0000 </r>
       <r>   -2.4130    1.0000 </r>
       <r>   -2.1896    1.0000 </r>
       <r>   -1.5055    1.0000 </r>
       <r>   -1.2718    1.0000 </r>
       <r>    1.3212    1.0000 </r>
       <r>    1.6957    1.0000 </r>
       <r>    1.8855    1.0000 </r>
       <r>    2.3768    1.0000 </r>
       <r>    2.5517    1.0000 </r>
       <r>    2.9590    1.0000 </r>
       <r>    3.4268    1.0000 </r>
       <r>    3.6416    1.0000 </r>
       <r>    4.1638    1.0000 </r>
       <r>    4.5415    1.0000 </r>
       <r>    6.9575    0.0000 </r>
       <r>    7.5520    0.0000 </r>
       <r>    8.4188    0.0000 </r>
       <r>    8.5545    0.0000 </r>
       <r>    9.2097    0.0000 </r>
      </set>
      <set comment="kpoint 11">
       <r>   -5.0081    1.0000 </r>
       <r>   -5.0081    1.0000 </r>
       <r>   -2.2910    1.0000 </r>
       <r>   -2.2910    1.0000 </r>
       <r>   -1.3730    1.0000 </r>
       <r>   -1.3730    1.0000 </r>
       <r>    1.7131    1.0000 </r>
       <r>    1.7131    1.0000 </r>
       <r>    2.1541    1.0000 </r>
       <r>    2.1541    1.0000 </r>
       <r>    2.4003    1.0000 </r>
       <r>    2.4003    1.0000 </r>
       <r>    3.7631    1.0000 </r>
       <r>    3.7631    1.0000 </r>
       <r>    4.0545    1.0000 </r>
       <r>    4.0545    1.0000 </r>
       <r>    7.2248    0.0000 </r>
       <r>    7.2248    0.0000 </r>
       <r>    9.1174    0.0000 </r>
       <r>    9.1174    0.0000 </r>
       <r>    9.5744    0.0000 </r>
      </set>
      <set comment="kpoint 12">
       <r>   -5.7829    1.0000 </r>
       <r>   -3.2986    1.0000 </r>
       <r>   -3.2986    1.0000 </r>
       <r>   -2.2116    1.0000 </r>
       <r>   -1.6064    1.0000 </r>
       <r>   -0.4306    1.0000 </r>
       <r>   -0.4306    1.0000 </r>
       <r>    1.7678    1.0000 </r>
       <r>    2.6136    1.0000 </r>
       <r>    2.6136    1.0000 </r>
       <r>    2.9400    1.0000 </r>
       <r>    2.9400    1.0000 </r>
       <r>    3.2565    1.0000 </r>
       <r>    3.8026    1.0000 </r>
       <r>    4.6718    1.0000 </r>
       <r>    5.6553    1.0000 </r>
       <r>    6.8646    0.0000 </r>
       <r>    7.3208    0.0000 </r>
       <r>    7.3208    0.0000 </r>
       <r>    7.9106    0.0000 </r>
       <r>    7.9106    0.0000 </r>
      </set>
      <set comment="kpoint 13">
       <r>   -5.5680    1.0000 </r>
       <r>   -3.8985    1.0000 </r>
       <r>   -3.1584    1.0000 </r>
       <r>   -2.3751    1.0000 </r>
       <r>   -1.4039    1.0000 </r>
       <r>   -0.5515    1.0000 </r>
       <r>    0.3252    1.0000 </r>
       <r>    1.5489    1.0000 </r>
       <r>    2.2067    1.0000 </r>
       <r>    2.7759    1.0000 </r>
       <r>    2.8403    1.0000 </r>
       <r>    3.1355    1.0000 </r>
       <r>    3.2684    1.0000 </r>
       <r>    3.2904    1.0000 </r>
       <r>    4.2025    1.0000 </r>
       <r>    5.3739    1.0000 </r>
       <r>    7.2498    0.0000 </r>
       <r>    7.4254    0.0000 </r>
       <r>    8.2059    0.0000 </r>
       <r>    8.3449    0.0000 </r>
       <r>    8.5202    0.0000 </r>
      </set>
      <set comment="kpoint 14">
       <r>   -5.2693    1.0000 </r>
       <r>   -4.4307    1.0000 </r>
       <r>   -2.9776    1.0000 </r>
       <r>   -2.5655    1.0000 </r>
       <r>   -1.1789    1.0000 </r>
       <r>   -0.7285    1.0000 </r>
       <r>    1.0616    1.0000 </r>
       <r>    1.4952    1.0000 </r>
       <r>    1.8527    1.0000 </r>
       <r>    2.4598    1.0000 </r>
       <r>    2.8400    1.0000 </r>
       <r>    3.0246    1.0000 </r>
       <r>    3.1190    1.0000 </r>
       <r>    3.7470    1.0000 </r>
       <r>    3.7514    1.0000 </r>
       <r>    4.8615    1.0000 </r>
       <r>    7.6137    0.0000 </r>
       <r>    8.0007    0.0000 </r>
       <r>    8.1850    0.0000 </r>
       <r>    8.8978    0.0000 </r>
       <r>    9.2330    0.0000 </r>
      </set>
      <set comment="kpoint 15">
       <r>   -4.8891    1.0000 </r>
       <r>   -4.8891    1.0000 </r>
       <r>   -2.7729    1.0000 </r>
       <r>   -2.7729    1.0000 </r>
       <r>   -0.9461    1.0000 </r>
       <r>   -0.9461    1.0000 </r>
       <r>    1.6040    1.0000 </r>
       <r>    1.6040    1.0000 </r>
       <r>    1.7718    1.0000 </r>
       <r>    1.7718    1.0000 </r>
       <r>    2.9464    1.0000 </r>
       <r>    2.9464    1.0000 </r>
       <r>    3.3531    1.0000 </r>
       <r>    3.3531    1.0000 </r>
       <r>    4.2877    1.0000 </r>
       <r>    4.2877    1.0000 </r>
       <r>    7.8730    0.0000 </r>
       <r>    7.8730    0.0000 </r>
       <r>    8.9681    0.0000 </r>
       <r>    8.9681    0.0000 </r>
       <r>    9.5311    0.0000 </r>
      </set>
      <set comment="kpoint 16">
       <r>   -5.3571    1.0000 </r>
       <r>   -3.7327    1.0000 </r>
       <r>   -3.7327    1.0000 </r>
       <r>   -2.6573    1.0000 </r>
       <r>   -1.1358    1.0000 </r>
       <r>    0.0880    1.0000 </r>
       <r>    0.0880    1.0000 </r>
       <r>    1.4210    1.0000 </r>
       <r>    2.3389    1.0000 </r>
       <r>    2.3389    1.0000 </r>
       <r>    2.5191    1.0000 </r>
       <r>    3.3182    1.0000 </r>
       <r>    3.3182    1.0000 </r>
       <r>    3.5868    1.0000 </r>
       <r>    3.7300    1.0000 </r>
       <r>    5.3878    1.0000 </r>
       <r>    7.2478    0.0000 </r>
       <r>    8.3109    0.0000 </r>
       <r>    8.3109    0.0000 </r>
       <r>    8.9007    0.0000 </r>
       <r>    9.1154    0.0000 </r>
      </set>
      <set comment="kpoint 17">
       <r>   -5.0644    1.0000 </r>
       <r>   -4.2470    1.0000 </r>
       <r>   -3.5112    1.0000 </r>
       <r>   -2.9542    1.0000 </r>
       <r>   -0.8410    1.0000 </r>
       <r>   -0.2069    1.0000 </r>
       <r>    0.7040    1.0000 </r>
       <r>    1.4572    1.0000 </r>
       <r>    1.9082    1.0000 </r>
       <r>    1.9445    1.0000 </r>
       <r>    2.5684    1.0000 </r>
       <r>    3.2789    1.0000 </r>
       <r>    3.4165    1.0000 </r>
       <r>    3.6552    1.0000 </r>
       <r>    3.8941    1.0000 </r>
       <r>    5.0557    1.0000 </r>
       <r>    7.6916    0.0000 </r>
       <r>    8.4914    0.0000 </r>
       <r>    9.0164    0.0000 </r>
       <r>    9.0555    0.0000 </r>
       <r>    9.3333    0.0000 </r>
      </set>
      <set comment="kpoint 18">
       <r>   -4.6929    1.0000 </r>
       <r>   -4.6929    1.0000 </r>
       <r>   -3.2459    1.0000 </r>
       <r>   -3.2459    1.0000 </r>
       <r>   -0.5258    1.0000 </r>
       <r>   -0.5258    1.0000 </r>
       <r>    1.3061    1.0000 </r>
       <r>    1.3061    1.0000 </r>
       <r>    1.6401    1.0000 </r>
       <r>    1.6401    1.0000 </r>
       <r>    2.8856    1.0000 </r>
       <r>    2.8856    1.0000 </r>
       <r>    3.5555    1.0000 </r>
       <r>    3.5555    1.0000 </r>
       <r>    4.5070    1.0000 </r>
       <r>    4.5070    1.0000 </r>
       <r>    8.4842    0.0000 </r>
       <r>    8.4842    0.0000 </r>
       <r>    8.7340    0.0000 </r>
       <r>    8.7340    0.0000 </r>
       <r>    9.4566    0.0000 </r>
      </set>
      <set comment="kpoint 19">
       <r>   -4.7810    1.0000 </r>
       <r>   -3.9971    1.0000 </r>
       <r>   -3.9971    1.0000 </r>
       <r>   -3.3359    1.0000 </r>
       <r>   -0.4811    1.0000 </r>
       <r>    0.3054    1.0000 </r>
       <r>    0.3054    1.0000 </r>
       <r>    1.3577    1.0000 </r>
       <r>    1.5672    1.0000 </r>
       <r>    2.1473    1.0000 </r>
       <r>    2.1473    1.0000 </r>
       <r>    2.8317    1.0000 </r>
       <r>    4.0172    1.0000 </r>
       <r>    4.0433    1.0000 </r>
       <r>    4.0433    1.0000 </r>
       <r>    4.9873    1.0000 </r>
       <r>    7.7455    0.0000 </r>
       <r>    8.7320    0.0000 </r>
       <r>    9.0197    0.0000 </r>
       <r>    9.0197    0.0000 </r>
       <r>    9.4983    0.0000 </r>
      </set>
      <set comment="kpoint 20">
       <r>   -4.4233    1.0000 </r>
       <r>   -4.4233    1.0000 </r>
       <r>   -3.6892    1.0000 </r>
       <r>   -3.6892    1.0000 </r>
       <r>   -0.0965    1.0000 </r>
       <r>   -0.0965    1.0000 </r>
       <r>    0.8236    1.0000 </r>
       <r>    0.8236    1.0000 </r>
       <r>    1.8045    1.0000 </r>
       <r>    1.8045    1.0000 </r>
       <r>    2.4478    1.0000 </r>
       <r>    2.4478    1.0000 </r>
       <r>    4.1225    1.0000 </r>
       <r>    4.1225    1.0000 </r>
       <r>    4.6152    1.0000 </r>
       <r>    4.6152    1.0000 </r>
       <r>    8.2199    0.0000 </r>
       <r>    8.2199    0.0000 </r>
       <r>    8.7362    0.0000 </r>
       <r>    8.7362    0.0000 </r>
       <r>    9.7115    0.0000 </r>
      </set>
      <set comment="kpoint 21">
       <r>   -4.0858    1.0000 </r>
       <r>   -4.0858    1.0000 </r>
       <r>   -4.0858    1.0000 </r>
       <r>   -4.0858    1.0000 </r>
       <r>    0.3527    1.0000 </r>
       <r>    0.3527    1.0000 </r>
       <r>    0.3527    1.0000 </r>
       <r>    0.3527    1.0000 </r>
       <r>    2.0796    1.0000 </r>
       <r>    2.0796    1.0000 </r>
       <r>    2.0796    1.0000 </r>
       <r>    2.0796    1.0000 </r>
       <r>    4.5047    1.0000 </r>
       <r>    4.5047    1.0000 </r>
       <r>    4.5047    1.0000 </r>
       <r>    4.5047    1.0000 </r>
       <r>    8.2874    0.0000 </r>
       <r>    8.2874    0.0000 </r>
       <r>    8.2874    0.0000 </r>
       <r>    8.2874    0.0000 </r>
       <r>   10.6290    0.0000 </r>
      </set>
      <set comment="kpoint 22">
       <r>   -5.9996    1.0000 </r>
       <r>   -2.6877    1.0000 </r>
       <r>   -2.6877    1.0000 </r>
       <r>   -2.6877    1.0000 </r>
       <r>   -1.1857    1.0000 </r>
       <r>   -1.1857    1.0000 </r>
       <r>   -1.1857    1.0000 </r>
       <r>    2.5515    1.0000 </r>
       <r>    2.5515    1.0000 </r>
       <r>    2.5515    1.0000 </r>
       <r>    3.0892    1.0000 </r>
       <r>    3.0892    1.0000 </r>
       <r>    3.0892    1.0000 </r>
       <r>    4.6870    1.0000 </r>
       <r>    5.6333    1.0000 </r>
       <r>    5.6333    1.0000 </r>
[...]
       <r>    4.5870    1.0000 </r>
       <r>    4.5870    1.0000 </r>
       <r>    4.5870    1.0000 </r>
       <r>    4.5870    1.0000 </r>
       <r>    8.0506    0.0000 </r>
       <r>    8.0506    0.0000 </r>
       <r>    8.0506    0.0000 </r>
       <r>    8.0506    0.0000 </r>
       <r>    9.2844    0.0000 </r>
      </set>
      <set comment="kpoint 53">
       <r>   -4.2498    1.0000 </r>
       <r>   -3.7435    1.0000 </r>
       <r>   -3.7435    1.0000 </r>
       <r>   -3.7435    1.0000 </r>
       <r>   -0.9911    1.0000 </r>
       <r>   -0.9911    1.0000 </r>
       <r>   -0.9911    1.0000 </r>
       <r>   -0.4392    1.0000 </r>
       <r>    3.8567    1.0000 </r>
       <r>    3.8567    1.0000 </r>
       <r>    3.8567    1.0000 </r>
       <r>    4.3871    1.0000 </r>
       <r>    4.3871    1.0000 </r>
       <r>    4.3871    1.0000 </r>
       <r>    4.7055    1.0000 </r>
       <r>    4.7055    1.0000 </r>
       <r>    7.4576    0.0000 </r>
       <r>    7.9878    0.0000 </r>
       <r>    7.9878    0.0000 </r>
       <r>    7.9878    0.0000 </r>
       <r>    9.1532    0.0000 </r>
      </set>
      <set comment="kpoint 54">
       <r>   -3.9959    1.0000 </r>
       <r>   -3.9959    1.0000 </r>
       <r>   -3.7106    1.0000 </r>
       <r>   -3.7106    1.0000 </r>
       <r>   -1.0931    1.0000 </r>
       <r>   -1.0931    1.0000 </r>
       <r>   -0.7861    1.0000 </r>
       <r>   -0.7861    1.0000 </r>
       <r>    3.9744    1.0000 </r>
       <r>    3.9744    1.0000 </r>
       <r>    4.4696    1.0000 </r>
       <r>    4.4696    1.0000 </r>
       <r>    4.4702    1.0000 </r>
       <r>    4.4702    1.0000 </r>
       <r>    4.5502    1.0000 </r>
       <r>    4.5502    1.0000 </r>
       <r>    7.6440    0.0000 </r>
       <r>    7.6440    0.0000 </r>
       <r>    7.9386    0.0000 </r>
       <r>    7.9386    0.0000 </r>
       <r>    9.0581    0.0000 </r>
      </set>
      <set comment="kpoint 55">
       <r>   -3.8311    1.0000 </r>
       <r>   -3.8311    1.0000 </r>
       <r>   -3.8311    1.0000 </r>
       <r>   -3.8311    1.0000 </r>
       <r>   -1.0325    1.0000 </r>
       <r>   -1.0325    1.0000 </r>
       <r>   -1.0325    1.0000 </r>
       <r>   -1.0325    1.0000 </r>
       <r>    4.3542    1.0000 </r>
       <r>    4.3542    1.0000 </r>
       <r>    4.3542    1.0000 </r>
       <r>    4.3542    1.0000 </r>
       <r>    4.6206    1.0000 </r>
       <r>    4.6206    1.0000 </r>
       <r>    4.6206    1.0000 </r>
       <r>    4.6206    1.0000 </r>
       <r>    7.6148    0.0000 </r>
       <r>    7.6148    0.0000 </r>
       <r>    7.6148    0.0000 </r>
       <r>    7.6148    0.0000 </r>
       <r>    9.1774    0.0000 </r>
      </set>
      <set comment="kpoint 56">
       <r>   -3.7980    1.0000 </r>
       <r>   -3.7980    1.0000 </r>
       <r>   -3.7980    1.0000 </r>
       <r>   -3.7980    1.0000 </r>
       <r>   -1.1375    1.0000 </r>
       <r>   -1.1375    1.0000 </r>
       <r>   -1.1375    1.0000 </r>
       <r>   -1.1375    1.0000 </r>
       <r>    4.6337    1.0000 </r>
       <r>    4.6337    1.0000 </r>
       <r>    4.6337    1.0000 </r>
       <r>    4.6337    1.0000 </r>
       <r>    4.6337    1.0000 </r>
       <r>    4.6337    1.0000 </r>
       <r>    4.6337    1.0000 </r>
       <r>    4.6337    1.0000 </r>
       <r>    7.3755    0.0000 </r>
       <r>    7.3755    0.0000 </r>
       <r>    7.3755    0.0000 </r>
       <r>    7.3755    0.0000 </r>
       <r>    9.1773    0.0000 </r>
      </set>
     </set>
    </set>
   </array>
  </eigenvalues>
  <separator name="orbital magnetization" >
   <v name="MAGDIPOLOUT">      0.00000000      0.00000000      0.00000000</v>
  </separator>
  <dos>
   <i name="efermi">      5.85621873 </i>
   <total>
    <array>
     <dimension dim="1">gridpoints</dimension>
     <dimension dim="2">spin</dimension>
     <field>energy</field>
     <field>total</field>
     <field>integrated</field>
     <set>
      <set comment="spin 1">
       <r>    -8.1305     0.0000     0.0000 </r>
       <r>    -8.0613     0.0000     0.0000 </r>
       <r>    -7.9921     0.0000     0.0000 </r>
       <r>    -7.9229     0.0000     0.0000 </r>
       <r>    -7.8537     0.0000     0.0000 </r>
       <r>    -7.7845     0.0000     0.0000 </r>
       <r>    -7.7153     0.0000     0.0000 </r>
       <r>    -7.6461     0.0000     0.0000 </r>
       <r>    -7.5769     0.0000     0.0000 </r>
       <r>    -7.5077     0.0000     0.0000 </r>
       <r>    -7.4385     0.0000     0.0000 </r>
       <r>    -7.3693     0.0000     0.0000 </r>
       <r>    -7.3001     0.0000     0.0000 </r>
       <r>    -7.2309     0.0000     0.0000 </r>
       <r>    -7.1617     0.0000     0.0000 </r>
       <r>    -7.0925     0.0000     0.0000 </r>
       <r>    -7.0233     0.0000     0.0000 </r>
       <r>    -6.9541     0.0000     0.0000 </r>
       <r>    -6.8849     0.0000     0.0000 </r>
       <r>    -6.8157     0.0000     0.0000 </r>
       <r>    -6.7465     0.0000     0.0000 </r>
       <r>    -6.6773     0.0000     0.0000 </r>
       <r>    -6.6081     0.0000     0.0000 </r>
       <r>    -6.5390     0.0000     0.0000 </r>
       <r>    -6.4698     0.0000     0.0000 </r>
       <r>    -6.4006     0.0000     0.0000 </r>
       <r>    -6.3314     0.0000     0.0000 </r>
       <r>    -6.2622     0.0000     0.0000 </r>
       <r>    -6.1930     0.0000     0.0000 </r>
       <r>    -6.1238     0.0044     0.0000 </r>
       <r>    -6.0546     0.3542     0.0119 </r>
       <r>    -5.9854     0.4693     0.0393 </r>
       <r>    -5.9162     0.6286     0.0784 </r>
       <r>    -5.8470     0.6996     0.1237 </r>
       <r>    -5.7778     0.8005     0.1756 </r>
       <r>    -5.7086     0.9076     0.2349 </r>
       <r>    -5.6394     0.9630     0.2994 </r>
       <r>    -5.5702     1.0287     0.3684 </r>
       <r>    -5.5010     1.1061     0.4421 </r>
       <r>    -5.4318     1.1934     0.5216 </r>
       <r>    -5.3626     1.2455     0.6062 </r>
       <r>    -5.2934     1.3012     0.6943 </r>
       <r>    -5.2242     1.3602     0.7863 </r>
       <r>    -5.1550     1.4272     0.8828 </r>
       <r>    -5.0858     1.4951     0.9839 </r>
       <r>    -5.0166     1.5629     1.0898 </r>
       <r>    -4.9474     1.6144     1.1996 </r>
       <r>    -4.8782     1.6686     1.3132 </r>
       <r>    -4.8090     1.7265     1.4307 </r>
       <r>    -4.7398     1.7882     1.5522 </r>
       <r>    -4.6706     1.8578     1.6783 </r>
       <r>    -4.6014     1.9324     1.8094 </r>
       <r>    -4.5322     1.9993     1.9457 </r>
       <r>    -4.4630     2.0608     2.0861 </r>
       <r>    -4.3938     2.2407     2.2326 </r>
       <r>    -4.3246     2.3575     2.3920 </r>
       <r>    -4.2554     2.4183     2.5576 </r>
       <r>    -4.1862     2.5974     2.7324 </r>
       <r>    -4.1170     2.6007     2.9130 </r>
       <r>    -4.0478     2.5248     3.0901 </r>
       <r>    -3.9786     2.4784     3.2630 </r>
       <r>    -3.9094     2.5282     3.4359 </r>
       <r>    -3.8402     2.9269     3.6245 </r>
       <r>    -3.7710     3.6615     3.8536 </r>
       <r>    -3.7018     3.8205     4.1159 </r>
       <r>    -3.6326     3.2303     4.3528 </r>
       <r>    -3.5634     3.4858     4.5845 </r>
       <r>    -3.4942     3.6183     4.8404 </r>
       <r>    -3.4250     2.9194     5.0553 </r>
       <r>    -3.3558     3.0704     5.2575 </r>
       <r>    -3.2866     2.8233     5.4632 </r>
       <r>    -3.2174     2.9709     5.6615 </r>
       <r>    -3.1482     3.3205     5.8822 </r>
       <r>    -3.0790     2.6482     6.0826 </r>
       <r>    -3.0098     2.4253     6.2576 </r>
       <r>    -2.9406     2.3181     6.4217 </r>
       <r>    -2.8714     2.2102     6.5783 </r>
       <r>    -2.8022     2.1146     6.7279 </r>
       <r>    -2.7330     2.0640     6.8721 </r>
       <r>    -2.6638     2.5356     7.0338 </r>
       <r>    -2.5946     2.2498     7.2160 </r>
       <r>    -2.5254     1.9358     7.3600 </r>
       <r>    -2.4562     1.6798     7.4848 </r>
       <r>    -2.3870     1.4641     7.5936 </r>
       <r>    -2.3178     1.2607     7.6878 </r>
       <r>    -2.2486     1.0672     7.7683 </r>
       <r>    -2.1794     0.8930     7.8361 </r>
       <r>    -2.1103     0.7345     7.8922 </r>
       <r>    -2.0411     0.6856     7.9404 </r>
       <r>    -1.9719     0.4810     7.9866 </r>
       <r>    -1.9027     0.3157     8.0114 </r>
       <r>    -1.8335     0.3273     8.0325 </r>
       <r>    -1.7643     0.4710     8.0601 </r>
       <r>    -1.6951     0.6161     8.0977 </r>
       <r>    -1.6259     0.7622     8.1454 </r>
       <r>    -1.5567     0.9100     8.2032 </r>
       <r>    -1.4875     1.0772     8.2718 </r>
       <r>    -1.4183     1.2693     8.3528 </r>
       <r>    -1.3491     1.5055     8.4483 </r>
       <r>    -1.2799     1.8501     8.5638 </r>
       <r>    -1.2107     2.5352     8.7112 </r>
       <r>    -1.1415     2.4693     8.9400 </r>
       <r>    -1.0723     3.3305     9.1250 </r>
       <r>    -1.0031     4.5697     9.3907 </r>
       <r>    -0.9339     7.5579     9.7965 </r>
       <r>    -0.8647     5.3936    10.2506 </r>
       <r>    -0.7955     4.4462    10.5890 </r>
       <r>    -0.7263     3.7945    10.8724 </r>
       <r>    -0.6571     3.4233    11.1202 </r>
       <r>    -0.5879     3.2611    11.3503 </r>
       <r>    -0.5187     3.0104    11.5698 </r>
       <r>    -0.4495     2.7409    11.7662 </r>
       <r>    -0.3803     2.6524    11.9568 </r>
       <r>    -0.3111     2.3243    12.1232 </r>
       <r>    -0.2419     2.2523    12.2814 </r>
       <r>    -0.1727     2.1526    12.4343 </r>
       <r>    -0.1035     2.0330    12.5790 </r>
       <r>    -0.0343     1.8978    12.7150 </r>
       <r>     0.0349     1.7946    12.8425 </r>
       <r>     0.1041     1.7343    12.9644 </r>
       <r>     0.1733     1.6929    13.0829 </r>
       <r>     0.2425     1.6571    13.1990 </r>
       <r>     0.3117     1.5717    13.3109 </r>
       <r>     0.3809     1.5481    13.4183 </r>
       <r>     0.4501     1.5364    13.5251 </r>
       <r>     0.5193     1.5124    13.6307 </r>
       <r>     0.5885     1.4567    13.7336 </r>
       <r>     0.6577     1.3782    13.8318 </r>
       <r>     0.7269     1.2993    13.9242 </r>
       <r>     0.7961     1.2396    14.0121 </r>
       <r>     0.8653     1.1956    14.0961 </r>
       <r>     0.9345     1.1649    14.1777 </r>
       <r>     1.0037     1.1383    14.2574 </r>
       <r>     1.0729     1.1179    14.3354 </r>
       <r>     1.1421     1.1209    14.4127 </r>
       <r>     1.2113     1.1516    14.4911 </r>
       <r>     1.2805     1.2156    14.5728 </r>
       <r>     1.3497     1.2980    14.6600 </r>
       <r>     1.4189     1.3733    14.7520 </r>
       <r>     1.4881     1.9423    14.8637 </r>
       <r>     1.5573     2.5834    15.0221 </r>
       <r>     1.6265     3.0650    15.2285 </r>
       <r>     1.6957     3.0634    15.4274 </r>
       <r>     1.7649     3.7159    15.6606 </r>
       <r>     1.8341     4.7043    15.9571 </r>
       <r>     1.9033     4.6954    16.2854 </r>
       <r>     1.9725     4.6421    16.6083 </r>
       <r>     2.0417     5.1981    16.9352 </r>
       <r>     2.1109     4.7439    17.2806 </r>
       <r>     2.1801     4.1104    17.5858 </r>
       <r>     2.2493     3.9692    17.8652 </r>
       <r>     2.3184     3.8479    18.1354 </r>
       <r>     2.3876     3.8329    18.3999 </r>
       <r>     2.4568     4.0782    18.6728 </r>
       <r>     2.5260     4.4376    18.9669 </r>
       <r>     2.5952     5.0087    19.2940 </r>
       <r>     2.6644     5.3877    19.6519 </r>
       <r>     2.7336     5.1845    20.0298 </r>
       <r>     2.8028     4.8931    20.3699 </r>
       <r>     2.8720     5.2329    20.7285 </r>
       <r>     2.9412     4.7825    21.0548 </r>
       <r>     3.0104     6.4209    21.4495 </r>
       <r>     3.0796     6.5704    21.9153 </r>
       <r>     3.1488     4.7935    22.3091 </r>
       <r>     3.2180     4.8161    22.6264 </r>
       <r>     3.2872     6.8465    23.0119 </r>
       <r>     3.3564     6.0931    23.4727 </r>
       <r>     3.4256     5.5687    23.8543 </r>
       <r>     3.4948     5.2895    24.2222 </r>
       <r>     3.5640     5.4873    24.5941 </r>
       <r>     3.6332     6.4156    24.9959 </r>
       <r>     3.7024     6.7178    25.4747 </r>
       <r>     3.7716     5.3259    25.8928 </r>
       <r>     3.8408     4.3873    26.2275 </r>
       <r>     3.9100     4.2343    26.5196 </r>
       <r>     3.9792     4.2895    26.8147 </r>
       <r>     4.0484     4.8255    27.1261 </r>
       <r>     4.1176     5.4007    27.4770 </r>
       <r>     4.1868     5.4684    27.8520 </r>
       <r>     4.2560     5.2206    28.2235 </r>
       <r>     4.3252     4.9012    28.5738 </r>
       <r>     4.3944     4.8413    28.9080 </r>
       <r>     4.4636     4.4482    29.2340 </r>
       <r>     4.5328     4.4182    29.5341 </r>
       <r>     4.6020     6.2517    29.9317 </r>
       <r>     4.6712     3.4233    30.2247 </r>
       <r>     4.7404     3.0842    30.4455 </r>
       <r>     4.8096     2.8412    30.6533 </r>
       <r>     4.8788     2.4501    30.8346 </r>
       <r>     4.9480     2.2248    30.9951 </r>
       <r>     5.0172     2.1653    31.1450 </r>
       <r>     5.0864     1.7826    31.2781 </r>
       <r>     5.1556     1.7346    31.4053 </r>
       <r>     5.2248     1.5055    31.5162 </r>
       <r>     5.2940     1.3399    31.6136 </r>
       <r>     5.3632     1.2308    31.7035 </r>
       <r>     5.4324     0.9361    31.7752 </r>
       <r>     5.5016     1.0999    31.8399 </r>
       <r>     5.5708     0.8402    31.9104 </r>
       <r>     5.6400     0.4549    31.9548 </r>
       <r>     5.7092     0.3449    31.9820 </r>
       <r>     5.7784     0.1037    31.9986 </r>
       <r>     5.8476     0.0000    32.0000 </r>
       <r>     5.9168     0.0000    32.0000 </r>
       <r>     5.9860     0.0000    32.0000 </r>
       <r>     6.0552     0.0000    32.0000 </r>
       <r>     6.1244     0.0000    32.0000 </r>
       <r>     6.1936     0.0000    32.0000 </r>
       <r>     6.2628     0.0000    32.0000 </r>
       <r>     6.3320     0.0000    32.0000 </r>
       <r>     6.4012     0.0000    32.0000 </r>
       <r>     6.4704     0.1390    32.0034 </r>
       <r>     6.5396     0.3250    32.0196 </r>
       <r>     6.6088     0.5216    32.0485 </r>
       <r>     6.6780     1.3110    32.1071 </r>
       <r>     6.7471     1.3129    32.1991 </r>
       <r>     6.8163     1.3055    32.2877 </r>
       <r>     6.8855     1.3393    32.3799 </r>
       <r>     6.9547     1.4250    32.4752 </r>
       <r>     7.0239     1.6495    32.5808 </r>
       <r>     7.0931     1.8359    32.7042 </r>
       <r>     7.1623     1.9568    32.8334 </r>
       <r>     7.2315     2.1797    32.9763 </r>
       <r>     7.3007     2.8249    33.1541 </r>
       <r>     7.3699     2.7235    33.3388 </r>
       <r>     7.4391     2.8403    33.5308 </r>
       <r>     7.5083     3.1204    33.7364 </r>
       <r>     7.5775     3.5313    33.9653 </r>
       <r>     7.6467     3.8096    34.2350 </r>
       <r>     7.7159     3.9323    34.4971 </r>
       <r>     7.7851     4.2960    34.7824 </r>
       <r>     7.8543     4.6143    35.0924 </r>
       <r>     7.9235     4.8054    35.4155 </r>
       <r>     7.9927     5.9585    35.7828 </r>
       <r>     8.0619     6.0280    36.2103 </r>
       <r>     8.1311     6.1446    36.6340 </r>
       <r>     8.2003     6.0627    37.0571 </r>
       <r>     8.2695     6.7937    37.4853 </r>
       <r>     8.3387     5.2283    37.8908 </r>
       <r>     8.4079     5.0095    38.2466 </r>
       <r>     8.4771     4.4895    38.5729 </r>
       <r>     8.5463     4.3707    38.8765 </r>
       <r>     8.6155     3.9341    39.1696 </r>
       <r>     8.6847     3.7178    39.4273 </r>
       <r>     8.7539     3.8304    39.6902 </r>
       <r>     8.8231     3.5824    39.9470 </r>
       <r>     8.8923     3.2796    40.1847 </r>
       <r>     8.9615     2.8621    40.3987 </r>
       <r>     9.0307     1.8769    40.5694 </r>
       <r>     9.0999     2.7081    40.7093 </r>
       <r>     9.1691     7.8212    41.0287 </r>
       <r>     9.2383     3.3195    41.3930 </r>
       <r>     9.3075     1.9906    41.5673 </r>
       <r>     9.3767     1.6052    41.6894 </r>
       <r>     9.4459     1.4243    41.7939 </r>
       <r>     9.5151     0.9388    41.8726 </r>
       <r>     9.5843     0.5453    41.9234 </r>
       <r>     9.6535     0.2943    41.9519 </r>
       <r>     9.7227     0.1457    41.9665 </r>
       <r>     9.7919     0.0954    41.9744 </r>
       <r>     9.8611     0.0778    41.9804 </r>
       <r>     9.9303     0.0625    41.9852 </r>
       <r>     9.9995     0.0497    41.9891 </r>
       <r>    10.0687     0.0393    41.9922 </r>
       <r>    10.1379     0.0311    41.9946 </r>
       <r>    10.2071     0.0238    41.9965 </r>
       <r>    10.2763     0.0173    41.9979 </r>
       <r>    10.3455     0.0116    41.9989 </r>
       <r>    10.4147     0.0067    41.9995 </r>
       <r>    10.4839     0.0031    41.9999 </r>
       <r>    10.5531     0.0008    42.0000 </r>
       <r>    10.6223     0.0000    42.0000 </r>
       <r>    10.6915     0.0000    42.0000 </r>
       <r>    10.7607     0.0000    42.0000 </r>
       <r>    10.8299     0.0000    42.0000 </r>
       <r>    10.8991     0.0000    42.0000 </r>
       <r>    10.9683     0.0000    42.0000 </r>
       <r>    11.0375     0.0000    42.0000 </r>
       <r>    11.1066     0.0000    42.0000 </r>
       <r>    11.1758     0.0000    42.0000 </r>
       <r>    11.2450     0.0000    42.0000 </r>
       <r>    11.3142     0.0000    42.0000 </r>
       <r>    11.3834     0.0000    42.0000 </r>
       <r>    11.4526     0.0000    42.0000 </r>
       <r>    11.5218     0.0000    42.0000 </r>
       <r>    11.5910     0.0000    42.0000 </r>
       <r>    11.6602     0.0000    42.0000 </r>
       <r>    11.7294     0.0000    42.0000 </r>
       <r>    11.7986     0.0000    42.0000 </r>
       <r>    11.8678     0.0000    42.0000 </r>
       <r>    11.9370     0.0000    42.0000 </r>
       <r>    12.0062     0.0000    42.0000 </r>
       <r>    12.0754     0.0000    42.0000 </r>
       <r>    12.1446     0.0000    42.0000 </r>
       <r>    12.2138     0.0000    42.0000 </r>
       <r>    12.2830     0.0000    42.0000 </r>
       <r>    12.3522     0.0000    42.0000 </r>
       <r>    12.4214     0.0000    42.0000 </r>
       <r>    12.4906     0.0000    42.0000 </r>
       <r>    12.5598     0.0000    42.0000 </r>
       <r>    12.6290     0.0000    42.0000 </r>
      </set>
     </set>
    </array>
   </total>
  </dos>
 </calculation>
 <structure name="finalpos" >
  <crystal>
   <varray name="basis" >
    <v>       5.43000000       0.00000000       0.00000000 </v>
    <v>       0.00000000       5.43000000       0.00000000 </v>
    <v>       0.00000000       0.00000000       5.43000000 </v>
   </varray>
   <i name="volume">    160.10300700 </i>
   <varray name="rec_basis" >
    <v>       0.18416206       0.00000000       0.00000000 </v>
    <v>       0.00000000       0.18416206       0.00000000 </v>
    <v>       0.00000000       0.00000000       0.18416206 </v>
   </varray>
  </crystal>
  <varray name="positions" >
   <v>       0.00000000       0.00000000       0.00000000 </v>
   <v>       0.50000000       0.50000000       0.00000000 </v>
   <v>       0.00000000       0.50000000       0.50000000 </v>
   <v>       0.50000000       0.00000000       0.50000000 </v>
   <v>       0.25000000       0.25000000       0.25000000 </v>
   <v>       0.75000000       0.75000000       0.25000000 </v>
   <v>       0.25000000       0.75000000       0.75000000 </v>
   <v>       0.75000000       0.25000000       0.75000000 </v>
  </varray>
 </structure>
</modeling>
