   1   1   0   0
  0.1798157E+02  0.2858577E-09  0.2858577E-09  0.2858577E-09  0.5000000E-15
  1.000000000000000E-004
  CAR 
 Nb gaussian                             
    103.21551390    -32.22233266  301      4.84657351      1.00000000
    -32.222  0.0000E+00  0.0000E+00
    -31.771  0.0000E+00  0.0000E+00
    -31.319  0.0000E+00  0.0000E+00
    -30.868  0.0000E+00  0.0000E+00
    -30.416  0.0000E+00  0.0000E+00
    -29.965  0.0000E+00  0.0000E+00
    -29.514  0.0000E+00  0.0000E+00
    -29.062  0.0000E+00  0.0000E+00
    -28.611  0.0000E+00  0.0000E+00
    -28.159  0.0000E+00  0.0000E+00
    -27.708  0.0000E+00  0.0000E+00
    -27.256  0.0000E+00  0.0000E+00
    -26.805  0.5822E-08  0.2628E-08
    -26.353  0.3683E-02  0.1663E-02
    -25.902  0.1088E+01  0.4930E+00
    -25.450  0.3607E+01  0.2121E+01
    -24.999  0.4465E+01  0.4137E+01
    -24.548  0.3972E+01  0.5930E+01
    -24.096  0.1546E+00  0.6000E+01
    -23.645  0.4563E-05  0.6000E+01
    -23.193  0.1256E-13  0.6000E+01
    -22.742  0.0000E+00  0.6000E+01
    -22.290  0.0000E+00  0.6000E+01
    -21.839  0.0000E+00  0.6000E+01
    -21.387  0.0000E+00  0.6000E+01
    -20.936  0.0000E+00  0.6000E+01
    -20.484  0.0000E+00  0.6000E+01
    -20.033  0.0000E+00  0.6000E+01
    -19.581  0.0000E+00  0.6000E+01
    -19.130  0.0000E+00  0.6000E+01
    -18.679  0.0000E+00  0.6000E+01
    -18.227  0.0000E+00  0.6000E+01
    -17.776  0.0000E+00  0.6000E+01
    -17.324  0.0000E+00  0.6000E+01
    -16.873  0.0000E+00  0.6000E+01
    -16.421  0.0000E+00  0.6000E+01
    -15.970  0.0000E+00  0.6000E+01
    -15.518  0.0000E+00  0.6000E+01
    -15.067  0.0000E+00  0.6000E+01
    -14.615  0.0000E+00  0.6000E+01
    -14.164  0.0000E+00  0.6000E+01
    -13.712  0.0000E+00  0.6000E+01
    -13.261  0.0000E+00  0.6000E+01
    -12.810  0.0000E+00  0.6000E+01
    -12.358  0.0000E+00  0.6000E+01
    -11.907  0.0000E+00  0.6000E+01
    -11.455  0.0000E+00  0.6000E+01
    -11.004  0.0000E+00  0.6000E+01
    -10.552  0.0000E+00  0.6000E+01
    -10.101  0.0000E+00  0.6000E+01
     -9.649  0.0000E+00  0.6000E+01
     -9.198  0.0000E+00  0.6000E+01
     -8.746  0.0000E+00  0.6000E+01
     -8.295  0.0000E+00  0.6000E+01
     -7.844  0.0000E+00  0.6000E+01
     -7.392  0.0000E+00  0.6000E+01
     -6.941  0.0000E+00  0.6000E+01
     -6.489  0.0000E+00  0.6000E+01
     -6.038  0.0000E+00  0.6000E+01
     -5.586  0.0000E+00  0.6000E+01
     -5.135  0.0000E+00  0.6000E+01
     -4.683  0.0000E+00  0.6000E+01
     -4.232  0.0000E+00  0.6000E+01
     -3.780  0.0000E+00  0.6000E+01
     -3.329  0.0000E+00  0.6000E+01
     -2.877  0.0000E+00  0.6000E+01
     -2.426  0.0000E+00  0.6000E+01
     -1.975  0.5217E-13  0.6000E+01
     -1.523  0.1006E-05  0.6000E+01
     -1.072  0.2622E-02  0.6001E+01
     -0.620  0.3114E-01  0.6015E+01
     -0.169  0.6306E-01  0.6044E+01
      0.283  0.9226E-01  0.6085E+01
      0.734  0.1292E+00  0.6144E+01
      1.186  0.2909E+00  0.6275E+01
      1.637  0.8821E+00  0.6673E+01
      2.089  0.1181E+01  0.7206E+01
      2.540  0.1352E+01  0.7817E+01
      2.992  0.8504E+00  0.8201E+01
      3.443  0.1412E+01  0.8838E+01
      3.894  0.1633E+01  0.9575E+01
      4.346  0.1213E+01  0.1012E+02
      4.797  0.1766E+01  0.1092E+02
      5.249  0.1117E+01  0.1142E+02
      5.700  0.6033E+00  0.1170E+02
      6.152  0.4324E+00  0.1189E+02
      6.603  0.6332E+00  0.1218E+02
      7.055  0.8651E+00  0.1257E+02
      7.506  0.1086E+01  0.1306E+02
      7.958  0.1283E+01  0.1364E+02
      8.409  0.1432E+01  0.1428E+02
      8.860  0.1931E+01  0.1516E+02
      9.312  0.1506E+01  0.1584E+02
      9.763  0.9289E+00  0.1626E+02
     10.215  0.5202E+00  0.1649E+02
     10.666  0.6291E+00  0.1677E+02
     11.118  0.3169E+00  0.1692E+02
     11.569  0.3601E+00  0.1708E+02
     12.021  0.3437E+00  0.1724E+02
     12.472  0.2584E+00  0.1735E+02
     12.924  0.3381E+00  0.1750E+02
     13.375  0.2360E+00  0.1761E+02
     13.827  0.2651E+00  0.1773E+02
     14.278  0.2136E+00  0.1783E+02
     14.729  0.2141E+00  0.1792E+02
     15.181  0.1891E+00  0.1801E+02
     15.632  0.3149E+00  0.1815E+02
     16.084  0.4769E+00  0.1837E+02
     16.535  0.4794E+00  0.1858E+02
     16.987  0.6106E+00  0.1886E+02
     17.438  0.5731E+00  0.1912E+02
     17.890  0.6210E+00  0.1940E+02
     18.341  0.8907E+00  0.1980E+02
     18.793  0.8006E+00  0.2016E+02
     19.244  0.7623E+00  0.2051E+02
     19.696  0.7438E+00  0.2084E+02
     20.147  0.6157E+00  0.2112E+02
     20.598  0.6672E+00  0.2142E+02
     21.050  0.6543E+00  0.2172E+02
     21.501  0.8196E+00  0.2209E+02
     21.953  0.9005E+00  0.2249E+02
     22.404  0.7738E+00  0.2284E+02
     22.856  0.6786E+00  0.2315E+02
     23.307  0.5384E+00  0.2339E+02
     23.759  0.4303E+00  0.2359E+02
     24.210  0.5165E+00  0.2382E+02
     24.662  0.6921E+00  0.2413E+02
     25.113  0.8758E+00  0.2453E+02
     25.564  0.7674E+00  0.2487E+02
     26.016  0.6755E+00  0.2518E+02
     26.467  0.4636E+00  0.2539E+02
     26.919  0.5613E+00  0.2564E+02
     27.370  0.5179E+00  0.2587E+02
     27.822  0.5793E+00  0.2614E+02
     28.273  0.5352E+00  0.2638E+02
     28.725  0.7604E+00  0.2672E+02
     29.176  0.6748E+00  0.2703E+02
     29.628  0.8585E+00  0.2741E+02
     30.079  0.6807E+00  0.2772E+02
     30.531  0.6881E+00  0.2803E+02
     30.982  0.6119E+00  0.2831E+02
     31.433  0.7280E+00  0.2864E+02
     31.885  0.6559E+00  0.2893E+02
     32.336  0.7245E+00  0.2926E+02
     32.788  0.9419E+00  0.2968E+02
     33.239  0.8619E+00  0.3007E+02
     33.691  0.8646E+00  0.3046E+02
     34.142  0.9185E+00  0.3088E+02
     34.594  0.7764E+00  0.3123E+02
     35.045  0.8244E+00  0.3160E+02
     35.497  0.6204E+00  0.3188E+02
     35.948  0.6490E+00  0.3217E+02
     36.400  0.5654E+00  0.3243E+02
     36.851  0.6281E+00  0.3271E+02
     37.302  0.9882E+00  0.3316E+02
     37.754  0.9452E+00  0.3359E+02
     38.205  0.8755E+00  0.3398E+02
     38.657  0.8924E+00  0.3438E+02
     39.108  0.7100E+00  0.3470E+02
     39.560  0.7964E+00  0.3506E+02
     40.011  0.7936E+00  0.3542E+02
     40.463  0.8070E+00  0.3579E+02
     40.914  0.9596E+00  0.3622E+02
     41.366  0.8545E+00  0.3661E+02
     41.817  0.1272E+01  0.3718E+02
     42.268  0.3048E+01  0.3856E+02
     42.720  0.1993E+01  0.3946E+02
     43.171  0.1156E+01  0.3998E+02
     43.623  0.1176E+01  0.4051E+02
     44.074  0.1003E+01  0.4096E+02
     44.526  0.8881E+00  0.4136E+02
     44.977  0.1097E+01  0.4186E+02
     45.429  0.9539E+00  0.4229E+02
     45.880  0.9388E+00  0.4271E+02
     46.332  0.6597E+00  0.4301E+02
     46.783  0.5386E+00  0.4325E+02
     47.235  0.7130E+00  0.4358E+02
     47.686  0.8597E+00  0.4396E+02
     48.137  0.9444E+00  0.4439E+02
     48.589  0.7676E+00  0.4474E+02
     49.040  0.5984E+00  0.4501E+02
     49.492  0.7549E+00  0.4535E+02
     49.943  0.8370E+00  0.4572E+02
     50.395  0.8466E+00  0.4611E+02
     50.846  0.1074E+01  0.4659E+02
     51.298  0.9639E+00  0.4703E+02
     51.749  0.8406E+00  0.4741E+02
     52.201  0.9639E+00  0.4784E+02
     52.652  0.9485E+00  0.4827E+02
     53.104  0.9492E+00  0.4870E+02
     53.555  0.8052E+00  0.4906E+02
     54.006  0.7958E+00  0.4942E+02
     54.458  0.8709E+00  0.4981E+02
     54.909  0.9858E+00  0.5026E+02
     55.361  0.9394E+00  0.5068E+02
     55.812  0.8856E+00  0.5108E+02
     56.264  0.9753E+00  0.5152E+02
     56.715  0.8952E+00  0.5193E+02
     57.167  0.1112E+01  0.5243E+02
     57.618  0.1023E+01  0.5289E+02
     58.070  0.1027E+01  0.5336E+02
     58.521  0.1053E+01  0.5383E+02
     58.972  0.9356E+00  0.5425E+02
     59.424  0.1096E+01  0.5475E+02
     59.875  0.1106E+01  0.5525E+02
     60.327  0.1105E+01  0.5575E+02
     60.778  0.1050E+01  0.5622E+02
     61.230  0.9016E+00  0.5663E+02
     61.681  0.9114E+00  0.5704E+02
     62.133  0.1103E+01  0.5754E+02
     62.584  0.1118E+01  0.5804E+02
     63.036  0.8762E+00  0.5844E+02
     63.487  0.9545E+00  0.5887E+02
     63.939  0.8777E+00  0.5926E+02
     64.390  0.8210E+00  0.5963E+02
     64.841  0.1057E+01  0.6011E+02
     65.293  0.1017E+01  0.6057E+02
     65.744  0.8807E+00  0.6097E+02
     66.196  0.1001E+01  0.6142E+02
     66.647  0.1003E+01  0.6187E+02
     67.099  0.1112E+01  0.6238E+02
     67.550  0.9443E+00  0.6280E+02
     68.002  0.9339E+00  0.6322E+02
     68.453  0.1069E+01  0.6371E+02
     68.905  0.1022E+01  0.6417E+02
     69.356  0.9908E+00  0.6461E+02
     69.808  0.1072E+01  0.6510E+02
     70.259  0.9827E+00  0.6554E+02
     70.710  0.1006E+01  0.6600E+02
     71.162  0.1024E+01  0.6646E+02
     71.613  0.7562E+00  0.6680E+02
     72.065  0.1065E+01  0.6728E+02
     72.516  0.1338E+01  0.6788E+02
     72.968  0.1067E+01  0.6837E+02
     73.419  0.1005E+01  0.6882E+02
     73.871  0.1181E+01  0.6935E+02
     74.322  0.1165E+01  0.6988E+02
     74.774  0.8727E+00  0.7027E+02
     75.225  0.9837E+00  0.7072E+02
     75.676  0.9591E+00  0.7115E+02
     76.128  0.9478E+00  0.7158E+02
     76.579  0.1135E+01  0.7209E+02
     77.031  0.1295E+01  0.7268E+02
     77.482  0.1309E+01  0.7327E+02
     77.934  0.1049E+01  0.7374E+02
     78.385  0.8546E+00  0.7413E+02
     78.837  0.9142E+00  0.7454E+02
     79.288  0.1072E+01  0.7502E+02
     79.740  0.9861E+00  0.7547E+02
     80.191  0.1171E+01  0.7600E+02
     80.643  0.1146E+01  0.7651E+02
     81.094  0.1292E+01  0.7710E+02
     81.545  0.9922E+00  0.7755E+02
     81.997  0.9184E+00  0.7796E+02
     82.448  0.8655E+00  0.7835E+02
     82.900  0.7969E+00  0.7871E+02
     83.351  0.7862E+00  0.7907E+02
     83.803  0.6929E+00  0.7938E+02
     84.254  0.3634E+00  0.7954E+02
     84.706  0.3047E+00  0.7968E+02
     85.157  0.2266E+00  0.7978E+02
     85.609  0.6542E-01  0.7981E+02
     86.060  0.7632E-01  0.7985E+02
     86.512  0.8308E-01  0.7988E+02
     86.963  0.6980E-01  0.7991E+02
     87.414  0.5265E-01  0.7994E+02
     87.866  0.2999E-01  0.7995E+02
     88.317  0.1272E-01  0.7996E+02
     88.769  0.4212E-04  0.7996E+02
     89.220  0.6532E-03  0.7996E+02
     89.672  0.3706E-02  0.7996E+02
     90.123  0.7816E-04  0.7996E+02
     90.575  0.6274E-02  0.7996E+02
     91.026  0.1173E-01  0.7997E+02
     91.478  0.1502E-01  0.7997E+02
     91.929  0.3006E-03  0.7998E+02
     92.380  0.1859E-01  0.7998E+02
     92.832  0.1455E-01  0.7999E+02
     93.283  0.1099E-01  0.7999E+02
     93.735  0.6444E-04  0.7999E+02
     94.186  0.4919E-10  0.8000E+02
     94.638  0.0000E+00  0.8000E+02
     95.089  0.0000E+00  0.8000E+02
     95.541  0.0000E+00  0.8000E+02
     95.992  0.3313E-12  0.8000E+02
     96.444  0.2949E-05  0.8000E+02
     96.895  0.2997E-02  0.8000E+02
     97.347  0.7933E-02  0.8000E+02
     97.798  0.1421E-03  0.8000E+02
     98.249  0.5693E-09  0.8000E+02
     98.701  0.0000E+00  0.8000E+02
     99.152  0.0000E+00  0.8000E+02
     99.604  0.0000E+00  0.8000E+02
    100.055  0.0000E+00  0.8000E+02
    100.507  0.0000E+00  0.8000E+02
    100.958  0.0000E+00  0.8000E+02
    101.410  0.0000E+00  0.8000E+02
    101.861  0.0000E+00  0.8000E+02
    102.313  0.0000E+00  0.8000E+02
    102.764  0.0000E+00  0.8000E+02
    103.216  0.0000E+00  0.8000E+02
