       N       E                     dE             d eps       ncg     rms          rms(c)
DAV:   1    -0.998431052985E+01   -0.99843E+01   -0.55354E+03 26960   0.185E+02
DAV:   2    -0.111518573849E+02   -0.11675E+01   -0.11340E+01 22680   0.987E+00
DAV:   3    -0.111520976127E+02   -0.24023E-03   -0.24022E-03 32800   0.140E-01
DAV:   4    -0.111520976172E+02   -0.45027E-08   -0.46249E-08 23960   0.225E-04
DAV:   5    -0.111520976174E+02   -0.18736E-09   -0.14078E-13 31680   0.287E-07
DAV:   6    -0.111520976171E+02    0.37494E-09    0.26697E-13 21440   0.471E-08
   1 F= -.11152098E+02 E0= -.11136754E+02  d E =-.306864E-01
