 vasp.5.4.4.18Apr17-6-g9f103f2a35 (build May 20 2018 16:52:39) complex          
  
 executed on             LinuxIFC date 2022.11.17  22:01:41
 running on   40 total cores
 distrk:  each k-point on   40 cores,    1 groups
 distr:  one band on NCORES_PER_BAND=   1 cores,   40 groups


--------------------------------------------------------------------------------------------------------


 INCAR:
 POTCAR:    PAW Nb_pv 09Jan2002                   

 ----------------------------------------------------------------------------- 
|                                                                             |
|           W    W    AA    RRRRR   N    N  II  N    N   GGGG   !!!           |
|           W    W   A  A   R    R  NN   N  II  NN   N  G    G  !!!           |
|           W    W  A    A  R    R  N N  N  II  N N  N  G       !!!           |
|           W WW W  AAAAAA  RRRRR   N  N N  II  N  N N  G  GGG   !            |
|           WW  WW  A    A  R   R   N   NN  II  N   NN  G    G                |
|           W    W  A    A  R    R  N    N  II  N    N   GGGG   !!!           |
|                                                                             |
|      For optimal performance we recommend to set                            |
|        NCORE= 4 - approx SQRT( number of cores)                             |
|      NCORE specifies how many cores store one orbital (NPAR=cpu/NCORE).     |
|      This setting can  greatly improve the performance of VASP for DFT.     |
|      The default,   NCORE=1            might be grossly inefficient         |
|      on modern multi-core architectures or massively parallel machines.     |
|      Do your own testing !!!!                                               |
|      Unfortunately you need to use the default for GW and RPA calculations. |
|      (for HF NCORE is supported but not extensively tested yet)             |
|                                                                             |
 ----------------------------------------------------------------------------- 

 POTCAR:    PAW Nb_pv 09Jan2002                   
   VRHFIN =Nb: s1d4                                                             
   LEXCH  = CA                                                                  
   EATOM  =  1046.3740 eV,   76.9063 Ry                                         
                                                                                
   TITEL  = PAW Nb_pv 09Jan2002                                                 
   LULTRA =        F    use ultrasoft PP ?                                      
   IUNSCR =        1    unscreen: 0-lin 1-nonlin 2-no                           
   RPACOR =    2.200    partial core radius                                     
   POMASS =   92.910; ZVAL   =   11.000    mass and valenz                      
   RCORE  =    2.750    outmost cutoff radius                                   
   RWIGS  =    2.840; RWIGS  =    1.503    wigner-seitz radius (au A)           
   ENMAX  =  207.263; ENMIN  =  155.447 eV                                      
   RCLOC  =    2.209    cutoff for local pot                                    
   LCOR   =        T    correct aug charges                                     
   LPAW   =        T    paw PP                                                  
   EAUG   =  352.745                                                            
   DEXC   =    0.000                                                            
   RMAX   =    2.814    core radius for proj-oper                               
   RAUG   =    1.300    factor for augmentation sphere                          
   RDEP   =    2.785    radius for radial grids                                 
   RDEPT  =    2.205    core radius for aug-charge                              
                                                                                
   Atomic configuration                                                         
   11 entries                                                                   
     n  l   j            E        occ.                                          
     1  0  0.50    -18704.9804   2.0000                                         
     2  0  0.50     -2619.6337   2.0000                                         
     2  1  1.50     -2343.2033   6.0000                                         
     3  0  0.50      -436.6391   2.0000                                         
     3  1  1.50      -345.9106   6.0000                                         
     3  2  2.50      -196.5794  10.0000                                         
     4  0  0.50       -58.2950   2.0000                                         
     4  1  1.50       -34.5590   6.0000                                         
     4  2  2.50        -3.2208   4.0000                                         
     5  0  0.50        -4.1880   1.0000                                         
     4  3  2.50        -1.3606   0.0000                                         
   Description                                                                  
     l       E           TYP  RCUT    TYP  RCUT                                 
     1    -34.5590103     23  2.600                                             
     1     -1.3605826     23  2.600                                             
     2     -3.2207521     23  2.600                                             
     2     -1.6263194     23  2.600                                             
     0     -4.1879630     23  2.750                                             
     0     20.4087390     23  2.750                                             
  local pseudopotential read in
  partial core-charges read in
  partial kinetic energy density read in
  atomic valenz-charges read in
  non local Contribution for L=           1  read in
    real space projection operators read in
  non local Contribution for L=           1  read in
    real space projection operators read in
  non local Contribution for L=           2  read in
    real space projection operators read in
  non local Contribution for L=           2  read in
    real space projection operators read in
  non local Contribution for L=           0  read in
    real space projection operators read in
  non local Contribution for L=           0  read in
    real space projection operators read in
    PAW grid and wavefunctions read in
 
   number of l-projection  operators is LMAX  =           6
   number of lm-projection operators is LMMAX =          18
 
  PAW Nb_pv 09Jan2002                   :
 energy of atom  1       EATOM=-1046.3740
 kinetic energy error for atom=    0.0109 (will be added to EATOM!!)
 
 
 POSCAR: primitive Nb                            
  positions in direct lattice
  No initial velocities read in
 exchange correlation table for  LEXCH =        2
   RHO(1)=    0.500       N(1)  =     2000
   RHO(2)=  100.500       N(2)  =     4000
 


--------------------------------------------------------------------------------------------------------


 ion  position               nearest neighbor table
   1  0.000  0.000  0.000-
 
  LATTYP: Found a body centered cubic cell.
 ALAT       =     3.3008000000
  
  Lattice vectors:
  
 A1 = (  -1.6504000000,   1.6504000000,   1.6504000000)
 A2 = (   1.6504000000,  -1.6504000000,   1.6504000000)
 A3 = (   1.6504000000,   1.6504000000,  -1.6504000000)


Analysis of symmetry for initial positions (statically):
=====================================================================
 Subroutine PRICEL returns:
 Original cell was already a primitive cell.
 

 Routine SETGRP: Setting up the symmetry group for a 
 body centered cubic supercell.


 Subroutine GETGRP returns: Found 48 space group operations
 (whereof 48 operations were pure point group operations)
 out of a pool of 48 trial point group operations.


The static configuration has the point symmetry O_h .


Analysis of symmetry for dynamics (positions and initial velocities):
=====================================================================
 Subroutine PRICEL returns:
 Original cell was already a primitive cell.
 

 Routine SETGRP: Setting up the symmetry group for a 
 body centered cubic supercell.


 Subroutine GETGRP returns: Found 48 space group operations
 (whereof 48 operations were pure point group operations)
 out of a pool of 48 trial point group operations.


The dynamic configuration has the point symmetry O_h .


 Subroutine INISYM returns: Found 48 space group operations
 (whereof 48 operations are pure point group operations),
 and found     1 'primitive' translations

 
 
 KPOINTS: 20*20*20                                

Automatic generation of k-mesh.
Space group operators:
 irot       det(A)        alpha          n_x          n_y          n_z        tau_x        tau_y        tau_z
    1     1.000000     0.000000     1.000000     0.000000     0.000000     0.000000     0.000000     0.000000
    2    -1.000000     0.000000     1.000000     0.000000     0.000000     0.000000     0.000000     0.000000
    3     1.000000   120.000000    -0.577350    -0.577350    -0.577350     0.000000     0.000000     0.000000
    4    -1.000000   120.000000    -0.577350    -0.577350    -0.577350     0.000000     0.000000     0.000000
    5     1.000000   120.000000     0.577350     0.577350     0.577350     0.000000     0.000000     0.000000
    6    -1.000000   120.000000     0.577350     0.577350     0.577350     0.000000     0.000000     0.000000
    7     1.000000    90.000000     0.000000     0.000000    -1.000000     0.000000     0.000000     0.000000
    8    -1.000000    90.000000     0.000000     0.000000    -1.000000     0.000000     0.000000     0.000000
    9     1.000000   180.000000     0.000000     0.707107     0.707107     0.000000     0.000000     0.000000
   10    -1.000000   180.000000     0.000000     0.707107     0.707107     0.000000     0.000000     0.000000
   11     1.000000    90.000000     0.000000     1.000000     0.000000     0.000000     0.000000     0.000000
   12    -1.000000    90.000000     0.000000     1.000000     0.000000     0.000000     0.000000     0.000000
   13     1.000000   180.000000     0.000000     0.000000     1.000000     0.000000     0.000000     0.000000
   14    -1.000000   180.000000     0.000000     0.000000     1.000000     0.000000     0.000000     0.000000
   15     1.000000   120.000000    -0.577350     0.577350     0.577350     0.000000     0.000000     0.000000
   16    -1.000000   120.000000    -0.577350     0.577350     0.577350     0.000000     0.000000     0.000000
   17     1.000000   120.000000    -0.577350     0.577350    -0.577350     0.000000     0.000000     0.000000
   18    -1.000000   120.000000    -0.577350     0.577350    -0.577350     0.000000     0.000000     0.000000
   19     1.000000    90.000000     0.000000     0.000000     1.000000     0.000000     0.000000     0.000000
   20    -1.000000    90.000000     0.000000     0.000000     1.000000     0.000000     0.000000     0.000000
   21     1.000000    90.000000    -1.000000     0.000000     0.000000     0.000000     0.000000     0.000000
   22    -1.000000    90.000000    -1.000000     0.000000     0.000000     0.000000     0.000000     0.000000
   23     1.000000   180.000000     0.707107     0.000000     0.707107     0.000000     0.000000     0.000000
   24    -1.000000   180.000000     0.707107     0.000000     0.707107     0.000000     0.000000     0.000000
   25     1.000000   120.000000     0.577350    -0.577350     0.577350     0.000000     0.000000     0.000000
   26    -1.000000   120.000000     0.577350    -0.577350     0.577350     0.000000     0.000000     0.000000
   27     1.000000   120.000000    -0.577350    -0.577350     0.577350     0.000000     0.000000     0.000000
   28    -1.000000   120.000000    -0.577350    -0.577350     0.577350     0.000000     0.000000     0.000000
   29     1.000000   180.000000     1.000000     0.000000     0.000000     0.000000     0.000000     0.000000
   30    -1.000000   180.000000     1.000000     0.000000     0.000000     0.000000     0.000000     0.000000
   31     1.000000    90.000000     0.000000    -1.000000     0.000000     0.000000     0.000000     0.000000
   32    -1.000000    90.000000     0.000000    -1.000000     0.000000     0.000000     0.000000     0.000000
   33     1.000000   180.000000     0.707107     0.707107     0.000000     0.000000     0.000000     0.000000
   34    -1.000000   180.000000     0.707107     0.707107     0.000000     0.000000     0.000000     0.000000
   35     1.000000    90.000000     1.000000     0.000000     0.000000     0.000000     0.000000     0.000000
   36    -1.000000    90.000000     1.000000     0.000000     0.000000     0.000000     0.000000     0.000000
   37     1.000000   120.000000     0.577350    -0.577350    -0.577350     0.000000     0.000000     0.000000
   38    -1.000000   120.000000     0.577350    -0.577350    -0.577350     0.000000     0.000000     0.000000
   39     1.000000   180.000000     0.000000     1.000000     0.000000     0.000000     0.000000     0.000000
   40    -1.000000   180.000000     0.000000     1.000000     0.000000     0.000000     0.000000     0.000000
   41     1.000000   120.000000     0.577350     0.577350    -0.577350     0.000000     0.000000     0.000000
   42    -1.000000   120.000000     0.577350     0.577350    -0.577350     0.000000     0.000000     0.000000
   43     1.000000   180.000000     0.000000    -0.707107     0.707107     0.000000     0.000000     0.000000
   44    -1.000000   180.000000     0.000000    -0.707107     0.707107     0.000000     0.000000     0.000000
   45     1.000000   180.000000     0.707107    -0.707107     0.000000     0.000000     0.000000     0.000000
   46    -1.000000   180.000000     0.707107    -0.707107     0.000000     0.000000     0.000000     0.000000
   47     1.000000   180.000000     0.707107     0.000000    -0.707107     0.000000     0.000000     0.000000
   48    -1.000000   180.000000     0.707107     0.000000    -0.707107     0.000000     0.000000     0.000000
 
 Subroutine IBZKPT returns following result:
 ===========================================
 
 Found    250 irreducible k-points:
 
 Following reciprocal coordinates:
            Coordinates               Weight
  0.025000  0.025000  0.025000      8.000000
  0.075000  0.025000  0.025000     24.000000
  0.125000  0.025000  0.025000     24.000000
  0.175000  0.025000  0.025000     24.000000
  0.225000  0.025000  0.025000     24.000000
  0.275000  0.025000  0.025000     24.000000
  0.325000  0.025000  0.025000     24.000000
  0.375000  0.025000  0.025000     24.000000
  0.425000  0.025000  0.025000     24.000000
  0.475000  0.025000  0.025000     12.000000
 -0.025000  0.025000  0.025000      6.000000
  0.075000  0.075000  0.025000     24.000000
  0.125000  0.075000  0.025000     48.000000
  0.175000  0.075000  0.025000     48.000000
  0.225000  0.075000  0.025000     48.000000
  0.275000  0.075000  0.025000     48.000000
  0.325000  0.075000  0.025000     48.000000
  0.375000  0.075000  0.025000     48.000000
  0.425000  0.075000  0.025000     48.000000
 -0.075000  0.075000  0.025000     24.000000
  0.125000  0.125000  0.025000     24.000000
  0.175000  0.125000  0.025000     48.000000
  0.225000  0.125000  0.025000     48.000000
  0.275000  0.125000  0.025000     48.000000
  0.325000  0.125000  0.025000     48.000000
  0.375000  0.125000  0.025000     48.000000
  0.425000  0.125000  0.025000     24.000000
 -0.125000  0.125000  0.025000     24.000000
 -0.075000  0.125000  0.025000     24.000000
  0.175000  0.175000  0.025000     24.000000
  0.225000  0.175000  0.025000     48.000000
  0.275000  0.175000  0.025000     48.000000
  0.325000  0.175000  0.025000     48.000000
  0.375000  0.175000  0.025000     48.000000
 -0.175000  0.175000  0.025000     24.000000
 -0.125000  0.175000  0.025000     48.000000
  0.225000  0.225000  0.025000     24.000000
  0.275000  0.225000  0.025000     48.000000
  0.325000  0.225000  0.025000     48.000000
  0.375000  0.225000  0.025000     24.000000
 -0.225000  0.225000  0.025000     24.000000
 -0.175000  0.225000  0.025000     48.000000
 -0.125000  0.225000  0.025000     24.000000
  0.275000  0.275000  0.025000     24.000000
  0.325000  0.275000  0.025000     48.000000
 -0.275000  0.275000  0.025000     24.000000
 -0.225000  0.275000  0.025000     48.000000
 -0.175000  0.275000  0.025000     48.000000
  0.325000  0.325000  0.025000      8.000000
 -0.325000  0.325000  0.025000     24.000000
 -0.275000  0.325000  0.025000     48.000000
 -0.225000  0.325000  0.025000     48.000000
 -0.175000  0.325000  0.025000     24.000000
 -0.375000  0.375000  0.025000     24.000000
 -0.325000  0.375000  0.025000     48.000000
 -0.275000  0.375000  0.025000     48.000000
 -0.225000  0.375000  0.025000     48.000000
 -0.425000  0.425000  0.025000     24.000000
 -0.375000  0.425000  0.025000     48.000000
 -0.325000  0.425000  0.025000     48.000000
 -0.275000  0.425000  0.025000     48.000000
 -0.225000  0.425000  0.025000     24.000000
 -0.475000  0.475000  0.025000     24.000000
 -0.425000  0.475000  0.025000     48.000000
 -0.375000  0.475000  0.025000     48.000000
 -0.325000  0.475000  0.025000     48.000000
 -0.275000  0.475000  0.025000     48.000000
 -0.475000 -0.475000  0.025000     24.000000
 -0.425000 -0.475000  0.025000     48.000000
 -0.375000 -0.475000  0.025000     48.000000
 -0.325000 -0.475000  0.025000     48.000000
 -0.275000 -0.475000  0.025000     24.000000
 -0.425000 -0.425000  0.025000     24.000000
 -0.375000 -0.425000  0.025000     48.000000
 -0.325000 -0.425000  0.025000     48.000000
 -0.375000 -0.375000  0.025000     24.000000
 -0.325000 -0.375000  0.025000     24.000000
  0.075000  0.075000  0.075000      8.000000
  0.125000  0.075000  0.075000     24.000000
  0.175000  0.075000  0.075000     24.000000
  0.225000  0.075000  0.075000     24.000000
  0.275000  0.075000  0.075000     24.000000
  0.325000  0.075000  0.075000     24.000000
  0.375000  0.075000  0.075000     24.000000
  0.425000  0.075000  0.075000     12.000000
 -0.075000  0.075000  0.075000      6.000000
  0.125000  0.125000  0.075000     24.000000
  0.175000  0.125000  0.075000     48.000000
  0.225000  0.125000  0.075000     48.000000
  0.275000  0.125000  0.075000     48.000000
  0.325000  0.125000  0.075000     48.000000
  0.375000  0.125000  0.075000     48.000000
 -0.125000  0.125000  0.075000     24.000000
  0.175000  0.175000  0.075000     24.000000
  0.225000  0.175000  0.075000     48.000000
  0.275000  0.175000  0.075000     48.000000
  0.325000  0.175000  0.075000     48.000000
  0.375000  0.175000  0.075000     24.000000
 -0.175000  0.175000  0.075000     24.000000
 -0.125000  0.175000  0.075000     24.000000
  0.225000  0.225000  0.075000     24.000000
  0.275000  0.225000  0.075000     48.000000
  0.325000  0.225000  0.075000     48.000000
 -0.225000  0.225000  0.075000     24.000000
 -0.175000  0.225000  0.075000     48.000000
  0.275000  0.275000  0.075000     24.000000
  0.325000  0.275000  0.075000     24.000000
 -0.275000  0.275000  0.075000     24.000000
 -0.225000  0.275000  0.075000     48.000000
 -0.175000  0.275000  0.075000     24.000000
 -0.325000  0.325000  0.075000     24.000000
 -0.275000  0.325000  0.075000     48.000000
 -0.225000  0.325000  0.075000     48.000000
 -0.375000  0.375000  0.075000     24.000000
 -0.325000  0.375000  0.075000     48.000000
 -0.275000  0.375000  0.075000     48.000000
 -0.225000  0.375000  0.075000     24.000000
 -0.425000  0.425000  0.075000     24.000000
 -0.375000  0.425000  0.075000     48.000000
 -0.325000  0.425000  0.075000     48.000000
 -0.275000  0.425000  0.075000     48.000000
 -0.475000  0.475000  0.075000     24.000000
 -0.425000  0.475000  0.075000     48.000000
 -0.375000  0.475000  0.075000     48.000000
 -0.325000  0.475000  0.075000     48.000000
 -0.275000  0.475000  0.075000     24.000000
 -0.475000 -0.475000  0.075000     24.000000
 -0.425000 -0.475000  0.075000     48.000000
 -0.375000 -0.475000  0.075000     48.000000
 -0.325000 -0.475000  0.075000     48.000000
 -0.425000 -0.425000  0.075000     24.000000
 -0.375000 -0.425000  0.075000     48.000000
 -0.325000 -0.425000  0.075000     24.000000
 -0.375000 -0.375000  0.075000     24.000000
  0.125000  0.125000  0.125000      8.000000
  0.175000  0.125000  0.125000     24.000000
  0.225000  0.125000  0.125000     24.000000
  0.275000  0.125000  0.125000     24.000000
  0.325000  0.125000  0.125000     24.000000
  0.375000  0.125000  0.125000     12.000000
 -0.125000  0.125000  0.125000      6.000000
  0.175000  0.175000  0.125000     24.000000
  0.225000  0.175000  0.125000     48.000000
  0.275000  0.175000  0.125000     48.000000
  0.325000  0.175000  0.125000     48.000000
 -0.175000  0.175000  0.125000     24.000000
  0.225000  0.225000  0.125000     24.000000
  0.275000  0.225000  0.125000     48.000000
  0.325000  0.225000  0.125000     24.000000
 -0.225000  0.225000  0.125000     24.000000
 -0.175000  0.225000  0.125000     24.000000
  0.275000  0.275000  0.125000     24.000000
 -0.275000  0.275000  0.125000     24.000000
 -0.225000  0.275000  0.125000     48.000000
 -0.325000  0.325000  0.125000     24.000000
 -0.275000  0.325000  0.125000     48.000000
 -0.225000  0.325000  0.125000     24.000000
 -0.375000  0.375000  0.125000     24.000000
 -0.325000  0.375000  0.125000     48.000000
 -0.275000  0.375000  0.125000     48.000000
 -0.425000  0.425000  0.125000     24.000000
 -0.375000  0.425000  0.125000     48.000000
 -0.325000  0.425000  0.125000     48.000000
 -0.275000  0.425000  0.125000     24.000000
 -0.475000  0.475000  0.125000     24.000000
 -0.425000  0.475000  0.125000     48.000000
 -0.375000  0.475000  0.125000     48.000000
 -0.325000  0.475000  0.125000     48.000000
 -0.475000 -0.475000  0.125000     24.000000
 -0.425000 -0.475000  0.125000     48.000000
 -0.375000 -0.475000  0.125000     48.000000
 -0.325000 -0.475000  0.125000     24.000000
 -0.425000 -0.425000  0.125000     24.000000
 -0.375000 -0.425000  0.125000     48.000000
 -0.375000 -0.375000  0.125000      8.000000
  0.175000  0.175000  0.175000      8.000000
  0.225000  0.175000  0.175000     24.000000
  0.275000  0.175000  0.175000     24.000000
  0.325000  0.175000  0.175000     12.000000
 -0.175000  0.175000  0.175000      6.000000
  0.225000  0.225000  0.175000     24.000000
  0.275000  0.225000  0.175000     48.000000
 -0.225000  0.225000  0.175000     24.000000
  0.275000  0.275000  0.175000      8.000000
 -0.275000  0.275000  0.175000     24.000000
 -0.225000  0.275000  0.175000     24.000000
 -0.325000  0.325000  0.175000     24.000000
 -0.275000  0.325000  0.175000     48.000000
 -0.375000  0.375000  0.175000     24.000000
 -0.325000  0.375000  0.175000     48.000000
 -0.275000  0.375000  0.175000     24.000000
 -0.425000  0.425000  0.175000     24.000000
 -0.375000  0.425000  0.175000     48.000000
 -0.325000  0.425000  0.175000     48.000000
 -0.475000  0.475000  0.175000     24.000000
 -0.425000  0.475000  0.175000     48.000000
 -0.375000  0.475000  0.175000     48.000000
 -0.325000  0.475000  0.175000     24.000000
 -0.475000 -0.475000  0.175000     24.000000
 -0.425000 -0.475000  0.175000     48.000000
 -0.375000 -0.475000  0.175000     48.000000
 -0.425000 -0.425000  0.175000     24.000000
 -0.375000 -0.425000  0.175000     24.000000
  0.225000  0.225000  0.225000      8.000000
  0.275000  0.225000  0.225000     12.000000
 -0.225000  0.225000  0.225000      6.000000
 -0.275000  0.275000  0.225000     24.000000
 -0.325000  0.325000  0.225000     24.000000
 -0.275000  0.325000  0.225000     24.000000
 -0.375000  0.375000  0.225000     24.000000
 -0.325000  0.375000  0.225000     48.000000
 -0.425000  0.425000  0.225000     24.000000
 -0.375000  0.425000  0.225000     48.000000
 -0.325000  0.425000  0.225000     24.000000
 -0.475000  0.475000  0.225000     24.000000
 -0.425000  0.475000  0.225000     48.000000
 -0.375000  0.475000  0.225000     48.000000
 -0.475000 -0.475000  0.225000     24.000000
 -0.425000 -0.475000  0.225000     48.000000
 -0.375000 -0.475000  0.225000     24.000000
 -0.425000 -0.425000  0.225000     24.000000
 -0.275000  0.275000  0.275000      6.000000
 -0.325000  0.325000  0.275000     24.000000
 -0.375000  0.375000  0.275000     24.000000
 -0.325000  0.375000  0.275000     24.000000
 -0.425000  0.425000  0.275000     24.000000
 -0.375000  0.425000  0.275000     48.000000
 -0.475000  0.475000  0.275000     24.000000
 -0.425000  0.475000  0.275000     48.000000
 -0.375000  0.475000  0.275000     24.000000
 -0.475000 -0.475000  0.275000     24.000000
 -0.425000 -0.475000  0.275000     48.000000
 -0.425000 -0.425000  0.275000      8.000000
 -0.325000  0.325000  0.325000      6.000000
 -0.375000  0.375000  0.325000     24.000000
 -0.425000  0.425000  0.325000     24.000000
 -0.375000  0.425000  0.325000     24.000000
 -0.475000  0.475000  0.325000     24.000000
 -0.425000  0.475000  0.325000     48.000000
 -0.475000 -0.475000  0.325000     24.000000
 -0.425000 -0.475000  0.325000     24.000000
 -0.375000  0.375000  0.375000      6.000000
 -0.425000  0.425000  0.375000     24.000000
 -0.475000  0.475000  0.375000     24.000000
 -0.425000  0.475000  0.375000     24.000000
 -0.475000 -0.475000  0.375000     24.000000
 -0.425000  0.425000  0.425000      6.000000
 -0.475000  0.475000  0.425000     24.000000
 -0.475000 -0.475000  0.425000      8.000000
 -0.475000  0.475000  0.475000      6.000000
 
 Following cartesian coordinates:
            Coordinates               Weight
  0.050000  0.050000  0.050000      8.000000
  0.050000  0.100000  0.100000     24.000000
  0.050000  0.150000  0.150000     24.000000
  0.050000  0.200000  0.200000     24.000000
  0.050000  0.250000  0.250000     24.000000
  0.050000  0.300000  0.300000     24.000000
  0.050000  0.350000  0.350000     24.000000
  0.050000  0.400000  0.400000     24.000000
  0.050000  0.450000  0.450000     24.000000
  0.050000  0.500000  0.500000     12.000000
  0.050000  0.000000  0.000000      6.000000
  0.100000  0.100000  0.150000     24.000000
  0.100000  0.150000  0.200000     48.000000
  0.100000  0.200000  0.250000     48.000000
  0.100000  0.250000  0.300000     48.000000
  0.100000  0.300000  0.350000     48.000000
  0.100000  0.350000  0.400000     48.000000
  0.100000  0.400000  0.450000     48.000000
  0.100000  0.450000  0.500000     48.000000
  0.100000 -0.050000  0.000000     24.000000
  0.150000  0.150000  0.250000     24.000000
  0.150000  0.200000  0.300000     48.000000
  0.150000  0.250000  0.350000     48.000000
  0.150000  0.300000  0.400000     48.000000
  0.150000  0.350000  0.450000     48.000000
  0.150000  0.400000  0.500000     48.000000
  0.150000  0.450000  0.550000     24.000000
  0.150000 -0.100000  0.000000     24.000000
  0.150000 -0.050000  0.050000     24.000000
  0.200000  0.200000  0.350000     24.000000
  0.200000  0.250000  0.400000     48.000000
  0.200000  0.300000  0.450000     48.000000
  0.200000  0.350000  0.500000     48.000000
  0.200000  0.400000  0.550000     48.000000
  0.200000 -0.150000  0.000000     24.000000
  0.200000 -0.100000  0.050000     48.000000
  0.250000  0.250000  0.450000     24.000000
  0.250000  0.300000  0.500000     48.000000
  0.250000  0.350000  0.550000     48.000000
  0.250000  0.400000  0.600000     24.000000
  0.250000 -0.200000  0.000000     24.000000
  0.250000 -0.150000  0.050000     48.000000
  0.250000 -0.100000  0.100000     24.000000
  0.300000  0.300000  0.550000     24.000000
  0.300000  0.350000  0.600000     48.000000
  0.300000 -0.250000  0.000000     24.000000
  0.300000 -0.200000  0.050000     48.000000
  0.300000 -0.150000  0.100000     48.000000
  0.350000  0.350000  0.650000      8.000000
  0.350000 -0.300000  0.000000     24.000000
  0.350000 -0.250000  0.050000     48.000000
  0.350000 -0.200000  0.100000     48.000000
  0.350000 -0.150000  0.150000     24.000000
  0.400000 -0.350000  0.000000     24.000000
  0.400000 -0.300000  0.050000     48.000000
  0.400000 -0.250000  0.100000     48.000000
  0.400000 -0.200000  0.150000     48.000000
  0.450000 -0.400000  0.000000     24.000000
  0.450000 -0.350000  0.050000     48.000000
  0.450000 -0.300000  0.100000     48.000000
  0.450000 -0.250000  0.150000     48.000000
  0.450000 -0.200000  0.200000     24.000000
  0.500000 -0.450000  0.000000     24.000000
  0.500000 -0.400000  0.050000     48.000000
  0.500000 -0.350000  0.100000     48.000000
  0.500000 -0.300000  0.150000     48.000000
  0.500000 -0.250000  0.200000     48.000000
 -0.450000 -0.450000 -0.950000     24.000000
 -0.450000 -0.400000 -0.900000     48.000000
 -0.450000 -0.350000 -0.850000     48.000000
 -0.450000 -0.300000 -0.800000     48.000000
 -0.450000 -0.250000 -0.750000     24.000000
 -0.400000 -0.400000 -0.850000     24.000000
 -0.400000 -0.350000 -0.800000     48.000000
 -0.400000 -0.300000 -0.750000     48.000000
 -0.350000 -0.350000 -0.750000     24.000000
 -0.350000 -0.300000 -0.700000     24.000000
  0.150000  0.150000  0.150000      8.000000
  0.150000  0.200000  0.200000     24.000000
  0.150000  0.250000  0.250000     24.000000
  0.150000  0.300000  0.300000     24.000000
  0.150000  0.350000  0.350000     24.000000
  0.150000  0.400000  0.400000     24.000000
  0.150000  0.450000  0.450000     24.000000
  0.150000  0.500000  0.500000     12.000000
  0.150000  0.000000  0.000000      6.000000
  0.200000  0.200000  0.250000     24.000000
  0.200000  0.250000  0.300000     48.000000
  0.200000  0.300000  0.350000     48.000000
  0.200000  0.350000  0.400000     48.000000
  0.200000  0.400000  0.450000     48.000000
  0.200000  0.450000  0.500000     48.000000
  0.200000 -0.050000  0.000000     24.000000
  0.250000  0.250000  0.350000     24.000000
  0.250000  0.300000  0.400000     48.000000
  0.250000  0.350000  0.450000     48.000000
  0.250000  0.400000  0.500000     48.000000
  0.250000  0.450000  0.550000     24.000000
  0.250000 -0.100000  0.000000     24.000000
  0.250000 -0.050000  0.050000     24.000000
  0.300000  0.300000  0.450000     24.000000
  0.300000  0.350000  0.500000     48.000000
  0.300000  0.400000  0.550000     48.000000
  0.300000 -0.150000  0.000000     24.000000
  0.300000 -0.100000  0.050000     48.000000
  0.350000  0.350000  0.550000     24.000000
  0.350000  0.400000  0.600000     24.000000
  0.350000 -0.200000  0.000000     24.000000
  0.350000 -0.150000  0.050000     48.000000
  0.350000 -0.100000  0.100000     24.000000
  0.400000 -0.250000  0.000000     24.000000
  0.400000 -0.200000  0.050000     48.000000
  0.400000 -0.150000  0.100000     48.000000
  0.450000 -0.300000  0.000000     24.000000
  0.450000 -0.250000  0.050000     48.000000
  0.450000 -0.200000  0.100000     48.000000
  0.450000 -0.150000  0.150000     24.000000
  0.500000 -0.350000  0.000000     24.000000
  0.500000 -0.300000  0.050000     48.000000
  0.500000 -0.250000  0.100000     48.000000
  0.500000 -0.200000  0.150000     48.000000
  0.550000 -0.400000  0.000000     24.000000
  0.550000 -0.350000  0.050000     48.000000
  0.550000 -0.300000  0.100000     48.000000
  0.550000 -0.250000  0.150000     48.000000
  0.550000 -0.200000  0.200000     24.000000
 -0.400000 -0.400000 -0.950000     24.000000
 -0.400000 -0.350000 -0.900000     48.000000
 -0.400000 -0.300000 -0.850000     48.000000
 -0.400000 -0.250000 -0.800000     48.000000
 -0.350000 -0.350000 -0.850000     24.000000
 -0.350000 -0.300000 -0.800000     48.000000
 -0.350000 -0.250000 -0.750000     24.000000
 -0.300000 -0.300000 -0.750000     24.000000
  0.250000  0.250000  0.250000      8.000000
  0.250000  0.300000  0.300000     24.000000
  0.250000  0.350000  0.350000     24.000000
  0.250000  0.400000  0.400000     24.000000
  0.250000  0.450000  0.450000     24.000000
  0.250000  0.500000  0.500000     12.000000
  0.250000  0.000000  0.000000      6.000000
  0.300000  0.300000  0.350000     24.000000
  0.300000  0.350000  0.400000     48.000000
  0.300000  0.400000  0.450000     48.000000
  0.300000  0.450000  0.500000     48.000000
  0.300000 -0.050000  0.000000     24.000000
  0.350000  0.350000  0.450000     24.000000
  0.350000  0.400000  0.500000     48.000000
  0.350000  0.450000  0.550000     24.000000
  0.350000 -0.100000  0.000000     24.000000
  0.350000 -0.050000  0.050000     24.000000
  0.400000  0.400000  0.550000     24.000000
  0.400000 -0.150000  0.000000     24.000000
  0.400000 -0.100000  0.050000     48.000000
  0.450000 -0.200000  0.000000     24.000000
  0.450000 -0.150000  0.050000     48.000000
  0.450000 -0.100000  0.100000     24.000000
  0.500000 -0.250000  0.000000     24.000000
  0.500000 -0.200000  0.050000     48.000000
  0.500000 -0.150000  0.100000     48.000000
  0.550000 -0.300000  0.000000     24.000000
  0.550000 -0.250000  0.050000     48.000000
  0.550000 -0.200000  0.100000     48.000000
  0.550000 -0.150000  0.150000     24.000000
  0.600000 -0.350000  0.000000     24.000000
  0.600000 -0.300000  0.050000     48.000000
  0.600000 -0.250000  0.100000     48.000000
  0.600000 -0.200000  0.150000     48.000000
 -0.350000 -0.350000 -0.950000     24.000000
 -0.350000 -0.300000 -0.900000     48.000000
 -0.350000 -0.250000 -0.850000     48.000000
 -0.350000 -0.200000 -0.800000     24.000000
 -0.300000 -0.300000 -0.850000     24.000000
 -0.300000 -0.250000 -0.800000     48.000000
 -0.250000 -0.250000 -0.750000      8.000000
  0.350000  0.350000  0.350000      8.000000
  0.350000  0.400000  0.400000     24.000000
  0.350000  0.450000  0.450000     24.000000
  0.350000  0.500000  0.500000     12.000000
  0.350000  0.000000  0.000000      6.000000
  0.400000  0.400000  0.450000     24.000000
  0.400000  0.450000  0.500000     48.000000
  0.400000 -0.050000  0.000000     24.000000
  0.450000  0.450000  0.550000      8.000000
  0.450000 -0.100000  0.000000     24.000000
  0.450000 -0.050000  0.050000     24.000000
  0.500000 -0.150000  0.000000     24.000000
  0.500000 -0.100000  0.050000     48.000000
  0.550000 -0.200000  0.000000     24.000000
  0.550000 -0.150000  0.050000     48.000000
  0.550000 -0.100000  0.100000     24.000000
  0.600000 -0.250000  0.000000     24.000000
  0.600000 -0.200000  0.050000     48.000000
  0.600000 -0.150000  0.100000     48.000000
  0.650000 -0.300000  0.000000     24.000000
  0.650000 -0.250000  0.050000     48.000000
  0.650000 -0.200000  0.100000     48.000000
  0.650000 -0.150000  0.150000     24.000000
 -0.300000 -0.300000 -0.950000     24.000000
 -0.300000 -0.250000 -0.900000     48.000000
 -0.300000 -0.200000 -0.850000     48.000000
 -0.250000 -0.250000 -0.850000     24.000000
 -0.250000 -0.200000 -0.800000     24.000000
  0.450000  0.450000  0.450000      8.000000
  0.450000  0.500000  0.500000     12.000000
  0.450000  0.000000  0.000000      6.000000
  0.500000 -0.050000  0.000000     24.000000
  0.550000 -0.100000  0.000000     24.000000
  0.550000 -0.050000  0.050000     24.000000
  0.600000 -0.150000  0.000000     24.000000
  0.600000 -0.100000  0.050000     48.000000
  0.650000 -0.200000  0.000000     24.000000
  0.650000 -0.150000  0.050000     48.000000
  0.650000 -0.100000  0.100000     24.000000
  0.700000 -0.250000  0.000000     24.000000
  0.700000 -0.200000  0.050000     48.000000
  0.700000 -0.150000  0.100000     48.000000
 -0.250000 -0.250000 -0.950000     24.000000
 -0.250000 -0.200000 -0.900000     48.000000
 -0.250000 -0.150000 -0.850000     24.000000
 -0.200000 -0.200000 -0.850000     24.000000
  0.550000  0.000000  0.000000      6.000000
  0.600000 -0.050000  0.000000     24.000000
  0.650000 -0.100000  0.000000     24.000000
  0.650000 -0.050000  0.050000     24.000000
  0.700000 -0.150000  0.000000     24.000000
  0.700000 -0.100000  0.050000     48.000000
  0.750000 -0.200000  0.000000     24.000000
  0.750000 -0.150000  0.050000     48.000000
  0.750000 -0.100000  0.100000     24.000000
 -0.200000 -0.200000 -0.950000     24.000000
 -0.200000 -0.150000 -0.900000     48.000000
 -0.150000 -0.150000 -0.850000      8.000000
  0.650000  0.000000  0.000000      6.000000
  0.700000 -0.050000  0.000000     24.000000
  0.750000 -0.100000  0.000000     24.000000
  0.750000 -0.050000  0.050000     24.000000
  0.800000 -0.150000  0.000000     24.000000
  0.800000 -0.100000  0.050000     48.000000
 -0.150000 -0.150000 -0.950000     24.000000
 -0.150000 -0.100000 -0.900000     24.000000
  0.750000  0.000000  0.000000      6.000000
  0.800000 -0.050000  0.000000     24.000000
  0.850000 -0.100000  0.000000     24.000000
  0.850000 -0.050000  0.050000     24.000000
 -0.100000 -0.100000 -0.950000     24.000000
  0.850000  0.000000  0.000000      6.000000
  0.900000 -0.050000  0.000000     24.000000
 -0.050000 -0.050000 -0.950000      8.000000
  0.950000  0.000000  0.000000      6.000000
 


--------------------------------------------------------------------------------------------------------




 Dimension of arrays:
   k-points           NKPTS =    250   k-points in BZ     NKDIM =    250   number of bands    NBANDS=     40
   number of dos      NEDOS =    301   number of ions     NIONS =      1
   non local maximal  LDIM  =      6   non local SUM 2l+1 LMDIM =     18
   total plane-waves  NPLWV =   1728
   max r-space proj   IRMAX =      1   max aug-charges    IRDMAX=   6174
   dimension x,y,z NGX =    12 NGY =   12 NGZ =   12
   dimension x,y,z NGXF=    24 NGYF=   24 NGZF=   24
   support grid    NGXF=    24 NGYF=   24 NGZF=   24
   ions per type =               1
   NGX,Y,Z   is equivalent  to a cutoff of   6.98,  6.98,  6.98 a.u.
   NGXF,Y,Z  is equivalent  to a cutoff of  13.96, 13.96, 13.96 a.u.

 SYSTEM =  Nb gaussian                             
 POSCAR =  primitive Nb                            

 Startparameter for this run:
   NWRITE =      2    write-flag & timer
   PREC   = normal    normal or accurate (medium, high low for compatibility)
   ISTART =      0    job   : 0-new  1-cont  2-samecut
   ICHARG =     11    charge: 1-file 2-atom 10-const
   ISPIN  =      1    spin polarized calculation?
   LNONCOLLINEAR =      F non collinear calculations
   LSORBIT =      F    spin-orbit coupling
   INIWAV =      1    electr: 0-lowe 1-rand  2-diag
   LASPH  =      F    aspherical Exc in radial PAW
   METAGGA=      F    non-selfconsistent MetaGGA calc.

 Electronic Relaxation 1
   ENCUT  =  300.0 eV  22.05 Ry    4.70 a.u.   4.04  4.04  4.04*2*pi/ulx,y,z
   ENINI  =  300.0     initial cutoff
   ENAUG  =  352.7 eV  augmentation charge cutoff
   NELM   =     60;   NELMIN=  2; NELMDL= -5     # of ELM steps 
   EDIFF  = 0.1E-06   stopping-criterion for ELM
   LREAL  =      F    real-space projection
   NLSPLINE    = F    spline interpolate recip. space projectors
   LCOMPAT=      F    compatible to vasp.4.4
   GGA_COMPAT  = T    GGA compatible to vasp.4.4-vasp.4.6
   LMAXPAW     = -100 max onsite density
   LMAXMIX     =    2 max onsite mixed and CHGCAR
   VOSKOWN=      0    Vosko Wilk Nusair interpolation
   ROPT   =    0.00000
 Ionic relaxation
   EDIFFG = 0.1E-05   stopping-criterion for IOM
   NSW    =      0    number of steps for IOM
   NBLOCK =      1;   KBLOCK =      1    inner block; outer block 
   IBRION =     -1    ionic relax: 0-MD 1-quasi-New 2-CG
   NFREE  =      0    steps in history (QN), initial steepest desc. (CG)
   ISIF   =      2    stress and relaxation
   IWAVPR =     10    prediction:  0-non 1-charg 2-wave 3-comb
   ISYM   =      2    0-nonsym 1-usesym 2-fastsym
   LCORR  =      T    Harris-Foulkes like correction to forces

   POTIM  = 0.5000    time-step for ionic-motion
   TEIN   =    0.0    initial temperature
   TEBEG  =    0.0;   TEEND  =   0.0 temperature during run
   SMASS  =  -3.00    Nose mass-parameter (am)
   estimated Nose-frequenzy (Omega)   =  0.10E-29 period in steps =****** mass=  -0.187E-27a.u.
   SCALEE = 1.0000    scale energy and forces
   NPACO  =    256;   APACO  = 16.0  distance and # of slots for P.C.
   PSTRESS=    0.0 pullay stress

  Mass of Ions in am
   POMASS =  92.91
  Ionic Valenz
   ZVAL   =  11.00
  Atomic Wigner-Seitz radii
   RWIGS  =  -1.00
  virtual crystal weights 
   VCA    =   1.00
   NELECT =      11.0000    total number of electrons
   NUPDOWN=      -1.0000    fix difference up-down

 DOS related values:
   EMIN   =  10.00;   EMAX   =-10.00  energy-range for DOS
   EFERMI =   0.00
   ISMEAR =     0;   SIGMA  =   0.20  broadening in eV -4-tet -1-fermi 0-gaus

 Electronic relaxation 2 (details)
   IALGO  =     38    algorithm
   LDIAG  =      T    sub-space diagonalisation (order eigenvalues)
   LSUBROT=      F    optimize rotation matrix (better conditioning)
   TURBO    =      0    0=normal 1=particle mesh
   IRESTART =      0    0=no restart 2=restart with 2 vectors
   NREBOOT  =      0    no. of reboots
   NMIN     =      0    reboot dimension
   EREF     =   0.00    reference energy to select bands
   IMIX   =      4    mixing-type and parameters
     AMIX     =   0.40;   BMIX     =  1.00
     AMIX_MAG =   1.60;   BMIX_MAG =  1.00
     AMIN     =   0.10
     WC   =   100.;   INIMIX=   1;  MIXPRE=   1;  MAXMIX= -45

 Intra band minimization:
   WEIMIN = 0.0000     energy-eigenvalue tresh-hold
   EBREAK =  0.63E-09  absolut break condition
   DEPER  =   0.30     relativ break condition  

   TIME   =   0.40     timestep for ELM

  volume/ion in A,a.u.               =      17.98       121.35
  Fermi-wavevector in a.u.,A,eV,Ry     =   1.389728  2.626205 26.277534  1.931344
  Thomas-Fermi vector in A             =   2.513731
 
 Write flags
   LWAVE        =      T    write WAVECAR
   LDOWNSAMPLE  =      F    k-point downsampling of WAVECAR
   LCHARG       =      F    write CHGCAR
   LVTOT        =      F    write LOCPOT, total local potential
   LVHAR        =      F    write LOCPOT, Hartree potential only
   LELF         =      F    write electronic localiz. function (ELF)
   LORBIT       =      0    0 simple, 1 ext, 2 COOP (PROOUT), +10 PAW based schemes


 Dipole corrections
   LMONO  =      F    monopole corrections only (constant potential shift)
   LDIPOL =      F    correct potential (dipole corrections)
   IDIPOL =      0    1-x, 2-y, 3-z, 4-all directions 
   EPSILON=  1.0000000 bulk dielectric constant

 Exchange correlation treatment:
   GGA     =    --    GGA type
   LEXCH   =     2    internal setting for exchange type
   VOSKOWN=      0    Vosko Wilk Nusair interpolation
   LHFCALC =     F    Hartree Fock is set to
   LHFONE  =     F    Hartree Fock one center treatment
   AEXX    =    0.0000 exact exchange contribution

 Linear response parameters
   LEPSILON=     F    determine dielectric tensor
   LRPA    =     F    only Hartree local field effects (RPA)
   LNABLA  =     F    use nabla operator in PAW spheres
   LVEL    =     F    velocity operator in full k-point grid
   LINTERFAST=   F  fast interpolation
   KINTER  =     0    interpolate to denser k-point grid
   CSHIFT  =0.1000    complex shift for real part using Kramers Kronig
   OMEGAMAX=  -1.0    maximum frequency
   DEG_THRESHOLD= 0.2000000E-02 threshold for treating states as degnerate
   RTIME   =   -0.100 relaxation time in fs
  (WPLASMAI=    0.000 imaginary part of plasma frequency in eV, 0.658/RTIME)
   DFIELD  = 0.0000000 0.0000000 0.0000000 field for delta impulse in time
 
 Orbital magnetization related:
   ORBITALMAG=     F  switch on orbital magnetization
   LCHIMAG   =     F  perturbation theory with respect to B field
   DQ        =  0.001000  dq finite difference perturbation B field
   LLRAUG    =     F  two centre corrections for induced B field



--------------------------------------------------------------------------------------------------------


 Static calculation
 charge density and potential remain constant during run
 non-spin polarized calculation
 Variant of blocked Davidson
 Davidson routine will perform the subspace rotation
 perform sub-space diagonalisation
    after iterative eigenvector-optimisation
 no mixing
 using additional bands           34
 reciprocal scheme for non local part
 use partial core corrections
 calculate Harris-corrections to forces 
   (improved forces if not selfconsistent)
 use of overlap-Matrix (Vanderbilt PP)
 Gauss-broadening in eV      SIGMA  =   0.20


--------------------------------------------------------------------------------------------------------


  energy-cutoff  :      300.00
  volume of cell :       17.98
      direct lattice vectors                 reciprocal lattice vectors
    -1.650400000  1.650400000  1.650400000     0.000000000  0.302956859  0.302956859
     1.650400000 -1.650400000  1.650400000     0.302956859  0.000000000  0.302956859
     1.650400000  1.650400000 -1.650400000     0.302956859  0.302956859  0.000000000

  length of vectors
     2.858576653  2.858576653  2.858576653     0.428445699  0.428445699  0.428445699


 
 k-points in units of 2pi/SCALE and weight: 20*20*20                                
   0.05000000  0.05000000  0.05000000       0.001
   0.05000000  0.10000000  0.10000000       0.003
   0.05000000  0.15000000  0.15000000       0.003
   0.05000000  0.20000000  0.20000000       0.003
   0.05000000  0.25000000  0.25000000       0.003
   0.05000000  0.30000000  0.30000000       0.003
   0.05000000  0.35000000  0.35000000       0.003
   0.05000000  0.40000000  0.40000000       0.003
   0.05000000  0.45000000  0.45000000       0.003
   0.05000000  0.50000000  0.50000000       0.002
   0.05000000  0.00000000  0.00000000       0.001
   0.10000000  0.10000000  0.15000000       0.003
   0.10000000  0.15000000  0.20000000       0.006
   0.10000000  0.20000000  0.25000000       0.006
   0.10000000  0.25000000  0.30000000       0.006
   0.10000000  0.30000000  0.35000000       0.006
   0.10000000  0.35000000  0.40000000       0.006
   0.10000000  0.40000000  0.45000000       0.006
   0.10000000  0.45000000  0.50000000       0.006
   0.10000000 -0.05000000  0.00000000       0.003
   0.15000000  0.15000000  0.25000000       0.003
   0.15000000  0.20000000  0.30000000       0.006
   0.15000000  0.25000000  0.35000000       0.006
   0.15000000  0.30000000  0.40000000       0.006
   0.15000000  0.35000000  0.45000000       0.006
   0.15000000  0.40000000  0.50000000       0.006
   0.15000000  0.45000000  0.55000000       0.003
   0.15000000 -0.10000000  0.00000000       0.003
   0.15000000 -0.05000000  0.05000000       0.003
   0.20000000  0.20000000  0.35000000       0.003
   0.20000000  0.25000000  0.40000000       0.006
   0.20000000  0.30000000  0.45000000       0.006
   0.20000000  0.35000000  0.50000000       0.006
   0.20000000  0.40000000  0.55000000       0.006
   0.20000000 -0.15000000  0.00000000       0.003
   0.20000000 -0.10000000  0.05000000       0.006
   0.25000000  0.25000000  0.45000000       0.003
   0.25000000  0.30000000  0.50000000       0.006
   0.25000000  0.35000000  0.55000000       0.006
   0.25000000  0.40000000  0.60000000       0.003
   0.25000000 -0.20000000  0.00000000       0.003
   0.25000000 -0.15000000  0.05000000       0.006
   0.25000000 -0.10000000  0.10000000       0.003
   0.30000000  0.30000000  0.55000000       0.003
   0.30000000  0.35000000  0.60000000       0.006
   0.30000000 -0.25000000  0.00000000       0.003
   0.30000000 -0.20000000  0.05000000       0.006
   0.30000000 -0.15000000  0.10000000       0.006
   0.35000000  0.35000000  0.65000000       0.001
   0.35000000 -0.30000000  0.00000000       0.003
   0.35000000 -0.25000000  0.05000000       0.006
   0.35000000 -0.20000000  0.10000000       0.006
   0.35000000 -0.15000000  0.15000000       0.003
   0.40000000 -0.35000000  0.00000000       0.003
   0.40000000 -0.30000000  0.05000000       0.006
   0.40000000 -0.25000000  0.10000000       0.006
   0.40000000 -0.20000000  0.15000000       0.006
   0.45000000 -0.40000000  0.00000000       0.003
   0.45000000 -0.35000000  0.05000000       0.006
   0.45000000 -0.30000000  0.10000000       0.006
   0.45000000 -0.25000000  0.15000000       0.006
   0.45000000 -0.20000000  0.20000000       0.003
   0.50000000 -0.45000000  0.00000000       0.003
   0.50000000 -0.40000000  0.05000000       0.006
   0.50000000 -0.35000000  0.10000000       0.006
   0.50000000 -0.30000000  0.15000000       0.006
   0.50000000 -0.25000000  0.20000000       0.006
  -0.45000000 -0.45000000 -0.95000000       0.003
  -0.45000000 -0.40000000 -0.90000000       0.006
  -0.45000000 -0.35000000 -0.85000000       0.006
  -0.45000000 -0.30000000 -0.80000000       0.006
  -0.45000000 -0.25000000 -0.75000000       0.003
  -0.40000000 -0.40000000 -0.85000000       0.003
  -0.40000000 -0.35000000 -0.80000000       0.006
  -0.40000000 -0.30000000 -0.75000000       0.006
  -0.35000000 -0.35000000 -0.75000000       0.003
  -0.35000000 -0.30000000 -0.70000000       0.003
   0.15000000  0.15000000  0.15000000       0.001
   0.15000000  0.20000000  0.20000000       0.003
   0.15000000  0.25000000  0.25000000       0.003
   0.15000000  0.30000000  0.30000000       0.003
   0.15000000  0.35000000  0.35000000       0.003
   0.15000000  0.40000000  0.40000000       0.003
   0.15000000  0.45000000  0.45000000       0.003
   0.15000000  0.50000000  0.50000000       0.002
   0.15000000  0.00000000  0.00000000       0.001
   0.20000000  0.20000000  0.25000000       0.003
   0.20000000  0.25000000  0.30000000       0.006
   0.20000000  0.30000000  0.35000000       0.006
   0.20000000  0.35000000  0.40000000       0.006
   0.20000000  0.40000000  0.45000000       0.006
   0.20000000  0.45000000  0.50000000       0.006
   0.20000000 -0.05000000  0.00000000       0.003
   0.25000000  0.25000000  0.35000000       0.003
   0.25000000  0.30000000  0.40000000       0.006
   0.25000000  0.35000000  0.45000000       0.006
   0.25000000  0.40000000  0.50000000       0.006
   0.25000000  0.45000000  0.55000000       0.003
   0.25000000 -0.10000000  0.00000000       0.003
   0.25000000 -0.05000000  0.05000000       0.003
   0.30000000  0.30000000  0.45000000       0.003
   0.30000000  0.35000000  0.50000000       0.006
   0.30000000  0.40000000  0.55000000       0.006
   0.30000000 -0.15000000  0.00000000       0.003
   0.30000000 -0.10000000  0.05000000       0.006
   0.35000000  0.35000000  0.55000000       0.003
   0.35000000  0.40000000  0.60000000       0.003
   0.35000000 -0.20000000  0.00000000       0.003
   0.35000000 -0.15000000  0.05000000       0.006
   0.35000000 -0.10000000  0.10000000       0.003
   0.40000000 -0.25000000  0.00000000       0.003
   0.40000000 -0.20000000  0.05000000       0.006
   0.40000000 -0.15000000  0.10000000       0.006
   0.45000000 -0.30000000  0.00000000       0.003
   0.45000000 -0.25000000  0.05000000       0.006
   0.45000000 -0.20000000  0.10000000       0.006
   0.45000000 -0.15000000  0.15000000       0.003
   0.50000000 -0.35000000  0.00000000       0.003
   0.50000000 -0.30000000  0.05000000       0.006
   0.50000000 -0.25000000  0.10000000       0.006
   0.50000000 -0.20000000  0.15000000       0.006
   0.55000000 -0.40000000  0.00000000       0.003
   0.55000000 -0.35000000  0.05000000       0.006
   0.55000000 -0.30000000  0.10000000       0.006
   0.55000000 -0.25000000  0.15000000       0.006
   0.55000000 -0.20000000  0.20000000       0.003
  -0.40000000 -0.40000000 -0.95000000       0.003
  -0.40000000 -0.35000000 -0.90000000       0.006
  -0.40000000 -0.30000000 -0.85000000       0.006
  -0.40000000 -0.25000000 -0.80000000       0.006
  -0.35000000 -0.35000000 -0.85000000       0.003
  -0.35000000 -0.30000000 -0.80000000       0.006
  -0.35000000 -0.25000000 -0.75000000       0.003
  -0.30000000 -0.30000000 -0.75000000       0.003
   0.25000000  0.25000000  0.25000000       0.001
   0.25000000  0.30000000  0.30000000       0.003
   0.25000000  0.35000000  0.35000000       0.003
   0.25000000  0.40000000  0.40000000       0.003
   0.25000000  0.45000000  0.45000000       0.003
   0.25000000  0.50000000  0.50000000       0.002
   0.25000000  0.00000000  0.00000000       0.001
   0.30000000  0.30000000  0.35000000       0.003
   0.30000000  0.35000000  0.40000000       0.006
   0.30000000  0.40000000  0.45000000       0.006
   0.30000000  0.45000000  0.50000000       0.006
   0.30000000 -0.05000000  0.00000000       0.003
   0.35000000  0.35000000  0.45000000       0.003
   0.35000000  0.40000000  0.50000000       0.006
   0.35000000  0.45000000  0.55000000       0.003
   0.35000000 -0.10000000  0.00000000       0.003
   0.35000000 -0.05000000  0.05000000       0.003
   0.40000000  0.40000000  0.55000000       0.003
   0.40000000 -0.15000000  0.00000000       0.003
   0.40000000 -0.10000000  0.05000000       0.006
   0.45000000 -0.20000000  0.00000000       0.003
   0.45000000 -0.15000000  0.05000000       0.006
   0.45000000 -0.10000000  0.10000000       0.003
   0.50000000 -0.25000000  0.00000000       0.003
   0.50000000 -0.20000000  0.05000000       0.006
   0.50000000 -0.15000000  0.10000000       0.006
   0.55000000 -0.30000000  0.00000000       0.003
   0.55000000 -0.25000000  0.05000000       0.006
   0.55000000 -0.20000000  0.10000000       0.006
   0.55000000 -0.15000000  0.15000000       0.003
   0.60000000 -0.35000000  0.00000000       0.003
   0.60000000 -0.30000000  0.05000000       0.006
   0.60000000 -0.25000000  0.10000000       0.006
   0.60000000 -0.20000000  0.15000000       0.006
  -0.35000000 -0.35000000 -0.95000000       0.003
  -0.35000000 -0.30000000 -0.90000000       0.006
  -0.35000000 -0.25000000 -0.85000000       0.006
  -0.35000000 -0.20000000 -0.80000000       0.003
  -0.30000000 -0.30000000 -0.85000000       0.003
  -0.30000000 -0.25000000 -0.80000000       0.006
  -0.25000000 -0.25000000 -0.75000000       0.001
   0.35000000  0.35000000  0.35000000       0.001
   0.35000000  0.40000000  0.40000000       0.003
   0.35000000  0.45000000  0.45000000       0.003
   0.35000000  0.50000000  0.50000000       0.002
   0.35000000  0.00000000  0.00000000       0.001
   0.40000000  0.40000000  0.45000000       0.003
   0.40000000  0.45000000  0.50000000       0.006
   0.40000000 -0.05000000  0.00000000       0.003
   0.45000000  0.45000000  0.55000000       0.001
   0.45000000 -0.10000000  0.00000000       0.003
   0.45000000 -0.05000000  0.05000000       0.003
   0.50000000 -0.15000000  0.00000000       0.003
   0.50000000 -0.10000000  0.05000000       0.006
   0.55000000 -0.20000000  0.00000000       0.003
   0.55000000 -0.15000000  0.05000000       0.006
   0.55000000 -0.10000000  0.10000000       0.003
   0.60000000 -0.25000000  0.00000000       0.003
   0.60000000 -0.20000000  0.05000000       0.006
   0.60000000 -0.15000000  0.10000000       0.006
   0.65000000 -0.30000000  0.00000000       0.003
   0.65000000 -0.25000000  0.05000000       0.006
   0.65000000 -0.20000000  0.10000000       0.006
   0.65000000 -0.15000000  0.15000000       0.003
  -0.30000000 -0.30000000 -0.95000000       0.003
  -0.30000000 -0.25000000 -0.90000000       0.006
  -0.30000000 -0.20000000 -0.85000000       0.006
  -0.25000000 -0.25000000 -0.85000000       0.003
  -0.25000000 -0.20000000 -0.80000000       0.003
   0.45000000  0.45000000  0.45000000       0.001
   0.45000000  0.50000000  0.50000000       0.002
   0.45000000  0.00000000  0.00000000       0.001
   0.50000000 -0.05000000  0.00000000       0.003
   0.55000000 -0.10000000  0.00000000       0.003
   0.55000000 -0.05000000  0.05000000       0.003
   0.60000000 -0.15000000  0.00000000       0.003
   0.60000000 -0.10000000  0.05000000       0.006
   0.65000000 -0.20000000  0.00000000       0.003
   0.65000000 -0.15000000  0.05000000       0.006
   0.65000000 -0.10000000  0.10000000       0.003
   0.70000000 -0.25000000  0.00000000       0.003
   0.70000000 -0.20000000  0.05000000       0.006
   0.70000000 -0.15000000  0.10000000       0.006
  -0.25000000 -0.25000000 -0.95000000       0.003
  -0.25000000 -0.20000000 -0.90000000       0.006
  -0.25000000 -0.15000000 -0.85000000       0.003
  -0.20000000 -0.20000000 -0.85000000       0.003
   0.55000000  0.00000000  0.00000000       0.001
   0.60000000 -0.05000000  0.00000000       0.003
   0.65000000 -0.10000000  0.00000000       0.003
   0.65000000 -0.05000000  0.05000000       0.003
   0.70000000 -0.15000000  0.00000000       0.003
   0.70000000 -0.10000000  0.05000000       0.006
   0.75000000 -0.20000000  0.00000000       0.003
   0.75000000 -0.15000000  0.05000000       0.006
   0.75000000 -0.10000000  0.10000000       0.003
  -0.20000000 -0.20000000 -0.95000000       0.003
  -0.20000000 -0.15000000 -0.90000000       0.006
  -0.15000000 -0.15000000 -0.85000000       0.001
   0.65000000  0.00000000  0.00000000       0.001
   0.70000000 -0.05000000  0.00000000       0.003
   0.75000000 -0.10000000  0.00000000       0.003
   0.75000000 -0.05000000  0.05000000       0.003
   0.80000000 -0.15000000  0.00000000       0.003
   0.80000000 -0.10000000  0.05000000       0.006
  -0.15000000 -0.15000000 -0.95000000       0.003
  -0.15000000 -0.10000000 -0.90000000       0.003
   0.75000000  0.00000000  0.00000000       0.001
   0.80000000 -0.05000000  0.00000000       0.003
   0.85000000 -0.10000000  0.00000000       0.003
   0.85000000 -0.05000000  0.05000000       0.003
  -0.10000000 -0.10000000 -0.95000000       0.003
   0.85000000  0.00000000  0.00000000       0.001
   0.90000000 -0.05000000  0.00000000       0.003
  -0.05000000 -0.05000000 -0.95000000       0.001
   0.95000000  0.00000000  0.00000000       0.001
 
 k-points in reciprocal lattice and weights: 20*20*20                                
   0.02500000  0.02500000  0.02500000       0.001
   0.07500000  0.02500000  0.02500000       0.003
   0.12500000  0.02500000  0.02500000       0.003
   0.17500000  0.02500000  0.02500000       0.003
   0.22500000  0.02500000  0.02500000       0.003
   0.27500000  0.02500000  0.02500000       0.003
   0.32500000  0.02500000  0.02500000       0.003
   0.37500000  0.02500000  0.02500000       0.003
   0.42500000  0.02500000  0.02500000       0.003
   0.47500000  0.02500000  0.02500000       0.002
  -0.02500000  0.02500000  0.02500000       0.001
   0.07500000  0.07500000  0.02500000       0.003
   0.12500000  0.07500000  0.02500000       0.006
   0.17500000  0.07500000  0.02500000       0.006
   0.22500000  0.07500000  0.02500000       0.006
   0.27500000  0.07500000  0.02500000       0.006
   0.32500000  0.07500000  0.02500000       0.006
   0.37500000  0.07500000  0.02500000       0.006
   0.42500000  0.07500000  0.02500000       0.006
  -0.07500000  0.07500000  0.02500000       0.003
   0.12500000  0.12500000  0.02500000       0.003
   0.17500000  0.12500000  0.02500000       0.006
   0.22500000  0.12500000  0.02500000       0.006
   0.27500000  0.12500000  0.02500000       0.006
   0.32500000  0.12500000  0.02500000       0.006
   0.37500000  0.12500000  0.02500000       0.006
   0.42500000  0.12500000  0.02500000       0.003
  -0.12500000  0.12500000  0.02500000       0.003
  -0.07500000  0.12500000  0.02500000       0.003
   0.17500000  0.17500000  0.02500000       0.003
   0.22500000  0.17500000  0.02500000       0.006
   0.27500000  0.17500000  0.02500000       0.006
   0.32500000  0.17500000  0.02500000       0.006
   0.37500000  0.17500000  0.02500000       0.006
  -0.17500000  0.17500000  0.02500000       0.003
  -0.12500000  0.17500000  0.02500000       0.006
   0.22500000  0.22500000  0.02500000       0.003
   0.27500000  0.22500000  0.02500000       0.006
   0.32500000  0.22500000  0.02500000       0.006
   0.37500000  0.22500000  0.02500000       0.003
  -0.22500000  0.22500000  0.02500000       0.003
  -0.17500000  0.22500000  0.02500000       0.006
  -0.12500000  0.22500000  0.02500000       0.003
   0.27500000  0.27500000  0.02500000       0.003
   0.32500000  0.27500000  0.02500000       0.006
  -0.27500000  0.27500000  0.02500000       0.003
  -0.22500000  0.27500000  0.02500000       0.006
  -0.17500000  0.27500000  0.02500000       0.006
   0.32500000  0.32500000  0.02500000       0.001
  -0.32500000  0.32500000  0.02500000       0.003
  -0.27500000  0.32500000  0.02500000       0.006
  -0.22500000  0.32500000  0.02500000       0.006
  -0.17500000  0.32500000  0.02500000       0.003
  -0.37500000  0.37500000  0.02500000       0.003
  -0.32500000  0.37500000  0.02500000       0.006
  -0.27500000  0.37500000  0.02500000       0.006
  -0.22500000  0.37500000  0.02500000       0.006
  -0.42500000  0.42500000  0.02500000       0.003
  -0.37500000  0.42500000  0.02500000       0.006
  -0.32500000  0.42500000  0.02500000       0.006
  -0.27500000  0.42500000  0.02500000       0.006
  -0.22500000  0.42500000  0.02500000       0.003
  -0.47500000  0.47500000  0.02500000       0.003
  -0.42500000  0.47500000  0.02500000       0.006
  -0.37500000  0.47500000  0.02500000       0.006
  -0.32500000  0.47500000  0.02500000       0.006
  -0.27500000  0.47500000  0.02500000       0.006
  -0.47500000 -0.47500000  0.02500000       0.003
  -0.42500000 -0.47500000  0.02500000       0.006
  -0.37500000 -0.47500000  0.02500000       0.006
  -0.32500000 -0.47500000  0.02500000       0.006
  -0.27500000 -0.47500000  0.02500000       0.003
  -0.42500000 -0.42500000  0.02500000       0.003
  -0.37500000 -0.42500000  0.02500000       0.006
  -0.32500000 -0.42500000  0.02500000       0.006
  -0.37500000 -0.37500000  0.02500000       0.003
  -0.32500000 -0.37500000  0.02500000       0.003
   0.07500000  0.07500000  0.07500000       0.001
   0.12500000  0.07500000  0.07500000       0.003
   0.17500000  0.07500000  0.07500000       0.003
   0.22500000  0.07500000  0.07500000       0.003
   0.27500000  0.07500000  0.07500000       0.003
   0.32500000  0.07500000  0.07500000       0.003
   0.37500000  0.07500000  0.07500000       0.003
   0.42500000  0.07500000  0.07500000       0.002
  -0.07500000  0.07500000  0.07500000       0.001
   0.12500000  0.12500000  0.07500000       0.003
   0.17500000  0.12500000  0.07500000       0.006
   0.22500000  0.12500000  0.07500000       0.006
   0.27500000  0.12500000  0.07500000       0.006
   0.32500000  0.12500000  0.07500000       0.006
   0.37500000  0.12500000  0.07500000       0.006
  -0.12500000  0.12500000  0.07500000       0.003
   0.17500000  0.17500000  0.07500000       0.003
   0.22500000  0.17500000  0.07500000       0.006
   0.27500000  0.17500000  0.07500000       0.006
   0.32500000  0.17500000  0.07500000       0.006
   0.37500000  0.17500000  0.07500000       0.003
  -0.17500000  0.17500000  0.07500000       0.003
  -0.12500000  0.17500000  0.07500000       0.003
   0.22500000  0.22500000  0.07500000       0.003
   0.27500000  0.22500000  0.07500000       0.006
   0.32500000  0.22500000  0.07500000       0.006
  -0.22500000  0.22500000  0.07500000       0.003
  -0.17500000  0.22500000  0.07500000       0.006
   0.27500000  0.27500000  0.07500000       0.003
   0.32500000  0.27500000  0.07500000       0.003
  -0.27500000  0.27500000  0.07500000       0.003
  -0.22500000  0.27500000  0.07500000       0.006
  -0.17500000  0.27500000  0.07500000       0.003
  -0.32500000  0.32500000  0.07500000       0.003
  -0.27500000  0.32500000  0.07500000       0.006
  -0.22500000  0.32500000  0.07500000       0.006
  -0.37500000  0.37500000  0.07500000       0.003
  -0.32500000  0.37500000  0.07500000       0.006
  -0.27500000  0.37500000  0.07500000       0.006
  -0.22500000  0.37500000  0.07500000       0.003
  -0.42500000  0.42500000  0.07500000       0.003
  -0.37500000  0.42500000  0.07500000       0.006
  -0.32500000  0.42500000  0.07500000       0.006
  -0.27500000  0.42500000  0.07500000       0.006
  -0.47500000  0.47500000  0.07500000       0.003
  -0.42500000  0.47500000  0.07500000       0.006
  -0.37500000  0.47500000  0.07500000       0.006
  -0.32500000  0.47500000  0.07500000       0.006
  -0.27500000  0.47500000  0.07500000       0.003
  -0.47500000 -0.47500000  0.07500000       0.003
  -0.42500000 -0.47500000  0.07500000       0.006
  -0.37500000 -0.47500000  0.07500000       0.006
  -0.32500000 -0.47500000  0.07500000       0.006
  -0.42500000 -0.42500000  0.07500000       0.003
  -0.37500000 -0.42500000  0.07500000       0.006
  -0.32500000 -0.42500000  0.07500000       0.003
  -0.37500000 -0.37500000  0.07500000       0.003
   0.12500000  0.12500000  0.12500000       0.001
   0.17500000  0.12500000  0.12500000       0.003
   0.22500000  0.12500000  0.12500000       0.003
   0.27500000  0.12500000  0.12500000       0.003
   0.32500000  0.12500000  0.12500000       0.003
   0.37500000  0.12500000  0.12500000       0.002
  -0.12500000  0.12500000  0.12500000       0.001
   0.17500000  0.17500000  0.12500000       0.003
   0.22500000  0.17500000  0.12500000       0.006
   0.27500000  0.17500000  0.12500000       0.006
   0.32500000  0.17500000  0.12500000       0.006
  -0.17500000  0.17500000  0.12500000       0.003
   0.22500000  0.22500000  0.12500000       0.003
   0.27500000  0.22500000  0.12500000       0.006
   0.32500000  0.22500000  0.12500000       0.003
  -0.22500000  0.22500000  0.12500000       0.003
  -0.17500000  0.22500000  0.12500000       0.003
   0.27500000  0.27500000  0.12500000       0.003
  -0.27500000  0.27500000  0.12500000       0.003
  -0.22500000  0.27500000  0.12500000       0.006
  -0.32500000  0.32500000  0.12500000       0.003
  -0.27500000  0.32500000  0.12500000       0.006
  -0.22500000  0.32500000  0.12500000       0.003
  -0.37500000  0.37500000  0.12500000       0.003
  -0.32500000  0.37500000  0.12500000       0.006
  -0.27500000  0.37500000  0.12500000       0.006
  -0.42500000  0.42500000  0.12500000       0.003
  -0.37500000  0.42500000  0.12500000       0.006
  -0.32500000  0.42500000  0.12500000       0.006
  -0.27500000  0.42500000  0.12500000       0.003
  -0.47500000  0.47500000  0.12500000       0.003
  -0.42500000  0.47500000  0.12500000       0.006
  -0.37500000  0.47500000  0.12500000       0.006
  -0.32500000  0.47500000  0.12500000       0.006
  -0.47500000 -0.47500000  0.12500000       0.003
  -0.42500000 -0.47500000  0.12500000       0.006
  -0.37500000 -0.47500000  0.12500000       0.006
  -0.32500000 -0.47500000  0.12500000       0.003
  -0.42500000 -0.42500000  0.12500000       0.003
  -0.37500000 -0.42500000  0.12500000       0.006
  -0.37500000 -0.37500000  0.12500000       0.001
   0.17500000  0.17500000  0.17500000       0.001
   0.22500000  0.17500000  0.17500000       0.003
   0.27500000  0.17500000  0.17500000       0.003
   0.32500000  0.17500000  0.17500000       0.002
  -0.17500000  0.17500000  0.17500000       0.001
   0.22500000  0.22500000  0.17500000       0.003
   0.27500000  0.22500000  0.17500000       0.006
  -0.22500000  0.22500000  0.17500000       0.003
   0.27500000  0.27500000  0.17500000       0.001
  -0.27500000  0.27500000  0.17500000       0.003
  -0.22500000  0.27500000  0.17500000       0.003
  -0.32500000  0.32500000  0.17500000       0.003
  -0.27500000  0.32500000  0.17500000       0.006
  -0.37500000  0.37500000  0.17500000       0.003
  -0.32500000  0.37500000  0.17500000       0.006
  -0.27500000  0.37500000  0.17500000       0.003
  -0.42500000  0.42500000  0.17500000       0.003
  -0.37500000  0.42500000  0.17500000       0.006
  -0.32500000  0.42500000  0.17500000       0.006
  -0.47500000  0.47500000  0.17500000       0.003
  -0.42500000  0.47500000  0.17500000       0.006
  -0.37500000  0.47500000  0.17500000       0.006
  -0.32500000  0.47500000  0.17500000       0.003
  -0.47500000 -0.47500000  0.17500000       0.003
  -0.42500000 -0.47500000  0.17500000       0.006
  -0.37500000 -0.47500000  0.17500000       0.006
  -0.42500000 -0.42500000  0.17500000       0.003
  -0.37500000 -0.42500000  0.17500000       0.003
   0.22500000  0.22500000  0.22500000       0.001
   0.27500000  0.22500000  0.22500000       0.002
  -0.22500000  0.22500000  0.22500000       0.001
  -0.27500000  0.27500000  0.22500000       0.003
  -0.32500000  0.32500000  0.22500000       0.003
  -0.27500000  0.32500000  0.22500000       0.003
  -0.37500000  0.37500000  0.22500000       0.003
  -0.32500000  0.37500000  0.22500000       0.006
  -0.42500000  0.42500000  0.22500000       0.003
  -0.37500000  0.42500000  0.22500000       0.006
  -0.32500000  0.42500000  0.22500000       0.003
  -0.47500000  0.47500000  0.22500000       0.003
  -0.42500000  0.47500000  0.22500000       0.006
  -0.37500000  0.47500000  0.22500000       0.006
  -0.47500000 -0.47500000  0.22500000       0.003
  -0.42500000 -0.47500000  0.22500000       0.006
  -0.37500000 -0.47500000  0.22500000       0.003
  -0.42500000 -0.42500000  0.22500000       0.003
  -0.27500000  0.27500000  0.27500000       0.001
  -0.32500000  0.32500000  0.27500000       0.003
  -0.37500000  0.37500000  0.27500000       0.003
  -0.32500000  0.37500000  0.27500000       0.003
  -0.42500000  0.42500000  0.27500000       0.003
  -0.37500000  0.42500000  0.27500000       0.006
  -0.47500000  0.47500000  0.27500000       0.003
  -0.42500000  0.47500000  0.27500000       0.006
  -0.37500000  0.47500000  0.27500000       0.003
  -0.47500000 -0.47500000  0.27500000       0.003
  -0.42500000 -0.47500000  0.27500000       0.006
  -0.42500000 -0.42500000  0.27500000       0.001
  -0.32500000  0.32500000  0.32500000       0.001
  -0.37500000  0.37500000  0.32500000       0.003
  -0.42500000  0.42500000  0.32500000       0.003
  -0.37500000  0.42500000  0.32500000       0.003
  -0.47500000  0.47500000  0.32500000       0.003
  -0.42500000  0.47500000  0.32500000       0.006
  -0.47500000 -0.47500000  0.32500000       0.003
  -0.42500000 -0.47500000  0.32500000       0.003
  -0.37500000  0.37500000  0.37500000       0.001
  -0.42500000  0.42500000  0.37500000       0.003
  -0.47500000  0.47500000  0.37500000       0.003
  -0.42500000  0.47500000  0.37500000       0.003
  -0.47500000 -0.47500000  0.37500000       0.003
  -0.42500000  0.42500000  0.42500000       0.001
  -0.47500000  0.47500000  0.42500000       0.003
  -0.47500000 -0.47500000  0.42500000       0.001
  -0.47500000  0.47500000  0.47500000       0.001
 
 position of ions in fractional coordinates (direct lattice) 
   0.00000000  0.00000000  0.00000000
 
 position of ions in cartesian coordinates  (Angst):
   0.00000000  0.00000000  0.00000000
 


--------------------------------------------------------------------------------------------------------


 k-point  1 :   0.0250 0.0250 0.0250  plane waves:     207
 k-point  2 :   0.0750 0.0250 0.0250  plane waves:     209
 k-point  3 :   0.1250 0.0250 0.0250  plane waves:     207
 k-point  4 :   0.1750 0.0250 0.0250  plane waves:     207
 k-point  5 :   0.2250 0.0250 0.0250  plane waves:     208
 k-point  6 :   0.2750 0.0250 0.0250  plane waves:     205
 k-point  7 :   0.3250 0.0250 0.0250  plane waves:     207
 k-point  8 :   0.3750 0.0250 0.0250  plane waves:     206
 k-point  9 :   0.4250 0.0250 0.0250  plane waves:     206
 k-point 10 :   0.4750 0.0250 0.0250  plane waves:     208
 k-point 11 :  -0.0250 0.0250 0.0250  plane waves:     209
 k-point 12 :   0.0750 0.0750 0.0250  plane waves:     211
 k-point 13 :   0.1250 0.0750 0.0250  plane waves:     210
 k-point 14 :   0.1750 0.0750 0.0250  plane waves:     210
 k-point 15 :   0.2250 0.0750 0.0250  plane waves:     207
 k-point 16 :   0.2750 0.0750 0.0250  plane waves:     206
 k-point 17 :   0.3250 0.0750 0.0250  plane waves:     207
 k-point 18 :   0.3750 0.0750 0.0250  plane waves:     209
 k-point 19 :   0.4250 0.0750 0.0250  plane waves:     207
 k-point 20 :  -0.0750 0.0750 0.0250  plane waves:     211
 k-point 21 :   0.1250 0.1250 0.0250  plane waves:     208
 k-point 22 :   0.1750 0.1250 0.0250  plane waves:     207
 k-point 23 :   0.2250 0.1250 0.0250  plane waves:     207
 k-point 24 :   0.2750 0.1250 0.0250  plane waves:     209
 k-point 25 :   0.3250 0.1250 0.0250  plane waves:     208
 k-point 26 :   0.3750 0.1250 0.0250  plane waves:     209
 k-point 27 :   0.4250 0.1250 0.0250  plane waves:     212
 k-point 28 :  -0.1250 0.1250 0.0250  plane waves:     209
 k-point 29 :  -0.0750 0.1250 0.0250  plane waves:     212
 k-point 30 :   0.1750 0.1750 0.0250  plane waves:     207
 k-point 31 :   0.2250 0.1750 0.0250  plane waves:     209
 k-point 32 :   0.2750 0.1750 0.0250  plane waves:     210
 k-point 33 :   0.3250 0.1750 0.0250  plane waves:     211
 k-point 34 :   0.3750 0.1750 0.0250  plane waves:     212
 k-point 35 :  -0.1750 0.1750 0.0250  plane waves:     207
 k-point 36 :  -0.1250 0.1750 0.0250  plane waves:     210
 k-point 37 :   0.2250 0.2250 0.0250  plane waves:     213
 k-point 38 :   0.2750 0.2250 0.0250  plane waves:     213
 k-point 39 :   0.3250 0.2250 0.0250  plane waves:     213
 k-point 40 :   0.3750 0.2250 0.0250  plane waves:     212
 k-point 41 :  -0.2250 0.2250 0.0250  plane waves:     209
 k-point 42 :  -0.1750 0.2250 0.0250  plane waves:     211
 k-point 43 :  -0.1250 0.2250 0.0250  plane waves:     209
 k-point 44 :   0.2750 0.2750 0.0250  plane waves:     216
 k-point 45 :   0.3250 0.2750 0.0250  plane waves:     213
 k-point 46 :  -0.2750 0.2750 0.0250  plane waves:     207
 k-point 47 :  -0.2250 0.2750 0.0250  plane waves:     207
 k-point 48 :  -0.1750 0.2750 0.0250  plane waves:     210
 k-point 49 :   0.3250 0.3250 0.0250  plane waves:     210
 k-point 50 :  -0.3250 0.3250 0.0250  plane waves:     211
 k-point 51 :  -0.2750 0.3250 0.0250  plane waves:     206
 k-point 52 :  -0.2250 0.3250 0.0250  plane waves:     209
 k-point 53 :  -0.1750 0.3250 0.0250  plane waves:     209
 k-point 54 :  -0.3750 0.3750 0.0250  plane waves:     206
 k-point 55 :  -0.3250 0.3750 0.0250  plane waves:     208
 k-point 56 :  -0.2750 0.3750 0.0250  plane waves:     207
 k-point 57 :  -0.2250 0.3750 0.0250  plane waves:     211
 k-point 58 :  -0.4250 0.4250 0.0250  plane waves:     204
 k-point 59 :  -0.3750 0.4250 0.0250  plane waves:     210
 k-point 60 :  -0.3250 0.4250 0.0250  plane waves:     212
 k-point 61 :  -0.2750 0.4250 0.0250  plane waves:     213
 k-point 62 :  -0.2250 0.4250 0.0250  plane waves:     213
 k-point 63 :  -0.4750 0.4750 0.0250  plane waves:     208
 k-point 64 :  -0.4250 0.4750 0.0250  plane waves:     211
 k-point 65 :  -0.3750 0.4750 0.0250  plane waves:     209
 k-point 66 :  -0.3250 0.4750 0.0250  plane waves:     212
 k-point 67 :  -0.2750 0.4750 0.0250  plane waves:     213
 k-point 68 :  -0.4750-0.4750 0.0250  plane waves:     209
 k-point 69 :  -0.4250-0.4750 0.0250  plane waves:     211
 k-point 70 :  -0.3750-0.4750 0.0250  plane waves:     212
 k-point 71 :  -0.3250-0.4750 0.0250  plane waves:     212
 k-point 72 :  -0.2750-0.4750 0.0250  plane waves:     216
 k-point 73 :  -0.4250-0.4250 0.0250  plane waves:     211
 k-point 74 :  -0.3750-0.4250 0.0250  plane waves:     212
 k-point 75 :  -0.3250-0.4250 0.0250  plane waves:     216
 k-point 76 :  -0.3750-0.3750 0.0250  plane waves:     213
 k-point 77 :  -0.3250-0.3750 0.0250  plane waves:     214
 k-point 78 :   0.0750 0.0750 0.0750  plane waves:     210
 k-point 79 :   0.1250 0.0750 0.0750  plane waves:     210
 k-point 80 :   0.1750 0.0750 0.0750  plane waves:     208
 k-point 81 :   0.2250 0.0750 0.0750  plane waves:     209
 k-point 82 :   0.2750 0.0750 0.0750  plane waves:     209
 k-point 83 :   0.3250 0.0750 0.0750  plane waves:     207
 k-point 84 :   0.3750 0.0750 0.0750  plane waves:     209
 k-point 85 :   0.4250 0.0750 0.0750  plane waves:     208
 k-point 86 :  -0.0750 0.0750 0.0750  plane waves:     213
 k-point 87 :   0.1250 0.1250 0.0750  plane waves:     210
 k-point 88 :   0.1750 0.1250 0.0750  plane waves:     209
 k-point 89 :   0.2250 0.1250 0.0750  plane waves:     207
 k-point 90 :   0.2750 0.1250 0.0750  plane waves:     211
 k-point 91 :   0.3250 0.1250 0.0750  plane waves:     210
 k-point 92 :   0.3750 0.1250 0.0750  plane waves:     209
 k-point 93 :  -0.1250 0.1250 0.0750  plane waves:     212
 k-point 94 :   0.1750 0.1750 0.0750  plane waves:     209
 k-point 95 :   0.2250 0.1750 0.0750  plane waves:     212
 k-point 96 :   0.2750 0.1750 0.0750  plane waves:     210
 k-point 97 :   0.3250 0.1750 0.0750  plane waves:     210
 k-point 98 :   0.3750 0.1750 0.0750  plane waves:     212
 k-point 99 :  -0.1750 0.1750 0.0750  plane waves:     211
 k-point ** :  -0.1250 0.1750 0.0750  plane waves:     210
 k-point ** :   0.2250 0.2250 0.0750  plane waves:     212
 k-point ** :   0.2750 0.2250 0.0750  plane waves:     212
 k-point ** :   0.3250 0.2250 0.0750  plane waves:     214
 k-point ** :  -0.2250 0.2250 0.0750  plane waves:     210
 k-point ** :  -0.1750 0.2250 0.0750  plane waves:     209
 k-point ** :   0.2750 0.2750 0.0750  plane waves:     210
 k-point ** :   0.3250 0.2750 0.0750  plane waves:     212
 k-point ** :  -0.2750 0.2750 0.0750  plane waves:     208
 k-point ** :  -0.2250 0.2750 0.0750  plane waves:     209
 k-point ** :  -0.1750 0.2750 0.0750  plane waves:     211
 k-point ** :  -0.3250 0.3250 0.0750  plane waves:     208
 k-point ** :  -0.2750 0.3250 0.0750  plane waves:     210
 k-point ** :  -0.2250 0.3250 0.0750  plane waves:     209
 k-point ** :  -0.3750 0.3750 0.0750  plane waves:     210
 k-point ** :  -0.3250 0.3750 0.0750  plane waves:     213
 k-point ** :  -0.2750 0.3750 0.0750  plane waves:     212
 k-point ** :  -0.2250 0.3750 0.0750  plane waves:     208
 k-point ** :  -0.4250 0.4250 0.0750  plane waves:     210
 k-point ** :  -0.3750 0.4250 0.0750  plane waves:     211
 k-point ** :  -0.3250 0.4250 0.0750  plane waves:     213
 k-point ** :  -0.2750 0.4250 0.0750  plane waves:     215
 k-point ** :  -0.4750 0.4750 0.0750  plane waves:     209
 k-point ** :  -0.4250 0.4750 0.0750  plane waves:     211
 k-point ** :  -0.3750 0.4750 0.0750  plane waves:     212
 k-point ** :  -0.3250 0.4750 0.0750  plane waves:     214
 k-point ** :  -0.2750 0.4750 0.0750  plane waves:     216
 k-point ** :  -0.4750-0.4750 0.0750  plane waves:     212
 k-point ** :  -0.4250-0.4750 0.0750  plane waves:     213
 k-point ** :  -0.3750-0.4750 0.0750  plane waves:     213
 k-point ** :  -0.3250-0.4750 0.0750  plane waves:     215
 k-point ** :  -0.4250-0.4250 0.0750  plane waves:     212
 k-point ** :  -0.3750-0.4250 0.0750  plane waves:     214
 k-point ** :  -0.3250-0.4250 0.0750  plane waves:     215
 k-point ** :  -0.3750-0.3750 0.0750  plane waves:     214
 k-point ** :   0.1250 0.1250 0.1250  plane waves:     210
 k-point ** :   0.1750 0.1250 0.1250  plane waves:     211
 k-point ** :   0.2250 0.1250 0.1250  plane waves:     211
 k-point ** :   0.2750 0.1250 0.1250  plane waves:     210
 k-point ** :   0.3250 0.1250 0.1250  plane waves:     212
 k-point ** :   0.3750 0.1250 0.1250  plane waves:     210
 k-point ** :  -0.1250 0.1250 0.1250  plane waves:     209
 k-point ** :   0.1750 0.1750 0.1250  plane waves:     212
 k-point ** :   0.2250 0.1750 0.1250  plane waves:     212
 k-point ** :   0.2750 0.1750 0.1250  plane waves:     210
 k-point ** :   0.3250 0.1750 0.1250  plane waves:     211
 k-point ** :  -0.1750 0.1750 0.1250  plane waves:     211
 k-point ** :   0.2250 0.2250 0.1250  plane waves:     214
 k-point ** :   0.2750 0.2250 0.1250  plane waves:     211
 k-point ** :   0.3250 0.2250 0.1250  plane waves:     212
 k-point ** :  -0.2250 0.2250 0.1250  plane waves:     210
 k-point ** :  -0.1750 0.2250 0.1250  plane waves:     211
 k-point ** :   0.2750 0.2750 0.1250  plane waves:     212
 k-point ** :  -0.2750 0.2750 0.1250  plane waves:     212
 k-point ** :  -0.2250 0.2750 0.1250  plane waves:     212
 k-point ** :  -0.3250 0.3250 0.1250  plane waves:     212
 k-point ** :  -0.2750 0.3250 0.1250  plane waves:     214
 k-point ** :  -0.2250 0.3250 0.1250  plane waves:     212
 k-point ** :  -0.3750 0.3750 0.1250  plane waves:     212
 k-point ** :  -0.3250 0.3750 0.1250  plane waves:     214
 k-point ** :  -0.2750 0.3750 0.1250  plane waves:     213
 k-point ** :  -0.4250 0.4250 0.1250  plane waves:     213
 k-point ** :  -0.3750 0.4250 0.1250  plane waves:     213
[...]
      8      10.4739      0.00000
      9      13.6664      0.00000
     10      15.4886      0.00000
     11      16.3855      0.00000
     12      24.2742      0.00000
     13      25.4409      0.00000
     14      26.2756      0.00000
     15      30.9423      0.00000
     16      38.1968      0.00000
     17      39.5705      0.00000
     18      42.1535      0.00000
     19      43.5179      0.00000
     20      44.2472      0.00000
     21      45.4638      0.00000
     22      47.8410      0.00000
     23      51.1947      0.00000
     24      52.9689      0.00000
     25      53.7442      0.00000
     26      54.3376      0.00000
     27      55.1704      0.00000
     28      55.4045      0.00000
     29      57.5160      0.00000
     30      58.4283      0.00000
     31      59.6430      0.00000
     32      60.5390      0.00000
     33      63.1974      0.00000
     34      64.5179      0.00000
     35      65.8666      0.00000
     36      67.2353      0.00000
     37      68.8221      0.00000
     38      72.4972      0.00000
     39      87.1796      0.00000
     40      87.9306      0.00000

 k-point   245 :      -0.4250    0.4750    0.3750
  band No.  band energies     occupation 
      1     -25.6723      2.00000
      2     -25.5954      2.00000
      3     -25.5248      2.00000
      4       1.4141      2.00000
      5       1.5390      2.00000
      6       8.4709      0.00000
      7       9.1915      0.00000
      8      10.2150      0.00000
      9      13.4383      0.00000
     10      15.9175      0.00000
     11      15.9615      0.00000
     12      24.1144      0.00000
     13      25.5991      0.00000
     14      26.1316      0.00000
     15      30.8209      0.00000
     16      38.5761      0.00000
     17      39.9316      0.00000
     18      41.9293      0.00000
     19      42.9170      0.00000
     20      44.8007      0.00000
     21      45.9163      0.00000
     22      47.3387      0.00000
     23      52.5837      0.00000
     24      52.9413      0.00000
     25      53.3505      0.00000
     26      53.7834      0.00000
     27      55.2150      0.00000
     28      55.9241      0.00000
     29      57.9345      0.00000
     30      58.0485      0.00000
     31      58.9707      0.00000
     32      61.6623      0.00000
     33      62.0504      0.00000
     34      63.6037      0.00000
     35      65.1689      0.00000
     36      67.2979      0.00000
     37      68.0242      0.00000
     38      71.7257      0.00000
     39      87.6318      0.00000
     40      91.1020      0.00000

 k-point   246 :      -0.4750   -0.4750    0.3750
  band No.  band energies     occupation 
      1     -25.6749      2.00000
      2     -25.6193      2.00000
      3     -25.5221      2.00000
      4       1.3796      2.00000
      5       1.4393      2.00000
      6       8.4948      0.00000
      7       9.5263      0.00000
      8      10.3184      0.00000
      9      14.3403      0.00000
     10      14.9700      0.00000
     11      15.5633      0.00000
     12      24.5388      0.00000
     13      25.5203      0.00000
     14      25.7372      0.00000
     15      30.6865      0.00000
     16      38.6290      0.00000
     17      40.8632      0.00000
     18      42.2468      0.00000
     19      42.6866      0.00000
     20      44.9347      0.00000
     21      45.5692      0.00000
     22      47.3468      0.00000
     23      52.3817      0.00000
     24      53.2978      0.00000
     25      53.3795      0.00000
     26      54.2691      0.00000
     27      55.0876      0.00000
     28      55.1244      0.00000
     29      57.7110      0.00000
     30      58.6644      0.00000
     31      60.2326      0.00000
     32      60.3616      0.00000
     33      62.1599      0.00000
     34      63.5230      0.00000
     35      63.6569      0.00000
     36      67.0829      0.00000
     37      67.6859      0.00000
     38      70.5064      0.00000
     39      87.7638      0.00000
     40      92.3024      0.00000

 k-point   247 :      -0.4250    0.4250    0.4250
  band No.  band energies     occupation 
      1     -25.6422      2.00000
      2     -25.5849      2.00000
      3     -25.5849      2.00000
      4       1.3369      2.00000
      5       1.4733      2.00000
      6       9.1670      0.00000
      7       9.1670      0.00000
      8      10.0427      0.00000
      9      13.0559      0.00000
     10      16.0028      0.00000
     11      16.0028      0.00000
     12      23.7931      0.00000
     13      25.7026      0.00000
     14      26.1675      0.00000
     15      30.6922      0.00000
     16      39.7136      0.00000
     17      39.7137      0.00000
     18      41.2076      0.00000
     19      42.6749      0.00000
     20      46.0592      0.00000
     21      46.0592      0.00000
     22      46.3801      0.00000
     23      52.6249      0.00000
     24      53.4703      0.00000
     25      54.1885      0.00000
     26      54.1886      0.00000
     27      56.0677      0.00000
     28      56.0790      0.00000
     29      56.0790      0.00000
     30      56.9262      0.00000
     31      59.9096      0.00000
     32      61.7882      0.00000
     33      61.7882      0.00000
     34      63.6246      0.00000
     35      63.7245      0.00000
     36      66.9634      0.00000
     37      66.9634      0.00000
     38      71.0831      0.00000
     39      91.1914      0.00000
     40      91.1923      0.00000

 k-point   248 :      -0.4750    0.4750    0.4250
  band No.  band energies     occupation 
      1     -25.6586      2.00000
      2     -25.6083      2.00000
      3     -25.5913      2.00000
      4       1.2346      2.00000
      5       1.2967      2.00000
      6       9.4747      0.00000
      7       9.5878      0.00000
      8      10.4066      0.00000
      9      13.8393      0.00000
     10      15.0008      0.00000
     11      15.2790      0.00000
     12      23.9708      0.00000
     13      25.7320      0.00000
     14      25.8168      0.00000
     15      30.4142      0.00000
     16      40.1274      0.00000
     17      40.7307      0.00000
     18      42.0502      0.00000
     19      42.6497      0.00000
     20      45.2340      0.00000
     21      45.8721      0.00000
     22      46.8177      0.00000
     23      52.4416      0.00000
     24      53.4734      0.00000
     25      54.4072      0.00000
     26      54.6034      0.00000
     27      55.2805      0.00000
     28      55.8596      0.00000
     29      57.3959      0.00000
     30      58.7353      0.00000
     31      59.3131      0.00000
     32      60.3200      0.00000
     33      61.9078      0.00000
     34      62.0916      0.00000
     35      63.6833      0.00000
     36      65.0296      0.00000
     37      65.7996      0.00000
     38      68.8259      0.00000
     39      92.3081      0.00000
     40      92.9172      0.00000

 k-point   249 :      -0.4750   -0.4750    0.4250
  band No.  band energies     occupation 
      1     -25.6429      2.00000
      2     -25.6429      2.00000
      3     -25.5947      2.00000
      4       1.1931      2.00000
      5       1.1931      2.00000
      6       9.5862      0.00000
      7      10.2651      0.00000
      8      10.2651      0.00000
      9      14.4443      0.00000
     10      14.4443      0.00000
     11      14.7172      0.00000
     12      23.8276      0.00000
     13      25.7929      0.00000
     14      25.7929      0.00000
     15      30.2730      0.00000
     16      40.3619      0.00000
     17      41.9596      0.00000
     18      41.9596      0.00000
     19      42.2358      0.00000
     20      45.5766      0.00000
     21      45.5766      0.00000
     22      46.5708      0.00000
     23      51.9735      0.00000
     24      53.7713      0.00000
     25      54.6733      0.00000
     26      54.6733      0.00000
     27      55.6993      0.00000
     28      55.6993      0.00000
     29      58.3241      0.00000
     30      58.5818      0.00000
     31      60.3065      0.00000
     32      60.3065      0.00000
     33      61.2830      0.00000
     34      61.2830      0.00000
     35      62.1172      0.00000
     36      65.0197      0.00000
     37      65.0197      0.00000
     38      67.3121      0.00000
     39      92.7637      0.00000
     40      96.8981      0.00000

 k-point   250 :      -0.4750    0.4750    0.4750
  band No.  band energies     occupation 
      1     -25.6387      2.00000
      2     -25.6319      2.00000
      3     -25.6319      2.00000
      4       1.1106      2.00000
      5       1.1280      2.00000
      6      10.2468      0.00000
      7      10.2468      0.00000
      8      10.3999      0.00000
      9      14.0657      0.00000
     10      14.4747      0.00000
     11      14.4747      0.00000
     12      23.5101      0.00000
     13      25.8701      0.00000
     14      25.9056      0.00000
     15      30.1296      0.00000
     16      41.6748      0.00000
     17      41.6748      0.00000
     18      41.7650      0.00000
     19      42.3347      0.00000
     20      45.8416      0.00000
     21      45.8641      0.00000
     22      45.8642      0.00000
     23      51.4302      0.00000
     24      54.2297      0.00000
     25      54.4559      0.00000
     26      54.4560      0.00000
     27      57.0408      0.00000
     28      57.0408      0.00000
     29      57.4545      0.00000
     30      59.6346      0.00000
     31      59.7376      0.00000
     32      60.2691      0.00000
     33      60.2691      0.00000
     34      61.1951      0.00000
     35      62.8386      0.00000
     36      63.4821      0.00000
     37      63.4821      0.00000
     38      65.8909      0.00000
     39      97.0580      0.00000
     40      97.0592      0.00000


--------------------------------------------------------------------------------------------------------


 soft charge-density along one line, spin component           1
         0         1         2         3         4         5         6         7         8         9
 total charge-density along one line
 
 pseudopotential strength for first ion, spin component:           1
-27.829   0.000   0.000   0.000   0.000   0.000   5.816   0.000  -0.000   0.000  -0.000   0.000   0.000   0.000   0.000   0.000
  0.000   0.000 -27.829   0.000   0.000   0.000  -0.000   0.000   5.816   0.000  -0.000   0.000  -0.000   0.000  -0.000   0.000
  0.000   0.000   0.000   0.000 -27.829   0.000  -0.000   0.000  -0.000   0.000   5.816   0.000  -0.000   0.000  -0.000   0.000
  5.816   0.000  -0.000   0.000  -0.000   0.000   4.386   0.000   0.000   0.000   0.000   0.000  -0.000   0.000   0.000   0.000
 -0.000   0.000   5.816   0.000  -0.000   0.000   0.000   0.000   4.386   0.000   0.000   0.000   0.000   0.000   0.000   0.000
 -0.000   0.000  -0.000   0.000   5.816   0.000   0.000   0.000   0.000   0.000   4.386   0.000   0.000   0.000   0.000   0.000
  0.000   0.000  -0.000   0.000  -0.000   0.000  -0.000   0.000   0.000   0.000   0.000   0.000  -6.228   0.000   0.000   0.000
  0.000   0.000  -0.000   0.000  -0.000   0.000   0.000   0.000   0.000   0.000   0.000   0.000   0.000   0.000  -6.228   0.000
  0.000   0.000  -0.000   0.000  -0.000   0.000  -0.000   0.000   0.000   0.000   0.000   0.000  -0.000   0.000   0.000   0.000
 -0.000   0.000   0.000   0.000  -0.000   0.000   0.000   0.000  -0.000   0.000   0.000   0.000   0.000   0.000   0.000   0.000
  0.000   0.000  -0.000   0.000   0.000   0.000  -0.000   0.000   0.000   0.000  -0.000   0.000  -0.000   0.000  -0.000   0.000
  0.000   0.000  -0.000   0.000  -0.000   0.000  -0.000   0.000   0.000   0.000   0.000   0.000  -7.057   0.000   0.000   0.000
 -0.000   0.000   0.000   0.000  -0.000   0.000   0.000   0.000   0.000   0.000   0.000   0.000   0.000   0.000  -7.057   0.000
  0.000   0.000  -0.000   0.000  -0.000   0.000  -0.000   0.000   0.000   0.000   0.000   0.000  -0.000   0.000   0.000   0.000
 -0.000   0.000   0.000   0.000   0.000   0.000   0.000   0.000  -0.000   0.000   0.000   0.000   0.000   0.000   0.000   0.000
  0.000   0.000  -0.000   0.000   0.000   0.000  -0.000   0.000   0.000   0.000  -0.000   0.000  -0.000   0.000  -0.000   0.000
  0.000   0.000   0.000   0.000  -0.000   0.000  -0.000   0.000  -0.000   0.000   0.000   0.000  -0.000   0.000  -0.000   0.000
  0.000   0.000   0.000   0.000   0.000   0.000  -0.000   0.000   0.000   0.000   0.000   0.000   0.000   0.000   0.000   0.000
 total augmentation occupancy for first ion, spin component:           1
  2.000   0.000   0.000   0.000   0.000   0.000   0.000   0.000   0.000   0.000   0.000   0.000   0.000   0.000   0.000   0.000
  0.000   2.000   0.000   0.000   0.000   0.000   0.000   0.000   0.000   0.000   0.000   0.000   0.000   0.000   0.000   0.000
  0.000   0.000   2.000   0.000   0.000   0.000   0.000   0.000   0.000   0.000   0.000   0.000   0.000   0.000   0.000   0.000
  0.000   0.000   0.000   0.000   0.000   0.000   0.000   0.000   0.000   0.000   0.000   0.000   0.000   0.000   0.000   0.000
  0.000   0.000   0.000   0.000   0.000   0.000   0.000   0.000   0.000   0.000   0.000   0.000   0.000   0.000   0.000   0.000
  0.000   0.000   0.000   0.000   0.000   0.000   0.000   0.000   0.000   0.000   0.000   0.000   0.000   0.000   0.000   0.000
  0.000   0.000   0.000   0.000   0.000   0.000   0.800   0.000   0.000   0.000   0.000   0.000   0.000   0.000   0.000   0.000
  0.000   0.000   0.000   0.000   0.000   0.000   0.000   0.800   0.000   0.000   0.000   0.000   0.000   0.000   0.000   0.000
  0.000   0.000   0.000   0.000   0.000   0.000   0.000   0.000   0.800   0.000   0.000   0.000   0.000   0.000   0.000   0.000
  0.000   0.000   0.000   0.000   0.000   0.000   0.000   0.000   0.000   0.800   0.000   0.000   0.000   0.000   0.000   0.000
  0.000   0.000   0.000   0.000   0.000   0.000   0.000   0.000   0.000   0.000   0.800   0.000   0.000   0.000   0.000   0.000
  0.000   0.000   0.000   0.000   0.000   0.000   0.000   0.000   0.000   0.000   0.000   0.000   0.000   0.000   0.000   0.000
  0.000   0.000   0.000   0.000   0.000   0.000   0.000   0.000   0.000   0.000   0.000   0.000   0.000   0.000   0.000   0.000
  0.000   0.000   0.000   0.000   0.000   0.000   0.000   0.000   0.000   0.000   0.000   0.000   0.000   0.000   0.000   0.000
  0.000   0.000   0.000   0.000   0.000   0.000   0.000   0.000   0.000   0.000   0.000   0.000   0.000   0.000   0.000   0.000
  0.000   0.000   0.000   0.000   0.000   0.000   0.000   0.000   0.000   0.000   0.000   0.000   0.000   0.000   0.000   0.000
  0.000   0.000   0.000   0.000   0.000   0.000   0.000   0.000   0.000   0.000   0.000   0.000   0.000   0.000   0.000   0.000
  0.000   0.000   0.000   0.000   0.000   0.000   0.000   0.000   0.000   0.000   0.000   0.000   0.000   0.000   0.000   0.000


------------------------ aborting loop because EDIFF is reached ----------------------------------------


    CHARGE:  cpu time    0.0063: real time    0.0111
    FORLOC:  cpu time    0.0007: real time    0.0014
    FORNL :  cpu time    0.0105: real time    0.0126
    STRESS:  cpu time    0.1621: real time    0.1646
    FORCOR:  cpu time    0.0010: real time    0.0020
    FORHAR:  cpu time    0.0005: real time    0.0011
    OFIELD:  cpu time    0.0002: real time    0.0009

  FORCE on cell =-STRESS in cart. coord.  units (eV):
  Direction    XX          YY          ZZ          XY          YZ          ZX
  --------------------------------------------------------------------------------------
  Alpha Z   124.80262   124.80262   124.80262
  Ewald    -320.17018  -320.17018  -320.17018    -0.00000    -0.00000     0.00000
  Hartree    40.04783    40.04783    40.04783     0.00000     0.00000     0.00000
  E(xc)     -46.88477   -46.88477   -46.88477    -0.00000    -0.00000    -0.00000
  Local     102.78371   102.78371   102.78371    -0.00000    -0.00000    -0.00000
  n-local   -42.90926   -42.12190   -40.55989     3.32749    -2.38975    -3.02248
  augment    26.17736    26.17736    26.17736    -0.00000    -0.00000    -0.00000
  Kinetic   114.11425   112.47444   116.57709    -0.32300     0.95566     1.70147
  Fock        0.00000     0.00000     0.00000     0.00000     0.00000     0.00000
  -------------------------------------------------------------------------------------
  Total      -0.71852    -0.71852    -0.71852    -0.00000     0.00000    -0.00000
  in kB     -64.02103   -64.02103   -64.02103    -0.00000     0.00000    -0.00000
  external pressure =      -64.02 kB  Pullay stress =        0.00 kB


 VOLUME and BASIS-vectors are now :
 -----------------------------------------------------------------------------
  energy-cutoff  :      300.00
  volume of cell :       17.98
      direct lattice vectors                 reciprocal lattice vectors
    -1.650400000  1.650400000  1.650400000     0.000000000  0.302956859  0.302956859
     1.650400000 -1.650400000  1.650400000     0.302956859  0.000000000  0.302956859
     1.650400000  1.650400000 -1.650400000     0.302956859  0.302956859  0.000000000

  length of vectors
     2.858576653  2.858576653  2.858576653     0.428445699  0.428445699  0.428445699


 FORCES acting on ions
    electron-ion (+dipol)            ewald-force                    non-local-force                 convergence-correction
 -----------------------------------------------------------------------------------------------
   -.194E-14 -.129E-14 0.535E-15   0.544E-15 -.107E-14 -.107E-14   -.646E-26 -.485E-26 -.808E-26   0.476E-14 -.128E-14 -.334E-14
 -----------------------------------------------------------------------------------------------
   -.194E-14 -.129E-14 0.535E-15   0.544E-15 -.107E-14 -.107E-14   -.646E-26 -.485E-26 -.808E-26   0.476E-14 -.128E-14 -.334E-14
 
 
 POSITION                                       TOTAL-FORCE (eV/Angst)
 -----------------------------------------------------------------------------------
      0.00000      0.00000      0.00000         0.000000     -0.000000      0.000000
 -----------------------------------------------------------------------------------
    total drift:                                0.000000     -0.000000     -0.000000


--------------------------------------------------------------------------------------------------------



  FREE ENERGIE OF THE ION-ELECTRON SYSTEM (eV)
  ---------------------------------------------------
  free  energy   TOTEN  =       -11.15209762 eV

  energy  without entropy=      -11.12141119  energy(sigma->0) =      -11.13675441
 


--------------------------------------------------------------------------------------------------------


    POTLOK:  cpu time    0.0033: real time    0.0045


--------------------------------------------------------------------------------------------------------


 writing wavefunctions
     LOOP+:  cpu time   23.0644: real time   23.3082
    4ORBIT:  cpu time    0.0000: real time    0.0000

 total amount of memory used by VASP MPI-rank0    39934. kBytes
=======================================================================

   base      :      30000. kBytes
   nonl-proj :       8643. kBytes
   fftplans  :         55. kBytes
   grid      :        101. kBytes
   one-center:         15. kBytes
   wavefun   :       1120. kBytes
 
  
  
 General timing and accounting informations for this job:
 ========================================================
  
                  Total CPU time used (sec):       25.323
                            User time (sec):       23.255
                          System time (sec):        2.069
                         Elapsed time (sec):       25.922
  
                   Maximum memory used (kb):       61576.
                   Average memory used (kb):           0.
  
                          Minor page faults:        27193
                          Major page faults:           47
                 Voluntary context switches:         1270
