   1   1   1   0
  0.1099207E+02  0.2495733E-09  0.2495733E-09  0.2495733E-09  0.5000000E-15
  1.000000000000000E-004
  CAR 
 fcc Ni                                  
     37.16682059     -6.24033273  301      4.10548147      1.00000000
     -6.240  0.0000E+00  0.0000E+00  0.0000E+00  0.0000E+00
     -6.096  0.0000E+00  0.0000E+00  0.0000E+00  0.0000E+00
     -5.951 -0.2497E-32 -0.1063E-31 -0.3613E-33 -0.1538E-32
     -5.806 -0.3892E-27 -0.1395E-26 -0.5631E-28 -0.2019E-27
     -5.662 -0.2005E-22 -0.6383E-22 -0.2901E-23 -0.9236E-23
     -5.517 -0.3603E-18 -0.1018E-17 -0.5213E-19 -0.1474E-18
     -5.372 -0.2189E-14 -0.5487E-14 -0.3168E-15 -0.7940E-15
     -5.227 -0.4711E-11 -0.1048E-10 -0.6820E-12 -0.1516E-11
     -5.083 -0.3497E-08 -0.6892E-08 -0.5067E-09 -0.9987E-09
     -4.938 -0.8860E-06 -0.1545E-05 -0.1287E-06 -0.2245E-06
     -4.793 -0.7507E-04 -0.1154E-03 -0.1099E-04 -0.1693E-04
     -4.649 -0.2017E-02 -0.2704E-02 -0.3028E-03 -0.4082E-03
     -4.504 -0.1392E-01 -0.1535E-01 -0.2317E-02 -0.2630E-02
     -4.359  0.1698E-01  0.3191E-01  0.1393E-03  0.1988E-02
     -4.215  0.2476E+00  0.2793E+00  0.3597E-01  0.4240E-01
     -4.070  0.4012E+00  0.3949E+00  0.9401E-01  0.9953E-01
     -3.925  0.2679E+00  0.2522E+00  0.1328E+00  0.1360E+00
     -3.781  0.1882E+00  0.1838E+00  0.1600E+00  0.1626E+00
     -3.636  0.1468E+00  0.1417E+00  0.1812E+00  0.1831E+00
     -3.491  0.1218E+00  0.1213E+00  0.1989E+00  0.2007E+00
     -3.347  0.1369E+00  0.1382E+00  0.2187E+00  0.2207E+00
     -3.202  0.1323E+00  0.1279E+00  0.2378E+00  0.2392E+00
     -3.057  0.8992E-01  0.8701E-01  0.2508E+00  0.2518E+00
     -2.912  0.9205E-01  0.9233E-01  0.2641E+00  0.2651E+00
     -2.768  0.1011E+00  0.1008E+00  0.2788E+00  0.2797E+00
     -2.623  0.1200E+00  0.1190E+00  0.2961E+00  0.2969E+00
     -2.478  0.9789E-01  0.9453E-01  0.3103E+00  0.3106E+00
     -2.334  0.5722E-01  0.5495E-01  0.3186E+00  0.3186E+00
     -2.189  0.9331E-01  0.8886E-01  0.3321E+00  0.3314E+00
     -2.044  0.2191E+00  0.2118E+00  0.3638E+00  0.3621E+00
     -1.900  0.2762E+00  0.2766E+00  0.4037E+00  0.4021E+00
     -1.755  0.1648E+00  0.1694E+00  0.4276E+00  0.4266E+00
     -1.610  0.7438E-01  0.7679E-01  0.4384E+00  0.4377E+00
     -1.466  0.6775E-01  0.5937E-01  0.4482E+00  0.4463E+00
     -1.321  0.8354E-01  0.8047E-01  0.4602E+00  0.4580E+00
     -1.176  0.8535E-01  0.7960E-01  0.4726E+00  0.4695E+00
     -1.031  0.1133E+00  0.9626E-01  0.4890E+00  0.4834E+00
     -0.887  0.8985E-01  0.9736E-01  0.5020E+00  0.4975E+00
     -0.742  0.7240E-01  0.5984E-01  0.5125E+00  0.5061E+00
     -0.597  0.8507E-01  0.6478E-01  0.5248E+00  0.5155E+00
     -0.453  0.1030E+00  0.7607E-01  0.5397E+00  0.5265E+00
     -0.308  0.1573E+00  0.9347E-01  0.5624E+00  0.5400E+00
     -0.163  0.3291E+00  0.1269E+00  0.6101E+00  0.5584E+00
     -0.019  0.5795E+00  0.1068E+00  0.6939E+00  0.5739E+00
      0.126  0.4233E+00  0.1469E+00  0.7551E+00  0.5951E+00
      0.271  0.1872E+00  0.3853E+00  0.7822E+00  0.6509E+00
      0.415  0.1339E+00  0.5361E+00  0.8016E+00  0.7284E+00
      0.560  0.1370E+00  0.2977E+00  0.8214E+00  0.7715E+00
      0.705  0.1479E+00  0.1224E+00  0.8428E+00  0.7892E+00
      0.850  0.1950E+00  0.1253E+00  0.8710E+00  0.8073E+00
      0.994  0.3340E+00  0.1353E+00  0.9194E+00  0.8269E+00
      1.139  0.3982E+00  0.1248E+00  0.9770E+00  0.8450E+00
      1.284  0.4072E+00  0.1779E+00  0.1036E+01  0.8707E+00
      1.428  0.3916E+00  0.3196E+00  0.1093E+01  0.9170E+00
      1.573  0.3638E+00  0.3958E+00  0.1145E+01  0.9742E+00
      1.718  0.5072E+00  0.4121E+00  0.1219E+01  0.1034E+01
      1.862  0.7234E+00  0.3468E+00  0.1323E+01  0.1084E+01
      2.007  0.9035E+00  0.2968E+00  0.1454E+01  0.1127E+01
      2.152  0.1370E+01  0.3374E+00  0.1652E+01  0.1176E+01
      2.296  0.3175E+01  0.5138E+00  0.2112E+01  0.1250E+01
      2.441  0.4865E+01  0.7128E+00  0.2815E+01  0.1353E+01
      2.586  0.3644E+01  0.9417E+00  0.3343E+01  0.1490E+01
      2.730  0.1418E+01  0.1191E+01  0.3548E+01  0.1662E+01
      2.875  0.5007E+00  0.2452E+01  0.3620E+01  0.2017E+01
      3.020  0.4084E+00  0.4318E+01  0.3679E+01  0.2642E+01
      3.165  0.7276E+00  0.4099E+01  0.3785E+01  0.3235E+01
      3.309  0.2126E+01  0.2098E+01  0.4092E+01  0.3538E+01
      3.454  0.3146E+01  0.6665E+00  0.4548E+01  0.3635E+01
      3.599  0.1680E+01  0.4743E+00  0.4791E+01  0.3703E+01
      3.743  0.6376E+00  0.5400E+00  0.4883E+01  0.3781E+01
      3.888  0.7465E+00  0.1436E+01  0.4991E+01  0.3989E+01
      4.033  0.1555E+01  0.3097E+01  0.5216E+01  0.4437E+01
      4.177  0.1798E+01  0.2303E+01  0.5476E+01  0.4771E+01
      4.322  0.8676E+00  0.8137E+00  0.5602E+01  0.4888E+01
      4.467  0.4900E+00  0.6458E+00  0.5673E+01  0.4982E+01
      4.611  0.2676E+00  0.8659E+00  0.5711E+01  0.5107E+01
      4.756  0.2917E-02  0.1635E+01  0.5712E+01  0.5344E+01
      4.901  0.3072E-01  0.1731E+01  0.5716E+01  0.5594E+01
      5.046  0.1409E+00  0.7322E+00  0.5736E+01  0.5700E+01
      5.190  0.9336E-01  0.1328E+00  0.5750E+01  0.5719E+01
      5.335  0.3590E-02  0.7133E-01  0.5751E+01  0.5730E+01
      5.480 -0.7204E-02  0.8975E-01  0.5749E+01  0.5743E+01
      5.624  0.3618E-01  0.4504E-01  0.5755E+01  0.5749E+01
      5.769  0.8768E-01  0.5346E-02  0.5767E+01  0.5750E+01
      5.914  0.6523E-01  0.3215E-01  0.5777E+01  0.5754E+01
      6.058  0.2455E-01  0.8496E-01  0.5780E+01  0.5767E+01
      6.203  0.2550E-01  0.6652E-01  0.5784E+01  0.5776E+01
      6.348  0.4311E-01  0.2318E-01  0.5790E+01  0.5780E+01
      6.492  0.7156E-01  0.5299E-02  0.5801E+01  0.5780E+01
      6.637  0.7147E-01  0.4882E-01  0.5811E+01  0.5788E+01
      6.782  0.4462E-01  0.9567E-01  0.5817E+01  0.5801E+01
      6.927  0.1871E-01  0.6809E-01  0.5820E+01  0.5811E+01
      7.071 -0.4279E-02  0.4018E-01  0.5820E+01  0.5817E+01
      7.216  0.9419E-02  0.2036E-01  0.5821E+01  0.5820E+01
      7.361  0.6589E-01 -0.3559E-02  0.5830E+01  0.5820E+01
      7.505  0.7755E-01  0.1878E-01  0.5842E+01  0.5822E+01
      7.650  0.6903E-01  0.7312E-01  0.5852E+01  0.5833E+01
      7.795  0.5169E-01  0.6400E-01  0.5859E+01  0.5842E+01
      7.939  0.6532E-02  0.6145E-01  0.5860E+01  0.5851E+01
      8.084 -0.4744E-02  0.5375E-01  0.5859E+01  0.5859E+01
      8.229  0.4798E-01  0.7908E-02  0.5866E+01  0.5860E+01
      8.373  0.1088E+00  0.3381E-02  0.5882E+01  0.5860E+01
      8.518  0.5708E-01  0.6738E-01  0.5890E+01  0.5870E+01
      8.663  0.1082E-02  0.9847E-01  0.5890E+01  0.5884E+01
      8.807 -0.4804E-02  0.4126E-01  0.5890E+01  0.5890E+01
      8.952 -0.4967E-02  0.1355E-03  0.5889E+01  0.5890E+01
      9.097  0.2626E-01 -0.5453E-02  0.5893E+01  0.5890E+01
      9.242  0.1190E+00 -0.4016E-02  0.5910E+01  0.5889E+01
      9.386  0.1216E+00  0.5605E-01  0.5928E+01  0.5897E+01
      9.531  0.2224E-01  0.1469E+00  0.5931E+01  0.5918E+01
      9.676 -0.5088E-02  0.8401E-01  0.5930E+01  0.5931E+01
      9.820  0.2405E-01 -0.7606E-03  0.5934E+01  0.5930E+01
      9.965  0.2535E-01  0.4458E-02  0.5937E+01  0.5931E+01
     10.110 -0.8059E-02  0.3536E-01  0.5936E+01  0.5936E+01
     10.254  0.1950E+00  0.1934E-01  0.5964E+01  0.5939E+01
     10.399  0.5465E+00  0.2286E-02  0.6043E+01  0.5939E+01
     10.544  0.4418E+00  0.1004E+00  0.6107E+01  0.5954E+01
     10.688  0.1947E+00  0.3905E+00  0.6136E+01  0.6010E+01
     10.833  0.1543E+00  0.5346E+00  0.6158E+01  0.6088E+01
     10.978  0.1258E+00  0.3063E+00  0.6176E+01  0.6132E+01
     11.123  0.1196E+00  0.1672E+00  0.6193E+01  0.6156E+01
     11.267  0.1435E+00  0.1370E+00  0.6214E+01  0.6176E+01
     11.412  0.2189E+00  0.1526E+00  0.6246E+01  0.6198E+01
     11.557  0.1937E+00  0.2021E+00  0.6274E+01  0.6227E+01
     11.701  0.7952E-01  0.2316E+00  0.6285E+01  0.6261E+01
     11.846  0.8728E-01  0.1276E+00  0.6298E+01  0.6279E+01
     11.991  0.1135E+00  0.6411E-01  0.6314E+01  0.6289E+01
     12.135  0.1188E+00  0.1245E+00  0.6332E+01  0.6307E+01
     12.280  0.1787E+00  0.1205E+00  0.6357E+01  0.6324E+01
     12.425  0.1651E+00  0.1831E+00  0.6381E+01  0.6351E+01
     12.569  0.7497E-01  0.1884E+00  0.6392E+01  0.6378E+01
     12.714  0.4129E-01  0.7770E-01  0.6398E+01  0.6389E+01
     12.859  0.3868E-01  0.3414E-01  0.6404E+01  0.6394E+01
     13.004  0.3622E-01  0.4003E-01  0.6409E+01  0.6400E+01
     13.148  0.9460E-02  0.4296E-01  0.6410E+01  0.6406E+01
     13.293 -0.2835E-02  0.2766E-01  0.6410E+01  0.6410E+01
     13.438 -0.3534E-02  0.1831E-02  0.6409E+01  0.6410E+01
     13.582  0.1229E-01 -0.4057E-02  0.6411E+01  0.6410E+01
     13.727  0.6761E-01 -0.5013E-03  0.6421E+01  0.6410E+01
     13.872  0.9664E-01  0.4249E-01  0.6435E+01  0.6416E+01
     14.016  0.3934E-01  0.1018E+00  0.6441E+01  0.6430E+01
     14.161 -0.2228E-02  0.6588E-01  0.6440E+01  0.6440E+01
     14.306 -0.2753E-02  0.4328E-02  0.6440E+01  0.6441E+01
     14.450 -0.5185E-02 -0.3850E-02  0.6439E+01  0.6440E+01
     14.595  0.9814E-03 -0.3526E-02  0.6439E+01  0.6440E+01
     14.740  0.9262E-01 -0.6181E-02  0.6453E+01  0.6439E+01
     14.884  0.1516E+00  0.5660E-01  0.6475E+01  0.6447E+01
     15.029  0.4334E-01  0.1555E+00  0.6481E+01  0.6469E+01
     15.174 -0.9950E-02  0.7867E-01  0.6480E+01  0.6481E+01
     15.319  0.4887E-01 -0.7208E-02  0.6487E+01  0.6480E+01
     15.463  0.1115E+00  0.3195E-01  0.6503E+01  0.6484E+01
     15.608  0.4432E-01  0.1089E+00  0.6509E+01  0.6500E+01
     15.753  0.8523E-01  0.5925E-01  0.6521E+01  0.6509E+01
     15.897  0.2195E+00  0.7487E-01  0.6553E+01  0.6519E+01
     16.042  0.1203E+00  0.2120E+00  0.6571E+01  0.6550E+01
     16.187  0.1945E-02  0.1352E+00  0.6571E+01  0.6570E+01
     16.331 -0.1140E-01  0.9094E-02  0.6569E+01  0.6571E+01
     16.476  0.1187E-01 -0.1173E-01  0.6571E+01  0.6569E+01
     16.621  0.9168E-01  0.1315E-01  0.6584E+01  0.6571E+01
     16.765  0.1000E+00  0.9124E-01  0.6599E+01  0.6584E+01
     16.910  0.5129E-01  0.9642E-01  0.6606E+01  0.6598E+01
     17.055  0.1012E+00  0.5120E-01  0.6621E+01  0.6606E+01
     17.200  0.1787E+00  0.1060E+00  0.6647E+01  0.6621E+01
     17.344  0.9731E-01  0.1806E+00  0.6661E+01  0.6647E+01
     17.489 -0.8965E-03  0.9400E-01  0.6661E+01  0.6661E+01
     17.634 -0.8491E-02 -0.2535E-02  0.6659E+01  0.6660E+01
     17.778  0.3302E-01 -0.6806E-02  0.6664E+01  0.6659E+01
     17.923  0.9215E-01  0.4096E-01  0.6677E+01  0.6665E+01
     18.068  0.6949E-01  0.9199E-01  0.6688E+01  0.6679E+01
     18.212  0.3066E-01  0.6247E-01  0.6692E+01  0.6688E+01
     18.357  0.5345E-01  0.3095E-01  0.6700E+01  0.6692E+01
     18.502  0.6278E-01  0.5561E-01  0.6709E+01  0.6700E+01
     18.646  0.7083E-01  0.6760E-01  0.6719E+01  0.6710E+01
     18.791  0.6069E-01  0.7832E-01  0.6728E+01  0.6721E+01
     18.936  0.3591E-01  0.5054E-01  0.6733E+01  0.6729E+01
     19.081  0.1143E+00  0.3915E-01  0.6750E+01  0.6734E+01
     19.225  0.1572E+00  0.1252E+00  0.6772E+01  0.6752E+01
     19.370  0.1680E+00  0.1645E+00  0.6797E+01  0.6776E+01
     19.515  0.1103E+00  0.1672E+00  0.6813E+01  0.6800E+01
     19.659  0.7778E-01  0.9608E-01  0.6824E+01  0.6814E+01
     19.804  0.1008E+00  0.8295E-01  0.6838E+01  0.6826E+01
     19.949  0.6007E-01  0.9842E-01  0.6847E+01  0.6841E+01
     20.093  0.4800E-01  0.5098E-01  0.6854E+01  0.6848E+01
     20.238  0.1575E+00  0.7190E-01  0.6877E+01  0.6858E+01
     20.383  0.1767E+00  0.1816E+00  0.6902E+01  0.6885E+01
     20.527  0.7459E-01  0.1486E+00  0.6913E+01  0.6906E+01
     20.672  0.3148E-01  0.5711E-01  0.6918E+01  0.6914E+01
     20.817  0.2261E-01  0.2618E-01  0.6921E+01  0.6918E+01
     20.961  0.1132E+00  0.3152E-01  0.6937E+01  0.6923E+01
     21.106  0.2106E+00  0.1526E+00  0.6968E+01  0.6945E+01
     21.251  0.9400E-01  0.2007E+00  0.6981E+01  0.6974E+01
     21.396 -0.8237E-02  0.5357E-01  0.6980E+01  0.6982E+01
     21.540 -0.7306E-02 -0.1503E-01  0.6979E+01  0.6979E+01
     21.685  0.5611E-01  0.7702E-02  0.6987E+01  0.6981E+01
     21.830  0.1637E+00  0.1072E+00  0.7011E+01  0.6996E+01
     21.974  0.1706E+00  0.1933E+00  0.7036E+01  0.7024E+01
     22.119  0.1017E+00  0.1334E+00  0.7050E+01  0.7043E+01
     22.264  0.6388E-01  0.7787E-01  0.7060E+01  0.7055E+01
     22.408  0.6155E-01  0.5624E-01  0.7069E+01  0.7063E+01
     22.553  0.7361E-01  0.7067E-01  0.7079E+01  0.7073E+01
     22.698  0.1037E+00  0.8143E-01  0.7094E+01  0.7085E+01
     22.842  0.1739E+00  0.1300E+00  0.7119E+01  0.7104E+01
     22.987  0.1770E+00  0.1800E+00  0.7145E+01  0.7130E+01
     23.132  0.1692E+00  0.1844E+00  0.7169E+01  0.7156E+01
     23.277  0.1249E+00  0.1594E+00  0.7188E+01  0.7179E+01
     23.421  0.6251E-01  0.8926E-01  0.7197E+01  0.7192E+01
     23.566  0.8923E-01  0.7536E-01  0.7209E+01  0.7203E+01
     23.711  0.1476E+00  0.1308E+00  0.7231E+01  0.7222E+01
     23.855  0.1407E+00  0.1445E+00  0.7251E+01  0.7243E+01
     24.000  0.7729E-01  0.1039E+00  0.7262E+01  0.7258E+01
     24.145  0.8120E-01  0.6773E-01  0.7274E+01  0.7268E+01
     24.289  0.1345E+00  0.1142E+00  0.7294E+01  0.7284E+01
     24.434  0.1491E+00  0.1554E+00  0.7315E+01  0.7307E+01
     24.579  0.1002E+00  0.1228E+00  0.7330E+01  0.7325E+01
     24.723  0.7669E-01  0.6017E-01  0.7341E+01  0.7333E+01
     24.868  0.5584E-01  0.6664E-01  0.7349E+01  0.7343E+01
     25.013  0.5533E-01  0.5911E-01  0.7357E+01  0.7352E+01
     25.158  0.1571E+00  0.1289E+00  0.7380E+01  0.7370E+01
     25.302  0.2180E+00  0.2348E+00  0.7411E+01  0.7404E+01
     25.447  0.1315E+00  0.1636E+00  0.7430E+01  0.7428E+01
     25.592  0.5030E-01  0.5264E-01  0.7437E+01  0.7436E+01
     25.736  0.7654E-01  0.7687E-01  0.7448E+01  0.7447E+01
     25.881  0.1035E+00  0.1078E+00  0.7463E+01  0.7462E+01
     26.026  0.5567E-01  0.5154E-01  0.7472E+01  0.7470E+01
     26.170  0.4196E-01  0.2719E-01  0.7478E+01  0.7474E+01
     26.315  0.9483E-01  0.9538E-01  0.7491E+01  0.7487E+01
     26.460  0.2267E+00  0.2062E+00  0.7524E+01  0.7517E+01
     26.604  0.3376E+00  0.3289E+00  0.7573E+01  0.7565E+01
     26.749  0.2995E+00  0.3134E+00  0.7616E+01  0.7610E+01
     26.894  0.2064E+00  0.2646E+00  0.7646E+01  0.7648E+01
     27.038  0.2016E+00  0.4163E+00  0.7675E+01  0.7709E+01
     27.183  0.3885E+00  0.4115E+00  0.7732E+01  0.7768E+01
     27.328  0.4398E+00  0.2331E+00  0.7795E+01  0.7802E+01
     27.473  0.2610E+00  0.2145E+00  0.7833E+01  0.7833E+01
     27.617  0.1890E+00  0.2382E+00  0.7860E+01  0.7867E+01
     27.762  0.1572E+00  0.1635E+00  0.7883E+01  0.7891E+01
     27.907  0.1286E+00  0.1269E+00  0.7902E+01  0.7910E+01
     28.051  0.1162E+00  0.1194E+00  0.7918E+01  0.7927E+01
     28.196  0.1404E+00  0.1316E+00  0.7939E+01  0.7946E+01
     28.341  0.2337E+00  0.2216E+00  0.7973E+01  0.7978E+01
     28.485  0.3355E+00  0.4067E+00  0.8021E+01  0.8037E+01
     28.630  0.4207E+00  0.5831E+00  0.8082E+01  0.8121E+01
     28.775  0.5835E+00  0.4851E+00  0.8166E+01  0.8191E+01
     28.919  0.5076E+00  0.3819E+00  0.8240E+01  0.8247E+01
     29.064  0.2558E+00  0.2984E+00  0.8277E+01  0.8290E+01
     29.209  0.5104E+00  0.2947E+00  0.8351E+01  0.8332E+01
     29.354  0.1051E+01  0.7439E+00  0.8503E+01  0.8440E+01
     29.498  0.8673E+00  0.1077E+01  0.8628E+01  0.8596E+01
     29.643  0.5009E+00  0.6744E+00  0.8701E+01  0.8693E+01
     29.788  0.4514E+00  0.4338E+00  0.8766E+01  0.8756E+01
     29.932  0.5392E+00  0.4481E+00  0.8844E+01  0.8821E+01
     30.077  0.5448E+00  0.4717E+00  0.8923E+01  0.8889E+01
     30.222  0.5142E+00  0.5516E+00  0.8997E+01  0.8969E+01
     30.366  0.4248E+00  0.4580E+00  0.9059E+01  0.9035E+01
     30.511  0.3411E+00  0.3492E+00  0.9108E+01  0.9086E+01
     30.656  0.3652E+00  0.3913E+00  0.9161E+01  0.9143E+01
     30.800  0.4414E+00  0.4412E+00  0.9225E+01  0.9206E+01
     30.945  0.4063E+00  0.3935E+00  0.9284E+01  0.9263E+01
     31.090  0.3391E+00  0.3688E+00  0.9333E+01  0.9317E+01
     31.235  0.3731E+00  0.4015E+00  0.9387E+01  0.9375E+01
     31.379  0.3410E+00  0.3474E+00  0.9436E+01  0.9425E+01
     31.524  0.3605E+00  0.3545E+00  0.9488E+01  0.9476E+01
     31.669  0.3984E+00  0.4049E+00  0.9546E+01  0.9535E+01
     31.813  0.4019E+00  0.4039E+00  0.9604E+01  0.9593E+01
     31.958  0.3635E+00  0.3593E+00  0.9657E+01  0.9645E+01
     32.103  0.3522E+00  0.3848E+00  0.9707E+01  0.9701E+01
     32.247  0.5703E+00  0.5813E+00  0.9790E+01  0.9785E+01
     32.392  0.6135E+00  0.6319E+00  0.9879E+01  0.9877E+01
     32.537  0.1894E+00  0.1952E+00  0.9906E+01  0.9905E+01
     32.681  0.5917E-01  0.3751E-01  0.9915E+01  0.9910E+01
     32.826  0.1005E+00  0.1045E+00  0.9929E+01  0.9925E+01
     32.971  0.7002E-01  0.6631E-01  0.9939E+01  0.9935E+01
     33.115  0.5400E-01  0.5858E-01  0.9947E+01  0.9943E+01
     33.260  0.1957E-01  0.4051E-01  0.9950E+01  0.9949E+01
     33.405  0.5982E-02  0.8648E-02  0.9951E+01  0.9951E+01
     33.550  0.3222E-01  0.2622E-01  0.9956E+01  0.9954E+01
     33.694  0.2666E-01  0.3092E-01  0.9959E+01  0.9959E+01
     33.839  0.4156E-01  0.3720E-01  0.9965E+01  0.9964E+01
     33.984  0.7679E-01  0.7683E-01  0.9977E+01  0.9975E+01
     34.128  0.2863E-01  0.3650E-01  0.9981E+01  0.9981E+01
     34.273 -0.3130E-02 -0.2016E-02  0.9980E+01  0.9980E+01
     34.418 -0.1541E-02 -0.1966E-02  0.9980E+01  0.9980E+01
     34.562 -0.3320E-03 -0.3570E-03  0.9980E+01  0.9980E+01
     34.707 -0.1857E-02 -0.1714E-02  0.9980E+01  0.9980E+01
     34.852  0.8320E-03  0.3660E-03  0.9980E+01  0.9980E+01
     34.996  0.3254E-01  0.2954E-01  0.9985E+01  0.9984E+01
     35.141  0.6548E-01  0.6311E-01  0.9994E+01  0.9993E+01
     35.286  0.4038E-01  0.4378E-01  0.1000E+02  0.1000E+02
     35.431  0.3684E-02  0.6165E-02  0.1000E+02  0.1000E+02
     35.575 -0.2220E-02 -0.2320E-02  0.1000E+02  0.1000E+02
     35.720 -0.3655E-03 -0.4790E-03  0.1000E+02  0.1000E+02
     35.865 -0.1483E-04 -0.2251E-04  0.1000E+02  0.1000E+02
     36.009 -0.1872E-06 -0.3236E-06  0.1000E+02  0.1000E+02
     36.154 -0.7793E-09 -0.1526E-08  0.1000E+02  0.1000E+02
     36.299 -0.1096E-11 -0.2426E-11  0.1000E+02  0.1000E+02
     36.443 -0.5218E-15 -0.1320E-14  0.1000E+02  0.1000E+02
     36.588  0.0000E+00  0.0000E+00  0.1000E+02  0.1000E+02
     36.733  0.0000E+00  0.0000E+00  0.1000E+02  0.1000E+02
     36.877  0.0000E+00  0.0000E+00  0.1000E+02  0.1000E+02
     37.022  0.0000E+00  0.0000E+00  0.1000E+02  0.1000E+02
     37.167  0.0000E+00  0.0000E+00  0.1000E+02  0.1000E+02
     37.16682059     -6.24033273  301      4.10548147      1.00000000
     -6.240  0.0000E+00  0.0000E+00  0.0000E+00  0.0000E+00  0.0000E+00  0.0000E+00  0.0000E+00  0.0000E+00  0.0000E+00  0.0000E+00  0.0000E+00  0.0000E+00  0.0000E+00  0.0000E+00  0.0000E+00  0.0000E+00  0.0000E+00  0.0000E+00
     -6.096  0.0000E+00  0.0000E+00  0.0000E+00  0.0000E+00  0.0000E+00  0.0000E+00  0.0000E+00  0.0000E+00  0.0000E+00  0.0000E+00  0.0000E+00  0.0000E+00  0.0000E+00  0.0000E+00  0.0000E+00  0.0000E+00  0.0000E+00  0.0000E+00
     -5.951 -0.1813E-32 -0.7720E-32 -0.6030E-37 -0.5898E-36 -0.6030E-37 -0.5898E-36 -0.6030E-37 -0.5898E-36 -0.3443E-40 -0.8116E-39 -0.3443E-40 -0.8116E-39 -0.1468E-52 -0.4587E-50 -0.3443E-40 -0.8116E-39 -0.6948E-52 -0.1133E-49
     -5.806 -0.2825E-27 -0.1013E-26 -0.2508E-31 -0.9149E-31 -0.2524E-31 -0.9214E-31 -0.2508E-31 -0.9149E-31 -0.4504E-34 -0.1455E-33 -0.4544E-34 -0.1468E-33 -0.7852E-36 -0.2767E-35 -0.4542E-34 -0.1468E-33 -0.7543E-46 -0.1473E-44
     -5.662 -0.1456E-22 -0.4635E-22 -0.1485E-26 -0.4814E-26 -0.1502E-26 -0.4874E-26 -0.1485E-26 -0.4814E-26 -0.2853E-29 -0.8201E-29 -0.2894E-29 -0.8320E-29 -0.8131E-31 -0.2545E-30 -0.2893E-29 -0.8320E-29 -0.4586E-41 -0.6682E-40
     -5.517 -0.2615E-18 -0.7394E-18 -0.3093E-22 -0.8916E-22 -0.3155E-22 -0.9106E-22 -0.3093E-22 -0.8916E-22 -0.6415E-25 -0.1641E-24 -0.6560E-25 -0.1679E-24 -0.2930E-26 -0.8145E-26 -0.6557E-25 -0.1679E-24 -0.9853E-37 -0.1057E-35
     -5.372 -0.1589E-14 -0.3984E-14 -0.2205E-18 -0.5680E-18 -0.2283E-18 -0.5892E-18 -0.2205E-18 -0.5680E-18 -0.5026E-21 -0.1150E-20 -0.5206E-21 -0.1192E-20 -0.3666E-22 -0.9049E-22 -0.5204E-21 -0.1192E-20 -0.7306E-33 -0.5663E-32
     -5.227 -0.3420E-11 -0.7605E-11 -0.5658E-15 -0.1288E-14 -0.5985E-15 -0.1366E-14 -0.5658E-15 -0.1288E-14 -0.1428E-17 -0.2893E-17 -0.1503E-17 -0.3050E-17 -0.1537E-18 -0.3364E-18 -0.1502E-17 -0.3050E-17 -0.1990E-29 -0.1081E-28
     -5.083 -0.2538E-08 -0.5003E-08 -0.5113E-12 -0.1035E-11 -0.5596E-12 -0.1137E-11 -0.5113E-12 -0.1035E-11 -0.1471E-14 -0.2658E-14 -0.1582E-14 -0.2864E-14 -0.2273E-15 -0.4411E-15 -0.1581E-14 -0.2864E-14 -0.1966E-26 -0.7211E-26
     -4.938 -0.6429E-06 -0.1121E-05 -0.1628E-09 -0.2928E-09 -0.1871E-09 -0.3387E-09 -0.1628E-09 -0.2928E-09 -0.5512E-12 -0.8884E-12 -0.6067E-12 -0.9802E-12 -0.1145E-12 -0.1967E-12 -0.6065E-12 -0.9802E-12 -0.7144E-24 -0.1688E-23
     -4.793 -0.5446E-04 -0.8375E-04 -0.1821E-07 -0.2908E-07 -0.2232E-07 -0.3592E-07 -0.1821E-07 -0.2908E-07 -0.7546E-10 -0.1085E-09 -0.8482E-10 -0.1222E-09 -0.1931E-10 -0.2930E-10 -0.8480E-10 -0.1222E-09 -0.9614E-22 -0.1402E-21
     -4.649 -0.1462E-02 -0.1961E-02 -0.7036E-06 -0.9943E-06 -0.9272E-06 -0.1321E-05 -0.7036E-06 -0.9943E-06 -0.3771E-08 -0.4834E-08 -0.4281E-08 -0.5488E-08 -0.1052E-08 -0.1400E-08 -0.4280E-08 -0.5488E-08 -0.4760E-20 -0.4195E-20
     -4.504 -0.1008E-01 -0.1112E-01 -0.8756E-05 -0.1076E-04 -0.1229E-04 -0.1518E-04 -0.8756E-05 -0.1076E-04 -0.6768E-07 -0.7695E-07 -0.7582E-07 -0.8593E-07 -0.1681E-07 -0.1924E-07 -0.7581E-07 -0.8592E-07 -0.8474E-19 -0.4515E-19
     -4.359  0.1240E-01  0.2325E-01 -0.2246E-04 -0.2004E-04 -0.3133E-04 -0.2735E-04 -0.2246E-04 -0.2004E-04 -0.3958E-06 -0.3869E-06 -0.4218E-06 -0.4089E-06 -0.5409E-07 -0.4759E-07 -0.4217E-06 -0.4089E-06 -0.4903E-18 -0.1493E-18
     -4.215  0.1794E+00  0.2024E+00  0.1081E-03  0.1432E-03  0.1609E-03  0.2096E-03  0.1081E-03  0.1432E-03 -0.1169E-06  0.1188E-06 -0.9124E-07  0.1487E-06  0.4598E-07  0.5639E-07 -0.9137E-07  0.1487E-06 -0.4787E-19  0.2403E-18
     -4.070  0.2896E+00  0.2849E+00  0.5352E-03  0.5933E-03  0.6927E-03  0.7598E-03  0.5352E-03  0.5933E-03  0.5316E-05  0.5713E-05  0.5438E-05  0.5879E-05  0.2336E-06  0.3437E-06  0.5438E-05  0.5879E-05  0.7039E-17  0.2704E-17
     -3.925  0.1912E+00  0.1796E+00  0.1007E-02  0.1056E-02  0.1354E-02  0.1448E-02  0.1007E-02  0.1056E-02  0.2061E-04  0.2009E-04  0.2316E-04  0.2279E-04  0.5379E-05  0.5938E-05  0.2315E-04  0.2279E-04  0.2470E-16  0.9157E-17
     -3.781  0.1318E+00  0.1286E+00  0.1354E-02  0.1383E-02  0.2082E-02  0.2117E-02  0.1354E-02  0.1383E-02  0.4484E-04  0.4161E-04  0.5157E-04  0.4752E-04  0.1423E-04  0.1295E-04  0.5156E-04  0.4752E-04  0.4886E-16  0.2081E-16
     -3.636  0.1016E+00  0.9795E-01  0.1526E-02  0.1546E-02  0.1859E-02  0.1812E-02  0.1526E-02  0.1546E-02  0.7654E-04  0.6974E-04  0.7872E-04  0.7106E-04  0.4406E-05  0.2718E-05  0.7871E-04  0.7106E-04  0.8534E-16  0.3715E-16
     -3.491  0.8286E-01  0.8240E-01  0.1713E-02  0.1737E-02  0.1935E-02  0.2036E-02  0.1713E-02  0.1737E-02  0.1156E-03  0.1029E-03  0.1208E-03  0.1091E-03  0.1155E-04  0.1425E-04  0.1208E-03  0.1091E-03  0.1276E-15  0.4783E-16
     -3.347  0.9159E-01  0.9239E-01  0.1999E-02  0.2042E-02  0.3394E-02  0.3537E-02  0.1999E-02  0.2042E-02  0.1697E-03  0.1510E-03  0.2018E-03  0.1807E-03  0.7192E-04  0.6876E-04  0.2018E-03  0.1807E-03  0.1876E-15  0.7047E-16
     -3.202  0.8760E-01  0.8464E-01  0.2226E-02  0.2217E-02  0.3503E-02  0.3378E-02  0.2226E-02  0.2217E-02  0.2308E-03  0.1986E-03  0.2598E-03  0.2213E-03  0.6487E-04  0.5261E-04  0.2598E-03  0.2213E-03  0.2573E-15  0.9174E-16
     -3.057  0.5854E-01  0.5657E-01  0.2046E-02  0.2054E-02  0.2102E-02  0.2039E-02  0.2046E-02  0.2054E-02  0.2775E-03  0.2402E-03  0.2770E-03  0.2383E-03 -0.1866E-05 -0.5218E-05  0.2770E-03  0.2383E-03 -0.2618E-14 -0.1865E-14
     -2.912  0.5873E-01  0.5892E-01  0.2455E-02  0.2489E-02  0.2356E-02  0.2437E-02  0.2455E-02  0.2489E-02  0.4040E-03  0.3447E-03  0.4011E-03  0.3439E-03 -0.6741E-05 -0.1763E-05  0.4011E-03  0.3439E-03 -0.2123E-11 -0.1516E-11
     -2.768  0.6345E-01  0.6328E-01  0.2436E-02  0.2429E-02  0.3933E-02  0.4092E-02  0.2436E-02  0.2429E-02  0.4424E-03  0.3680E-03  0.5093E-03  0.4313E-03  0.1641E-03  0.1597E-03  0.5093E-03  0.4313E-03 -0.5389E-09 -0.4023E-09
     -2.623  0.7387E-01  0.7337E-01  0.2899E-02  0.2940E-02  0.5650E-02  0.5662E-02  0.2900E-02  0.2941E-02  0.6405E-03  0.5373E-03  0.7626E-03  0.6404E-03  0.3005E-03  0.2607E-03  0.7630E-03  0.6407E-03 -0.4641E-07 -0.3624E-07
     -2.478  0.5962E-01  0.5768E-01  0.2915E-02  0.2903E-02  0.3835E-02  0.3696E-02  0.2945E-02  0.2931E-02  0.7468E-03  0.6113E-03  0.7765E-03  0.6327E-03  0.9963E-04  0.7516E-04  0.7876E-03  0.6413E-03 -0.1301E-05 -0.1065E-05
     -2.334  0.3415E-01  0.3291E-01  0.2000E-02  0.1967E-02  0.1814E-02  0.1773E-02  0.2205E-02  0.2169E-02  0.6666E-03  0.5327E-03  0.5759E-03  0.4582E-03 -0.3119E-04 -0.2760E-04  0.6562E-03  0.5236E-03 -0.1013E-04 -0.8779E-05
     -2.189  0.5379E-01  0.5156E-01  0.3739E-02  0.3631E-02  0.3511E-02  0.3403E-02  0.3521E-02  0.3470E-02  0.1425E-02  0.1107E-02  0.1467E-02  0.1125E-02 -0.4449E-04 -0.3908E-04  0.1409E-02  0.1093E-02  0.2134E-05 -0.1623E-06
     -2.044  0.1235E+00  0.1203E+00  0.9776E-02  0.9690E-02  0.1101E-01  0.1089E-01  0.6201E-02  0.6199E-02  0.3110E-02  0.2422E-02  0.4563E-02  0.3603E-02  0.3299E-03  0.2760E-03  0.3204E-02  0.2500E-02  0.1667E-03  0.1436E-03
     -1.900  0.1537E+00  0.1552E+00  0.1267E-01  0.1301E-01  0.1660E-01  0.1698E-01  0.6195E-02  0.6435E-02  0.3381E-02  0.2713E-02  0.6429E-02  0.5272E-02  0.1003E-02  0.8665E-03  0.3683E-02  0.2970E-02  0.3877E-03  0.3463E-03
     -1.755  0.9025E-01  0.9350E-01  0.8505E-02  0.8894E-02  0.1078E-01  0.1125E-01  0.2954E-02  0.3230E-02  0.1727E-02  0.1449E-02  0.4678E-02  0.3914E-02  0.6528E-03  0.5784E-03  0.1901E-02  0.1602E-02  0.4398E-03  0.3941E-03
     -1.610  0.3964E-01  0.4134E-01  0.5145E-02  0.5325E-02  0.5118E-02  0.5318E-02  0.6602E-03  0.8206E-03  0.4352E-03  0.3965E-03  0.3050E-02  0.2526E-02  0.1337E-03  0.1240E-03  0.4326E-03  0.3959E-03  0.4284E-03  0.3794E-03
     -1.466  0.3461E-01  0.3085E-01  0.4888E-02  0.4572E-02  0.4623E-02  0.4347E-02  0.7795E-03  0.4788E-03  0.8256E-03  0.3804E-03  0.3467E-02  0.2499E-02  0.4970E-04  0.6436E-04  0.8003E-03  0.3626E-03  0.4291E-03  0.3767E-03
     -1.321  0.4172E-01  0.4086E-01  0.5496E-02  0.5530E-02  0.5426E-02  0.5309E-02  0.1645E-02  0.1733E-02  0.1666E-02  0.1315E-02  0.4405E-02  0.3453E-02  0.1138E-03  0.4270E-04  0.1659E-02  0.1294E-02  0.4292E-03  0.3723E-03
     -1.176  0.4103E-01  0.3946E-01  0.4856E-02  0.4942E-02  0.7534E-02  0.6789E-02  0.1184E-02  0.1326E-02  0.1391E-02  0.9871E-03  0.4544E-02  0.3391E-02  0.1380E-02  0.8227E-03  0.1688E-02  0.1166E-02  0.4307E-03  0.3731E-03
     -1.031  0.5204E-01  0.4569E-01  0.5440E-02  0.4837E-02  0.1038E-01  0.9965E-02  0.1929E-02  0.1452E-02  0.3010E-02  0.1464E-02  0.6534E-02  0.4218E-02  0.2424E-02  0.2059E-02  0.3558E-02  0.1962E-02  0.4286E-03  0.3641E-03
     -0.887  0.4014E-01  0.4519E-01  0.5108E-02  0.5487E-02  0.6783E-02  0.8128E-02  0.1730E-02  0.2227E-02  0.3347E-02  0.2692E-02  0.6624E-02  0.5272E-02  0.9120E-03  0.1118E-02  0.3533E-02  0.2948E-02  0.4227E-03  0.3608E-03
     -0.742  0.2980E-01  0.2685E-01  0.4593E-02  0.4313E-02  0.4300E-02  0.4212E-02  0.1297E-02  0.1207E-02  0.4266E-02  0.2024E-02  0.7496E-02  0.4405E-02 -0.4028E-04  0.7299E-04  0.4237E-02  0.2014E-02  0.4177E-03  0.3514E-03
     -0.597  0.3297E-01  0.2716E-01  0.4849E-02  0.4388E-02  0.4523E-02  0.4089E-02  0.1650E-02  0.1418E-02  0.6528E-02  0.3434E-02  0.9894E-02  0.5833E-02 -0.1465E-03 -0.6560E-04  0.6504E-02  0.3405E-02  0.4018E-03  0.3383E-03
     -0.453  0.3718E-01  0.3078E-01  0.4895E-02  0.4712E-02  0.6380E-02  0.4624E-02  0.1725E-02  0.1833E-02  0.8734E-02  0.4781E-02  0.1241E-01  0.7296E-02  0.1630E-02  0.4416E-04  0.8824E-02  0.4773E-02  0.3823E-03  0.3266E-03
     -0.308  0.5131E-01  0.3499E-01  0.5344E-02  0.4497E-02  0.1036E-01  0.7448E-02  0.2163E-02  0.1760E-02  0.1611E-01  0.6269E-02  0.2025E-01  0.9091E-02  0.5180E-02  0.2442E-02  0.1643E-01  0.6550E-02  0.3405E-03  0.3026E-03
     -0.163  0.7679E-01  0.4528E-01  0.4782E-02  0.4993E-02  0.7764E-02  0.1054E-01  0.1803E-02  0.2340E-02  0.6188E-01  0.9609E-02  0.6579E-01  0.1275E-01  0.3009E-02  0.4490E-02  0.6214E-01  0.1014E-01  0.2455E-03  0.2780E-03
     -0.019  0.1090E+00  0.3566E-01  0.2724E-02  0.4384E-02  0.2567E-02  0.6285E-02  0.8560E-03  0.1858E-02  0.1331E+00  0.1110E-01  0.1342E+00  0.1392E-01 -0.3685E-03  0.1563E-02  0.1329E+00  0.1129E-01  0.9858E-04  0.2368E-03
      0.126  0.7342E-01  0.3966E-01  0.1063E-02  0.3916E-02  0.2191E-02  0.3490E-02  0.3285E-03  0.1575E-02  0.1018E+00  0.2445E-01  0.9715E-01  0.2709E-01  0.2618E-02 -0.4628E-03  0.9969E-01  0.2450E-01  0.1790E-04  0.1757E-03
      0.271  0.3064E-01  0.8229E-01  0.1161E-02  0.2924E-02  0.5093E-02  0.3072E-02  0.4509E-03  0.1191E-02  0.4453E-01  0.8219E-01  0.3504E-01  0.8391E-01  0.8486E-02  0.3858E-03  0.4033E-01  0.8212E-01  0.4241E-04  0.8775E-04
      0.415  0.1959E-01  0.1063E+00  0.1479E-02  0.1624E-02  0.4104E-02  0.5112E-02  0.4923E-03  0.7776E-03  0.3518E-01  0.1188E+00  0.2249E-01  0.1170E+00  0.6227E-02  0.6102E-02  0.2933E-01  0.1177E+00  0.7146E-04  0.2006E-04
      0.560  0.1691E-01  0.5662E-01  0.1684E-02  0.1145E-02  0.3783E-02  0.5438E-02  0.3700E-03  0.5671E-03  0.4076E-01  0.6639E-01  0.2096E-01  0.6087E-01  0.8685E-02  0.7289E-02  0.2985E-01  0.6408E-01 -0.1864E-03  0.1486E-04
      0.705  0.1625E-01  0.2003E-01  0.1929E-02  0.1208E-02  0.4528E-02  0.2110E-02  0.1452E-03  0.3243E-03  0.5047E-01  0.3134E-01  0.1904E-01  0.2351E-01  0.1239E-01  0.1589E-02  0.2965E-01  0.2875E-01 -0.1325E-02  0.5208E-04
      0.850  0.1398E-01  0.1822E-01  0.2196E-02  0.1587E-02  0.3914E-02  0.3190E-02  0.1829E-02  0.5385E-03  0.6658E-01  0.3365E-01  0.1662E-01  0.2073E-01  0.3686E-01  0.6556E-02  0.2937E-01  0.2684E-01  0.5342E-02  0.5769E-04
      0.994  0.1277E-01  0.1868E-01  0.2651E-02  0.1967E-02  0.3256E-02  0.5006E-02  0.7854E-02  0.5007E-03  0.9083E-01  0.3640E-01  0.1322E-01  0.1907E-01  0.1125E+00  0.1099E-01  0.2895E-01  0.2744E-01  0.3024E-01 -0.2865E-03