    1    1    1    2
  0.1099207E+02  0.2495733E-09  0.2495733E-09  0.2495733E-09  0.5000000E-15
  1.000000000000000E-004
  CAR 
 fcc Ni                                  
     10    100     10
 
  0.0000000E+00  0.0000000E+00  0.0000000E+00  0.1000000E-01
    1       -4.224006     -4.240333   1.000000   1.000000
    2        2.331049      2.973103   1.000000   1.000000
    3        2.331054      2.973105   1.000000   1.000000
    4        2.331054      2.973105   1.000000   1.000000
    5        3.380009      4.010063   1.000002   0.857258
    6        3.380009      4.010063   1.000002   0.857258
    7       28.753124     28.613447   0.000000   0.000000
    8       32.318264     32.318326   0.000000   0.000000
    9       32.318276     32.318351   0.000000   0.000000
   10       32.318280     32.318400   0.000000   0.000000
 
 -0.2631579E-01  0.2631579E-01  0.2631579E-01  0.1000000E-01
    1       -4.125260     -4.141500   1.000000   1.000000
    2        2.300201      2.939607   1.000000   1.000000
    3        2.355553      2.998379   1.000000   1.000000
    4        2.356965      2.999771   1.000000   1.000000
    5        3.354128      3.982463   1.000001   0.926673
    6        3.386823      4.017054   1.000002   0.836684
    7       28.447747     28.335402   0.000000   0.000000
    8       31.065604     31.080275   0.000000   0.000000
    9       31.527893     31.560249   0.000000   0.000000
   10       32.195368     32.194513   0.000000   0.000000
 
 -0.5263158E-01  0.5263158E-01  0.5263158E-01  0.1000000E-01
    1       -3.832208     -3.847996   1.000000   1.000000
    2        2.211803      2.843556   1.000000   1.000000
    3        2.426374      3.071134   1.000000   1.000000
    4        2.429884      3.074569   1.000000   1.000000
    5        3.282144      3.905604   1.000000   1.025063
    6        3.410050      4.041210   1.000005   0.757011
    7       27.280661     27.259023   0.000000   0.000000
    8       29.547900     29.522666   0.000000   0.000000
    9       30.142931     30.203500   0.000000   0.000000
   10       32.001905     31.991335   0.000000   0.000000
 
 -0.7894737E-01  0.7894737E-01  0.7894737E-01  0.1000000E-01
    1       -3.355223     -3.369472   1.000000   1.000000
    2        2.077925      2.697744   1.000000   1.000000
    3        2.530322      3.175962   1.000000   1.000000
    4        2.535835      3.182312   1.000000   1.000000
    5        3.186743      3.803955   1.000000   1.027310
    6        3.457835      4.091926   1.000023   0.557212
    7       25.316218     25.363120   0.000000   0.000000
    8       28.591194     28.546918   0.000000   0.000000
    9       28.716395     28.792650   0.000000   0.000000
   10       31.811451     31.786821   0.000000   0.000000
 
 -0.1052632E+00  0.1052632E+00  0.1052632E+00  0.1000000E-01
    1       -2.714721     -2.724464   1.000000   1.000000
    2        1.916710      2.521107   1.000000   1.000000
    3        2.613265      3.248537   1.000000   1.000000
    4        2.653574      3.299948   1.000000   1.000000
    5        3.140131      3.758625   1.000000   1.017079
    6        3.541124      4.181924   1.000244   0.201251
    7       23.157450     23.237331   0.000000   0.000000
    8       27.357713     27.441918   0.000000   0.000000
    9       27.798901     27.762867   0.000000   0.000000
   10       31.231806     31.221330   0.000000   0.000000
 
 -0.1315789E+00  0.1315789E+00  0.1315789E+00  0.1000000E-01
    1       -1.947909     -1.945583   1.000000   1.000000
    2        1.750032      2.335787   1.000000   1.000000
    3        2.570789      3.179754   1.000000   1.000000
    4        2.762794      3.406229   1.000000   1.000004
    5        3.279095      3.907648   1.000000   1.023966
    6        3.665112      4.317121   1.003948  -0.030160
    7       21.037011     21.139757   0.000000   0.000000
    8       26.112164     26.198772   0.000000   0.000000
    9       26.972610     26.947191   0.000000   0.000000
   10       29.784869     29.842515   0.000000   0.000000
 
 -0.1578947E+00  0.1578947E+00  0.1578947E+00  0.1000000E-01
    1       -1.122223     -1.089691   1.000000   1.000000
    2        1.600350      2.163272   1.000000   1.000000
    3        2.441433      3.027510   1.000000   1.000000
    4        2.855269      3.494133   1.000000   1.000068
    5        3.624819      4.244431   1.001764   0.041974
    6        3.818113      4.484094   1.030351  -0.011119
    7       19.019306     19.141411   0.000000   0.000000
    8       25.014409     25.099445   0.000000   0.000000
    9       25.834496     25.834438   0.000000   0.000000
   10       28.216654     28.307697   0.000000   0.000000
 
 -0.1842105E+00  0.1842105E+00  0.1842105E+00  0.1000000E-01
    1       -0.352291     -0.252549   1.000000   1.000000
    2        1.484588      2.018506   1.000000   1.000000
    3        2.326014      2.889937   1.000000   1.000000
    4        2.935854      3.570329   1.000000   1.000510
    5        3.971331      4.651278   0.949245  -0.000392
    6        4.183254      4.761424   0.196880  -0.000018
    7       17.131416     17.271155   0.000000   0.000000
    8       24.097507     24.161547   0.000000   0.000000
    9       24.112476     24.178627   0.000000   0.000000
   10       27.275238     27.354050   0.000000   0.000000
 
 -0.2105263E+00  0.2105263E+00  0.2105263E+00  0.1000000E-01
    1        0.221900      0.435674   1.000000   1.000000
    2        1.400743      1.901429   1.000000   1.000000
    3        2.290867      2.829755   1.000000   1.000000
    4        3.013435      3.644477   1.000000   1.002646
    5        4.090486      4.782290   0.563255  -0.000009
    6        5.030147      5.526231  -0.000000  -0.000000
    7       15.392677     15.549330   0.000000   0.000000
    8       22.119529     22.205964   0.000000   0.000000
    9       23.392715     23.469385   0.000000   0.000000
   10       26.798792     26.867575   0.000000   0.000000
 
 -0.2368421E+00  0.2368421E+00  0.2368421E+00  0.1000000E-01
    1        0.555305      0.890929   1.000000   1.000000
    2        1.326859      1.799048   1.000000   1.000000
    3        2.339586      2.860570   1.000000   1.000000
    4        3.093903      3.722279   1.000000   1.010387
    5        4.147031      4.847338   0.328325  -0.000001
    6        6.215726      6.608170  -0.000000  -0.000000
    7       13.823695     13.997917   0.000000   0.000000
    8       20.143754     20.256449   0.000000   0.000000
    9       22.926376     22.999804   0.000000   0.000000
   10       26.552780     26.618304   0.000000   0.000000
 
 -0.2631579E+00  0.2631579E+00  0.2631579E+00  0.1000000E-01
    1        0.743627      1.162036   1.000000   1.000000
    2        1.260946      1.711119   1.000000   1.000000
    3        2.389700      2.909818   1.000000   1.000000
    4        3.177517      3.803139   1.000000   1.027126
    5        4.125811      4.831075   0.414467  -0.000002
    6        7.691842      7.992227  -0.000000  -0.000000
    7       12.453348     12.647929   0.000000   0.000000
    8       18.297056     18.431872   0.000000   0.000000
    9       22.715176     22.787812   0.000000   0.000000
   10       26.455063     26.519262   0.000000   0.000000
 
 -0.2894737E+00  0.2894737E+00  0.2894737E+00  0.1000000E-01
    1        0.884436      1.349020   1.000000   1.000000
    2        1.225887      1.655556   1.000000   1.000000
    3        2.367109      2.891997   1.000000   1.000000
    4        3.255895      3.877061   1.000000   1.034283
    5        4.032045      4.740128   0.788730  -0.000034
    6        9.282624      9.513698  -0.000000  -0.000000
    7       11.368769     11.588822   0.000000   0.000000
    8       16.658683     16.815093   0.000000   0.000000
    9       22.762708     22.837316   0.000000   0.000000
   10       26.470280     26.532438   0.000000   0.000000
 
 -0.3157895E+00  0.3157895E+00  0.3157895E+00  0.1000000E-01
    1        1.012171      1.504201   1.000000   1.000000
    2        1.239372      1.645268   1.000000   1.000000
    3        2.260241      2.786195   1.000000   1.000000
    4        3.300981      3.914523   1.000000   1.019777
    5        3.903097      4.614063   1.026321  -0.000954
    6        9.849881     10.077637   0.000000   0.000000
    7       11.493253     11.697405   0.000000   0.000000
    8       15.414252     15.592398   0.000000   0.000000
    9       23.059238     23.137911   0.000000   0.000000
   10       26.575483     26.633270   0.000000   0.000000
 
 -0.3421053E+00  0.3421053E+00  0.3421053E+00  0.1000000E-01
    1        1.093094      1.582366   1.000000   1.000000
    2        1.308455      1.704948   1.000000   1.000000
    3        2.132215      2.657992   1.000000   1.000000
    4        3.247352      3.855793   1.000000   1.035374
    5        3.823095      4.532622   1.031328  -0.005033
    6        9.146274      9.408613  -0.000000  -0.000000
    7       12.233428     12.423721   0.000000   0.000000
    8       15.364718     15.540920   0.000000   0.000000
    9       23.584933     23.668535   0.000000   0.000000
   10       26.751393     26.801312   0.000000   0.000000
 
 -0.3684211E+00  0.3684211E+00  0.3684211E+00  0.1000000E-01
    1        1.004552      1.451191   1.000000   1.000000
    2        1.461142      1.881588   1.000000   1.000000
    3        2.119433      2.643419   1.000000   1.000000
    4        3.068639      3.677964   1.000000   1.004999
    5        3.841623      4.543272   1.034250  -0.004143
    6        8.376745      8.660338  -0.000000  -0.000000
    7       11.801422     12.030144   0.000000   0.000000
    8       17.036209     17.178085   0.000000   0.000000
    9       24.314903     24.403057   0.000000   0.000000
   10       26.980380     27.018237   0.000000   0.000000
 
 -0.3947368E+00  0.3947368E+00  0.3947368E+00  0.1000000E-01
    1        0.746088      1.165958   1.000000   1.000000
    2        1.680975      2.124726   1.000000   1.000000
    3        2.283356      2.789052   1.000000   1.000000
    4        2.838279      3.445801   1.000000   1.000016
    5        3.908270      4.605305   1.023619  -0.001163
    6        7.578148      7.871734  -0.000000  -0.000000
    7       11.191658     11.463835   0.000000   0.000000
    8       19.324786     19.436433   0.000000   0.000000
    9       25.222623     25.314109   0.000000   0.000000
   10       27.245517     27.267505   0.000000   0.000000
 
 -0.4210526E+00  0.4210526E+00  0.4210526E+00  0.1000000E-01
    1        0.440754      0.841666   1.000000   1.000000
    2        1.918329      2.407384   1.000000   1.000000
    3        2.587780      3.047414   1.000000   1.000000
    4        2.618023      3.221340   1.000000   1.000000
    5        3.981127      4.677137   0.929545  -0.000202
    6        6.735685      7.033995  -0.000000  -0.000000
    7       10.751902     11.063601   0.000000   0.000000
    8       21.811535     21.892418   0.000000   0.000000
    9       26.280082     26.373369   0.000000   0.000000
   10       27.532902     27.538618   0.000000   0.000000
 
 -0.4473684E+00  0.4473684E+00  0.4473684E+00  0.1000000E-01
    1        0.176909      0.564342   1.000000   1.000000
    2        2.118227      2.664530   1.000000   1.000000
    3        2.441537      3.040600   1.000000   1.000000
    4        3.021822      3.420094   1.000000   1.000007
    5        4.041836      4.738324   0.754783  -0.000036
    6        5.879644      6.184262  -0.000000  -0.000000
    7       10.489198     10.830389   0.000000   0.000000
    8       24.329990     24.365923   0.000000   0.000000
    9       27.447661     27.541466   0.000000   0.000000
   10       27.850835     27.853496   0.000000   0.000000
 
 -0.4736842E+00  0.4736842E+00  0.4736842E+00  0.1000000E-01
    1        0.002547      0.381894   1.000000   1.000000
    2        2.246063      2.829733   1.000000   1.000000
    3        2.328487      2.924593   1.000000   1.000000
    4        3.575647      3.926547   1.000580   1.010464
    5        4.081365      4.778553   0.601230  -0.000010
    6        5.059470      5.376081  -0.000000  -0.000000
    7       10.356032     10.714730   0.000000   0.000000
    8       26.469202     26.403704   0.000000   0.000000
    9       28.399820     28.459033   0.000000   0.000000
   10       28.619134     28.713280   0.000000   0.000000
 
 -0.5000000E+00  0.5000000E+00  0.5000000E+00  0.1000000E-01
    1       -0.058071      0.318585   1.000000   1.000000
    2        2.289640      2.884702   1.000000   1.000000
    3        2.289640      2.884702   1.000000   1.000000
    4        4.095017      4.408952   0.544214  -0.026871
    5        4.095017      4.792502   0.544214  -0.000007
    6        4.449469      4.792502  -0.017687  -0.000007
    7       10.315847     10.680290   0.000000   0.000000
    8       27.179814     27.050920   0.000000   0.000000
    9       29.284430     29.379985   0.000000   0.000000
   10       29.284450     29.379989   0.000000   0.000000
 
 -0.5000000E+00  0.5000000E+00  0.5000000E+00  0.1000000E-01
    1       -0.058071      0.318585   1.000000   1.000000
    2        2.289640      2.884702   1.000000   1.000000
    3        2.289640      2.884702   1.000000   1.000000
    4        4.095017      4.408952   0.544214  -0.026871
    5        4.095017      4.792502   0.544214  -0.000007
    6        4.449469      4.792502  -0.017687  -0.000007
    7       10.315847     10.680290   0.000000   0.000000
    8       27.179814     27.050919   0.000000   0.000000
    9       29.284430     29.379985   0.000000   0.000000
   10       29.284440     29.379986   0.000000   0.000000
 
 -0.4736842E+00  0.5000000E+00  0.4736842E+00  0.1000000E-01
    1       -0.011666      0.367564   1.000000   1.000000
    2        2.255827      2.842265   1.000000   1.000000
    3        2.319164      2.915056   1.000000   1.000000
    4        3.657103      4.006051   1.003391   0.868529
    5        4.090491      4.787989   0.563235  -0.000008
    6        4.962375      5.276330  -0.000000  -0.000000
    7       10.329839     10.691234   0.000000   0.000000
    8       26.695386     26.606685   0.000000   0.000000
    9       28.355850     28.451485   0.000000   0.000000
   10       28.892889     28.968327   0.000000   0.000000
 
 -0.4473684E+00  0.5000000E+00  0.4473684E+00  0.1000000E-01
    1        0.122870      0.509894   1.000000   1.000000
    2        2.154395      2.712416   1.000000   1.000000
    3        2.406738      3.004969   1.000000   1.000000
    4        3.161491      3.550606   1.000000   1.000312
    5        4.077358      4.774958   0.617708  -0.000012
    6        5.685952      5.980341  -0.000000  -0.000000
    7       10.374349     10.726542   0.000000   0.000000
    8       25.309222     25.298446   0.000000   0.000000
    9       26.613713     26.712372   0.000000   0.000000
   10       28.856061     28.883396   0.000000   0.000000
 
 -0.4210526E+00  0.5000000E+00  0.4210526E+00  0.1000000E-01
    1        0.331679      0.731849   1.000000   1.000000
    2        1.986889      2.496928   1.000000   1.000000
    3        2.548526      3.150149   1.000000   1.000000
    4        2.750957      3.192867   1.000000   1.000000
    5        4.057366      4.755393   0.697207  -0.000022
    6        6.484285      6.761607  -0.000000  -0.000000
    7       10.457059     10.793754   0.000000   0.000000
    8       23.614736     23.651090   0.000000   0.000000
    9       24.718534     24.821515   0.000000   0.000000
   10       29.240588     29.250317   0.000000   0.000000
 
 -0.3947368E+00  0.5000000E+00  0.3947368E+00  0.1000000E-01
    1        0.592658      1.011214   1.000000   1.000000
    2        1.766221      2.228579   1.000000   1.000000
    3        2.433072      2.923395   1.000000   1.000000
    4        2.734954      3.340217   1.000000   1.000000
    5        4.035066      4.734423   0.778467  -0.000041
    6        7.349144      7.610003  -0.000000  -0.000000
    7       10.591140     10.905988   0.000000   0.000000
    8       21.900579     21.968191   0.000000   0.000000
    9       22.834607     22.942416   0.000000   0.000000
   10       29.864548     29.872130   0.000000   0.000000
 
 -0.3684211E+00  0.5000000E+00  0.3684211E+00  0.1000000E-01
    1        0.877836      1.319167   1.000000   1.000000
    2        1.526775      1.960708   1.000000   1.000000
    3        2.190855      2.707925   1.000000   1.000000
    4        2.944702      3.552632   1.000000   1.000328
    5        4.021058      4.723772   0.824378  -0.000055
    6        8.276834      8.521180  -0.000000  -0.000000
    7       10.794703     11.081709   0.000000   0.000000
    8       20.240859     20.333598   0.000000   0.000000
    9       21.030042     21.143152   0.000000   0.000000
   10       30.670763     30.681681   0.000000   0.000000
 
 -0.3421053E+00  0.5000000E+00  0.3421053E+00  0.1000000E-01
    1        1.157265      1.623737   1.000000   1.000000
    2        1.307130      1.729046   1.000000   1.000000
    3        2.002204      2.528496   1.000000   1.000000
    4        3.137617      3.745947   1.000000   1.014521
    5        4.035891      4.745172   0.775630  -0.000029
    6        9.262802      9.490159  -0.000000  -0.000000
    7       11.087697     11.342138   0.000000   0.000000
    8       18.661178     18.776410   0.000000   0.000000
    9       19.351055     19.470309   0.000000   0.000000
   10       31.630303     31.645984   0.000000   0.000000
 
 -0.3157895E+00  0.5000000E+00  0.3157895E+00  0.1000000E-01
    1        1.131267      1.549452   1.000000   1.000000
    2        1.402454      1.893286   1.000000   1.000000
    3        1.857806      2.384904   1.000000   1.000000
    4        3.264441      3.871312   1.000000   1.034977
    5        4.100509      4.818462   0.521034  -0.000003
    6       10.296405     10.505792   0.000000   0.000000
    7       11.481145     11.700965   0.000000   0.000000
    8       17.179544     17.316339   0.000000   0.000000
    9       17.848014     17.975004   0.000000   0.000000
   10       32.717993     32.737610   0.000000   0.000000
 
 -0.2894737E+00  0.5000000E+00  0.2894737E+00  0.1000000E-01
    1        1.010380      1.428089   1.000000   1.000000
    2        1.587215      2.097837   1.000000   1.000000
    3        1.758279      2.283515   1.000000   1.000000
    4        3.313409      3.918561   1.000000   1.016942
    5        4.196494      4.922078   0.155572  -0.000000
    6       11.342255     11.531636   0.000000   0.000000
    7       11.946032     12.133317   0.000000   0.000000
    8       15.834157     15.993160   0.000000   0.000000
    9       16.606192     16.743350   0.000000   0.000000
   10       33.896829     33.919366   0.000000   0.000000
 
 -0.2631579E+00  0.5000000E+00  0.2631579E+00  0.1000000E-01
    1        0.949123      1.367116   1.000000   1.000000
    2        1.687742      2.209692   1.000000   1.000000
    3        1.707216      2.230887   1.000000   1.000000
    4        3.321160      3.924926   1.000000   1.011875
    5        4.265587      4.995726   0.009817  -0.000000
    6       12.227625     12.394018   0.000000   0.000000
    7       12.331983     12.495875   0.000000   0.000000
    8       14.798827     14.981870   0.000000   0.000000
    9       15.819790     15.967575   0.000000   0.000000
   10       35.150495     35.166821   0.000000   0.000000
 
 -0.2368421E+00  0.5000000E+00  0.2368421E+00  0.1000000E-01
    1        0.949122      1.367115   1.000000   1.000000
    2        1.687744      2.209693   1.000000   1.000000
    3        1.707216      2.230886   1.000000   1.000000
    4        3.321160      3.924926   1.000000   1.011875
    5        4.265587      4.995726   0.009817  -0.000000
    6       12.227616     12.394010   0.000000   0.000000
    7       12.331996     12.495889   0.000000   0.000000
    8       14.798836     14.981879   0.000000   0.000000
    9       15.819777     15.967561   0.000000   0.000000
   10       35.011973     35.018571   0.000000   0.000000
 
 -0.2105263E+00  0.5000000E+00  0.2105263E+00  0.1000000E-01
    1        1.010379      1.428087   1.000000   1.000000
    2        1.587219      2.097838   1.000000   1.000000
    3        1.758278      2.283514   1.000000   1.000000
    4        3.313409      3.918561   1.000000   1.016942
    5        4.196493      4.922077   0.155575  -0.000000
    6       11.342240     11.531622   0.000000   0.000000
    7       11.946059     12.133348   0.000000   0.000000
    8       15.834173     15.993176   0.000000   0.000000
    9       16.606161     16.743319   0.000000   0.000000
   10       33.900578     33.915861   0.000000   0.000000
 
 -0.1842105E+00  0.5000000E+00  0.1842105E+00  0.1000000E-01
    1        1.131266      1.549449   1.000000   1.000000
    2        1.402460      1.893289   1.000000   1.000000
    3        1.857805      2.384902   1.000000   1.000000
    4        3.264441      3.871312   1.000000   1.034977
    5        4.100508      4.818461   0.521039  -0.000003
    6       10.296390     10.505778   0.000000   0.000000
    7       11.481178     11.701002   0.000000   0.000000
    8       17.179562     17.316357   0.000000   0.000000
    9       17.847977     17.974965   0.000000   0.000000
   10       32.718005     32.737568   0.000000   0.000000
 
 -0.1578947E+00  0.5000000E+00  0.1578947E+00  0.1000000E-01
    1        1.157273      1.623741   1.000000   1.000000
    2        1.307127      1.729042   1.000000   1.000000
    3        2.002202      2.528493   1.000000   1.000000
    4        3.137616      3.745946   1.000000   1.014521
    5        4.035891      4.745173   0.775632  -0.000029
    6        9.262786      9.490146  -0.000000  -0.000000
    7       11.087732     11.342178   0.000000   0.000000
    8       18.661197     18.776430   0.000000   0.000000
    9       19.351014     19.470266   0.000000   0.000000
   10       31.630219     31.646019   0.000000   0.000000
 
 -0.1315789E+00  0.5000000E+00  0.1315789E+00  0.1000000E-01
    1        0.877846      1.319172   1.000000   1.000000
    2        1.526772      1.960704   1.000000   1.000000
    3        2.190852      2.707921   1.000000   1.000000
    4        2.944700      3.552631   1.000000   1.000328
    5        4.021058      4.723773   0.824378  -0.000055
    6        8.276819      8.521167  -0.000000  -0.000000
    7       10.794738     11.081750   0.000000   0.000000
    8       20.240879     20.333619   0.000000   0.000000
    9       21.029998     21.143107   0.000000   0.000000
   10       30.670722     30.681633   0.000000   0.000000
 
 -0.1052632E+00  0.5000000E+00  0.1052632E+00  0.1000000E-01
    1        0.592669      1.011220   1.000000   1.000000
    2        1.766219      2.228575   1.000000   1.000000
    3        2.433067      2.923389   1.000000   1.000000
    4        2.734952      3.340215   1.000000   1.000000
    5        4.035067      4.734424   0.778466  -0.000041
    6        7.349129      7.609991  -0.000000  -0.000000
    7       10.591176     10.906030   0.000000   0.000000
    8       21.900600     21.968213   0.000000   0.000000
    9       22.834560     22.942369   0.000000   0.000000
   10       29.864508     29.872090   0.000000   0.000000
 
 -0.7894737E-01  0.5000000E+00  0.7894737E-01  0.1000000E-01
    1        0.331691      0.731855   1.000000   1.000000
    2        1.986887      2.496925   1.000000   1.000000
    3        2.548524      3.150147   1.000000   1.000000
    4        2.750951      3.192858   1.000000   1.000000
    5        4.057367      4.755394   0.697205  -0.000022
    6        6.484270      6.761596  -0.000000  -0.000000
    7       10.457095     10.793795   0.000000   0.000000
    8       23.614757     23.651113   0.000000   0.000000
    9       24.718484     24.821466   0.000000   0.000000
   10       29.240550     29.250270   0.000000   0.000000
 
 -0.5263158E-01  0.5000000E+00  0.5263158E-01  0.1000000E-01
    1        0.122883      0.509901   1.000000   1.000000
    2        2.154394      2.712413   1.000000   1.000000
    3        2.406735      3.004967   1.000000   1.000000
    4        3.161485      3.550595   1.000000   1.000312
    5        4.077358      4.774959   0.617704  -0.000012
    6        5.685937      5.980331  -0.000000  -0.000000
    7       10.374385     10.726583   0.000000   0.000000
    8       25.309243     25.298469   0.000000   0.000000
    9       26.613659     26.712318   0.000000   0.000000
   10       28.856021     28.883348   0.000000   0.000000
 
 -0.2631579E-01  0.5000000E+00  0.2631579E-01  0.1000000E-01
    1       -0.011653      0.367571   1.000000   1.000000
    2        2.255826      2.842263   1.000000   1.000000
    3        2.319162      2.915054   1.000000   1.000000
    4        3.657099      4.006036   1.003390   0.868571
    5        4.090492      4.787991   0.563231  -0.000008
    6        4.962358      5.276324  -0.000000  -0.000000
    7       10.329874     10.691275   0.000000   0.000000
    8       26.695401     26.606701   0.000000   0.000000
    9       28.355787     28.451423   0.000000   0.000000
   10       28.892852     28.968279   0.000000   0.000000
 
  0.0000000E+00  0.5000000E+00  0.0000000E+00  0.1000000E-01
    1       -0.058058      0.318593   1.000000   1.000000
    2        2.289638      2.884701   1.000000   1.000000
    3        2.289639      2.884701   1.000000   1.000000
    4        4.095018      4.408923   0.544210  -0.026878
    5        4.095026      4.792503   0.544174  -0.000007
    6        4.449438      4.792510  -0.017694  -0.000007
    7       10.315882     10.680331   0.000000   0.000000
    8       27.179822     27.050927   0.000000   0.000000
    9       29.284355     29.379923   0.000000   0.000000
   10       29.284385     29.379931   0.000000   0.000000
 
  0.0000000E+00  0.5000000E+00  0.0000000E+00  0.1000000E-01
    1       -0.058058      0.318593   1.000000   1.000000
    2        2.289638      2.884701   1.000000   1.000000
    3        2.289639      2.884701   1.000000   1.000000
    4        4.095018      4.408923   0.544210  -0.026878
    5        4.095026      4.792503   0.544174  -0.000007
    6        4.449438      4.792510  -0.017694  -0.000007
    7       10.315882     10.680331   0.000000   0.000000
    8       27.179820     27.050927   0.000000   0.000000
    9       29.284353     29.379918   0.000000   0.000000
   10       29.284395     29.380006   0.000000   0.000000
 
  0.1315789E-01  0.4868421E+00  0.1315789E-01  0.1000000E-01
    1       -0.061585      0.310666   1.000000   1.000000
    2        2.290261      2.884946   1.000000   1.000000
    3        2.294522      2.889842   1.000000   1.000000
    4        4.006615      4.282567   0.866969  -0.008791
    5        4.083602      4.780481   0.591970  -0.000010
    6        4.455260      4.850923  -0.016471  -0.000001
    7       10.444891     10.799176   0.000000   0.000000
    8       27.155862     27.030445   0.000000   0.000000
    9       29.118933     29.213406   0.000000   0.000000
   10       29.313146     29.409231   0.000000   0.000000
 
  0.2631579E-01  0.4736842E+00  0.2631579E-01  0.1000000E-01
    1       -0.073286      0.285409   1.000000   1.000000
    2        2.292223      2.885764   1.000000   1.000000
    3        2.309107      2.905200   1.000000   1.000000
    4        3.775826      4.014562   1.020851   0.844152
    5        4.049717      4.744808   0.726098  -0.000030
    6        4.458914      4.931395  -0.015725  -0.000000
    7       10.812168     11.140665   0.000000   0.000000
    8       27.050515     26.941461   0.000000   0.000000
    9       28.783587     28.867451   0.000000   0.000000
   10       29.398506     29.496089   0.000000   0.000000
 
  0.3947368E-01  0.4605263E+00  0.3947368E-01  0.1000000E-01
    1       -0.096510      0.238557   1.000000   1.000000
    2        2.295765      2.887312   1.000000   1.000000
    3        2.333191      2.930567   1.000000   1.000000
    4        3.459382      3.696003   1.000024   1.006839
    5        3.994577      4.686772   0.898562  -0.000156
    6        4.451576      4.982593  -0.017240  -0.000000
    7       11.372683     11.668918   0.000000   0.000000
    8       26.778332     26.709121   0.000000   0.000000
    9       28.535696     28.587003   0.000000   0.000000
   10       29.537407     29.637264   0.000000   0.000000
 
  0.5263158E-01  0.4473684E+00  0.5263158E-01  0.1000000E-01
    1       -0.136956      0.163506   1.000000   1.000000
    2        2.301283      2.889490   1.000000   1.000000
    3        2.366429      2.965591   1.000000   1.000000
    4        3.107559      3.371967   1.000000   1.000001
    5        3.920102      4.608409   1.015783  -0.001084
    6        4.434136      5.005281  -0.021079  -0.000000
    7       12.080109     12.344355   0.000000   0.000000
    8       26.309199     26.288411   0.000000   0.000000
    9       28.491214     28.502154   0.000000   0.000000
   10       29.724913     29.827440   0.000000   0.000000
 
  0.6578947E-01  0.4342105E+00  0.6578947E-01  0.1000000E-01
    1       -0.202388      0.052805   1.000000   1.000000
    2        2.309230      2.888623   1.000000   1.000000
    3        2.408346      3.009793   1.000000   1.000000
    4        2.761259      3.079096   1.000000   1.000000
    5        3.828798      4.512368   1.032361  -0.007141
    6        4.408154      5.006194  -0.027052  -0.000000
    7       12.898546     13.133992   0.000000   0.000000
    8       25.720152     25.734706   0.000000   0.000000
    9       28.609904     28.594034   0.000000   0.000000
   10       29.954625     30.059734   0.000000   0.000000
 
  0.7894737E-01  0.4210526E+00  0.7894737E-01  0.1000000E-01
    1       -0.301165     -0.098742   1.000000   1.000000
    2        2.320023      2.798086   1.000000   1.000000