 vasp.5.4.4.18Apr17-6-g9f103f2a35 (build May 20 2018 16:52:39) complex          
  
 executed on             LinuxIFC date 2022.10.01  22:59:55
 running on    1 total cores
 distrk:  each k-point on    1 cores,    1 groups
 distr:  one band on NCORES_PER_BAND=   1 cores,    1 groups


--------------------------------------------------------------------------------------------------------


 INCAR:
 POTCAR:    PAW Ni                                
 POTCAR:    PAW Ni                                
   VRHFIN =Ni:                                                                  
   LEXCH  = 91                                                                  
   EATOM  =  1079.4692 eV,   79.3388 Ry                                         
                                                                                
   TITEL  = PAW Ni                                                              
   LULTRA =        F    use ultrasoft PP ?                                      
   IUNSCR =        1    unscreen: 0-lin 1-nonlin 2-no                           
   RPACOR =    2.000    partial core radius                                     
   POMASS =   58.690; ZVAL   =   10.000    mass and valenz                      
   RCORE  =    2.300    outmost cutoff radius                                   
   RWIGS  =    2.430; RWIGS  =    1.286    wigner-seitz radius (au A)           
   ENMAX  =  269.561; ENMIN  =  202.171 eV                                      
   RCLOC  =    1.681    cutoff for local pot                                    
   LCOR   =        T    correct aug charges                                     
   LPAW   =        T    paw PP                                                  
   EAUG   =  544.565                                                            
   DEXC   =    -.002                                                            
   RMAX   =    2.808    core radius for proj-oper                               
   RAUG   =    1.300    factor for augmentation sphere                          
   RDEP   =    2.390    core radius for depl-charge                             
   QCUT   =   -4.451; QGAM   =    8.902    optimization parameters              
                                                                                
   Description                                                                  
     l     E      TYP  RCUT    TYP  RCUT                                        
     2   .000     23  2.300                                                     
     2   .000     23  2.300                                                     
     0   .000     23  2.300                                                     
     0   .000     23  2.300                                                     
     1  -.200     23  2.300                                                     
     1   .000     23  2.300                                                     
     3   .000      7   .000                                                     
  local pseudopotential read in
  partial core-charges read in
  atomic valenz-charges read in
  non local Contribution for L=           2  read in
    real space projection operators read in
  non local Contribution for L=           2  read in
    real space projection operators read in
  non local Contribution for L=           0  read in
    real space projection operators read in
  non local Contribution for L=           0  read in
    real space projection operators read in
  non local Contribution for L=           1  read in
    real space projection operators read in
  non local Contribution for L=           1  read in
    real space projection operators read in
    PAW grid and wavefunctions read in
 
   number of l-projection  operators is LMAX  =           6
   number of lm-projection operators is LMMAX =          18
 
  PAW Ni                                :
 energy of atom  1       EATOM=-1079.4692
 kinetic energy error for atom=    0.0030 (will be added to EATOM!!)
 
 
 POSCAR: fcc Ni                                  
  positions in direct lattice
  No initial velocities read in
 exchange correlation table for  LEXCH =        7
   RHO(1)=    0.500       N(1)  =     2000
   RHO(2)=  100.500       N(2)  =     4000
 


--------------------------------------------------------------------------------------------------------


 ion  position               nearest neighbor table
   1  0.000  0.000  0.000-
 
  LATTYP: Found a face centered cubic cell.
 ALAT       =     3.5295000000
  
  Lattice vectors:
  
 A1 = (   1.7647500000,   1.7647500000,   0.0000000000)
 A2 = (   0.0000000000,   1.7647500000,   1.7647500000)
 A3 = (   1.7647500000,   0.0000000000,   1.7647500000)


Analysis of symmetry for initial positions (statically):
=====================================================================
 Subroutine PRICEL returns:
 Original cell was already a primitive cell.
 

 Routine SETGRP: Setting up the symmetry group for a 
 face centered cubic supercell.


 Subroutine GETGRP returns: Found 48 space group operations
 (whereof 48 operations were pure point group operations)
 out of a pool of 48 trial point group operations.


The static configuration has the point symmetry O_h .


Analysis of symmetry for dynamics (positions and initial velocities):
=====================================================================
 Subroutine PRICEL returns:
 Original cell was already a primitive cell.
 

 Routine SETGRP: Setting up the symmetry group for a 
 face centered cubic supercell.


 Subroutine GETGRP returns: Found 48 space group operations
 (whereof 48 operations were pure point group operations)
 out of a pool of 48 trial point group operations.


The dynamic configuration has the point symmetry O_h .


Analysis of structural, dynamic, and magnetic symmetry:
=====================================================================
 Subroutine PRICEL returns:
 Original cell was already a primitive cell.
 

 Routine SETGRP: Setting up the symmetry group for a 
 face centered cubic supercell.


 Subroutine GETGRP returns: Found 48 space group operations
 (whereof 48 operations were pure point group operations)
 out of a pool of 48 trial point group operations.


The magnetic configuration has the point symmetry O_h .


 Subroutine INISYM returns: Found 48 space group operations
 (whereof 48 operations are pure point group operations),
 and found     1 'primitive' translations

 
 
 KPOINTS: K-points along high symmetry lines for b
  interpolating k-points between supplied coordinates
  k-points in reciprocal lattice
Space group operators:
 irot       det(A)        alpha          n_x          n_y          n_z        tau_x        tau_y        tau_z
    1     1.000000     0.000000     1.000000     0.000000     0.000000     0.000000     0.000000     0.000000
    2    -1.000000     0.000000     1.000000     0.000000     0.000000     0.000000     0.000000     0.000000
    3     1.000000   120.000000    -0.577350    -0.577350    -0.577350     0.000000     0.000000     0.000000
    4    -1.000000   120.000000    -0.577350    -0.577350    -0.577350     0.000000     0.000000     0.000000
    5     1.000000   120.000000     0.577350     0.577350     0.577350     0.000000     0.000000     0.000000
    6    -1.000000   120.000000     0.577350     0.577350     0.577350     0.000000     0.000000     0.000000
    7     1.000000    90.000000     0.000000    -1.000000     0.000000     0.000000     0.000000     0.000000
    8    -1.000000    90.000000     0.000000    -1.000000     0.000000     0.000000     0.000000     0.000000
    9     1.000000   180.000000     0.707107     0.707107     0.000000     0.000000     0.000000     0.000000
   10    -1.000000   180.000000     0.707107     0.707107     0.000000     0.000000     0.000000     0.000000
   11     1.000000    90.000000     1.000000     0.000000     0.000000     0.000000     0.000000     0.000000
   12    -1.000000    90.000000     1.000000     0.000000     0.000000     0.000000     0.000000     0.000000
   13     1.000000   180.000000     0.000000     1.000000     0.000000     0.000000     0.000000     0.000000
   14    -1.000000   180.000000     0.000000     1.000000     0.000000     0.000000     0.000000     0.000000
   15     1.000000   120.000000     0.577350     0.577350    -0.577350     0.000000     0.000000     0.000000
   16    -1.000000   120.000000     0.577350     0.577350    -0.577350     0.000000     0.000000     0.000000
   17     1.000000   120.000000     0.577350    -0.577350    -0.577350     0.000000     0.000000     0.000000
   18    -1.000000   120.000000     0.577350    -0.577350    -0.577350     0.000000     0.000000     0.000000
   19     1.000000    90.000000     0.000000     1.000000     0.000000     0.000000     0.000000     0.000000
   20    -1.000000    90.000000     0.000000     1.000000     0.000000     0.000000     0.000000     0.000000
   21     1.000000    90.000000     0.000000     0.000000    -1.000000     0.000000     0.000000     0.000000
   22    -1.000000    90.000000     0.000000     0.000000    -1.000000     0.000000     0.000000     0.000000
   23     1.000000   180.000000     0.000000     0.707107     0.707107     0.000000     0.000000     0.000000
   24    -1.000000   180.000000     0.000000     0.707107     0.707107     0.000000     0.000000     0.000000
   25     1.000000   120.000000    -0.577350     0.577350     0.577350     0.000000     0.000000     0.000000
   26    -1.000000   120.000000    -0.577350     0.577350     0.577350     0.000000     0.000000     0.000000
   27     1.000000   120.000000    -0.577350     0.577350    -0.577350     0.000000     0.000000     0.000000
   28    -1.000000   120.000000    -0.577350     0.577350    -0.577350     0.000000     0.000000     0.000000
   29     1.000000   180.000000     0.000000     0.000000     1.000000     0.000000     0.000000     0.000000
   30    -1.000000   180.000000     0.000000     0.000000     1.000000     0.000000     0.000000     0.000000
   31     1.000000    90.000000    -1.000000     0.000000     0.000000     0.000000     0.000000     0.000000
   32    -1.000000    90.000000    -1.000000     0.000000     0.000000     0.000000     0.000000     0.000000
   33     1.000000   180.000000     0.707107     0.000000     0.707107     0.000000     0.000000     0.000000
   34    -1.000000   180.000000     0.707107     0.000000     0.707107     0.000000     0.000000     0.000000
   35     1.000000    90.000000     0.000000     0.000000     1.000000     0.000000     0.000000     0.000000
   36    -1.000000    90.000000     0.000000     0.000000     1.000000     0.000000     0.000000     0.000000
   37     1.000000   120.000000    -0.577350    -0.577350     0.577350     0.000000     0.000000     0.000000
   38    -1.000000   120.000000    -0.577350    -0.577350     0.577350     0.000000     0.000000     0.000000
   39     1.000000   180.000000     1.000000     0.000000     0.000000     0.000000     0.000000     0.000000
   40    -1.000000   180.000000     1.000000     0.000000     0.000000     0.000000     0.000000     0.000000
   41     1.000000   120.000000     0.577350    -0.577350     0.577350     0.000000     0.000000     0.000000
   42    -1.000000   120.000000     0.577350    -0.577350     0.577350     0.000000     0.000000     0.000000
   43     1.000000   180.000000     0.707107    -0.707107     0.000000     0.000000     0.000000     0.000000
   44    -1.000000   180.000000     0.707107    -0.707107     0.000000     0.000000     0.000000     0.000000
   45     1.000000   180.000000     0.707107     0.000000    -0.707107     0.000000     0.000000     0.000000
   46    -1.000000   180.000000     0.707107     0.000000    -0.707107     0.000000     0.000000     0.000000
   47     1.000000   180.000000     0.000000    -0.707107     0.707107     0.000000     0.000000     0.000000
   48    -1.000000   180.000000     0.000000    -0.707107     0.707107     0.000000     0.000000     0.000000


--------------------------------------------------------------------------------------------------------




 Dimension of arrays:
   k-points           NKPTS =    100   k-points in BZ     NKDIM =    100   number of bands    NBANDS=     10
   number of dos      NEDOS =    301   number of ions     NIONS =      1
   non local maximal  LDIM  =      6   non local SUM 2l+1 LMDIM =     18
   total plane-waves  NPLWV =   2744
   max r-space proj   IRMAX =      1   max aug-charges    IRDMAX=   8290
   dimension x,y,z NGX =    14 NGY =   14 NGZ =   14
   dimension x,y,z NGXF=    28 NGYF=   28 NGZF=   28
   support grid    NGXF=    28 NGYF=   28 NGZF=   28
   ions per type =               1
   NGX,Y,Z   is equivalent  to a cutoff of   9.33,  9.33,  9.33 a.u.
   NGXF,Y,Z  is equivalent  to a cutoff of  18.65, 18.65, 18.65 a.u.

 SYSTEM =  fcc Ni                                  
 POSCAR =  fcc Ni                                  

 Startparameter for this run:
   NWRITE =      2    write-flag & timer
   PREC   = normal    normal or accurate (medium, high low for compatibility)
   ISTART =      0    job   : 0-new  1-cont  2-samecut
   ICHARG =     11    charge: 1-file 2-atom 10-const
   ISPIN  =      2    spin polarized calculation?
   LNONCOLLINEAR =      F non collinear calculations
   LSORBIT =      F    spin-orbit coupling
   INIWAV =      1    electr: 0-lowe 1-rand  2-diag
   LASPH  =      F    aspherical Exc in radial PAW
   METAGGA=      F    non-selfconsistent MetaGGA calc.

 Electronic Relaxation 1
   ENCUT  =  500.0 eV  36.75 Ry    6.06 a.u.   4.55  4.55  4.55*2*pi/ulx,y,z
   ENINI  =  500.0     initial cutoff
   ENAUG  =  544.6 eV  augmentation charge cutoff
   NELM   =     60;   NELMIN=  2; NELMDL= -5     # of ELM steps 
   EDIFF  = 0.1E-06   stopping-criterion for ELM
   LREAL  =      F    real-space projection
   NLSPLINE    = F    spline interpolate recip. space projectors
   LCOMPAT=      F    compatible to vasp.4.4
   GGA_COMPAT  = T    GGA compatible to vasp.4.4-vasp.4.6
   LMAXPAW     = -100 max onsite density
   LMAXMIX     =    2 max onsite mixed and CHGCAR
   VOSKOWN=      0    Vosko Wilk Nusair interpolation
   ROPT   =    0.00000
 Ionic relaxation
   EDIFFG = 0.1E-05   stopping-criterion for IOM
   NSW    =      0    number of steps for IOM
   NBLOCK =      1;   KBLOCK =      1    inner block; outer block 
   IBRION =     -1    ionic relax: 0-MD 1-quasi-New 2-CG
   NFREE  =      0    steps in history (QN), initial steepest desc. (CG)
   ISIF   =      2    stress and relaxation
   IWAVPR =     10    prediction:  0-non 1-charg 2-wave 3-comb
   ISYM   =      2    0-nonsym 1-usesym 2-fastsym
   LCORR  =      T    Harris-Foulkes like correction to forces

   POTIM  = 0.5000    time-step for ionic-motion
   TEIN   =    0.0    initial temperature
   TEBEG  =    0.0;   TEEND  =   0.0 temperature during run
   SMASS  =  -3.00    Nose mass-parameter (am)
   estimated Nose-frequenzy (Omega)   =  0.10E-29 period in steps =****** mass=  -0.142E-27a.u.
   SCALEE = 1.0000    scale energy and forces
   NPACO  =    256;   APACO  = 16.0  distance and # of slots for P.C.
   PSTRESS=    0.0 pullay stress

  Mass of Ions in am
   POMASS =  58.69
  Ionic Valenz
   ZVAL   =  10.00
  Atomic Wigner-Seitz radii
   RWIGS  =   1.37
  virtual crystal weights 
   VCA    =   1.00
   NELECT =      10.0000    total number of electrons
   NUPDOWN=      -1.0000    fix difference up-down

 DOS related values:
   EMIN   =  10.00;   EMAX   =-10.00  energy-range for DOS
   EFERMI =   0.00
   ISMEAR =     1;   SIGMA  =   0.20  broadening in eV -4-tet -1-fermi 0-gaus

 Electronic relaxation 2 (details)
   IALGO  =     38    algorithm
   LDIAG  =      T    sub-space diagonalisation (order eigenvalues)
   LSUBROT=      F    optimize rotation matrix (better conditioning)
   TURBO    =      0    0=normal 1=particle mesh
   IRESTART =      0    0=no restart 2=restart with 2 vectors
   NREBOOT  =      0    no. of reboots
   NMIN     =      0    reboot dimension
   EREF     =   0.00    reference energy to select bands
   IMIX   =      4    mixing-type and parameters
     AMIX     =   0.40;   BMIX     =  1.00
     AMIX_MAG =   1.60;   BMIX_MAG =  1.00
     AMIN     =   0.10
     WC   =   100.;   INIMIX=   1;  MIXPRE=   1;  MAXMIX= -45

 Intra band minimization:
   WEIMIN = 0.0000     energy-eigenvalue tresh-hold
   EBREAK =  0.25E-08  absolut break condition
   DEPER  =   0.30     relativ break condition  

   TIME   =   0.40     timestep for ELM

  volume/ion in A,a.u.               =      10.99        74.18
  Fermi-wavevector in a.u.,A,eV,Ry     =   1.586287  2.997647 34.236408  2.516305
  Thomas-Fermi vector in A             =   2.685621
 
 Write flags
   LWAVE        =      F    write WAVECAR
   LDOWNSAMPLE  =      F    k-point downsampling of WAVECAR
   LCHARG       =      F    write CHGCAR
   LVTOT        =      F    write LOCPOT, total local potential
   LVHAR        =      F    write LOCPOT, Hartree potential only
   LELF         =      F    write electronic localiz. function (ELF)
   LORBIT       =     11    0 simple, 1 ext, 2 COOP (PROOUT), +10 PAW based schemes


 Dipole corrections
   LMONO  =      F    monopole corrections only (constant potential shift)
   LDIPOL =      F    correct potential (dipole corrections)
   IDIPOL =      0    1-x, 2-y, 3-z, 4-all directions 
   EPSILON=  1.0000000 bulk dielectric constant

 Exchange correlation treatment:
   GGA     =    --    GGA type
   LEXCH   =     7    internal setting for exchange type
   VOSKOWN=      0    Vosko Wilk Nusair interpolation
   LHFCALC =     F    Hartree Fock is set to
   LHFONE  =     F    Hartree Fock one center treatment
   AEXX    =    0.0000 exact exchange contribution

 Linear response parameters
   LEPSILON=     F    determine dielectric tensor
   LRPA    =     F    only Hartree local field effects (RPA)
   LNABLA  =     F    use nabla operator in PAW spheres
   LVEL    =     F    velocity operator in full k-point grid
   LINTERFAST=   F  fast interpolation
   KINTER  =     0    interpolate to denser k-point grid
   CSHIFT  =0.1000    complex shift for real part using Kramers Kronig
   OMEGAMAX=  -1.0    maximum frequency
   DEG_THRESHOLD= 0.2000000E-02 threshold for treating states as degnerate
   RTIME   =   -0.100 relaxation time in fs
  (WPLASMAI=    0.000 imaginary part of plasma frequency in eV, 0.658/RTIME)
   DFIELD  = 0.0000000 0.0000000 0.0000000 field for delta impulse in time
 
 Orbital magnetization related:
   ORBITALMAG=     F  switch on orbital magnetization
   LCHIMAG   =     F  perturbation theory with respect to B field
   DQ        =  0.001000  dq finite difference perturbation B field
   LLRAUG    =     F  two centre corrections for induced B field



--------------------------------------------------------------------------------------------------------


 Static calculation
 charge density and potential remain constant during run
 spin polarized calculation
 Variant of blocked Davidson
 Davidson routine will perform the subspace rotation
 perform sub-space diagonalisation
    after iterative eigenvector-optimisation
 no mixing
 using additional bands            5
 reciprocal scheme for non local part
 use partial core corrections
 calculate Harris-corrections to forces 
   (improved forces if not selfconsistent)
 use gradient corrections 
 WARNING: stress and forces are not correct
  (second derivative of E(xc) not defined)
 use of overlap-Matrix (Vanderbilt PP)
 Methfessel and Paxton  Order N= 1 SIGMA  =   0.20


--------------------------------------------------------------------------------------------------------


  energy-cutoff  :      500.00
  volume of cell :       10.99
      direct lattice vectors                 reciprocal lattice vectors
     1.764750000  1.764750000  0.000000000     0.283326250  0.283326250 -0.283326250
     0.000000000  1.764750000  1.764750000    -0.283326250  0.283326250  0.283326250
     1.764750000  0.000000000  1.764750000     0.283326250 -0.283326250  0.283326250

  length of vectors
     2.495733384  2.495733384  2.495733384     0.490735460  0.490735460  0.490735460


 
 k-points in units of 2pi/SCALE and weight: K-points along high symmetry lines for b
   0.00000000  0.00000000  0.00000000       0.010
  -0.02631579 -0.02631579  0.07894737       0.010
  -0.05263158 -0.05263158  0.15789474       0.010
  -0.07894737 -0.07894737  0.23684211       0.010
  -0.10526316 -0.10526316  0.31578947       0.010
  -0.13157895 -0.13157895  0.39473684       0.010
  -0.15789474 -0.15789474  0.47368421       0.010
  -0.18421053 -0.18421053  0.55263158       0.010
  -0.21052632 -0.21052632  0.63157895       0.010
  -0.23684211 -0.23684211  0.71052632       0.010
  -0.26315789 -0.26315789  0.78947368       0.010
  -0.28947368 -0.28947368  0.86842105       0.010
  -0.31578947 -0.31578947  0.94736842       0.010
  -0.34210526 -0.34210526  1.02631579       0.010
  -0.36842105 -0.36842105  1.10526316       0.010
  -0.39473684 -0.39473684  1.18421053       0.010
  -0.42105263 -0.42105263  1.26315789       0.010
  -0.44736842 -0.44736842  1.34210526       0.010
  -0.47368421 -0.47368421  1.42105263       0.010
  -0.50000000 -0.50000000  1.50000000       0.010
  -0.50000000 -0.50000000  1.50000000       0.010
  -0.50000000 -0.44736842  1.44736842       0.010
  -0.50000000 -0.39473684  1.39473684       0.010
  -0.50000000 -0.34210526  1.34210526       0.010
  -0.50000000 -0.28947368  1.28947368       0.010
  -0.50000000 -0.23684211  1.23684211       0.010
  -0.50000000 -0.18421053  1.18421053       0.010
  -0.50000000 -0.13157895  1.13157895       0.010
  -0.50000000 -0.07894737  1.07894737       0.010
  -0.50000000 -0.02631579  1.02631579       0.010
  -0.50000000  0.02631579  0.97368421       0.010
  -0.50000000  0.07894737  0.92105263       0.010
  -0.50000000  0.13157895  0.86842105       0.010
  -0.50000000  0.18421053  0.81578947       0.010
  -0.50000000  0.23684211  0.76315789       0.010
  -0.50000000  0.28947368  0.71052632       0.010
  -0.50000000  0.34210526  0.65789474       0.010
  -0.50000000  0.39473684  0.60526316       0.010
  -0.50000000  0.44736842  0.55263158       0.010
  -0.50000000  0.50000000  0.50000000       0.010
  -0.50000000  0.50000000  0.50000000       0.010
  -0.46052632  0.48684211  0.48684211       0.010
  -0.42105263  0.47368421  0.47368421       0.010
  -0.38157895  0.46052632  0.46052632       0.010
  -0.34210526  0.44736842  0.44736842       0.010
  -0.30263158  0.43421053  0.43421053       0.010
  -0.26315789  0.42105263  0.42105263       0.010
  -0.22368421  0.40789474  0.40789474       0.010
  -0.18421053  0.39473684  0.39473684       0.010
  -0.14473684  0.38157895  0.38157895       0.010
  -0.10526316  0.36842105  0.36842105       0.010
  -0.06578947  0.35526316  0.35526316       0.010
  -0.02631579  0.34210526  0.34210526       0.010
   0.01315789  0.32894737  0.32894737       0.010
   0.05263158  0.31578947  0.31578947       0.010
   0.09210526  0.30263158  0.30263158       0.010
   0.13157895  0.28947368  0.28947368       0.010
   0.17105263  0.27631579  0.27631579       0.010
   0.21052632  0.26315789  0.26315789       0.010
   0.25000000  0.25000000  0.25000000       0.010
   0.25000000  0.25000000  0.25000000       0.010
   0.23684211  0.23684211  0.23684211       0.010
   0.22368421  0.22368421  0.22368421       0.010
   0.21052632  0.21052632  0.21052632       0.010
   0.19736842  0.19736842  0.19736842       0.010
   0.18421053  0.18421053  0.18421053       0.010
   0.17105263  0.17105263  0.17105263       0.010
   0.15789474  0.15789474  0.15789474       0.010
   0.14473684  0.14473684  0.14473684       0.010
   0.13157895  0.13157895  0.13157895       0.010
   0.11842105  0.11842105  0.11842105       0.010
   0.10526316  0.10526316  0.10526316       0.010
   0.09210526  0.09210526  0.09210526       0.010
   0.07894737  0.07894737  0.07894737       0.010
   0.06578947  0.06578947  0.06578947       0.010
   0.05263158  0.05263158  0.05263158       0.010
   0.03947368  0.03947368  0.03947368       0.010
   0.02631579  0.02631579  0.02631579       0.010
   0.01315789  0.01315789  0.01315789       0.010
   0.00000000  0.00000000  0.00000000       0.010
   0.00000000  0.00000000  0.00000000       0.010
  -0.02631579  0.02631579  0.02631579       0.010
  -0.05263158  0.05263158  0.05263158       0.010
  -0.07894737  0.07894737  0.07894737       0.010
  -0.10526316  0.10526316  0.10526316       0.010
  -0.13157895  0.13157895  0.13157895       0.010
  -0.15789474  0.15789474  0.15789474       0.010
  -0.18421053  0.18421053  0.18421053       0.010
  -0.21052632  0.21052632  0.21052632       0.010
  -0.23684211  0.23684211  0.23684211       0.010
  -0.26315789  0.26315789  0.26315789       0.010
  -0.28947368  0.28947368  0.28947368       0.010
  -0.31578947  0.31578947  0.31578947       0.010
  -0.34210526  0.34210526  0.34210526       0.010
  -0.36842105  0.36842105  0.36842105       0.010
  -0.39473684  0.39473684  0.39473684       0.010
  -0.42105263  0.42105263  0.42105263       0.010
  -0.44736842  0.44736842  0.44736842       0.010
  -0.47368421  0.47368421  0.47368421       0.010
  -0.50000000  0.50000000  0.50000000       0.010
 
 k-points in reciprocal lattice and weights: K-points along high symmetry lines for b
   0.00000000  0.00000000  0.00000000       0.010
  -0.02631579  0.02631579  0.02631579       0.010
  -0.05263158  0.05263158  0.05263158       0.010
  -0.07894737  0.07894737  0.07894737       0.010
  -0.10526316  0.10526316  0.10526316       0.010
  -0.13157895  0.13157895  0.13157895       0.010
  -0.15789474  0.15789474  0.15789474       0.010
  -0.18421053  0.18421053  0.18421053       0.010
  -0.21052632  0.21052632  0.21052632       0.010
  -0.23684211  0.23684211  0.23684211       0.010
  -0.26315789  0.26315789  0.26315789       0.010
  -0.28947368  0.28947368  0.28947368       0.010
  -0.31578947  0.31578947  0.31578947       0.010
  -0.34210526  0.34210526  0.34210526       0.010
  -0.36842105  0.36842105  0.36842105       0.010
  -0.39473684  0.39473684  0.39473684       0.010
  -0.42105263  0.42105263  0.42105263       0.010
  -0.44736842  0.44736842  0.44736842       0.010
  -0.47368421  0.47368421  0.47368421       0.010
  -0.50000000  0.50000000  0.50000000       0.010
  -0.50000000  0.50000000  0.50000000       0.010
  -0.47368421  0.50000000  0.47368421       0.010
  -0.44736842  0.50000000  0.44736842       0.010
  -0.42105263  0.50000000  0.42105263       0.010
  -0.39473684  0.50000000  0.39473684       0.010
  -0.36842105  0.50000000  0.36842105       0.010
  -0.34210526  0.50000000  0.34210526       0.010
  -0.31578947  0.50000000  0.31578947       0.010
  -0.28947368  0.50000000  0.28947368       0.010
  -0.26315789  0.50000000  0.26315789       0.010
  -0.23684211  0.50000000  0.23684211       0.010
  -0.21052632  0.50000000  0.21052632       0.010
  -0.18421053  0.50000000  0.18421053       0.010
  -0.15789474  0.50000000  0.15789474       0.010
  -0.13157895  0.50000000  0.13157895       0.010
  -0.10526316  0.50000000  0.10526316       0.010
  -0.07894737  0.50000000  0.07894737       0.010
  -0.05263158  0.50000000  0.05263158       0.010
  -0.02631579  0.50000000  0.02631579       0.010
   0.00000000  0.50000000  0.00000000       0.010
   0.00000000  0.50000000  0.00000000       0.010
   0.01315789  0.48684211  0.01315789       0.010
   0.02631579  0.47368421  0.02631579       0.010
   0.03947368  0.46052632  0.03947368       0.010
   0.05263158  0.44736842  0.05263158       0.010
   0.06578947  0.43421053  0.06578947       0.010
   0.07894737  0.42105263  0.07894737       0.010
   0.09210526  0.40789474  0.09210526       0.010
   0.10526316  0.39473684  0.10526316       0.010
   0.11842105  0.38157895  0.11842105       0.010
   0.13157895  0.36842105  0.13157895       0.010
   0.14473684  0.35526316  0.14473684       0.010
   0.15789474  0.34210526  0.15789474       0.010
   0.17105263  0.32894737  0.17105263       0.010
   0.18421053  0.31578947  0.18421053       0.010
   0.19736842  0.30263158  0.19736842       0.010
   0.21052632  0.28947368  0.21052632       0.010
   0.22368421  0.27631579  0.22368421       0.010
   0.23684211  0.26315789  0.23684211       0.010
   0.25000000  0.25000000  0.25000000       0.010
   0.25000000  0.25000000  0.25000000       0.010
   0.23684211  0.23684211  0.23684211       0.010
   0.22368421  0.22368421  0.22368421       0.010
   0.21052632  0.21052632  0.21052632       0.010
   0.19736842  0.19736842  0.19736842       0.010
   0.18421053  0.18421053  0.18421053       0.010
   0.17105263  0.17105263  0.17105263       0.010
   0.15789474  0.15789474  0.15789474       0.010
   0.14473684  0.14473684  0.14473684       0.010
   0.13157895  0.13157895  0.13157895       0.010
   0.11842105  0.11842105  0.11842105       0.010
   0.10526316  0.10526316  0.10526316       0.010
   0.09210526  0.09210526  0.09210526       0.010
   0.07894737  0.07894737  0.07894737       0.010
   0.06578947  0.06578947  0.06578947       0.010
   0.05263158  0.05263158  0.05263158       0.010
   0.03947368  0.03947368  0.03947368       0.010
   0.02631579  0.02631579  0.02631579       0.010
   0.01315789  0.01315789  0.01315789       0.010
   0.00000000  0.00000000  0.00000000       0.010
   0.00000000  0.00000000  0.00000000       0.010
   0.00000000  0.02631579  0.00000000       0.010
   0.00000000  0.05263158  0.00000000       0.010
   0.00000000  0.07894737  0.00000000       0.010
   0.00000000  0.10526316  0.00000000       0.010
   0.00000000  0.13157895  0.00000000       0.010
   0.00000000  0.15789474  0.00000000       0.010
   0.00000000  0.18421053  0.00000000       0.010
   0.00000000  0.21052632  0.00000000       0.010
   0.00000000  0.23684211  0.00000000       0.010
   0.00000000  0.26315789  0.00000000       0.010
   0.00000000  0.28947368  0.00000000       0.010
   0.00000000  0.31578947  0.00000000       0.010
   0.00000000  0.34210526  0.00000000       0.010
   0.00000000  0.36842105  0.00000000       0.010
   0.00000000  0.39473684  0.00000000       0.010
   0.00000000  0.42105263  0.00000000       0.010
   0.00000000  0.44736842  0.00000000       0.010
   0.00000000  0.47368421  0.00000000       0.010
   0.00000000  0.50000000  0.00000000       0.010
 
 position of ions in fractional coordinates (direct lattice) 
   0.00000000  0.00000000  0.00000000
 
 position of ions in cartesian coordinates  (Angst):
   0.00000000  0.00000000  0.00000000
 


--------------------------------------------------------------------------------------------------------


 k-point  1 :   0.0000 0.0000 0.0000  plane waves:     283
 k-point  2 :  -0.0263 0.0263 0.0263  plane waves:     283
 k-point  3 :  -0.0526 0.0526 0.0526  plane waves:     282
 k-point  4 :  -0.0789 0.0789 0.0789  plane waves:     287
 k-point  5 :  -0.1053 0.1053 0.1053  plane waves:     289
 k-point  6 :  -0.1316 0.1316 0.1316  plane waves:     291
 k-point  7 :  -0.1579 0.1579 0.1579  plane waves:     288
 k-point  8 :  -0.1842 0.1842 0.1842  plane waves:     282
 k-point  9 :  -0.2105 0.2105 0.2105  plane waves:     280
 k-point 10 :  -0.2368 0.2368 0.2368  plane waves:     277
 k-point 11 :  -0.2632 0.2632 0.2632  plane waves:     277
 k-point 12 :  -0.2895 0.2895 0.2895  plane waves:     278
 k-point 13 :  -0.3158 0.3158 0.3158  plane waves:     278
 k-point 14 :  -0.3421 0.3421 0.3421  plane waves:     284
 k-point 15 :  -0.3684 0.3684 0.3684  plane waves:     274
 k-point 16 :  -0.3947 0.3947 0.3947  plane waves:     275
 k-point 17 :  -0.4211 0.4211 0.4211  plane waves:     276
 k-point 18 :  -0.4474 0.4474 0.4474  plane waves:     274
 k-point 19 :  -0.4737 0.4737 0.4737  plane waves:     272
 k-point 20 :  -0.5000 0.5000 0.5000  plane waves:     272
 k-point 21 :  -0.5000 0.5000 0.5000  plane waves:     272
 k-point 22 :  -0.4737 0.5000 0.4737  plane waves:     272
 k-point 23 :  -0.4474 0.5000 0.4474  plane waves:     272
 k-point 24 :  -0.4211 0.5000 0.4211  plane waves:     278
 k-point 25 :  -0.3947 0.5000 0.3947  plane waves:     276
 k-point 26 :  -0.3684 0.5000 0.3684  plane waves:     278
 k-point 27 :  -0.3421 0.5000 0.3421  plane waves:     274
 k-point 28 :  -0.3158 0.5000 0.3158  plane waves:     274
 k-point 29 :  -0.2895 0.5000 0.2895  plane waves:     272
 k-point 30 :  -0.2632 0.5000 0.2632  plane waves:     276
 k-point 31 :  -0.2368 0.5000 0.2368  plane waves:     276
 k-point 32 :  -0.2105 0.5000 0.2105  plane waves:     272
 k-point 33 :  -0.1842 0.5000 0.1842  plane waves:     274
 k-point 34 :  -0.1579 0.5000 0.1579  plane waves:     274
 k-point 35 :  -0.1316 0.5000 0.1316  plane waves:     278
 k-point 36 :  -0.1053 0.5000 0.1053  plane waves:     276
 k-point 37 :  -0.0789 0.5000 0.0789  plane waves:     278
 k-point 38 :  -0.0526 0.5000 0.0526  plane waves:     272
 k-point 39 :  -0.0263 0.5000 0.0263  plane waves:     272
 k-point 40 :   0.0000 0.5000 0.0000  plane waves:     272
 k-point 41 :   0.0000 0.5000 0.0000  plane waves:     272
 k-point 42 :   0.0132 0.4868 0.0132  plane waves:     272
 k-point 43 :   0.0263 0.4737 0.0263  plane waves:     270
 k-point 44 :   0.0395 0.4605 0.0395  plane waves:     272
 k-point 45 :   0.0526 0.4474 0.0526  plane waves:     276
 k-point 46 :   0.0658 0.4342 0.0658  plane waves:     277
 k-point 47 :   0.0789 0.4211 0.0789  plane waves:     277
 k-point 48 :   0.0921 0.4079 0.0921  plane waves:     279
 k-point 49 :   0.1053 0.3947 0.1053  plane waves:     283
 k-point 50 :   0.1184 0.3816 0.1184  plane waves:     283
 k-point 51 :   0.1316 0.3684 0.1316  plane waves:     284
 k-point 52 :   0.1447 0.3553 0.1447  plane waves:     284
 k-point 53 :   0.1579 0.3421 0.1579  plane waves:     284
 k-point 54 :   0.1711 0.3289 0.1711  plane waves:     281
 k-point 55 :   0.1842 0.3158 0.1842  plane waves:     283
 k-point 56 :   0.1974 0.3026 0.1974  plane waves:     286
 k-point 57 :   0.2105 0.2895 0.2105  plane waves:     288
 k-point 58 :   0.2237 0.2763 0.2237  plane waves:     287
 k-point 59 :   0.2368 0.2632 0.2368  plane waves:     287
 k-point 60 :   0.2500 0.2500 0.2500  plane waves:     289
 k-point 61 :   0.2500 0.2500 0.2500  plane waves:     289
 k-point 62 :   0.2368 0.2368 0.2368  plane waves:     289
 k-point 63 :   0.2237 0.2237 0.2237  plane waves:     283
 k-point 64 :   0.2105 0.2105 0.2105  plane waves:     283
 k-point 65 :   0.1974 0.1974 0.1974  plane waves:     283
 k-point 66 :   0.1842 0.1842 0.1842  plane waves:     283
 k-point 67 :   0.1711 0.1711 0.1711  plane waves:     283
 k-point 68 :   0.1579 0.1579 0.1579  plane waves:     283
 k-point 69 :   0.1447 0.1447 0.1447  plane waves:     283
 k-point 70 :   0.1316 0.1316 0.1316  plane waves:     280
 k-point 71 :   0.1184 0.1184 0.1184  plane waves:     280
 k-point 72 :   0.1053 0.1053 0.1053  plane waves:     280
 k-point 73 :   0.0921 0.0921 0.0921  plane waves:     280
 k-point 74 :   0.0789 0.0789 0.0789  plane waves:     286
 k-point 75 :   0.0658 0.0658 0.0658  plane waves:     283
 k-point 76 :   0.0526 0.0526 0.0526  plane waves:     283
 k-point 77 :   0.0395 0.0395 0.0395  plane waves:     283
 k-point 78 :   0.0263 0.0263 0.0263  plane waves:     283
 k-point 79 :   0.0132 0.0132 0.0132  plane waves:     283
 k-point 80 :   0.0000 0.0000 0.0000  plane waves:     283
 k-point 81 :   0.0000 0.0000 0.0000  plane waves:     283
 k-point 82 :   0.0000 0.0263 0.0000  plane waves:     283
 k-point 83 :   0.0000 0.0526 0.0000  plane waves:     283
 k-point 84 :   0.0000 0.0789 0.0000  plane waves:     286
 k-point 85 :   0.0000 0.1053 0.0000  plane waves:     280
 k-point 86 :   0.0000 0.1316 0.0000  plane waves:     280
 k-point 87 :   0.0000 0.1579 0.0000  plane waves:     283
 k-point 88 :   0.0000 0.1842 0.0000  plane waves:     283
 k-point 89 :   0.0000 0.2105 0.0000  plane waves:     283
 k-point 90 :   0.0000 0.2368 0.0000  plane waves:     289
 k-point 91 :   0.0000 0.2632 0.0000  plane waves:     286
 k-point 92 :   0.0000 0.2895 0.0000  plane waves:     287
 k-point 93 :   0.0000 0.3158 0.0000  plane waves:     287
 k-point 94 :   0.0000 0.3421 0.0000  plane waves:     281
 k-point 95 :   0.0000 0.3684 0.0000  plane waves:     281
 k-point 96 :   0.0000 0.3947 0.0000  plane waves:     281
 k-point 97 :   0.0000 0.4211 0.0000  plane waves:     269
 k-point 98 :   0.0000 0.4474 0.0000  plane waves:     269
 k-point 99 :   0.0000 0.4737 0.0000  plane waves:     272
 k-point ** :   0.0000 0.5000 0.0000  plane waves:     272

 maximum and minimum number of plane-waves per node :       291      269

 maximum number of plane-waves:       291
 maximum index in each direction: 
   IXMAX=    5   IYMAX=    4   IZMAX=    4
   IXMIN=   -4   IYMIN=   -5   IZMIN=   -5


 serial   3D FFT for wavefunctions
 parallel 3D FFT for charge:
    minimum data exchange during FFTs selected (reduces bandwidth)


 total amount of memory used by VASP MPI-rank0    48587. kBytes
=======================================================================

   base      :      30000. kBytes
   nonl-proj :       4195. kBytes
   fftplans  :       1488. kBytes
   grid      :       2985. kBytes
   one-center:         31. kBytes
   wavefun   :       9888. kBytes
 
     INWAV:  cpu time    0.0001: real time    0.0002
 initial charge density was supplied:
 number of electron      10.0000001 magnetization       0.6075823
 keeping initial charge density in first step


--------------------------------------------------------------------------------------------------------


 Maximum index for augmentation-charges         7803 (set IRDMAX)


--------------------------------------------------------------------------------------------------------


 First call to EWALD:  gamma=   0.797
 Maximum number of real-space cells 3x 3x 3
 Maximum number of reciprocal cells 3x 3x 3

    FEWALD:  cpu time    0.0013: real time    0.0013


--------------------------------------- Iteration      1(   1)  ---------------------------------------


    POTLOK:  cpu time    0.1051: real time    0.1096
    SETDIJ:  cpu time    0.0082: real time    0.0082
     EDDAV:  cpu time    0.4116: real time    0.4177
       DOS:  cpu time    0.0063: real time    0.0072
    --------------------------------------------
      LOOP:  cpu time    0.5313: real time    0.5427

 eigenvalue-minimisations  :  4146
 total energy-change (2. order) : 0.2206336E+02  (-0.5352744E+03)
 number of electron      10.0000001 magnetization       0.6075823
 augmentation part       10.0000001 magnetization       0.6075823

 Free energy of the ion-electron system (eV)
  ---------------------------------------------------
  alpha Z        PSCENC =        91.31243802
  Ewald energy   TEWEN  =      -935.27465713
  -Hartree energ DENC   =      -226.57645985
  -exchange      EXHF   =         0.00000000
  -V(xc)+E(xc)   XCENC  =        30.48807410
  PAW double counting   =       914.66243539     -983.50154281
  entropy T*S    EENTRO =        -0.00203016
  eigenvalues    EBANDS =        51.48890424
  atomic energy  EATOM  =      1079.46620042
  Solvation  Ediel_sol  =         0.00000000
  ---------------------------------------------------
  free energy    TOTEN  =        22.06336220 eV

  energy without entropy =       22.06539236  energy(sigma->0) =       22.06403892


--------------------------------------------------------------------------------------------------------




--------------------------------------- Iteration      1(   2)  ---------------------------------------


     EDDAV:  cpu time    0.3950: real time    0.3961
       DOS:  cpu time    0.0076: real time    0.0076
    --------------------------------------------
      LOOP:  cpu time    0.4026: real time    0.4036

 eigenvalue-minimisations  :  4018
 total energy-change (2. order) :-0.2987621E+02  (-0.2856425E+02)
 number of electron      10.0000001 magnetization       0.6075823
 augmentation part       10.0000001 magnetization       0.6075823

 Free energy of the ion-electron system (eV)
  ---------------------------------------------------
  alpha Z        PSCENC =        91.31243802
  Ewald energy   TEWEN  =      -935.27465713
  -Hartree energ DENC   =      -226.57645985
  -exchange      EXHF   =         0.00000000
  -V(xc)+E(xc)   XCENC  =        30.48807410
  PAW double counting   =       914.66243539     -983.50154281
  entropy T*S    EENTRO =        -0.00791470
  eigenvalues    EBANDS =        21.61857824
  atomic energy  EATOM  =      1079.46620042
  Solvation  Ediel_sol  =         0.00000000
  ---------------------------------------------------
  free energy    TOTEN  =        -7.81284835 eV

  energy without entropy =       -7.80493364  energy(sigma->0) =       -7.81021011


--------------------------------------------------------------------------------------------------------




--------------------------------------- Iteration      1(   3)  ---------------------------------------


     EDDAV:  cpu time    0.4881: real time    0.4892
       DOS:  cpu time    0.0078: real time    0.0078
    --------------------------------------------
      LOOP:  cpu time    0.4958: real time    0.4970

 eigenvalue-minimisations  :  5208
 total energy-change (2. order) :-0.5794948E+00  (-0.5684602E+00)
 number of electron      10.0000001 magnetization       0.6075823
 augmentation part       10.0000001 magnetization       0.6075823

 Free energy of the ion-electron system (eV)
  ---------------------------------------------------
  alpha Z        PSCENC =        91.31243802
  Ewald energy   TEWEN  =      -935.27465713
  -Hartree energ DENC   =      -226.57645985
  -exchange      EXHF   =         0.00000000
  -V(xc)+E(xc)   XCENC  =        30.48807410
  PAW double counting   =       914.66243539     -983.50154281
  entropy T*S    EENTRO =        -0.01264126
  eigenvalues    EBANDS =        21.04380996
  atomic energy  EATOM  =      1079.46620042
  Solvation  Ediel_sol  =         0.00000000
  ---------------------------------------------------
  free energy    TOTEN  =        -8.39234317 eV

  energy without entropy =       -8.37970192  energy(sigma->0) =       -8.38812942


--------------------------------------------------------------------------------------------------------




--------------------------------------- Iteration      1(   4)  ---------------------------------------


     EDDAV:  cpu time    0.4286: real time    0.4297
       DOS:  cpu time    0.0078: real time    0.0078
    --------------------------------------------
      LOOP:  cpu time    0.4364: real time    0.4375

 eigenvalue-minimisations  :  4440
 total energy-change (2. order) :-0.1084836E-02  (-0.1084660E-02)
 number of electron      10.0000001 magnetization       0.6075823
 augmentation part       10.0000001 magnetization       0.6075823

 Free energy of the ion-electron system (eV)
  ---------------------------------------------------
  alpha Z        PSCENC =        91.31243802
  Ewald energy   TEWEN  =      -935.27465713
  -Hartree energ DENC   =      -226.57645985
  -exchange      EXHF   =         0.00000000
  -V(xc)+E(xc)   XCENC  =        30.48807410
  PAW double counting   =       914.66243539     -983.50154281
  entropy T*S    EENTRO =        -0.01263595
  eigenvalues    EBANDS =        21.04271982
  atomic energy  EATOM  =      1079.46620042
  Solvation  Ediel_sol  =         0.00000000
  ---------------------------------------------------
  free energy    TOTEN  =        -8.39342801 eV

  energy without entropy =       -8.38079206  energy(sigma->0) =       -8.38921603


--------------------------------------------------------------------------------------------------------




--------------------------------------- Iteration      1(   5)  ---------------------------------------


     EDDAV:  cpu time    0.4059: real time    0.4069
       DOS:  cpu time    0.0077: real time    0.0077
    --------------------------------------------
      LOOP:  cpu time    0.4136: real time    0.4146

 eigenvalue-minimisations  :  4442
 total energy-change (2. order) :-0.1901695E-05  (-0.1901114E-05)
 number of electron      10.0000001 magnetization       0.6075823
 augmentation part       10.0000001 magnetization       0.6075823

 Free energy of the ion-electron system (eV)
  ---------------------------------------------------
  alpha Z        PSCENC =        91.31243802
  Ewald energy   TEWEN  =      -935.27465713
  -Hartree energ DENC   =      -226.57645985
  -exchange      EXHF   =         0.00000000
  -V(xc)+E(xc)   XCENC  =        30.48807410
  PAW double counting   =       914.66243539     -983.50154281
  entropy T*S    EENTRO =        -0.01263595
  eigenvalues    EBANDS =        21.04271792
  atomic energy  EATOM  =      1079.46620042
  Solvation  Ediel_sol  =         0.00000000
  ---------------------------------------------------
  free energy    TOTEN  =        -8.39342991 eV

  energy without entropy =       -8.38079396  energy(sigma->0) =       -8.38921793


--------------------------------------------------------------------------------------------------------




--------------------------------------- Iteration      1(   6)  ---------------------------------------


     EDDAV:  cpu time    0.4464: real time    0.4474
       DOS:  cpu time    0.0079: real time    0.0080
    --------------------------------------------
      LOOP:  cpu time    0.4543: real time    0.4554

 eigenvalue-minimisations  :  4306
 total energy-change (2. order) :-0.6036998E-08  (-0.6079062E-08)
 number of electron      10.0000001 magnetization       0.6075823
 augmentation part       10.0000001 magnetization       0.6075823

 Free energy of the ion-electron system (eV)
  ---------------------------------------------------
  alpha Z        PSCENC =        91.31243802
  Ewald energy   TEWEN  =      -935.27465713
  -Hartree energ DENC   =      -226.57645985
  -exchange      EXHF   =         0.00000000
  -V(xc)+E(xc)   XCENC  =        30.48807410
  PAW double counting   =       914.66243539     -983.50154281
  entropy T*S    EENTRO =        -0.01263595
  eigenvalues    EBANDS =        21.04271792
  atomic energy  EATOM  =      1079.46620042
  Solvation  Ediel_sol  =         0.00000000
  ---------------------------------------------------
  free energy    TOTEN  =        -8.39342992 eV

  energy without entropy =       -8.38079396  energy(sigma->0) =       -8.38921793


--------------------------------------------------------------------------------------------------------




 average (electrostatic) potential at core
  the test charge radii are     0.9791
  (the norm of the test charge is              1.0000)
       1 -42.7011
 
 
 
 E-fermi :   4.1055     XC(G=0): -13.2179     alpha+bet :-11.7651


 spin component 1

 k-point     1 :       0.0000    0.0000    0.0000
  band No.  band energies     occupation 
      1      -4.2240      1.00000
      2       2.3310      1.00000
      3       2.3311      1.00000
      4       2.3311      1.00000
      5       3.3800      1.00000
      6       3.3800      1.00000
      7      28.7531      0.00000
      8      32.3183      0.00000
      9      32.3183      0.00000
     10      32.3183      0.00000

 k-point     2 :      -0.0263    0.0263    0.0263
  band No.  band energies     occupation 
      1      -4.1253      1.00000
      2       2.3002      1.00000
      3       2.3556      1.00000
      4       2.3570      1.00000
      5       3.3541      1.00000
      6       3.3868      1.00000
      7      28.4477      0.00000
      8      31.0656      0.00000
      9      31.5279      0.00000
     10      32.1954      0.00000

 k-point     3 :      -0.0526    0.0526    0.0526
  band No.  band energies     occupation 
      1      -3.8322      1.00000
      2       2.2118      1.00000
      3       2.4264      1.00000
      4       2.4299      1.00000
      5       3.2821      1.00000
      6       3.4101      1.00001
      7      27.2807      0.00000
      8      29.5479      0.00000
      9      30.1429      0.00000
     10      32.0019      0.00000

 k-point     4 :      -0.0789    0.0789    0.0789
  band No.  band energies     occupation 
      1      -3.3552      1.00000
      2       2.0779      1.00000
      3       2.5303      1.00000
      4       2.5358      1.00000
      5       3.1867      1.00000
      6       3.4578      1.00002
      7      25.3162      0.00000
      8      28.5912      0.00000
      9      28.7164      0.00000
     10      31.8115      0.00000

 k-point     5 :      -0.1053    0.1053    0.1053
  band No.  band energies     occupation 
      1      -2.7147      1.00000
      2       1.9167      1.00000
      3       2.6133      1.00000
      4       2.6536      1.00000
      5       3.1401      1.00000
      6       3.5411      1.00024
      7      23.1575      0.00000
      8      27.3577      0.00000
      9      27.7989      0.00000
     10      31.2318      0.00000

 k-point     6 :      -0.1316    0.1316    0.1316
  band No.  band energies     occupation 
      1      -1.9479      1.00000
      2       1.7500      1.00000
      3       2.5708      1.00000
      4       2.7628      1.00000
      5       3.2791      1.00000
      6       3.6651      1.00395
      7      21.0370      0.00000
      8      26.1122      0.00000
      9      26.9726      0.00000
     10      29.7849      0.00000

 k-point     7 :      -0.1579    0.1579    0.1579
  band No.  band energies     occupation 
      1      -1.1222      1.00000
      2       1.6004      1.00000
      3       2.4414      1.00000
      4       2.8553      1.00000
      5       3.6248      1.00176
      6       3.8181      1.03035
      7      19.0193      0.00000
      8      25.0144      0.00000
      9      25.8345      0.00000
     10      28.2167      0.00000

 k-point     8 :      -0.1842    0.1842    0.1842
  band No.  band energies     occupation 
      1      -0.3523      1.00000
      2       1.4846      1.00000
      3       2.3260      1.00000
      4       2.9359      1.00000
      5       3.9713      0.94924
      6       4.1833      0.19688
      7      17.1314      0.00000
      8      24.0975      0.00000
      9      24.1125      0.00000
     10      27.2752      0.00000

 k-point     9 :      -0.2105    0.2105    0.2105
  band No.  band energies     occupation 
      1       0.2219      1.00000
      2       1.4007      1.00000
      3       2.2909      1.00000
      4       3.0134      1.00000
      5       4.0905      0.56325
      6       5.0301     -0.00000
      7      15.3927      0.00000
      8      22.1195      0.00000
      9      23.3927      0.00000
     10      26.7988      0.00000

 k-point    10 :      -0.2368    0.2368    0.2368
  band No.  band energies     occupation 
      1       0.5553      1.00000
      2       1.3269      1.00000
      3       2.3396      1.00000
      4       3.0939      1.00000
      5       4.1470      0.32833
      6       6.2157     -0.00000
      7      13.8237      0.00000
      8      20.1438      0.00000
      9      22.9264      0.00000
     10      26.5528      0.00000

 k-point    11 :      -0.2632    0.2632    0.2632
  band No.  band energies     occupation 
      1       0.7436      1.00000
      2       1.2609      1.00000
      3       2.3897      1.00000
      4       3.1775      1.00000
      5       4.1258      0.41447
      6       7.6918     -0.00000
      7      12.4533      0.00000
      8      18.2971      0.00000
      9      22.7152      0.00000
     10      26.4551      0.00000

 k-point    12 :      -0.2895    0.2895    0.2895
  band No.  band energies     occupation 
      1       0.8844      1.00000
      2       1.2259      1.00000
      3       2.3671      1.00000
      4       3.2559      1.00000
      5       4.0320      0.78873
      6       9.2826     -0.00000
      7      11.3688      0.00000
      8      16.6587      0.00000
      9      22.7627      0.00000
     10      26.4703      0.00000

 k-point    13 :      -0.3158    0.3158    0.3158
  band No.  band energies     occupation 
      1       1.0122      1.00000
      2       1.2394      1.00000
      3       2.2602      1.00000
      4       3.3010      1.00000
      5       3.9031      1.02632
      6       9.8499      0.00000
      7      11.4933      0.00000
      8      15.4143      0.00000
      9      23.0592      0.00000
     10      26.5755      0.00000

 k-point    14 :      -0.3421    0.3421    0.3421
  band No.  band energies     occupation 
      1       1.0931      1.00000
      2       1.3085      1.00000
      3       2.1322      1.00000
      4       3.2474      1.00000
      5       3.8231      1.03133
      6       9.1463     -0.00000
      7      12.2334      0.00000
      8      15.3647      0.00000
      9      23.5849      0.00000
     10      26.7514      0.00000

 k-point    15 :      -0.3684    0.3684    0.3684
  band No.  band energies     occupation 
      1       1.0046      1.00000
      2       1.4611      1.00000
      3       2.1194      1.00000
      4       3.0686      1.00000
      5       3.8416      1.03425
      6       8.3767     -0.00000
      7      11.8014      0.00000
      8      17.0362      0.00000
      9      24.3149      0.00000
     10      26.9804      0.00000

 k-point    16 :      -0.3947    0.3947    0.3947
  band No.  band energies     occupation 
      1       0.7461      1.00000
      2       1.6810      1.00000
      3       2.2834      1.00000
      4       2.8383      1.00000
      5       3.9083      1.02362
      6       7.5781     -0.00000
      7      11.1917      0.00000
      8      19.3248      0.00000
      9      25.2226      0.00000
     10      27.2455      0.00000

 k-point    17 :      -0.4211    0.4211    0.4211
  band No.  band energies     occupation 
      1       0.4408      1.00000
      2       1.9183      1.00000
      3       2.5878      1.00000
      4       2.6180      1.00000
      5       3.9811      0.92955
      6       6.7357     -0.00000
      7      10.7519      0.00000
      8      21.8115      0.00000
      9      26.2801      0.00000
     10      27.5329      0.00000

 k-point    18 :      -0.4474    0.4474    0.4474
  band No.  band energies     occupation 
      1       0.1769      1.00000
      2       2.1182      1.00000
      3       2.4415      1.00000
      4       3.0218      1.00000
      5       4.0418      0.75478
      6       5.8796     -0.00000
      7      10.4892      0.00000
      8      24.3300      0.00000
      9      27.4477      0.00000
     10      27.8508      0.00000

 k-point    19 :      -0.4737    0.4737    0.4737
  band No.  band energies     occupation 
      1       0.0025      1.00000
      2       2.2461      1.00000
      3       2.3285      1.00000
      4       3.5756      1.00058
      5       4.0814      0.60123
      6       5.0595     -0.00000
      7      10.3560      0.00000
      8      26.4692      0.00000
      9      28.3998      0.00000
     10      28.6191      0.00000

 k-point    20 :      -0.5000    0.5000    0.5000
  band No.  band energies     occupation 
      1      -0.0581      1.00000
      2       2.2896      1.00000
      3       2.2896      1.00000
      4       4.0950      0.54421
      5       4.0950      0.54421
      6       4.4495     -0.01769
      7      10.3158      0.00000
      8      27.1798      0.00000
      9      29.2844      0.00000
     10      29.2844      0.00000

 k-point    21 :      -0.5000    0.5000    0.5000
  band No.  band energies     occupation 
      1      -0.0581      1.00000
      2       2.2896      1.00000
      3       2.2896      1.00000
      4       4.0950      0.54421
      5       4.0950      0.54421
      6       4.4495     -0.01769
      7      10.3158      0.00000
      8      27.1798      0.00000
      9      29.2844      0.00000
     10      29.2844      0.00000

 k-point    22 :      -0.4737    0.5000    0.4737
  band No.  band energies     occupation 
      1      -0.0117      1.00000
      2       2.2558      1.00000
      3       2.3192      1.00000
      4       3.6571      1.00339
      5       4.0905      0.56324
      6       4.9624     -0.00000
      7      10.3298      0.00000
      8      26.6954      0.00000
      9      28.3559      0.00000
     10      28.8929      0.00000

 k-point    23 :      -0.4474    0.5000    0.4474
  band No.  band energies     occupation 
      1       0.1229      1.00000
      2       2.1544      1.00000
      3       2.4067      1.00000
      4       3.1615      1.00000
      5       4.0774      0.61771
      6       5.6860     -0.00000
      7      10.3743      0.00000
      8      25.3092      0.00000
      9      26.6137      0.00000
     10      28.8561      0.00000

 k-point    24 :      -0.4211    0.5000    0.4211
  band No.  band energies     occupation 
      1       0.3317      1.00000
      2       1.9869      1.00000
      3       2.5485      1.00000
      4       2.7510      1.00000
      5       4.0574      0.69721
      6       6.4843     -0.00000
      7      10.4571      0.00000
      8      23.6147      0.00000
      9      24.7185      0.00000
     10      29.2406      0.00000

 k-point    25 :      -0.3947    0.5000    0.3947
  band No.  band energies     occupation 
      1       0.5927      1.00000
      2       1.7662      1.00000
      3       2.4331      1.00000
      4       2.7350      1.00000
      5       4.0351      0.77847
      6       7.3491     -0.00000
      7      10.5911      0.00000
      8      21.9006      0.00000
      9      22.8346      0.00000
     10      29.8645      0.00000

 k-point    26 :      -0.3684    0.5000    0.3684
  band No.  band energies     occupation 
      1       0.8778      1.00000
      2       1.5268      1.00000
      3       2.1909      1.00000
      4       2.9447      1.00000
      5       4.0211      0.82438
      6       8.2768     -0.00000
      7      10.7947      0.00000
      8      20.2409      0.00000
      9      21.0300      0.00000
     10      30.6708      0.00000

 k-point    27 :      -0.3421    0.5000    0.3421
  band No.  band energies     occupation 
      1       1.1573      1.00000
      2       1.3071      1.00000
      3       2.0022      1.00000
      4       3.1376      1.00000
      5       4.0359      0.77563
      6       9.2628     -0.00000
      7      11.0877      0.00000
      8      18.6612      0.00000
      9      19.3511      0.00000
     10      31.6303      0.00000

 k-point    28 :      -0.3158    0.5000    0.3158
  band No.  band energies     occupation 
      1       1.1313      1.00000
      2       1.4025      1.00000
      3       1.8578      1.00000
      4       3.2644      1.00000
      5       4.1005      0.52103
      6      10.2964      0.00000
      7      11.4811      0.00000
      8      17.1795      0.00000
      9      17.8480      0.00000
     10      32.7180      0.00000

 k-point    29 :      -0.2895    0.5000    0.2895
  band No.  band energies     occupation 
      1       1.0104      1.00000
      2       1.5872      1.00000
      3       1.7583      1.00000
      4       3.3134      1.00000
      5       4.1965      0.15557
      6      11.3423      0.00000
      7      11.9460      0.00000
      8      15.8342      0.00000
      9      16.6062      0.00000
     10      33.8968      0.00000

 k-point    30 :      -0.2632    0.5000    0.2632
  band No.  band energies     occupation 
      1       0.9491      1.00000
      2       1.6877      1.00000
      3       1.7072      1.00000
      4       3.3212      1.00000
      5       4.2656      0.00982
      6      12.2276      0.00000
      7      12.3320      0.00000
      8      14.7988      0.00000
      9      15.8198      0.00000
     10      35.1505      0.00000

 k-point    31 :      -0.2368    0.5000    0.2368
  band No.  band energies     occupation 
      1       0.9491      1.00000
      2       1.6877      1.00000
      3       1.7072      1.00000
      4       3.3212      1.00000
      5       4.2656      0.00982
      6      12.2276      0.00000
      7      12.3320      0.00000
      8      14.7988      0.00000
      9      15.8198      0.00000
     10      35.0120      0.00000

 k-point    32 :      -0.2105    0.5000    0.2105
  band No.  band energies     occupation 
      1       1.0104      1.00000
      2       1.5872      1.00000
      3       1.7583      1.00000
      4       3.3134      1.00000
      5       4.1965      0.15558
      6      11.3422      0.00000
      7      11.9461      0.00000
      8      15.8342      0.00000
      9      16.6062      0.00000
     10      33.9006      0.00000

 k-point    33 :      -0.1842    0.5000    0.1842
  band No.  band energies     occupation 
      1       1.1313      1.00000
      2       1.4025      1.00000
      3       1.8578      1.00000
      4       3.2644      1.00000
      5       4.1005      0.52104
      6      10.2964      0.00000
      7      11.4812      0.00000
      8      17.1796      0.00000
      9      17.8480      0.00000
     10      32.7180      0.00000

 k-point    34 :      -0.1579    0.5000    0.1579
  band No.  band energies     occupation 
      1       1.1573      1.00000
      2       1.3071      1.00000
      3       2.0022      1.00000
      4       3.1376      1.00000
      5       4.0359      0.77563
      6       9.2628     -0.00000
      7      11.0877      0.00000
      8      18.6612      0.00000
      9      19.3510      0.00000
     10      31.6302      0.00000

 k-point    35 :      -0.1316    0.5000    0.1316
  band No.  band energies     occupation 
      1       0.8778      1.00000
      2       1.5268      1.00000
      3       2.1909      1.00000
      4       2.9447      1.00000
      5       4.0211      0.82438
      6       8.2768     -0.00000
      7      10.7947      0.00000
      8      20.2409      0.00000
      9      21.0300      0.00000
     10      30.6707      0.00000

 k-point    36 :      -0.1053    0.5000    0.1053
  band No.  band energies     occupation 
      1       0.5927      1.00000
      2       1.7662      1.00000
      3       2.4331      1.00000
      4       2.7350      1.00000
      5       4.0351      0.77847
      6       7.3491     -0.00000
      7      10.5912      0.00000
      8      21.9006      0.00000
      9      22.8346      0.00000
     10      29.8645      0.00000

 k-point    37 :      -0.0789    0.5000    0.0789
  band No.  band energies     occupation 
      1       0.3317      1.00000
      2       1.9869      1.00000
      3       2.5485      1.00000
      4       2.7510      1.00000
      5       4.0574      0.69720
      6       6.4843     -0.00000
      7      10.4571      0.00000
      8      23.6148      0.00000
      9      24.7185      0.00000
     10      29.2405      0.00000

 k-point    38 :      -0.0526    0.5000    0.0526
  band No.  band energies     occupation 
      1       0.1229      1.00000
      2       2.1544      1.00000
      3       2.4067      1.00000
      4       3.1615      1.00000
      5       4.0774      0.61770
      6       5.6859     -0.00000
      7      10.3744      0.00000
      8      25.3092      0.00000
      9      26.6137      0.00000
     10      28.8560      0.00000

 k-point    39 :      -0.0263    0.5000    0.0263
  band No.  band energies     occupation 
      1      -0.0117      1.00000
      2       2.2558      1.00000
      3       2.3192      1.00000
      4       3.6571      1.00339
      5       4.0905      0.56323
      6       4.9624     -0.00000
      7      10.3299      0.00000
      8      26.6954      0.00000
      9      28.3558      0.00000
     10      28.8929      0.00000

 k-point    40 :       0.0000    0.5000    0.0000
  band No.  band energies     occupation 
      1      -0.0581      1.00000
      2       2.2896      1.00000
      3       2.2896      1.00000
      4       4.0950      0.54421
      5       4.0950      0.54417
      6       4.4494     -0.01769
      7      10.3159      0.00000
      8      27.1798      0.00000
      9      29.2844      0.00000
     10      29.2844      0.00000

 k-point    41 :       0.0000    0.5000    0.0000
  band No.  band energies     occupation 
      1      -0.0581      1.00000
      2       2.2896      1.00000
      3       2.2896      1.00000
      4       4.0950      0.54421
      5       4.0950      0.54417
      6       4.4494     -0.01769
      7      10.3159      0.00000
      8      27.1798      0.00000
      9      29.2844      0.00000
     10      29.2844      0.00000

 k-point    42 :       0.0132    0.4868    0.0132
  band No.  band energies     occupation 
      1      -0.0616      1.00000
      2       2.2903      1.00000
      3       2.2945      1.00000
      4       4.0066      0.86697
      5       4.0836      0.59197
      6       4.4553     -0.01647
      7      10.4449      0.00000
      8      27.1559      0.00000
      9      29.1189      0.00000
     10      29.3131      0.00000

 k-point    43 :       0.0263    0.4737    0.0263
  band No.  band energies     occupation 
      1      -0.0733      1.00000
      2       2.2922      1.00000
      3       2.3091      1.00000
      4       3.7758      1.02085
      5       4.0497      0.72610
      6       4.4589     -0.01573
      7      10.8122      0.00000
      8      27.0505      0.00000
      9      28.7836      0.00000
     10      29.3985      0.00000

 k-point    44 :       0.0395    0.4605    0.0395
  band No.  band energies     occupation 
      1      -0.0965      1.00000
      2       2.2958      1.00000
      3       2.3332      1.00000
      4       3.4594      1.00002
      5       3.9946      0.89856
      6       4.4516     -0.01724
      7      11.3727      0.00000
      8      26.7783      0.00000
      9      28.5357      0.00000
     10      29.5374      0.00000

 k-point    45 :       0.0526    0.4474    0.0526
  band No.  band energies     occupation 
      1      -0.1370      1.00000
      2       2.3013      1.00000
      3       2.3664      1.00000
      4       3.1076      1.00000
      5       3.9201      1.01578
      6       4.4341     -0.02108
      7      12.0801      0.00000
      8      26.3092      0.00000
      9      28.4912      0.00000
     10      29.7249      0.00000

 k-point    46 :       0.0658    0.4342    0.0658
  band No.  band energies     occupation 
      1      -0.2024      1.00000
      2       2.3092      1.00000
      3       2.4083      1.00000
      4       2.7613      1.00000
      5       3.8288      1.03236
      6       4.4082     -0.02705
      7      12.8985      0.00000
      8      25.7202      0.00000
      9      28.6099      0.00000
     10      29.9546      0.00000

 k-point    47 :       0.0789    0.4211    0.0789
  band No.  band energies     occupation 
      1      -0.3012      1.00000
      2       2.3200      1.00000
      3       2.4515      1.00000
      4       2.4583      1.00000
      5       3.7237      1.01061
      6       4.3745     -0.03357
      7      13.8031      0.00000
      8      25.0863      0.00000
      9      28.8334      0.00000
     10      30.2191      0.00000

 k-point    48 :       0.0921    0.4079    0.0921
  band No.  band energies     occupation 
      1      -0.4392      1.00000
      2       2.1985      1.00000
      3       2.3344      1.00000
      4       2.5157      1.00000
      5       3.6081      1.00123
      6       4.3337     -0.03425
      7      14.7768      0.00000
      8      24.4470      0.00000
      9      29.1305      0.00000
     10      30.5110      0.00000

 k-point    49 :       0.1053    0.3947    0.1053
  band No.  band energies     occupation 
      1      -0.6159      1.00000
      2       2.0117      1.00000
      3       2.3520      1.00000
      4       2.5795      1.00000
      5       3.4857      1.00005
      6       4.2859     -0.01177
      7      15.8081      0.00000
      8      23.8216      0.00000
      9      29.4850      0.00000
     10      30.8241      0.00000

 k-point    50 :       0.1184    0.3816    0.1184
  band No.  band energies     occupation 
      1      -0.8224      1.00000
      2       1.8880      1.00000
      3       2.3730      1.00000
      4       2.6487      1.00000
      5       3.3601      1.00000
      6       4.2313      0.06731
      7      16.8880      0.00000
      8      23.2211      0.00000
      9      29.8861      0.00000
     10      31.1543      0.00000

 k-point    51 :       0.1316    0.3684    0.1316
  band No.  band energies     occupation 
      1      -1.0444      1.00000
      2       1.8174      1.00000
      3       2.3969      1.00000
      4       2.7218      1.00000
      5       3.2354      1.00000
      6       4.1701      0.24169
      7      18.0087      0.00000
      8      22.6536      0.00000
      9      30.3228      0.00000
     10      31.4999      0.00000

 k-point    52 :       0.1447    0.3553    0.1447
  band No.  band energies     occupation 
      1      -1.2665      1.00000
      2       1.7873      1.00000
      3       2.4226      1.00000
      4       2.7958      1.00000
      5       3.1169      1.00000
      6       4.1026      0.51235
      7      19.1585      0.00000
      8      22.1298      0.00000
      9      30.7782      0.00000
     10      31.8617      0.00000

 k-point    53 :       0.1579    0.3421    0.1579
  band No.  band energies     occupation 
      1      -1.4756      1.00000
      2       1.7866      1.00000
      3       2.4488      1.00000
      4       2.8585      1.00000
      5       3.0190      1.00000
      6       4.0291      0.79850
      7      20.2936      0.00000
      8      21.6924      0.00000
      9      31.2141      0.00000
     10      32.2423      0.00000

 k-point    54 :       0.1711    0.3289    0.1711
  band No.  band energies     occupation 
      1      -1.6616      1.00000
      2       1.8064      1.00000
      3       2.4736      1.00000
      4       2.8443      1.00000
      5       3.0091      1.00000
      6       3.9505      0.98339
      7      20.8861      0.00000
      8      21.8674      0.00000
      9      31.5246      0.00000
     10      32.6438      0.00000

 k-point    55 :       0.1842    0.3158    0.1842
  band No.  band energies     occupation 
      1      -1.8172      1.00000
      2       1.8402      1.00000
      3       2.4954      1.00000
      4       2.7651      1.00000
      5       3.0768      1.00000
      6       3.8677      1.03525
      7      20.5920      0.00000
      8      22.9963      0.00000
      9      31.5118      0.00000
     10      33.0707      0.00000

 k-point    56 :       0.1974    0.3026    0.1974
  band No.  band energies     occupation 
      1      -1.9372      1.00000
      2       1.8824      1.00000
      3       2.5123      1.00000
      4       2.6868      1.00000
      5       3.1573      1.00000
      6       3.7824      1.02236
      7      20.2261      0.00000
      8      24.2607      0.00000
      9      31.1760      0.00000
     10      33.5286      0.00000

 k-point    57 :       0.2105    0.2895    0.2105
  band No.  band energies     occupation 
      1      -2.0182      1.00000
      2       1.9277      1.00000
      3       2.5233      1.00000
      4       2.6214      1.00000
      5       3.2398      1.00000
      6       3.6969      1.00694
      7      19.8828      0.00000
      8      25.5600      0.00000
      9      30.7049      0.00000
     10      32.9173      0.00000

 k-point    58 :       0.2237    0.2763    0.2237
  band No.  band energies     occupation 
      1      -2.0579      1.00000
      2       1.9702      1.00000
      3       2.5285      1.00000
      4       2.5720      1.00000
      5       3.3217      1.00000
      6       3.6144      1.00141
      7      19.5734      0.00000
      8      26.8679      0.00000
      9      30.2085      0.00000
     10      31.9106      0.00000

 k-point    59 :       0.2368    0.2632    0.2368
  band No.  band energies     occupation 
      1      -2.0550      1.00000
      2       2.0026      1.00000
      3       2.5292      1.00000
      4       2.5404      1.00000
      5       3.4016      1.00000
      6       3.5396      1.00023
      7      19.3004      0.00000
      8      28.1172      0.00000
      9      29.7821      0.00000
     10      30.9308      0.00000

 k-point    60 :       0.2500    0.2500    0.2500
  band No.  band energies     occupation 
      1      -2.0091      1.00000
      2       2.0163      1.00000
      3       2.5276      1.00000
      4       2.5276      1.00000
      5       3.4786      1.00004
      6       3.4786      1.00004
      7      19.0643      0.00000
      8      28.7541      0.00000
      9      29.9803      0.00000
     10      29.9803      0.00000

 k-point    61 :       0.2500    0.2500    0.2500
  band No.  band energies     occupation 
      1      -2.0091      1.00000
      2       2.0163      1.00000
      3       2.5276      1.00000
      4       2.5276      1.00000
      5       3.4786      1.00004
      6       3.4786      1.00004
      7      19.0643      0.00000
      8      28.7541      0.00000
      9      29.9803      0.00000
     10      29.9803      0.00000

 k-point    62 :       0.2368    0.2368    0.2368
  band No.  band energies     occupation 
      1      -2.2096      1.00000
      2       2.0159      1.00000
      3       2.5343      1.00000
      4       2.5343      1.00000
      5       3.4446      1.00002
      6       3.4446      1.00002
      7      19.7216      0.00000
      8      28.8720      0.00000
      9      30.0761      0.00000
     10      30.0761      0.00000

 k-point    63 :       0.2237    0.2237    0.2237
  band No.  band energies     occupation 
      1      -2.4062      1.00000
      2       2.0233      1.00000
      3       2.5373      1.00000
      4       2.5373      1.00000
      5       3.4150      1.00001
      6       3.4150      1.00001
      7      20.3871      0.00000
      8      28.9852      0.00000
      9      30.1790      0.00000
     10      30.1790      0.00000

 k-point    64 :       0.2105    0.2105    0.2105
  band No.  band energies     occupation 
      1      -2.5973      1.00000
      2       2.0368      1.00000
      3       2.5363      1.00000
      4       2.5363      1.00000
      5       3.3903      1.00000
      6       3.3903      1.00000
      7      21.0598      0.00000
      8      29.0927      0.00000
      9      30.2888      0.00000
     10      30.2888      0.00000

 k-point    65 :       0.1974    0.1974    0.1974
  band No.  band energies     occupation 
      1      -2.7815      1.00000
      2       2.0549      1.00000
      3       2.5313      1.00000
      4       2.5313      1.00000
      5       3.3707      1.00000
      6       3.3707      1.00000
      7      21.7388      0.00000
      8      29.1938      0.00000
      9      30.4057      0.00000
     10      30.4057      0.00000

 k-point    66 :       0.1842    0.1842    0.1842
  band No.  band energies     occupation 
      1      -2.9575      1.00000
      2       2.0765      1.00000
      3       2.5223      1.00000
      4       2.5223      1.00000
      5       3.3562      1.00000
      6       3.3562      1.00000
      7      22.4228      0.00000
      8      29.2881      0.00000
      9      30.5294      0.00000
     10      30.5294      0.00000

 k-point    67 :       0.1711    0.1711    0.1711
  band No.  band energies     occupation 
      1      -3.1243      1.00000
      2       2.1005      1.00000
      3       2.5098      1.00000
      4       2.5098      1.00000
      5       3.3464      1.00000
      6       3.3464      1.00000
      7      23.1104      0.00000
      8      29.3761      0.00000
      9      30.6598      0.00000
     10      30.6598      0.00000

 k-point    68 :       0.1579    0.1579    0.1579
  band No.  band energies     occupation 
      1      -3.2812      1.00000
      2       2.1260      1.00000
      3       2.4945      1.00000
      4       2.4945      1.00000
      5       3.3409      1.00000
      6       3.3409      1.00000
      7      23.7992      0.00000
      8      29.4590      0.00000
      9      30.7967      0.00000
     10      30.7967      0.00000

 k-point    69 :       0.1447    0.1447    0.1447
  band No.  band energies     occupation 
      1      -3.4275      1.00000
      2       2.1521      1.00000
      3       2.4769      1.00000
      4       2.4769      1.00000
      5       3.3390      1.00000
      6       3.3390      1.00000
      7      24.4864      0.00000
      8      29.5391      0.00000
      9      30.9395      0.00000
     10      30.9395      0.00000

 k-point    70 :       0.1316    0.1316    0.1316
  band No.  band energies     occupation 
      1      -3.5626      1.00000
      2       2.1782      1.00000
      3       2.4580      1.00000
      4       2.4580      1.00000
      5       3.3401      1.00000
      6       3.3401      1.00000
      7      25.1674      0.00000
      8      29.6205      0.00000
      9      31.0877      0.00000
     10      31.0877      0.00000

 k-point    71 :       0.1184    0.1184    0.1184
  band No.  band energies     occupation 
      1      -3.6861      1.00000
      2       2.2036      1.00000
      3       2.4385      1.00000
      4       2.4385      1.00000
      5       3.3433      1.00000
      6       3.3433      1.00000
      7      25.8350      0.00000
      8      29.7098      0.00000
      9      31.2403      0.00000
     10      31.2403      0.00000

 k-point    72 :       0.1053    0.1053    0.1053
  band No.  band energies     occupation 
      1      -3.7974      1.00000
      2       2.2278      1.00000
      3       2.4192      1.00000
      4       2.4192      1.00000
      5       3.3479      1.00000
      6       3.3479      1.00000
      7      26.4780      0.00000
      8      29.8178      0.00000
      9      31.3963      0.00000
     10      31.3963      0.00000

 k-point    73 :       0.0921    0.0921    0.0921
  band No.  band energies     occupation 
      1      -3.8964      1.00000
      2       2.2503      1.00000
      3       2.4006      1.00000
      4       2.4006      1.00000
      5       3.3534      1.00000
      6       3.3534      1.00000
      7      27.0781      0.00000
      8      29.9617      0.00000
      9      31.5537      0.00000
     10      31.5537      0.00000

 k-point    74 :       0.0789    0.0789    0.0789
  band No.  band energies     occupation 
      1      -3.9827      1.00000
      2       2.2706      1.00000
      3       2.3835      1.00000
      4       2.3835      1.00000
      5       3.3592      1.00000
      6       3.3592      1.00000
      7      27.6082      0.00000
      8      30.1662      0.00000
      9      31.7100      0.00000
     10      31.7100      0.00000

 k-point    75 :       0.0658    0.0658    0.0658
  band No.  band energies     occupation 
      1      -4.0561      1.00000
      2       2.2884      1.00000
      3       2.3682      1.00000
      4       2.3682      1.00000
      5       3.3648      1.00000
      6       3.3648      1.00000
      7      28.0375      0.00000
      8      30.4583      0.00000
      9      31.8617      0.00000
     10      31.8618      0.00000

 k-point    76 :       0.0526    0.0526    0.0526
  band No.  band energies     occupation 
      1      -4.1163      1.00000
      2       2.3034      1.00000
      3       2.3553      1.00000
      4       2.3553      1.00000
      5       3.3699      1.00000
      6       3.3699      1.00000
      7      28.3481      0.00000
      8      30.8473      0.00000
      9      32.0038      0.00000
     10      32.0038      0.00000

 k-point    77 :       0.0395    0.0395    0.0395
  band No.  band energies     occupation 
      1      -4.1634      1.00000
      2       2.3154      1.00000
      3       2.3448      1.00000
      4       2.3448      1.00000
      5       3.3742      1.00000
      6       3.3742      1.00000
      7      28.5503      0.00000
[...]
  band No.  band energies     occupation 
      1      -1.7890      1.00000
      2       2.5653      1.00000
      3       3.1424      1.00000
      4       3.1424      1.00000
      5       4.1702      0.24152
      6       4.1702      0.24151
      7      18.5504      0.00000
      8      28.5217      0.00000
      9      29.9853      0.00000
     10      29.9853      0.00000

 k-point    92 :       0.0000    0.2895    0.0000
  band No.  band energies     occupation 
      1      -1.3648      1.00000
      2       2.5843      1.00000
      3       3.1089      1.00000
      4       3.1089      1.00000
      5       4.2622      0.01423
      6       4.2622      0.01423
      7      17.3011      0.00000
      8      28.2717      0.00000
      9      29.8318      0.00000
     10      29.8318      0.00000

 k-point    93 :       0.0000    0.3158    0.0000
  band No.  band energies     occupation 
      1      -0.9533      1.00000
      2       2.6557      1.00000
      3       3.0697      1.00000
      4       3.0697      1.00000
      5       4.3601     -0.03512
      6       4.3601     -0.03512
      7      16.0994      0.00000
      8      28.0244      0.00000
      9      29.7042      0.00000
     10      29.7042      0.00000

 k-point    94 :       0.0000    0.3421    0.0000
  band No.  band energies     occupation 
      1      -0.5787      1.00000
      2       2.7975      1.00000
      3       3.0287      1.00000
      4       3.0287      1.00000
      5       4.4576     -0.01598
      6       4.4577     -0.01598
      7      14.9545      0.00000
      8      27.7902      0.00000
      9      29.6012      0.00000
     10      29.6012      0.00000

 k-point    95 :       0.0000    0.3684    0.0000
  band No.  band energies     occupation 
      1      -0.2642      1.00000
      2       2.9893      1.00000
      3       2.9893      1.00000
      4       3.0229      1.00000
      5       4.5497     -0.00367
      6       4.5497     -0.00367
      7      13.8791      0.00000
      8      27.5780      0.00000
      9      29.5215      0.00000
     10      29.5215      0.00000

 k-point    96 :       0.0000    0.3947    0.0000
  band No.  band energies     occupation 
      1      -0.0245      1.00000
      2       2.9540      1.00000
      3       2.9540      1.00000
      4       3.3291      1.00000
      5       4.6316     -0.00063
      6       4.6317     -0.00063
      7      12.8924      0.00000
      8      27.3953      0.00000
      9      29.4628      0.00000
     10      29.4628      0.00000

 k-point    97 :       0.0000    0.4211    0.0000
  band No.  band energies     occupation 
      1       0.1415      1.00000
      2       2.9247      1.00000
      3       2.9247      1.00000
      4       3.6871      1.00587
      5       4.6996     -0.00011
      6       4.6996     -0.00011
      7      12.0241      0.00000
      8      27.2476      0.00000
      9      29.4225      0.00000
     10      29.4225      0.00000

 k-point    98 :       0.0000    0.4474    0.0000
  band No.  band energies     occupation 
      1       0.2454      1.00000
      2       2.9028      1.00000
      3       2.9028      1.00000
      4       4.0397      0.76239
      5       4.7504     -0.00003
      6       4.7504     -0.00003
      7      11.3207      0.00000
      8      27.1393      0.00000
      9      29.3974      0.00000
     10      29.3974      0.00000

 k-point    99 :       0.0000    0.4737    0.0000
  band No.  band energies     occupation 
      1       0.3011      1.00000
      2       2.8893      1.00000
      3       2.8893      1.00000
      4       4.3074     -0.02609
      5       4.7819     -0.00001
      6       4.7819     -0.00001
      7      10.8489      0.00000
      8      27.0732      0.00000
      9      29.3840      0.00000
     10      29.3840      0.00000

 k-point   100 :       0.0000    0.5000    0.0000
  band No.  band energies     occupation 
      1       0.3186      1.00000
      2       2.8847      1.00000
      3       2.8847      1.00000
      4       4.4089     -0.02688
      5       4.7925     -0.00001
      6       4.7925     -0.00001
      7      10.6803      0.00000
      8      27.0509      0.00000
      9      29.3799      0.00000
     10      29.3799      0.00000


--------------------------------------------------------------------------------------------------------


 soft charge-density along one line, spin component           1
         0         1         2         3         4         5         6         7         8         9
 total charge-density along one line
 
 soft charge-density along one line, spin component           2
         0         1         2         3         4         5         6         7         8         9
 total charge-density along one line
 
 pseudopotential strength for first ion, spin component:           1
 -5.405   0.000  -0.000   0.000  -0.000   0.000  -0.000   0.000  -0.000   0.000  -0.697   0.000   0.000   0.000  -0.000   0.000
 -0.000   0.000  -5.405   0.000   0.000   0.000  -0.000   0.000  -0.000   0.000   0.000   0.000  -0.697   0.000   0.000   0.000
 -0.000   0.000   0.000   0.000  -5.389   0.000   0.000   0.000  -0.000   0.000  -0.000   0.000   0.000   0.000  -0.702   0.000
 -0.000   0.000  -0.000   0.000   0.000   0.000  -5.405   0.000   0.000   0.000   0.000   0.000   0.000   0.000   0.000   0.000
 -0.000   0.000  -0.000   0.000  -0.000   0.000   0.000   0.000  -5.389   0.000   0.000   0.000  -0.000   0.000   0.000   0.000
 -0.697   0.000   0.000   0.000  -0.000   0.000   0.000   0.000   0.000   0.000   1.593   0.000  -0.000   0.000   0.000   0.000
  0.000   0.000  -0.697   0.000   0.000   0.000   0.000   0.000  -0.000   0.000  -0.000   0.000   1.593   0.000  -0.000   0.000
 -0.000   0.000   0.000   0.000  -0.702   0.000   0.000   0.000   0.000   0.000   0.000   0.000  -0.000   0.000   1.594   0.000
  0.000   0.000   0.000   0.000   0.000   0.000  -0.697   0.000   0.000   0.000  -0.000   0.000  -0.000   0.000  -0.000   0.000
  0.000   0.000  -0.000   0.000   0.000   0.000   0.000   0.000  -0.702   0.000  -0.000   0.000   0.000   0.000  -0.000   0.000
  0.000   0.000   0.000   0.000  -0.000   0.000   0.000   0.000  -0.000   0.000   0.000   0.000   0.000   0.000  -0.000   0.000
 -0.000   0.000  -0.000   0.000   0.000   0.000  -0.000   0.000   0.000   0.000   0.000   0.000   0.000   0.000  -0.000   0.000
  0.000   0.000  -0.000   0.000   0.000   0.000   0.000   0.000   0.000   0.000   0.000   0.000   0.000   0.000  -0.000   0.000
  0.000   0.000  -0.000   0.000  -0.000   0.000   0.000   0.000   0.000   0.000   0.000   0.000   0.000   0.000   0.000   0.000
 -0.000   0.000   0.000   0.000   0.000   0.000  -0.000   0.000  -0.000   0.000   0.000   0.000   0.000   0.000   0.000   0.000
 -0.000   0.000   0.000   0.000  -0.000   0.000  -0.000   0.000  -0.000   0.000   0.000   0.000  -0.000   0.000   0.000   0.000
 -0.000   0.000   0.000   0.000   0.000   0.000  -0.000   0.000  -0.000   0.000   0.000   0.000  -0.000   0.000  -0.000   0.000
  0.000   0.000  -0.000   0.000  -0.000   0.000   0.000   0.000   0.000   0.000  -0.000   0.000   0.000   0.000   0.000   0.000
 pseudopotential strength for first ion, spin component:           2
 -4.857   0.000  -0.000   0.000  -0.000   0.000  -0.000   0.000   0.000   0.000  -0.929   0.000   0.000   0.000   0.000   0.000
 -0.000   0.000  -4.857   0.000   0.000   0.000  -0.000   0.000  -0.000   0.000   0.000   0.000  -0.929   0.000  -0.000   0.000
 -0.000   0.000   0.000   0.000  -4.884   0.000   0.000   0.000   0.000   0.000   0.000   0.000  -0.000   0.000  -0.921   0.000
 -0.000   0.000  -0.000   0.000   0.000   0.000  -4.857   0.000   0.000   0.000   0.000   0.000   0.000   0.000  -0.000   0.000
  0.000   0.000  -0.000   0.000   0.000   0.000   0.000   0.000  -4.884   0.000  -0.000   0.000   0.000   0.000  -0.000   0.000
 -0.929   0.000   0.000   0.000   0.000   0.000   0.000   0.000  -0.000   0.000   1.690   0.000   0.000   0.000  -0.000   0.000
  0.000   0.000  -0.929   0.000  -0.000   0.000   0.000   0.000   0.000   0.000   0.000   0.000   1.690   0.000   0.000   0.000
  0.000   0.000  -0.000   0.000  -0.921   0.000  -0.000   0.000  -0.000   0.000  -0.000   0.000   0.000   0.000   1.688   0.000
  0.000   0.000   0.000   0.000  -0.000   0.000  -0.929   0.000  -0.000   0.000   0.000   0.000   0.000   0.000   0.000   0.000
 -0.000   0.000   0.000   0.000  -0.000   0.000  -0.000   0.000  -0.921   0.000   0.000   0.000  -0.000   0.000   0.000   0.000
 -0.000   0.000  -0.000   0.000   0.000   0.000  -0.000   0.000   0.000   0.000  -0.000   0.000  -0.000   0.000   0.000   0.000
  0.000   0.000   0.000   0.000  -0.000   0.000   0.000   0.000  -0.000   0.000  -0.000   0.000  -0.000   0.000   0.000   0.000
  0.000   0.000  -0.000   0.000   0.000   0.000  -0.000   0.000   0.000   0.000  -0.000   0.000   0.000   0.000   0.000   0.000
 -0.000   0.000  -0.000   0.000  -0.000   0.000   0.000   0.000  -0.000   0.000  -0.000   0.000   0.000   0.000  -0.000   0.000
 -0.000   0.000  -0.000   0.000  -0.000   0.000  -0.000   0.000   0.000   0.000  -0.000   0.000  -0.000   0.000   0.000   0.000
 -0.000   0.000  -0.000   0.000  -0.000   0.000   0.000   0.000  -0.000   0.000   0.000   0.000   0.000   0.000   0.000   0.000
  0.000   0.000  -0.000   0.000   0.000   0.000  -0.000   0.000   0.000   0.000  -0.000   0.000   0.000   0.000  -0.000   0.000
  0.000   0.000   0.000   0.000  -0.000   0.000  -0.000   0.000  -0.000   0.000  -0.000   0.000  -0.000   0.000  -0.000   0.000
 total augmentation occupancy for first ion, spin component:           1
  1.800   0.000   0.000   0.000   0.000   0.000   0.000   0.000   0.000   0.000   0.000   0.000   0.000   0.000   0.000   0.000
  0.000   1.800   0.000   0.000   0.000   0.000   0.000   0.000   0.000   0.000   0.000   0.000   0.000   0.000   0.000   0.000
  0.000   0.000   1.800   0.000   0.000   0.000   0.000   0.000   0.000   0.000   0.000   0.000   0.000   0.000   0.000   0.000
  0.000   0.000   0.000   1.800   0.000   0.000   0.000   0.000   0.000   0.000   0.000   0.000   0.000   0.000   0.000   0.000
  0.000   0.000   0.000   0.000   1.800   0.000   0.000   0.000   0.000   0.000   0.000   0.000   0.000   0.000   0.000   0.000
  0.000   0.000   0.000   0.000   0.000   0.000   0.000   0.000   0.000   0.000   0.000   0.000   0.000   0.000   0.000   0.000
  0.000   0.000   0.000   0.000   0.000   0.000   0.000   0.000   0.000   0.000   0.000   0.000   0.000   0.000   0.000   0.000
  0.000   0.000   0.000   0.000   0.000   0.000   0.000   0.000   0.000   0.000   0.000   0.000   0.000   0.000   0.000   0.000
  0.000   0.000   0.000   0.000   0.000   0.000   0.000   0.000   0.000   0.000   0.000   0.000   0.000   0.000   0.000   0.000
  0.000   0.000   0.000   0.000   0.000   0.000   0.000   0.000   0.000   0.000   0.000   0.000   0.000   0.000   0.000   0.000
  0.000   0.000   0.000   0.000   0.000   0.000   0.000   0.000   0.000   0.000   1.000   0.000   0.000   0.000   0.000   0.000
  0.000   0.000   0.000   0.000   0.000   0.000   0.000   0.000   0.000   0.000   0.000   0.000   0.000   0.000   0.000   0.000
  0.000   0.000   0.000   0.000   0.000   0.000   0.000   0.000   0.000   0.000   0.000   0.000   0.000   0.000   0.000   0.000
  0.000   0.000   0.000   0.000   0.000   0.000   0.000   0.000   0.000   0.000   0.000   0.000   0.000   0.000   0.000   0.000
  0.000   0.000   0.000   0.000   0.000   0.000   0.000   0.000   0.000   0.000   0.000   0.000   0.000   0.000   0.000   0.000
  0.000   0.000   0.000   0.000   0.000   0.000   0.000   0.000   0.000   0.000   0.000   0.000   0.000   0.000   0.000   0.000
  0.000   0.000   0.000   0.000   0.000   0.000   0.000   0.000   0.000   0.000   0.000   0.000   0.000   0.000   0.000   0.000
  0.000   0.000   0.000   0.000   0.000   0.000   0.000   0.000   0.000   0.000   0.000   0.000   0.000   0.000   0.000   0.000
 total augmentation occupancy for first ion, spin component:           2
  0.180   0.000   0.000   0.000   0.000   0.000   0.000   0.000   0.000   0.000   0.000   0.000   0.000   0.000   0.000   0.000
  0.000   0.180   0.000   0.000   0.000   0.000   0.000   0.000   0.000   0.000   0.000   0.000   0.000   0.000   0.000   0.000
  0.000   0.000   0.180   0.000   0.000   0.000   0.000   0.000   0.000   0.000   0.000   0.000   0.000   0.000   0.000   0.000
  0.000   0.000   0.000   0.180   0.000   0.000   0.000   0.000   0.000   0.000   0.000   0.000   0.000   0.000   0.000   0.000
  0.000   0.000   0.000   0.000   0.180   0.000   0.000   0.000   0.000   0.000   0.000   0.000   0.000   0.000   0.000   0.000
  0.000   0.000   0.000   0.000   0.000   0.000   0.000   0.000   0.000   0.000   0.000   0.000   0.000   0.000   0.000   0.000
  0.000   0.000   0.000   0.000   0.000   0.000   0.000   0.000   0.000   0.000   0.000   0.000   0.000   0.000   0.000   0.000
  0.000   0.000   0.000   0.000   0.000   0.000   0.000   0.000   0.000   0.000   0.000   0.000   0.000   0.000   0.000   0.000
  0.000   0.000   0.000   0.000   0.000   0.000   0.000   0.000   0.000   0.000   0.000   0.000   0.000   0.000   0.000   0.000
  0.000   0.000   0.000   0.000   0.000   0.000   0.000   0.000   0.000   0.000   0.000   0.000   0.000   0.000   0.000   0.000
  0.000   0.000   0.000   0.000   0.000   0.000   0.000   0.000   0.000   0.000   0.100   0.000   0.000   0.000   0.000   0.000
  0.000   0.000   0.000   0.000   0.000   0.000   0.000   0.000   0.000   0.000   0.000   0.000   0.000   0.000   0.000   0.000
  0.000   0.000   0.000   0.000   0.000   0.000   0.000   0.000   0.000   0.000   0.000   0.000   0.000   0.000   0.000   0.000
  0.000   0.000   0.000   0.000   0.000   0.000   0.000   0.000   0.000   0.000   0.000   0.000   0.000   0.000   0.000   0.000
  0.000   0.000   0.000   0.000   0.000   0.000   0.000   0.000   0.000   0.000   0.000   0.000   0.000   0.000   0.000   0.000
  0.000   0.000   0.000   0.000   0.000   0.000   0.000   0.000   0.000   0.000   0.000   0.000   0.000   0.000   0.000   0.000
  0.000   0.000   0.000   0.000   0.000   0.000   0.000   0.000   0.000   0.000   0.000   0.000   0.000   0.000   0.000   0.000
  0.000   0.000   0.000   0.000   0.000   0.000   0.000   0.000   0.000   0.000   0.000   0.000   0.000   0.000   0.000   0.000


------------------------ aborting loop because EDIFF is reached ----------------------------------------


 


 total charge     
 
# of ion       s       p       d       tot
------------------------------------------
    1        0.817   0.356   8.125   9.298
 


 magnetization (x)
 
# of ion       s       p       d       tot
------------------------------------------
    1       -0.005  -0.019   0.745   0.721
 
    CHARGE:  cpu time    0.0322: real time    0.0583
    FORLOC:  cpu time    0.0009: real time    0.0009
    FORNL :  cpu time    0.0983: real time    0.2095
    STRESS:  cpu time    0.2015: real time    0.2019
    FORCOR:  cpu time    0.1050: real time    0.1053
    FORHAR:  cpu time    0.0035: real time    0.0035
    OFIELD:  cpu time    0.0002: real time    0.0002

  FORCE on cell =-STRESS in cart. coord.  units (eV):
  Direction    XX          YY          ZZ          XY          YZ          ZX
  --------------------------------------------------------------------------------------
  Alpha Z    91.31244    91.31244    91.31244
  Ewald    -311.75823  -311.75823  -311.75823    -0.00000    -0.00000     0.00000
  Hartree    71.99520    71.99520    71.99520     0.00000     0.00000     0.00000
  E(xc)     -55.44376   -55.44376   -55.44376    -0.00000    -0.00000    -0.00000
  Local      99.62545    99.62545    99.62545     0.00014     0.00014     0.00014
  n-local   -31.42877   -31.80692   -31.96277    -0.38282    -0.29233     0.04056
  augment    50.71263    50.71263    50.71263    -0.00007    -0.00007    -0.00007
  Kinetic    75.14204    75.12099    75.74158    -0.09588     0.54322    -0.37043
  Fock        0.00000     0.00000     0.00000     0.00000     0.00000     0.00000
  -------------------------------------------------------------------------------------
  Total      -9.95422    -9.95422    -9.95422    -0.00000    -0.00000    -0.00000
  in kB   -1450.90222 -1450.90222 -1450.90222    -0.00000    -0.00000    -0.00000
  external pressure =    -1450.90 kB  Pullay stress =        0.00 kB


 VOLUME and BASIS-vectors are now :
 -----------------------------------------------------------------------------
  energy-cutoff  :      500.00
  volume of cell :       10.99
      direct lattice vectors                 reciprocal lattice vectors
     1.764750000  1.764750000  0.000000000     0.283326250  0.283326250 -0.283326250
     0.000000000  1.764750000  1.764750000    -0.283326250  0.283326250  0.283326250
     1.764750000  0.000000000  1.764750000     0.283326250 -0.283326250  0.283326250

  length of vectors
     2.495733384  2.495733384  2.495733384     0.490735460  0.490735460  0.490735460


 FORCES acting on ions
    electron-ion (+dipol)            ewald-force                    non-local-force                 convergence-correction
 -----------------------------------------------------------------------------------------------
   -.882E-13 0.731E-13 -.138E-13   0.666E-15 0.191E-14 0.337E-15   0.165E-23 0.000E+00 0.000E+00   -.313E-14 -.104E-13 -.585E-14
 -----------------------------------------------------------------------------------------------
   -.882E-13 0.731E-13 -.138E-13   0.666E-15 0.191E-14 0.337E-15   0.165E-23 0.000E+00 0.000E+00   -.313E-14 -.104E-13 -.585E-14
 
 
 POSITION                                       TOTAL-FORCE (eV/Angst)
 -----------------------------------------------------------------------------------
      0.00000      0.00000      0.00000         0.000000      0.000000     -0.000000
 -----------------------------------------------------------------------------------
    total drift:                               -0.000000      0.000000     -0.000000


--------------------------------------------------------------------------------------------------------



  FREE ENERGIE OF THE ION-ELECTRON SYSTEM (eV)
  ---------------------------------------------------
  free  energy   TOTEN  =        -8.39342992 eV

  energy  without entropy=       -8.38079396  energy(sigma->0) =       -8.38921793
 


--------------------------------------------------------------------------------------------------------


    POTLOK:  cpu time    0.1134: real time    0.1611


--------------------------------------------------------------------------------------------------------


     LOOP+:  cpu time    3.3334: real time    3.5523
    4ORBIT:  cpu time    0.0000: real time    0.0000
 


 total charge     
 
# of ion       s       p       d       tot
------------------------------------------
    1        0.817   0.356   8.125   9.298
 


 magnetization (x)
 
# of ion       s       p       d       tot
------------------------------------------
    1       -0.005  -0.019   0.745   0.721
 

 total amount of memory used by VASP MPI-rank0    48587. kBytes
=======================================================================

   base      :      30000. kBytes
   nonl-proj :       4195. kBytes
   fftplans  :       1488. kBytes
   grid      :       2985. kBytes
   one-center:         31. kBytes
   wavefun   :       9888. kBytes
 
  
  
 General timing and accounting informations for this job:
 ========================================================
  
                  Total CPU time used (sec):        5.233
                            User time (sec):        3.141
                          System time (sec):        2.093
                         Elapsed time (sec):        7.691
  
                   Maximum memory used (kb):       72724.
                   Average memory used (kb):           0.
  
                          Minor page faults:        11363
                          Major page faults:            3
                 Voluntary context switches:          326
