<?xml version="1.0" encoding="ISO-8859-1"?>
<modeling>
 <generator>
  <i name="program" type="string">vasp </i>
  <i name="version" type="string">5.4.4.18Apr17-6-g9f103f2a35  </i>
  <i name="subversion" type="string">(build May 20 2018 16:52:39) complex            parallel </i>
  <i name="platform" type="string">LinuxIFC </i>
  <i name="date" type="string">2022 10 01 </i>
  <i name="time" type="string">22:59:55 </i>
 </generator>
 <incar>
  <i type="string" name="SYSTEM"> fcc Ni</i>
  <i type="int" name="ISTART">     0</i>
  <i type="string" name="PREC">normal</i>
  <i type="int" name="ISPIN">     2</i>
  <i type="int" name="ICHARG">    11</i>
  <i name="EDIFF">      0.00000010</i>
  <i name="ENCUT">    500.00000000</i>
  <v name="RWIGS">      1.37000000</v>
  <v name="MAGMOM">      1.00000000</v>
  <i type="int" name="ISMEAR">     1</i>
  <i name="SIGMA">      0.20000000</i>
  <i type="logical" name="LWAVE"> F  </i>
  <i type="logical" name="LCHARG"> F  </i>
  <i type="int" name="LORBIT">    11</i>
  <v type="int" name="KPOINT_BSE">    -1     0     0     0</v>
 </incar>
 <structure name="primitive_cell" >
  <crystal>
   <varray name="basis" >
    <v>       1.76475000       1.76475000       0.00000000 </v>
    <v>       0.00000000       1.76475000       1.76475000 </v>
    <v>       1.76475000       0.00000000       1.76475000 </v>
   </varray>
   <i name="volume">     10.99207207 </i>
   <varray name="rec_basis" >
    <v>       0.28332625       0.28332625      -0.28332625 </v>
    <v>      -0.28332625       0.28332625       0.28332625 </v>
    <v>       0.28332625      -0.28332625       0.28332625 </v>
   </varray>
  </crystal>
  <varray name="positions" >
   <v>       0.00000000       0.00000000       0.00000000 </v>
  </varray>
 </structure>
 <varray name="primitive_index" >
  <v type="int" >        1 </v>
 </varray>
 <kpoints>
  <generation param="listgenerated">
   <i name="divisions" type="int">      20 </i>
   <v>       0.00000000       0.00000000       0.00000000 </v>
   <v>      -0.50000000       0.50000000       0.50000000 </v>
   <v>       0.00000000       0.50000000       0.00000000 </v>
   <v>       0.25000000       0.25000000       0.25000000 </v>
   <v>       0.00000000       0.00000000       0.00000000 </v>
   <v>       0.00000000       0.50000000       0.00000000 </v>
  </generation>
  <varray name="kpointlist" >
   <v>       0.00000000       0.00000000       0.00000000 </v>
   <v>      -0.02631579       0.02631579       0.02631579 </v>
   <v>      -0.05263158       0.05263158       0.05263158 </v>
   <v>      -0.07894737       0.07894737       0.07894737 </v>
   <v>      -0.10526316       0.10526316       0.10526316 </v>
   <v>      -0.13157895       0.13157895       0.13157895 </v>
   <v>      -0.15789474       0.15789474       0.15789474 </v>
   <v>      -0.18421053       0.18421053       0.18421053 </v>
   <v>      -0.21052632       0.21052632       0.21052632 </v>
   <v>      -0.23684211       0.23684211       0.23684211 </v>
   <v>      -0.26315789       0.26315789       0.26315789 </v>
   <v>      -0.28947368       0.28947368       0.28947368 </v>
   <v>      -0.31578947       0.31578947       0.31578947 </v>
   <v>      -0.34210526       0.34210526       0.34210526 </v>
   <v>      -0.36842105       0.36842105       0.36842105 </v>
   <v>      -0.39473684       0.39473684       0.39473684 </v>
   <v>      -0.42105263       0.42105263       0.42105263 </v>
   <v>      -0.44736842       0.44736842       0.44736842 </v>
   <v>      -0.47368421       0.47368421       0.47368421 </v>
   <v>      -0.50000000       0.50000000       0.50000000 </v>
   <v>      -0.50000000       0.50000000       0.50000000 </v>
   <v>      -0.47368421       0.50000000       0.47368421 </v>
   <v>      -0.44736842       0.50000000       0.44736842 </v>
   <v>      -0.42105263       0.50000000       0.42105263 </v>
   <v>      -0.39473684       0.50000000       0.39473684 </v>
   <v>      -0.36842105       0.50000000       0.36842105 </v>
   <v>      -0.34210526       0.50000000       0.34210526 </v>
   <v>      -0.31578947       0.50000000       0.31578947 </v>
   <v>      -0.28947368       0.50000000       0.28947368 </v>
   <v>      -0.26315789       0.50000000       0.26315789 </v>
   <v>      -0.23684211       0.50000000       0.23684211 </v>
   <v>      -0.21052632       0.50000000       0.21052632 </v>
   <v>      -0.18421053       0.50000000       0.18421053 </v>
   <v>      -0.15789474       0.50000000       0.15789474 </v>
   <v>      -0.13157895       0.50000000       0.13157895 </v>
   <v>      -0.10526316       0.50000000       0.10526316 </v>
   <v>      -0.07894737       0.50000000       0.07894737 </v>
   <v>      -0.05263158       0.50000000       0.05263158 </v>
   <v>      -0.02631579       0.50000000       0.02631579 </v>
   <v>       0.00000000       0.50000000       0.00000000 </v>
   <v>       0.00000000       0.50000000       0.00000000 </v>
   <v>       0.01315789       0.48684211       0.01315789 </v>
   <v>       0.02631579       0.47368421       0.02631579 </v>
   <v>       0.03947368       0.46052632       0.03947368 </v>
   <v>       0.05263158       0.44736842       0.05263158 </v>
   <v>       0.06578947       0.43421053       0.06578947 </v>
   <v>       0.07894737       0.42105263       0.07894737 </v>
   <v>       0.09210526       0.40789474       0.09210526 </v>
   <v>       0.10526316       0.39473684       0.10526316 </v>
   <v>       0.11842105       0.38157895       0.11842105 </v>
   <v>       0.13157895       0.36842105       0.13157895 </v>
   <v>       0.14473684       0.35526316       0.14473684 </v>
   <v>       0.15789474       0.34210526       0.15789474 </v>
   <v>       0.17105263       0.32894737       0.17105263 </v>
   <v>       0.18421053       0.31578947       0.18421053 </v>
   <v>       0.19736842       0.30263158       0.19736842 </v>
   <v>       0.21052632       0.28947368       0.21052632 </v>
   <v>       0.22368421       0.27631579       0.22368421 </v>
   <v>       0.23684211       0.26315789       0.23684211 </v>
   <v>       0.25000000       0.25000000       0.25000000 </v>
   <v>       0.25000000       0.25000000       0.25000000 </v>
   <v>       0.23684211       0.23684211       0.23684211 </v>
   <v>       0.22368421       0.22368421       0.22368421 </v>
   <v>       0.21052632       0.21052632       0.21052632 </v>
   <v>       0.19736842       0.19736842       0.19736842 </v>
   <v>       0.18421053       0.18421053       0.18421053 </v>
   <v>       0.17105263       0.17105263       0.17105263 </v>
   <v>       0.15789474       0.15789474       0.15789474 </v>
   <v>       0.14473684       0.14473684       0.14473684 </v>
   <v>       0.13157895       0.13157895       0.13157895 </v>
   <v>       0.11842105       0.11842105       0.11842105 </v>
   <v>       0.10526316       0.10526316       0.10526316 </v>
   <v>       0.09210526       0.09210526       0.09210526 </v>
   <v>       0.07894737       0.07894737       0.07894737 </v>
   <v>       0.06578947       0.06578947       0.06578947 </v>
   <v>       0.05263158       0.05263158       0.05263158 </v>
   <v>       0.03947368       0.03947368       0.03947368 </v>
   <v>       0.02631579       0.02631579       0.02631579 </v>
   <v>       0.01315789       0.01315789       0.01315789 </v>
   <v>       0.00000000       0.00000000       0.00000000 </v>
   <v>       0.00000000       0.00000000       0.00000000 </v>
   <v>       0.00000000       0.02631579       0.00000000 </v>
   <v>       0.00000000       0.05263158       0.00000000 </v>
   <v>       0.00000000       0.07894737       0.00000000 </v>
   <v>       0.00000000       0.10526316       0.00000000 </v>
   <v>       0.00000000       0.13157895       0.00000000 </v>
   <v>       0.00000000       0.15789474       0.00000000 </v>
   <v>       0.00000000       0.18421053       0.00000000 </v>
   <v>       0.00000000       0.21052632       0.00000000 </v>
   <v>       0.00000000       0.23684211       0.00000000 </v>
   <v>       0.00000000       0.26315789       0.00000000 </v>
   <v>       0.00000000       0.28947368       0.00000000 </v>
   <v>       0.00000000       0.31578947       0.00000000 </v>
   <v>       0.00000000       0.34210526       0.00000000 </v>
   <v>       0.00000000       0.36842105       0.00000000 </v>
   <v>       0.00000000       0.39473684       0.00000000 </v>
   <v>       0.00000000       0.42105263       0.00000000 </v>
   <v>       0.00000000       0.44736842       0.00000000 </v>
   <v>       0.00000000       0.47368421       0.00000000 </v>
   <v>       0.00000000       0.50000000       0.00000000 </v>
  </varray>
  <varray name="weights" >
   <v>       0.01000000 </v>
   <v>       0.01000000 </v>
   <v>       0.01000000 </v>
   <v>       0.01000000 </v>
   <v>       0.01000000 </v>
   <v>       0.01000000 </v>
   <v>       0.01000000 </v>
   <v>       0.01000000 </v>
   <v>       0.01000000 </v>
   <v>       0.01000000 </v>
   <v>       0.01000000 </v>
   <v>       0.01000000 </v>
   <v>       0.01000000 </v>
   <v>       0.01000000 </v>
   <v>       0.01000000 </v>
   <v>       0.01000000 </v>
   <v>       0.01000000 </v>
   <v>       0.01000000 </v>
   <v>       0.01000000 </v>
   <v>       0.01000000 </v>
   <v>       0.01000000 </v>
   <v>       0.01000000 </v>
   <v>       0.01000000 </v>
   <v>       0.01000000 </v>
   <v>       0.01000000 </v>
   <v>       0.01000000 </v>
   <v>       0.01000000 </v>
   <v>       0.01000000 </v>
   <v>       0.01000000 </v>
   <v>       0.01000000 </v>
   <v>       0.01000000 </v>
   <v>       0.01000000 </v>
   <v>       0.01000000 </v>
   <v>       0.01000000 </v>
   <v>       0.01000000 </v>
   <v>       0.01000000 </v>
   <v>       0.01000000 </v>
   <v>       0.01000000 </v>
   <v>       0.01000000 </v>
   <v>       0.01000000 </v>
   <v>       0.01000000 </v>
   <v>       0.01000000 </v>
   <v>       0.01000000 </v>
   <v>       0.01000000 </v>
   <v>       0.01000000 </v>
   <v>       0.01000000 </v>
   <v>       0.01000000 </v>
   <v>       0.01000000 </v>
   <v>       0.01000000 </v>
   <v>       0.01000000 </v>
   <v>       0.01000000 </v>
   <v>       0.01000000 </v>
   <v>       0.01000000 </v>
   <v>       0.01000000 </v>
   <v>       0.01000000 </v>
   <v>       0.01000000 </v>
   <v>       0.01000000 </v>
   <v>       0.01000000 </v>
   <v>       0.01000000 </v>
   <v>       0.01000000 </v>
   <v>       0.01000000 </v>
   <v>       0.01000000 </v>
   <v>       0.01000000 </v>
   <v>       0.01000000 </v>
   <v>       0.01000000 </v>
   <v>       0.01000000 </v>
   <v>       0.01000000 </v>
   <v>       0.01000000 </v>
   <v>       0.01000000 </v>
   <v>       0.01000000 </v>
   <v>       0.01000000 </v>
   <v>       0.01000000 </v>
   <v>       0.01000000 </v>
   <v>       0.01000000 </v>
   <v>       0.01000000 </v>
   <v>       0.01000000 </v>
   <v>       0.01000000 </v>
   <v>       0.01000000 </v>
   <v>       0.01000000 </v>
   <v>       0.01000000 </v>
   <v>       0.01000000 </v>
   <v>       0.01000000 </v>
   <v>       0.01000000 </v>
   <v>       0.01000000 </v>
   <v>       0.01000000 </v>
   <v>       0.01000000 </v>
   <v>       0.01000000 </v>
   <v>       0.01000000 </v>
   <v>       0.01000000 </v>
   <v>       0.01000000 </v>
   <v>       0.01000000 </v>
   <v>       0.01000000 </v>
   <v>       0.01000000 </v>
   <v>       0.01000000 </v>
   <v>       0.01000000 </v>
   <v>       0.01000000 </v>
   <v>       0.01000000 </v>
   <v>       0.01000000 </v>
   <v>       0.01000000 </v>
   <v>       0.01000000 </v>
  </varray>
 </kpoints>
 <parameters>
  <separator name="general" >
   <i type="string" name="SYSTEM">fcc Ni</i>
   <i type="logical" name="LCOMPAT"> F  </i>
  </separator>
  <separator name="electronic" >
   <i type="string" name="PREC">normal</i>
   <i name="ENMAX">    500.00000000</i>
   <i name="ENAUG">    544.56500000</i>
   <i name="EDIFF">      0.00000010</i>
   <i type="int" name="IALGO">    38</i>
   <i type="int" name="IWAVPR">    10</i>
   <i type="int" name="NBANDS">    10</i>
   <i name="NELECT">     10.00000000</i>
   <i type="int" name="TURBO">     0</i>
   <i type="int" name="IRESTART">     0</i>
   <i type="int" name="NREBOOT">     0</i>
   <i type="int" name="NMIN">     0</i>
   <i name="EREF">      0.00000000</i>
   <separator name="electronic smearing" >
    <i type="int" name="ISMEAR">     1</i>
    <i name="SIGMA">      0.20000000</i>
    <i name="KSPACING">      0.50000000</i>
    <i type="logical" name="KGAMMA"> T  </i>
   </separator>
   <separator name="electronic projectors" >
    <i type="logical" name="LREAL"> F  </i>
    <v name="ROPT">      0.00000000</v>
    <i type="int" name="LMAXPAW">  -100</i>
    <i type="int" name="LMAXMIX">     2</i>
    <i type="logical" name="NLSPLINE"> F  </i>
   </separator>
   <separator name="electronic startup" >
    <i type="int" name="ISTART">     0</i>
    <i type="int" name="ICHARG">    11</i>
    <i type="int" name="INIWAV">     1</i>
   </separator>
   <separator name="electronic spin" >
    <i type="int" name="ISPIN">     2</i>
    <i type="logical" name="LNONCOLLINEAR"> F  </i>
    <v name="MAGMOM">      1.00000000</v>
    <i name="NUPDOWN">     -1.00000000</i>
    <i type="logical" name="LSORBIT"> F  </i>
    <v name="SAXIS">      0.00000000      0.00000000      1.00000000</v>
    <i type="logical" name="LSPIRAL"> F  </i>
    <v name="QSPIRAL">      0.00000000      0.00000000      0.00000000</v>
    <i type="logical" name="LZEROZ"> F  </i>
   </separator>
   <separator name="electronic exchange-correlation" >
    <i type="logical" name="LASPH"> F  </i>
    <i type="logical" name="LMETAGGA"> F  </i>
   </separator>
   <separator name="electronic convergence" >
    <i type="int" name="NELM">    60</i>
    <i type="int" name="NELMDL">    -5</i>
    <i type="int" name="NELMIN">     2</i>
    <i name="ENINI">    500.00000000</i>
    <separator name="electronic convergence detail" >
     <i type="logical" name="LDIAG"> T  </i>
     <i type="logical" name="LSUBROT"> F  </i>
     <i name="WEIMIN">      0.00000000</i>
     <i name="EBREAK">      0.00000000</i>
     <i name="DEPER">      0.30000000</i>
     <i type="int" name="NRMM">     4</i>
     <i name="TIME">      0.40000000</i>
    </separator>
   </separator>
   <separator name="electronic mixer" >
    <i name="AMIX">      0.40000000</i>
    <i name="BMIX">      1.00000000</i>
    <i name="AMIN">      0.10000000</i>
    <i name="AMIX_MAG">      1.60000000</i>
    <i name="BMIX_MAG">      1.00000000</i>
    <separator name="electronic mixer details" >
     <i type="int" name="IMIX">     4</i>
     <i type="logical" name="MIXFIRST"> F  </i>
     <i type="int" name="MAXMIX">   -45</i>
     <i name="WC">    100.00000000</i>
     <i type="int" name="INIMIX">     1</i>
     <i type="int" name="MIXPRE">     1</i>
     <i type="int" name="MREMOVE">     5</i>
    </separator>
   </separator>
   <separator name="electronic dipolcorrection" >
    <i type="logical" name="LDIPOL"> F  </i>
    <i type="logical" name="LMONO"> F  </i>
    <i type="int" name="IDIPOL">     0</i>
    <i name="EPSILON">      1.00000000</i>
    <v name="DIPOL">   -100.00000000   -100.00000000   -100.00000000</v>
    <i name="EFIELD">      0.00000000</i>
   </separator>
  </separator>
  <separator name="grids" >
   <i type="int" name="NGX">    14</i>
   <i type="int" name="NGY">    14</i>
   <i type="int" name="NGZ">    14</i>
   <i type="int" name="NGXF">    28</i>
   <i type="int" name="NGYF">    28</i>
   <i type="int" name="NGZF">    28</i>
   <i type="logical" name="ADDGRID"> F  </i>
  </separator>
  <separator name="ionic" >
   <i type="int" name="NSW">     0</i>
   <i type="int" name="IBRION">    -1</i>
   <i type="int" name="MDALGO">     0</i>
   <i type="int" name="ISIF">     2</i>
   <i name="PSTRESS">      0.00000000</i>
   <i name="EDIFFG">      0.00000100</i>
   <i type="int" name="NFREE">     0</i>
   <i name="POTIM">      0.50000000</i>
   <i name="SMASS">     -3.00000000</i>
   <i name="SCALEE">      1.00000000</i>
  </separator>
  <separator name="ionic md" >
   <i name="TEBEG">      0.00010000</i>
   <i name="TEEND">      0.00010000</i>
   <i type="int" name="NBLOCK">     1</i>
   <i type="int" name="KBLOCK">     1</i>
   <i type="int" name="NPACO">   256</i>
   <i name="APACO">     16.00000000</i>
  </separator>
  <separator name="symmetry" >
   <i type="int" name="ISYM">     2</i>
   <i name="SYMPREC">      0.00001000</i>
  </separator>
  <separator name="dos" >
   <i type="int" name="LORBIT">    11</i>
   <v name="RWIGS">      1.37000000</v>
   <i type="int" name="NEDOS">   301</i>
   <i name="EMIN">     10.00000000</i>
   <i name="EMAX">    -10.00000000</i>
   <i name="EFERMI">      0.00000000</i>
  </separator>
  <separator name="writing" >
   <i type="int" name="NWRITE">     2</i>
   <i type="logical" name="LWAVE"> F  </i>
   <i type="logical" name="LDOWNSAMPLE"> F  </i>
   <i type="logical" name="LCHARG"> F  </i>
   <i type="logical" name="LPARD"> F  </i>
   <i type="logical" name="LVTOT"> F  </i>
   <i type="logical" name="LVHAR"> F  </i>
   <i type="logical" name="LELF"> F  </i>
   <i type="logical" name="LOPTICS"> F  </i>
   <v name="STM">      0.00000000      0.00000000      0.00000000      0.00000000      0.00000000      0.00000000      0.00000000</v>
  </separator>
  <separator name="performance" >
   <i type="int" name="NPAR">     1</i>
   <i type="int" name="NSIM">     4</i>
   <i type="int" name="NBLK">    -1</i>
   <i type="logical" name="LPLANE"> T  </i>
   <i type="logical" name="LSCALAPACK"> T  </i>
   <i type="logical" name="LSCAAWARE"> F  </i>
   <i type="logical" name="LSCALU"> F  </i>
   <i type="logical" name="LASYNC"> F  </i>
   <i type="logical" name="LORBITALREAL"> F  </i>
  </separator>
  <separator name="miscellaneous" >
   <i type="int" name="IDIOT">     3</i>
   <i type="int" name="ISPECIAL">     0</i>
   <i type="logical" name="LMUSIC"> F  </i>
   <v name="POMASS">     58.69000000</v>
   <v name="DARWINR">      0.00000000</v>
   <v name="DARWINV">      1.00000000</v>
   <i type="logical" name="LCORR"> T  </i>
  </separator>
  <i type="logical" name="GGA_COMPAT"> T  </i>
  <i type="logical" name="LBERRY"> F  </i>
  <i type="int" name="ICORELEVEL">     0</i>
  <i type="logical" name="LDAU"> F  </i>
  <i type="int" name="I_CONSTRAINED_M">     0</i>
  <separator name="electronic exchange-correlation" >
   <i type="string" name="GGA">--</i>
   <i type="int" name="VOSKOWN">     0</i>
   <i type="logical" name="LHFCALC"> F  </i>
   <i type="string" name="PRECFOCK"></i>
   <i type="logical" name="LSYMGRAD"> F  </i>
   <i type="logical" name="LHFONE"> F  </i>
   <i type="logical" name="LRHFCALC"> F  </i>
   <i type="logical" name="LTHOMAS"> F  </i>
   <i type="logical" name="LMODELHF"> F  </i>
   <i name="ENCUT4O">     -1.00000000</i>
   <i type="int" name="EXXOEP">     0</i>
   <i type="int" name="FOURORBIT">     0</i>
   <i name="AEXX">      0.00000000</i>
   <i name="HFALPHA">      0.00000000</i>
   <i name="MCALPHA">      0.00000000</i>
   <i name="ALDAX">      1.00000000</i>
   <i name="AGGAX">      1.00000000</i>
   <i name="ALDAC">      1.00000000</i>
   <i name="AGGAC">      1.00000000</i>
   <i type="int" name="NKREDX">     1</i>
   <i type="int" name="NKREDY">     1</i>
   <i type="int" name="NKREDZ">     1</i>
   <i type="logical" name="SHIFTRED"> F  </i>
   <i type="logical" name="ODDONLY"> F  </i>
   <i type="logical" name="EVENONLY"> F  </i>
   <i type="int" name="LMAXFOCK">     0</i>
   <i type="int" name="NMAXFOCKAE">     0</i>
   <i type="logical" name="LFOCKAEDFT"> F  </i>
   <i name="HFSCREEN">      0.00000000</i>
   <i name="HFSCREENC">      0.00000000</i>
   <i type="int" name="NBANDSGWLOW">     0</i>
  </separator>
  <separator name="vdW DFT" >
   <i type="logical" name="LUSE_VDW"> F  </i>
   <i name="Zab_VDW">     -0.84910000</i>
   <i name="PARAM1">      0.12340000</i>
   <i name="PARAM2">      1.00000000</i>
   <i name="PARAM3">      0.00000000</i>
  </separator>
  <separator name="model GW" >
   <i type="int" name="MODEL_GW">     0</i>
   <i name="MODEL_EPS0">      6.59524324</i>
   <i name="MODEL_ALPHA">      1.00000000</i>
  </separator>
  <separator name="linear response parameters" >
   <i type="logical" name="LEPSILON"> F  </i>
   <i type="logical" name="LRPA"> F  </i>
   <i type="logical" name="LNABLA"> F  </i>
   <i type="logical" name="LVEL"> F  </i>
   <i type="int" name="KINTER">     0</i>
   <i name="CSHIFT">      0.10000000</i>
   <i name="OMEGAMAX">     -1.00000000</i>
   <i name="DEG_THRESHOLD">      0.00200000</i>
   <i name="RTIME">     -0.10000000</i>
   <i name="WPLASMAI">      0.00000000</i>
   <v name="DFIELD">      0.00000000      0.00000000      0.00000000</v>
   <v name="WPLASMA">      0.00000000      0.00000000      0.00000000      0.00000000      0.00000000      0.00000000      0.00000000      0.00000000      0.00000000</v>
  </separator>
  <separator name="orbital magnetization" >
   <i type="logical" name="NUCIND"> F  </i>
   <v name="MAGPOS">      0.00000000      0.00000000      0.00000000</v>
   <i type="logical" name="LNICSALL"> T  </i>
   <i type="logical" name="ORBITALMAG"> F  </i>
   <i type="logical" name="LMAGBLOCH"> F  </i>
   <i type="logical" name="LCHIMAG"> F  </i>
   <i type="logical" name="LGAUGE"> T  </i>
   <i type="int" name="MAGATOM">     0</i>
   <v name="MAGDIPOL">      0.00000000      0.00000000      0.00000000</v>
   <v name="AVECCONST">      0.00000000      0.00000000      0.00000000</v>
  </separator>
  <separator name="response functions" >
   <i type="logical" name="LADDER"> F  </i>
   <i type="logical" name="LRPAFORCE"> F  </i>
   <i type="logical" name="LFXC"> F  </i>
   <i type="logical" name="LHARTREE"> T  </i>
   <i type="int" name="IBSE">     0</i>
   <v type="int" name="KPOINT">    -1     0     0     0</v>
   <i type="logical" name="LTCTE"> F  </i>
   <i type="logical" name="LTETE"> F  </i>
   <i type="logical" name="LTRIPLET"> F  </i>
   <i type="logical" name="LFXCEPS"> F  </i>
   <i type="logical" name="LFXHEG"> F  </i>
   <i type="int" name="NATURALO">     2</i>
   <i type="logical" name="L2ORDER"> F  </i>
   <i type="logical" name="LMP2LT"> F  </i>
   <i type="logical" name="LUSEW"> F  </i>
   <i name="ENCUTGW">     -2.00000000</i>
   <i name="ENCUTGWSOFT">     -2.00000000</i>
   <i name="ENCUTLF">     -1.00000000</i>
   <i type="int" name="LMAXMP2">    -1</i>
   <i name="SCISSOR">      0.00000000</i>
   <i type="int" name="NOMEGA">     0</i>
   <i type="int" name="NOMEGAR">     0</i>
   <i type="int" name="NBANDSGW">    -1</i>
   <i type="int" name="NBANDSO">    -1</i>
   <i type="int" name="NBANDSV">    -1</i>
   <i type="int" name="NELM">     1</i>
   <i type="int" name="NELMHF">     1</i>
   <i type="int" name="DIM">     3</i>
   <i type="int" name="ANTIRES">     0</i>
   <i name="OMEGAMAX">    -30.00000000</i>
   <i name="OMEGAMIN">    -30.00000000</i>
   <i name="OMEGATL">   -200.00000000</i>
   <i type="int" name="OMEGAGRID">   140</i>
   <i name="CSHIFT">     -0.10000000</i>
   <i type="logical" name="SELFENERGY"> F  </i>
   <i type="logical" name="LSPECTRAL"> F  </i>
   <i type="logical" name="LSPECTRALGW"> F  </i>
   <i type="logical" name="LSINGLES"> F  </i>
   <i type="logical" name="LFERMIGW"> F  </i>
   <i type="logical" name="ODDONLYGW"> F  </i>
   <i type="logical" name="EVENONLYGW"> F  </i>
   <i type="int" name="NKREDLFX">     1</i>
   <i type="int" name="NKREDLFY">     1</i>
   <i type="int" name="NKREDLFZ">     1</i>
   <i type="int" name="MAXMEM">  2800</i>
   <i type="int" name="TELESCOPE">     0</i>
   <i type="int" name="TAUPAR">     1</i>
   <i type="int" name="OMEGAPAR">    -1</i>
   <i name="LAMBDA">      1.00000000</i>
  </separator>
  <separator name="External order field" >
   <i name="OFIELD_KAPPA">      0.00000000</i>
   <v name="OFIELD_K">      0.00000000      0.00000000      0.00000000</v>
   <i name="OFIELD_Q6_NEAR">      0.00000000</i>
   <i name="OFIELD_Q6_FAR">      0.00000000</i>
   <i name="OFIELD_A">      0.00000000</i>
  </separator>
 </parameters>
 <atominfo>
  <atoms>       1 </atoms>
  <types>       1 </types>
  <array name="atoms" >
   <dimension dim="1">ion</dimension>
   <field type="string">element</field>
   <field type="int">atomtype</field>
   <set>
    <rc><c>Ni</c><c>   1</c></rc>
   </set>
  </array>
  <array name="atomtypes" >
   <dimension dim="1">type</dimension>
   <field type="int">atomspertype</field>
   <field type="string">element</field>
   <field>mass</field>
   <field>valence</field>
   <field type="string">pseudopotential</field>
   <set>
    <rc><c>   1</c><c>Ni</c><c>     58.69000000</c><c>     10.00000000</c><c>  PAW Ni                                </c></rc>
   </set>
  </array>
 </atominfo>
 <structure name="initialpos" >
  <crystal>
   <varray name="basis" >
    <v>       1.76475000       1.76475000       0.00000000 </v>
    <v>       0.00000000       1.76475000       1.76475000 </v>
    <v>       1.76475000       0.00000000       1.76475000 </v>
   </varray>
   <i name="volume">     10.99207207 </i>
   <varray name="rec_basis" >
    <v>       0.28332625       0.28332625      -0.28332625 </v>
    <v>      -0.28332625       0.28332625       0.28332625 </v>
    <v>       0.28332625      -0.28332625       0.28332625 </v>
   </varray>
  </crystal>
  <varray name="positions" >
   <v>       0.00000000       0.00000000       0.00000000 </v>
  </varray>
 </structure>
 <calculation>
  <scstep>
   <time name="dav">    0.41    0.42</time>
   <time name="total">    0.53    0.54</time>
   <energy>
    <i name="alphaZ">     91.31243802 </i>
    <i name="ewald">   -935.27465713 </i>
    <i name="hartreedc">   -226.57645985 </i>
    <i name="XCdc">     30.48807410 </i>
    <i name="pawpsdc">    914.66243539 </i>
    <i name="pawaedc">   -983.50154281 </i>
    <i name="eentropy">     -0.00203016 </i>
    <i name="bandstr">     51.48890424 </i>
    <i name="atom">   1079.46620042 </i>
    <i name="e_fr_energy">     22.06336220 </i>
    <i name="e_wo_entrp">     22.06539236 </i>
    <i name="e_0_energy">     22.06403892 </i>
   </energy>
  </scstep>
  <scstep>
   <time name="dav">    0.40    0.40</time>
   <time name="total">    0.40    0.40</time>
   <energy>
    <i name="e_fr_energy">     -7.81284835 </i>
    <i name="e_wo_entrp">     -7.80493364 </i>
    <i name="e_0_energy">     -7.81021011 </i>
   </energy>
  </scstep>
  <scstep>
   <time name="dav">    0.49    0.49</time>
   <time name="total">    0.50    0.50</time>
   <energy>
    <i name="e_fr_energy">     -8.39234317 </i>
    <i name="e_wo_entrp">     -8.37970192 </i>
    <i name="e_0_energy">     -8.38812942 </i>
   </energy>
  </scstep>
  <scstep>
   <time name="dav">    0.43    0.43</time>
   <time name="total">    0.44    0.44</time>
   <energy>
    <i name="e_fr_energy">     -8.39342801 </i>
    <i name="e_wo_entrp">     -8.38079206 </i>
    <i name="e_0_energy">     -8.38921603 </i>
   </energy>
  </scstep>
  <scstep>
   <time name="dav">    0.41    0.41</time>
   <time name="total">    0.41    0.41</time>
   <energy>
    <i name="e_fr_energy">     -8.39342991 </i>
    <i name="e_wo_entrp">     -8.38079396 </i>
    <i name="e_0_energy">     -8.38921793 </i>
   </energy>
  </scstep>
  <scstep>
   <time name="dav">    0.45    0.45</time>
   <time name="total">    0.45    0.46</time>
   <energy>
    <i name="alphaZ">     91.31243802 </i>
    <i name="ewald">   -935.27465713 </i>
    <i name="hartreedc">   -226.57645985 </i>
    <i name="XCdc">     30.48807410 </i>
    <i name="pawpsdc">    914.66243539 </i>
    <i name="pawaedc">   -983.50154281 </i>
    <i name="eentropy">     -0.01263595 </i>
    <i name="bandstr">     21.04271792 </i>
    <i name="atom">   1079.46620042 </i>
    <i name="e_fr_energy">     -8.39342992 </i>
    <i name="e_wo_entrp">     -8.38079396 </i>
    <i name="e_0_energy">     -8.38921793 </i>
   </energy>
  </scstep>
  <structure>
   <crystal>
    <varray name="basis" >
     <v>       1.76475000       1.76475000       0.00000000 </v>
     <v>       0.00000000       1.76475000       1.76475000 </v>
     <v>       1.76475000       0.00000000       1.76475000 </v>
    </varray>
    <i name="volume">     10.99207207 </i>
    <varray name="rec_basis" >
     <v>       0.28332625       0.28332625      -0.28332625 </v>
     <v>      -0.28332625       0.28332625       0.28332625 </v>
     <v>       0.28332625      -0.28332625       0.28332625 </v>
    </varray>
   </crystal>
   <varray name="positions" >
    <v>       0.00000000       0.00000000       0.00000000 </v>
   </varray>
  </structure>
  <varray name="forces" >
   <v>       0.00000000       0.00000000      -0.00000000 </v>
  </varray>
  <varray name="stress" >
   <v>   -1450.90222121       0.00000000      -0.00000000 </v>
   <v>      -0.00000000   -1450.90222121       0.00000000 </v>
   <v>       0.00000000      -0.00000000   -1450.90222121 </v>
  </varray>
  <energy>
   <i name="e_fr_energy">     -8.39342992 </i>
   <i name="e_wo_entrp">     -8.38921793 </i>
   <i name="e_0_energy">     -0.01263595 </i>
  </energy>
  <time name="totalsc">    3.33    3.55</time>
  <eigenvalues>
   <array>
    <dimension dim="1">band</dimension>
    <dimension dim="2">kpoint</dimension>
    <dimension dim="3">spin</dimension>
    <field>eigene</field>
    <field>occ</field>
    <set>
     <set comment="spin 1">
      <set comment="kpoint 1">
       <r>   -4.2240    1.0000 </r>
       <r>    2.3310    1.0000 </r>
       <r>    2.3311    1.0000 </r>
       <r>    2.3311    1.0000 </r>
       <r>    3.3800    1.0000 </r>
       <r>    3.3800    1.0000 </r>
       <r>   28.7531    0.0000 </r>
       <r>   32.3183    0.0000 </r>
       <r>   32.3183    0.0000 </r>
       <r>   32.3183    0.0000 </r>
      </set>
      <set comment="kpoint 2">
       <r>   -4.1253    1.0000 </r>
       <r>    2.3002    1.0000 </r>
       <r>    2.3556    1.0000 </r>
       <r>    2.3570    1.0000 </r>
       <r>    3.3541    1.0000 </r>
       <r>    3.3868    1.0000 </r>
       <r>   28.4477    0.0000 </r>
       <r>   31.0656    0.0000 </r>
       <r>   31.5279    0.0000 </r>
       <r>   32.1954    0.0000 </r>
      </set>
      <set comment="kpoint 3">
       <r>   -3.8322    1.0000 </r>
       <r>    2.2118    1.0000 </r>
       <r>    2.4264    1.0000 </r>
       <r>    2.4299    1.0000 </r>
       <r>    3.2821    1.0000 </r>
       <r>    3.4101    1.0000 </r>
       <r>   27.2807    0.0000 </r>
       <r>   29.5479    0.0000 </r>
       <r>   30.1429    0.0000 </r>
       <r>   32.0019    0.0000 </r>
      </set>
      <set comment="kpoint 4">
       <r>   -3.3552    1.0000 </r>
       <r>    2.0779    1.0000 </r>
       <r>    2.5303    1.0000 </r>
       <r>    2.5358    1.0000 </r>
       <r>    3.1867    1.0000 </r>
       <r>    3.4578    1.0000 </r>
       <r>   25.3162    0.0000 </r>
       <r>   28.5912    0.0000 </r>
       <r>   28.7164    0.0000 </r>
       <r>   31.8115    0.0000 </r>
      </set>
      <set comment="kpoint 5">
       <r>   -2.7147    1.0000 </r>
       <r>    1.9167    1.0000 </r>
       <r>    2.6133    1.0000 </r>
       <r>    2.6536    1.0000 </r>
       <r>    3.1401    1.0000 </r>
       <r>    3.5411    1.0002 </r>
       <r>   23.1575    0.0000 </r>
       <r>   27.3577    0.0000 </r>
       <r>   27.7989    0.0000 </r>
       <r>   31.2318    0.0000 </r>
      </set>
      <set comment="kpoint 6">
       <r>   -1.9479    1.0000 </r>
       <r>    1.7500    1.0000 </r>
       <r>    2.5708    1.0000 </r>
       <r>    2.7628    1.0000 </r>
       <r>    3.2791    1.0000 </r>
       <r>    3.6651    1.0039 </r>
       <r>   21.0370    0.0000 </r>
       <r>   26.1122    0.0000 </r>
       <r>   26.9726    0.0000 </r>
       <r>   29.7849    0.0000 </r>
      </set>
      <set comment="kpoint 7">
       <r>   -1.1222    1.0000 </r>
       <r>    1.6004    1.0000 </r>
       <r>    2.4414    1.0000 </r>
       <r>    2.8553    1.0000 </r>
       <r>    3.6248    1.0018 </r>
       <r>    3.8181    1.0304 </r>
       <r>   19.0193    0.0000 </r>
       <r>   25.0144    0.0000 </r>
       <r>   25.8345    0.0000 </r>
       <r>   28.2167    0.0000 </r>
      </set>
      <set comment="kpoint 8">
       <r>   -0.3523    1.0000 </r>
       <r>    1.4846    1.0000 </r>
       <r>    2.3260    1.0000 </r>
       <r>    2.9359    1.0000 </r>
       <r>    3.9713    0.9492 </r>
       <r>    4.1833    0.1969 </r>
       <r>   17.1314    0.0000 </r>
       <r>   24.0975    0.0000 </r>
       <r>   24.1125    0.0000 </r>
       <r>   27.2752    0.0000 </r>
      </set>
      <set comment="kpoint 9">
       <r>    0.2219    1.0000 </r>
       <r>    1.4007    1.0000 </r>
       <r>    2.2909    1.0000 </r>
       <r>    3.0134    1.0000 </r>
       <r>    4.0905    0.5633 </r>
       <r>    5.0301   -0.0000 </r>
       <r>   15.3927    0.0000 </r>
       <r>   22.1195    0.0000 </r>
       <r>   23.3927    0.0000 </r>
       <r>   26.7988    0.0000 </r>
      </set>
      <set comment="kpoint 10">
       <r>    0.5553    1.0000 </r>
       <r>    1.3269    1.0000 </r>
       <r>    2.3396    1.0000 </r>
       <r>    3.0939    1.0000 </r>
       <r>    4.1470    0.3283 </r>
       <r>    6.2157   -0.0000 </r>
       <r>   13.8237    0.0000 </r>
       <r>   20.1438    0.0000 </r>
       <r>   22.9264    0.0000 </r>
       <r>   26.5528    0.0000 </r>
      </set>
      <set comment="kpoint 11">
       <r>    0.7436    1.0000 </r>
       <r>    1.2609    1.0000 </r>
       <r>    2.3897    1.0000 </r>
       <r>    3.1775    1.0000 </r>
       <r>    4.1258    0.4145 </r>
       <r>    7.6918   -0.0000 </r>
       <r>   12.4533    0.0000 </r>
       <r>   18.2971    0.0000 </r>
       <r>   22.7152    0.0000 </r>
       <r>   26.4551    0.0000 </r>
      </set>
      <set comment="kpoint 12">
       <r>    0.8844    1.0000 </r>
       <r>    1.2259    1.0000 </r>
       <r>    2.3671    1.0000 </r>
       <r>    3.2559    1.0000 </r>
       <r>    4.0320    0.7887 </r>
       <r>    9.2826   -0.0000 </r>
       <r>   11.3688    0.0000 </r>
       <r>   16.6587    0.0000 </r>
       <r>   22.7627    0.0000 </r>
       <r>   26.4703    0.0000 </r>
      </set>
      <set comment="kpoint 13">
       <r>    1.0122    1.0000 </r>
       <r>    1.2394    1.0000 </r>
       <r>    2.2602    1.0000 </r>
       <r>    3.3010    1.0000 </r>
       <r>    3.9031    1.0263 </r>
       <r>    9.8499    0.0000 </r>
       <r>   11.4933    0.0000 </r>
       <r>   15.4143    0.0000 </r>
       <r>   23.0592    0.0000 </r>
       <r>   26.5755    0.0000 </r>
      </set>
      <set comment="kpoint 14">
       <r>    1.0931    1.0000 </r>
       <r>    1.3085    1.0000 </r>
       <r>    2.1322    1.0000 </r>
       <r>    3.2474    1.0000 </r>
       <r>    3.8231    1.0313 </r>
       <r>    9.1463   -0.0000 </r>
       <r>   12.2334    0.0000 </r>
       <r>   15.3647    0.0000 </r>
       <r>   23.5849    0.0000 </r>
       <r>   26.7514    0.0000 </r>
      </set>
      <set comment="kpoint 15">
       <r>    1.0046    1.0000 </r>
       <r>    1.4611    1.0000 </r>
       <r>    2.1194    1.0000 </r>
       <r>    3.0686    1.0000 </r>
       <r>    3.8416    1.0343 </r>
       <r>    8.3767   -0.0000 </r>
       <r>   11.8014    0.0000 </r>
       <r>   17.0362    0.0000 </r>
       <r>   24.3149    0.0000 </r>
       <r>   26.9804    0.0000 </r>
      </set>
      <set comment="kpoint 16">
       <r>    0.7461    1.0000 </r>
       <r>    1.6810    1.0000 </r>
       <r>    2.2834    1.0000 </r>
       <r>    2.8383    1.0000 </r>
       <r>    3.9083    1.0236 </r>
       <r>    7.5781   -0.0000 </r>
       <r>   11.1917    0.0000 </r>
       <r>   19.3248    0.0000 </r>
       <r>   25.2226    0.0000 </r>
       <r>   27.2455    0.0000 </r>
      </set>
      <set comment="kpoint 17">
       <r>    0.4408    1.0000 </r>
       <r>    1.9183    1.0000 </r>
       <r>    2.5878    1.0000 </r>
       <r>    2.6180    1.0000 </r>
       <r>    3.9811    0.9295 </r>
       <r>    6.7357   -0.0000 </r>
       <r>   10.7519    0.0000 </r>
       <r>   21.8115    0.0000 </r>
       <r>   26.2801    0.0000 </r>
       <r>   27.5329    0.0000 </r>
      </set>
      <set comment="kpoint 18">
       <r>    0.1769    1.0000 </r>
       <r>    2.1182    1.0000 </r>
       <r>    2.4415    1.0000 </r>
       <r>    3.0218    1.0000 </r>
       <r>    4.0418    0.7548 </r>
       <r>    5.8796   -0.0000 </r>
       <r>   10.4892    0.0000 </r>
       <r>   24.3300    0.0000 </r>
       <r>   27.4477    0.0000 </r>
       <r>   27.8508    0.0000 </r>
      </set>
      <set comment="kpoint 19">
       <r>    0.0025    1.0000 </r>
       <r>    2.2461    1.0000 </r>
       <r>    2.3285    1.0000 </r>
       <r>    3.5756    1.0006 </r>
       <r>    4.0814    0.6012 </r>
       <r>    5.0595   -0.0000 </r>
       <r>   10.3560    0.0000 </r>
       <r>   26.4692    0.0000 </r>
       <r>   28.3998    0.0000 </r>
       <r>   28.6191    0.0000 </r>
      </set>
      <set comment="kpoint 20">
       <r>   -0.0581    1.0000 </r>
       <r>    2.2896    1.0000 </r>
       <r>    2.2896    1.0000 </r>
       <r>    4.0950    0.5442 </r>
       <r>    4.0950    0.5442 </r>
       <r>    4.4495   -0.0177 </r>
       <r>   10.3158    0.0000 </r>
       <r>   27.1798    0.0000 </r>
       <r>   29.2844    0.0000 </r>
       <r>   29.2844    0.0000 </r>
      </set>
      <set comment="kpoint 21">
       <r>   -0.0581    1.0000 </r>
       <r>    2.2896    1.0000 </r>
       <r>    2.2896    1.0000 </r>
       <r>    4.0950    0.5442 </r>
       <r>    4.0950    0.5442 </r>
       <r>    4.4495   -0.0177 </r>
       <r>   10.3158    0.0000 </r>
       <r>   27.1798    0.0000 </r>
       <r>   29.2844    0.0000 </r>
       <r>   29.2844    0.0000 </r>
      </set>
      <set comment="kpoint 22">
       <r>   -0.0117    1.0000 </r>
       <r>    2.2558    1.0000 </r>
       <r>    2.3192    1.0000 </r>
       <r>    3.6571    1.0034 </r>
       <r>    4.0905    0.5632 </r>
       <r>    4.9624   -0.0000 </r>
       <r>   10.3298    0.0000 </r>
       <r>   26.6954    0.0000 </r>
       <r>   28.3559    0.0000 </r>
       <r>   28.8929    0.0000 </r>
      </set>
      <set comment="kpoint 23">
       <r>    0.1229    1.0000 </r>
       <r>    2.1544    1.0000 </r>
       <r>    2.4067    1.0000 </r>
       <r>    3.1615    1.0000 </r>
       <r>    4.0774    0.6177 </r>
       <r>    5.6860   -0.0000 </r>
       <r>   10.3743    0.0000 </r>
       <r>   25.3092    0.0000 </r>
       <r>   26.6137    0.0000 </r>
       <r>   28.8561    0.0000 </r>
      </set>
      <set comment="kpoint 24">
       <r>    0.3317    1.0000 </r>
       <r>    1.9869    1.0000 </r>
       <r>    2.5485    1.0000 </r>
       <r>    2.7510    1.0000 </r>
       <r>    4.0574    0.6972 </r>
       <r>    6.4843   -0.0000 </r>
       <r>   10.4571    0.0000 </r>
       <r>   23.6147    0.0000 </r>
       <r>   24.7185    0.0000 </r>
       <r>   29.2406    0.0000 </r>
      </set>
      <set comment="kpoint 25">
       <r>    0.5927    1.0000 </r>
       <r>    1.7662    1.0000 </r>
       <r>    2.4331    1.0000 </r>
       <r>    2.7350    1.0000 </r>
       <r>    4.0351    0.7785 </r>
       <r>    7.3491   -0.0000 </r>
       <r>   10.5911    0.0000 </r>
       <r>   21.9006    0.0000 </r>
       <r>   22.8346    0.0000 </r>
       <r>   29.8645    0.0000 </r>
      </set>
      <set comment="kpoint 26">
       <r>    0.8778    1.0000 </r>
       <r>    1.5268    1.0000 </r>
       <r>    2.1909    1.0000 </r>
       <r>    2.9447    1.0000 </r>
       <r>    4.0211    0.8244 </r>
       <r>    8.2768   -0.0000 </r>
       <r>   10.7947    0.0000 </r>
       <r>   20.2409    0.0000 </r>
       <r>   21.0300    0.0000 </r>
       <r>   30.6708    0.0000 </r>
      </set>
      <set comment="kpoint 27">
       <r>    1.1573    1.0000 </r>
       <r>    1.3071    1.0000 </r>
       <r>    2.0022    1.0000 </r>
       <r>    3.1376    1.0000 </r>
       <r>    4.0359    0.7756 </r>
       <r>    9.2628   -0.0000 </r>
       <r>   11.0877    0.0000 </r>
       <r>   18.6612    0.0000 </r>
       <r>   19.3511    0.0000 </r>
       <r>   31.6303    0.0000 </r>
      </set>
      <set comment="kpoint 28">
       <r>    1.1313    1.0000 </r>
       <r>    1.4025    1.0000 </r>
       <r>    1.8578    1.0000 </r>
       <r>    3.2644    1.0000 </r>
       <r>    4.1005    0.5210 </r>
       <r>   10.2964    0.0000 </r>
       <r>   11.4811    0.0000 </r>
       <r>   17.1795    0.0000 </r>
       <r>   17.8480    0.0000 </r>
       <r>   32.7180    0.0000 </r>
      </set>
      <set comment="kpoint 29">
       <r>    1.0104    1.0000 </r>
       <r>    1.5872    1.0000 </r>
       <r>    1.7583    1.0000 </r>
       <r>    3.3134    1.0000 </r>
       <r>    4.1965    0.1556 </r>
       <r>   11.3423    0.0000 </r>
       <r>   11.9460    0.0000 </r>
       <r>   15.8342    0.0000 </r>
       <r>   16.6062    0.0000 </r>
       <r>   33.8968    0.0000 </r>
      </set>
      <set comment="kpoint 30">
       <r>    0.9491    1.0000 </r>
       <r>    1.6877    1.0000 </r>
       <r>    1.7072    1.0000 </r>
       <r>    3.3212    1.0000 </r>
       <r>    4.2656    0.0098 </r>
       <r>   12.2276    0.0000 </r>
       <r>   12.3320    0.0000 </r>
       <r>   14.7988    0.0000 </r>
       <r>   15.8198    0.0000 </r>
       <r>   35.1505    0.0000 </r>
      </set>
      <set comment="kpoint 31">
       <r>    0.9491    1.0000 </r>
       <r>    1.6877    1.0000 </r>
       <r>    1.7072    1.0000 </r>
       <r>    3.3212    1.0000 </r>
       <r>    4.2656    0.0098 </r>
       <r>   12.2276    0.0000 </r>
       <r>   12.3320    0.0000 </r>
       <r>   14.7988    0.0000 </r>
       <r>   15.8198    0.0000 </r>
       <r>   35.0120    0.0000 </r>
      </set>
      <set comment="kpoint 32">
       <r>    1.0104    1.0000 </r>
       <r>    1.5872    1.0000 </r>
       <r>    1.7583    1.0000 </r>
       <r>    3.3134    1.0000 </r>
       <r>    4.1965    0.1556 </r>
       <r>   11.3422    0.0000 </r>
       <r>   11.9461    0.0000 </r>
       <r>   15.8342    0.0000 </r>
       <r>   16.6062    0.0000 </r>
       <r>   33.9006    0.0000 </r>
      </set>
      <set comment="kpoint 33">
       <r>    1.1313    1.0000 </r>
       <r>    1.4025    1.0000 </r>
       <r>    1.8578    1.0000 </r>
       <r>    3.2644    1.0000 </r>
       <r>    4.1005    0.5210 </r>
       <r>   10.2964    0.0000 </r>
       <r>   11.4812    0.0000 </r>
       <r>   17.1796    0.0000 </r>
       <r>   17.8480    0.0000 </r>
       <r>   32.7180    0.0000 </r>
      </set>
      <set comment="kpoint 34">
       <r>    1.1573    1.0000 </r>
       <r>    1.3071    1.0000 </r>
       <r>    2.0022    1.0000 </r>
       <r>    3.1376    1.0000 </r>
       <r>    4.0359    0.7756 </r>
       <r>    9.2628   -0.0000 </r>
       <r>   11.0877    0.0000 </r>
       <r>   18.6612    0.0000 </r>
       <r>   19.3510    0.0000 </r>
       <r>   31.6302    0.0000 </r>
      </set>
      <set comment="kpoint 35">
       <r>    0.8778    1.0000 </r>
       <r>    1.5268    1.0000 </r>
       <r>    2.1909    1.0000 </r>
       <r>    2.9447    1.0000 </r>
       <r>    4.0211    0.8244 </r>
       <r>    8.2768   -0.0000 </r>
       <r>   10.7947    0.0000 </r>
       <r>   20.2409    0.0000 </r>
       <r>   21.0300    0.0000 </r>
       <r>   30.6707    0.0000 </r>
      </set>
      <set comment="kpoint 36">
       <r>    0.5927    1.0000 </r>
       <r>    1.7662    1.0000 </r>
       <r>    2.4331    1.0000 </r>
       <r>    2.7350    1.0000 </r>
       <r>    4.0351    0.7785 </r>
       <r>    7.3491   -0.0000 </r>
       <r>   10.5912    0.0000 </r>
       <r>   21.9006    0.0000 </r>
       <r>   22.8346    0.0000 </r>
       <r>   29.8645    0.0000 </r>
      </set>
      <set comment="kpoint 37">
       <r>    0.3317    1.0000 </r>
       <r>    1.9869    1.0000 </r>
       <r>    2.5485    1.0000 </r>
       <r>    2.7510    1.0000 </r>
       <r>    4.0574    0.6972 </r>
       <r>    6.4843   -0.0000 </r>
       <r>   10.4571    0.0000 </r>
       <r>   23.6148    0.0000 </r>
       <r>   24.7185    0.0000 </r>
       <r>   29.2405    0.0000 </r>
      </set>
      <set comment="kpoint 38">
       <r>    0.1229    1.0000 </r>
       <r>    2.1544    1.0000 </r>
       <r>    2.4067    1.0000 </r>
       <r>    3.1615    1.0000 </r>
       <r>    4.0774    0.6177 </r>
       <r>    5.6859   -0.0000 </r>
       <r>   10.3744    0.0000 </r>
       <r>   25.3092    0.0000 </r>
       <r>   26.6137    0.0000 </r>
       <r>   28.8560    0.0000 </r>
      </set>
      <set comment="kpoint 39">
       <r>   -0.0117    1.0000 </r>
       <r>    2.2558    1.0000 </r>
       <r>    2.3192    1.0000 </r>
       <r>    3.6571    1.0034 </r>
       <r>    4.0905    0.5632 </r>
       <r>    4.9624   -0.0000 </r>
       <r>   10.3299    0.0000 </r>
       <r>   26.6954    0.0000 </r>
       <r>   28.3558    0.0000 </r>
       <r>   28.8929    0.0000 </r>
      </set>
      <set comment="kpoint 40">
       <r>   -0.0581    1.0000 </r>
       <r>    2.2896    1.0000 </r>
       <r>    2.2896    1.0000 </r>
       <r>    4.0950    0.5442 </r>
       <r>    4.0950    0.5442 </r>
       <r>    4.4494   -0.0177 </r>
       <r>   10.3159    0.0000 </r>
       <r>   27.1798    0.0000 </r>
       <r>   29.2844    0.0000 </r>
       <r>   29.2844    0.0000 </r>
      </set>
      <set comment="kpoint 41">
       <r>   -0.0581    1.0000 </r>
       <r>    2.2896    1.0000 </r>
       <r>    2.2896    1.0000 </r>
       <r>    4.0950    0.5442 </r>
       <r>    4.0950    0.5442 </r>
       <r>    4.4494   -0.0177 </r>
       <r>   10.3159    0.0000 </r>
       <r>   27.1798    0.0000 </r>
       <r>   29.2844    0.0000 </r>
       <r>   29.2844    0.0000 </r>
      </set>
      <set comment="kpoint 42">
       <r>   -0.0616    1.0000 </r>
       <r>    2.2903    1.0000 </r>
       <r>    2.2945    1.0000 </r>
       <r>    4.0066    0.8670 </r>
       <r>    4.0836    0.5920 </r>
       <r>    4.4553   -0.0165 </r>
       <r>   10.4449    0.0000 </r>
       <r>   27.1559    0.0000 </r>
       <r>   29.1189    0.0000 </r>
       <r>   29.3131    0.0000 </r>
      </set>
      <set comment="kpoint 43">
       <r>   -0.0733    1.0000 </r>
       <r>    2.2922    1.0000 </r>
       <r>    2.3091    1.0000 </r>
       <r>    3.7758    1.0209 </r>
       <r>    4.0497    0.7261 </r>
       <r>    4.4589   -0.0157 </r>
       <r>   10.8122    0.0000 </r>
       <r>   27.0505    0.0000 </r>
       <r>   28.7836    0.0000 </r>
       <r>   29.3985    0.0000 </r>
      </set>
      <set comment="kpoint 44">
       <r>   -0.0965    1.0000 </r>
       <r>    2.2958    1.0000 </r>
       <r>    2.3332    1.0000 </r>
       <r>    3.4594    1.0000 </r>
       <r>    3.9946    0.8986 </r>
       <r>    4.4516   -0.0172 </r>
       <r>   11.3727    0.0000 </r>
       <r>   26.7783    0.0000 </r>
       <r>   28.5357    0.0000 </r>
       <r>   29.5374    0.0000 </r>
      </set>
      <set comment="kpoint 45">
       <r>   -0.1370    1.0000 </r>
       <r>    2.3013    1.0000 </r>
       <r>    2.3664    1.0000 </r>
       <r>    3.1076    1.0000 </r>
       <r>    3.9201    1.0158 </r>
       <r>    4.4341   -0.0211 </r>
       <r>   12.0801    0.0000 </r>
       <r>   26.3092    0.0000 </r>
       <r>   28.4912    0.0000 </r>
       <r>   29.7249    0.0000 </r>
      </set>
      <set comment="kpoint 46">
       <r>   -0.2024    1.0000 </r>
       <r>    2.3092    1.0000 </r>
       <r>    2.4083    1.0000 </r>
       <r>    2.7613    1.0000 </r>
       <r>    3.8288    1.0324 </r>
       <r>    4.4082   -0.0271 </r>
       <r>   12.8985    0.0000 </r>
       <r>   25.7202    0.0000 </r>
       <r>   28.6099    0.0000 </r>
       <r>   29.9546    0.0000 </r>
      </set>
      <set comment="kpoint 47">
       <r>   -0.3012    1.0000 </r>
       <r>    2.3200    1.0000 </r>
       <r>    2.4515    1.0000 </r>
       <r>    2.4583    1.0000 </r>
       <r>    3.7237    1.0106 </r>
       <r>    4.3745   -0.0336 </r>
       <r>   13.8031    0.0000 </r>
       <r>   25.0863    0.0000 </r>
       <r>   28.8334    0.0000 </r>
       <r>   30.2191    0.0000 </r>
      </set>
      <set comment="kpoint 48">
       <r>   -0.4392    1.0000 </r>
       <r>    2.1985    1.0000 </r>
       <r>    2.3344    1.0000 </r>
       <r>    2.5157    1.0000 </r>
       <r>    3.6081    1.0012 </r>
       <r>    4.3337   -0.0343 </r>
       <r>   14.7768    0.0000 </r>
       <r>   24.4470    0.0000 </r>
       <r>   29.1305    0.0000 </r>
       <r>   30.5110    0.0000 </r>
      </set>
      <set comment="kpoint 49">
       <r>   -0.6159    1.0000 </r>
       <r>    2.0117    1.0000 </r>
       <r>    2.3520    1.0000 </r>
       <r>    2.5795    1.0000 </r>
       <r>    3.4857    1.0001 </r>
       <r>    4.2859   -0.0118 </r>
       <r>   15.8081    0.0000 </r>
       <r>   23.8216    0.0000 </r>
       <r>   29.4850    0.0000 </r>
       <r>   30.8241    0.0000 </r>
      </set>
      <set comment="kpoint 50">
       <r>   -0.8224    1.0000 </r>
       <r>    1.8880    1.0000 </r>
       <r>    2.3730    1.0000 </r>
       <r>    2.6487    1.0000 </r>
       <r>    3.3601    1.0000 </r>
       <r>    4.2313    0.0673 </r>
       <r>   16.8880    0.0000 </r>
       <r>   23.2211    0.0000 </r>
       <r>   29.8861    0.0000 </r>
       <r>   31.1543    0.0000 </r>
      </set>
      <set comment="kpoint 51">
       <r>   -1.0444    1.0000 </r>
       <r>    1.8174    1.0000 </r>
       <r>    2.3969    1.0000 </r>
       <r>    2.7218    1.0000 </r>
       <r>    3.2354    1.0000 </r>
       <r>    4.1701    0.2417 </r>
       <r>   18.0087    0.0000 </r>
       <r>   22.6536    0.0000 </r>
       <r>   30.3228    0.0000 </r>
       <r>   31.4999    0.0000 </r>
      </set>
      <set comment="kpoint 52">
       <r>   -1.2665    1.0000 </r>
       <r>    1.7873    1.0000 </r>
       <r>    2.4226    1.0000 </r>
       <r>    2.7958    1.0000 </r>
       <r>    3.1169    1.0000 </r>
       <r>    4.1026    0.5123 </r>
       <r>   19.1585    0.0000 </r>
       <r>   22.1298    0.0000 </r>
       <r>   30.7782    0.0000 </r>
       <r>   31.8617    0.0000 </r>
      </set>
      <set comment="kpoint 53">
       <r>   -1.4756    1.0000 </r>
       <r>    1.7866    1.0000 </r>
       <r>    2.4488    1.0000 </r>
       <r>    2.8585    1.0000 </r>
       <r>    3.0190    1.0000 </r>
       <r>    4.0291    0.7985 </r>
       <r>   20.2936    0.0000 </r>
       <r>   21.6924    0.0000 </r>
       <r>   31.2141    0.0000 </r>
       <r>   32.2423    0.0000 </r>
      </set>
      <set comment="kpoint 54">
       <r>   -1.6616    1.0000 </r>
       <r>    1.8064    1.0000 </r>
       <r>    2.4736    1.0000 </r>
       <r>    2.8443    1.0000 </r>
       <r>    3.0091    1.0000 </r>
       <r>    3.9505    0.9834 </r>
       <r>   20.8861    0.0000 </r>
       <r>   21.8674    0.0000 </r>
       <r>   31.5246    0.0000 </r>
       <r>   32.6438    0.0000 </r>
      </set>
      <set comment="kpoint 55">
       <r>   -1.8172    1.0000 </r>
       <r>    1.8402    1.0000 </r>
       <r>    2.4954    1.0000 </r>
       <r>    2.7651    1.0000 </r>
       <r>    3.0768    1.0000 </r>
       <r>    3.8677    1.0353 </r>
       <r>   20.5920    0.0000 </r>
       <r>   22.9963    0.0000 </r>
       <r>   31.5118    0.0000 </r>
       <r>   33.0707    0.0000 </r>
      </set>
      <set comment="kpoint 56">
       <r>   -1.9372    1.0000 </r>
       <r>    1.8824    1.0000 </r>
       <r>    2.5123    1.0000 </r>
       <r>    2.6868    1.0000 </r>
       <r>    3.1573    1.0000 </r>
       <r>    3.7824    1.0224 </r>
       <r>   20.2261    0.0000 </r>
       <r>   24.2607    0.0000 </r>
       <r>   31.1760    0.0000 </r>
       <r>   33.5286    0.0000 </r>
      </set>
      <set comment="kpoint 57">
       <r>   -2.0182    1.0000 </r>
       <r>    1.9277    1.0000 </r>
       <r>    2.5233    1.0000 </r>
       <r>    2.6214    1.0000 </r>
       <r>    3.2398    1.0000 </r>
       <r>    3.6969    1.0069 </r>
       <r>   19.8828    0.0000 </r>
       <r>   25.5600    0.0000 </r>
       <r>   30.7049    0.0000 </r>
       <r>   32.9173    0.0000 </r>
      </set>
      <set comment="kpoint 58">
       <r>   -2.0579    1.0000 </r>
       <r>    1.9702    1.0000 </r>
       <r>    2.5285    1.0000 </r>
       <r>    2.5720    1.0000 </r>
       <r>    3.3217    1.0000 </r>
       <r>    3.6144    1.0014 </r>
       <r>   19.5734    0.0000 </r>
       <r>   26.8679    0.0000 </r>
       <r>   30.2085    0.0000 </r>
       <r>   31.9106    0.0000 </r>
      </set>
      <set comment="kpoint 59">
       <r>   -2.0550    1.0000 </r>
       <r>    2.0026    1.0000 </r>
       <r>    2.5292    1.0000 </r>
       <r>    2.5404    1.0000 </r>
       <r>    3.4016    1.0000 </r>
       <r>    3.5396    1.0002 </r>
       <r>   19.3004    0.0000 </r>
       <r>   28.1172    0.0000 </r>
       <r>   29.7821    0.0000 </r>
       <r>   30.9308    0.0000 </r>
      </set>
      <set comment="kpoint 60">
       <r>   -2.0091    1.0000 </r>
       <r>    2.0163    1.0000 </r>
       <r>    2.5276    1.0000 </r>
       <r>    2.5276    1.0000 </r>
       <r>    3.4786    1.0000 </r>
       <r>    3.4786    1.0000 </r>
       <r>   19.0643    0.0000 </r>
       <r>   28.7541    0.0000 </r>
       <r>   29.9803    0.0000 </r>
       <r>   29.9803    0.0000 </r>
      </set>
      <set comment="kpoint 61">
       <r>   -2.0091    1.0000 </r>
       <r>    2.0163    1.0000 </r>
       <r>    2.5276    1.0000 </r>
       <r>    2.5276    1.0000 </r>
       <r>    3.4786    1.0000 </r>
       <r>    3.4786    1.0000 </r>
       <r>   19.0643    0.0000 </r>
       <r>   28.7541    0.0000 </r>
       <r>   29.9803    0.0000 </r>
       <r>   29.9803    0.0000 </r>
      </set>
      <set comment="kpoint 62">
       <r>   -2.2096    1.0000 </r>
       <r>    2.0159    1.0000 </r>
       <r>    2.5343    1.0000 </r>
       <r>    2.5343    1.0000 </r>
       <r>    3.4446    1.0000 </r>
       <r>    3.4446    1.0000 </r>
       <r>   19.7216    0.0000 </r>
       <r>   28.8720    0.0000 </r>
       <r>   30.0761    0.0000 </r>
       <r>   30.0761    0.0000 </r>
      </set>
      <set comment="kpoint 63">
       <r>   -2.4062    1.0000 </r>
       <r>    2.0233    1.0000 </r>
       <r>    2.5373    1.0000 </r>
       <r>    2.5373    1.0000 </r>
       <r>    3.4150    1.0000 </r>
       <r>    3.4150    1.0000 </r>
       <r>   20.3871    0.0000 </r>
       <r>   28.9852    0.0000 </r>
       <r>   30.1790    0.0000 </r>
       <r>   30.1790    0.0000 </r>
      </set>
      <set comment="kpoint 64">
       <r>   -2.5973    1.0000 </r>
       <r>    2.0368    1.0000 </r>
       <r>    2.5363    1.0000 </r>
       <r>    2.5363    1.0000 </r>
       <r>    3.3903    1.0000 </r>
       <r>    3.3903    1.0000 </r>
       <r>   21.0598    0.0000 </r>
       <r>   29.0927    0.0000 </r>
       <r>   30.2888    0.0000 </r>
       <r>   30.2888    0.0000 </r>
      </set>
      <set comment="kpoint 65">
       <r>   -2.7815    1.0000 </r>
       <r>    2.0549    1.0000 </r>
       <r>    2.5313    1.0000 </r>
       <r>    2.5313    1.0000 </r>
       <r>    3.3707    1.0000 </r>
       <r>    3.3707    1.0000 </r>
       <r>   21.7388    0.0000 </r>
       <r>   29.1938    0.0000 </r>
       <r>   30.4057    0.0000 </r>
       <r>   30.4057    0.0000 </r>
      </set>
      <set comment="kpoint 66">
       <r>   -2.9575    1.0000 </r>
       <r>    2.0765    1.0000 </r>
       <r>    2.5223    1.0000 </r>
       <r>    2.5223    1.0000 </r>
       <r>    3.3562    1.0000 </r>
       <r>    3.3562    1.0000 </r>
       <r>   22.4228    0.0000 </r>
       <r>   29.2881    0.0000 </r>
       <r>   30.5294    0.0000 </r>
       <r>   30.5294    0.0000 </r>
      </set>
      <set comment="kpoint 67">
       <r>   -3.1243    1.0000 </r>
       <r>    2.1005    1.0000 </r>
       <r>    2.5098    1.0000 </r>
       <r>    2.5098    1.0000 </r>
       <r>    3.3464    1.0000 </r>
       <r>    3.3464    1.0000 </r>
       <r>   23.1104    0.0000 </r>
       <r>   29.3761    0.0000 </r>
       <r>   30.6598    0.0000 </r>
       <r>   30.6598    0.0000 </r>
      </set>
      <set comment="kpoint 68">
       <r>   -3.2812    1.0000 </r>
       <r>    2.1260    1.0000 </r>
       <r>    2.4945    1.0000 </r>
       <r>    2.4945    1.0000 </r>
       <r>    3.3409    1.0000 </r>
       <r>    3.3409    1.0000 </r>
       <r>   23.7992    0.0000 </r>
       <r>   29.4590    0.0000 </r>
       <r>   30.7967    0.0000 </r>
       <r>   30.7967    0.0000 </r>
      </set>
      <set comment="kpoint 69">
       <r>   -3.4275    1.0000 </r>
       <r>    2.1521    1.0000 </r>
       <r>    2.4769    1.0000 </r>
       <r>    2.4769    1.0000 </r>
       <r>    3.3390    1.0000 </r>
       <r>    3.3390    1.0000 </r>
       <r>   24.4864    0.0000 </r>
       <r>   29.5391    0.0000 </r>
       <r>   30.9395    0.0000 </r>
       <r>   30.9395    0.0000 </r>
      </set>
      <set comment="kpoint 70">
       <r>   -3.5626    1.0000 </r>
       <r>    2.1782    1.0000 </r>
       <r>    2.4580    1.0000 </r>
       <r>    2.4580    1.0000 </r>
       <r>    3.3401    1.0000 </r>
       <r>    3.3401    1.0000 </r>
       <r>   25.1674    0.0000 </r>
       <r>   29.6205    0.0000 </r>
       <r>   31.0877    0.0000 </r>
       <r>   31.0877    0.0000 </r>
      </set>
      <set comment="kpoint 71">
       <r>   -3.6861    1.0000 </r>
       <r>    2.2036    1.0000 </r>
       <r>    2.4385    1.0000 </r>
       <r>    2.4385    1.0000 </r>
       <r>    3.3433    1.0000 </r>
       <r>    3.3433    1.0000 </r>
       <r>   25.8350    0.0000 </r>
       <r>   29.7098    0.0000 </r>
       <r>   31.2403    0.0000 </r>
       <r>   31.2403    0.0000 </r>
      </set>
      <set comment="kpoint 72">
       <r>   -3.7974    1.0000 </r>
       <r>    2.2278    1.0000 </r>
       <r>    2.4192    1.0000 </r>
       <r>    2.4192    1.0000 </r>
       <r>    3.3479    1.0000 </r>
       <r>    3.3479    1.0000 </r>
       <r>   26.4780    0.0000 </r>
       <r>   29.8178    0.0000 </r>
       <r>   31.3963    0.0000 </r>
       <r>   31.3963    0.0000 </r>
      </set>
      <set comment="kpoint 73">
       <r>   -3.8964    1.0000 </r>
       <r>    2.2503    1.0000 </r>
       <r>    2.4006    1.0000 </r>
       <r>    2.4006    1.0000 </r>
       <r>    3.3534    1.0000 </r>
       <r>    3.3534    1.0000 </r>
       <r>   27.0781    0.0000 </r>
       <r>   29.9617    0.0000 </r>
       <r>   31.5537    0.0000 </r>
       <r>   31.5537    0.0000 </r>
      </set>
      <set comment="kpoint 74">
       <r>   -3.9827    1.0000 </r>
       <r>    2.2706    1.0000 </r>
       <r>    2.3835    1.0000 </r>
       <r>    2.3835    1.0000 </r>
       <r>    3.3592    1.0000 </r>
       <r>    3.3592    1.0000 </r>
       <r>   27.6082    0.0000 </r>
       <r>   30.1662    0.0000 </r>
       <r>   31.7100    0.0000 </r>
       <r>   31.7100    0.0000 </r>
      </set>
      <set comment="kpoint 75">
       <r>   -4.0561    1.0000 </r>
       <r>    2.2884    1.0000 </r>
       <r>    2.3682    1.0000 </r>
       <r>    2.3682    1.0000 </r>
       <r>    3.3648    1.0000 </r>
       <r>    3.3648    1.0000 </r>
       <r>   28.0375    0.0000 </r>
       <r>   30.4583    0.0000 </r>
       <r>   31.8617    0.0000 </r>
       <r>   31.8618    0.0000 </r>
      </set>
      <set comment="kpoint 76">
       <r>   -4.1163    1.0000 </r>
       <r>    2.3034    1.0000 </r>
       <r>    2.3553    1.0000 </r>
       <r>    2.3553    1.0000 </r>
       <r>    3.3699    1.0000 </r>
       <r>    3.3699    1.0000 </r>
       <r>   28.3481    0.0000 </r>
       <r>   30.8473    0.0000 </r>
       <r>   32.0038    0.0000 </r>
       <r>   32.0038    0.0000 </r>
      </set>
      <set comment="kpoint 77">
       <r>   -4.1634    1.0000 </r>
       <r>    2.3154    1.0000 </r>
       <r>    2.3448    1.0000 </r>
       <r>    2.3448    1.0000 </r>
       <r>    3.3742    1.0000 </r>
       <r>    3.3742    1.0000 </r>
       <r>   28.5503    0.0000 </r>
       <r>   31.3070    0.0000 </r>
       <r>   32.1293    0.0000 </r>
       <r>   32.1293    0.0000 </r>
      </set>
      <set comment="kpoint 78">
       <r>   -4.1970    1.0000 </r>
       <r>    2.3241    1.0000 </r>
       <r>    2.3372    1.0000 </r>
       <r>    2.3372    1.0000 </r>
       <r>    3.3774    1.0000 </r>
       <r>    3.3774    1.0000 </r>
       <r>   28.6708    0.0000 </r>
       <r>   31.7768    0.0000 </r>
       <r>   32.2297    0.0000 </r>
       <r>   32.2305    0.0000 </r>
      </set>
      <set comment="kpoint 79">
       <r>   -4.2173    1.0000 </r>
       <r>    2.3293    1.0000 </r>
       <r>    2.3326    1.0000 </r>
       <r>    2.3326    1.0000 </r>
       <r>    3.3793    1.0000 </r>
       <r>    3.3793    1.0000 </r>
       <r>   28.7337    0.0000 </r>
       <r>   32.1607    0.0000 </r>
       <r>   32.2953    0.0000 </r>
       <r>   32.2953    0.0000 </r>
      </set>
      <set comment="kpoint 80">
       <r>   -4.2240    1.0000 </r>
       <r>    2.3310    1.0000 </r>
       <r>    2.3311    1.0000 </r>
       <r>    2.3311    1.0000 </r>
       <r>    3.3800    1.0000 </r>
       <r>    3.3800    1.0000 </r>
       <r>   28.7531    0.0000 </r>
       <r>   32.3183    0.0000 </r>
       <r>   32.3183    0.0000 </r>
       <r>   32.3183    0.0000 </r>
      </set>
      <set comment="kpoint 81">
       <r>   -4.2240    1.0000 </r>
       <r>    2.3310    1.0000 </r>
       <r>    2.3311    1.0000 </r>
       <r>    2.3311    1.0000 </r>
       <r>    3.3800    1.0000 </r>
       <r>    3.3800    1.0000 </r>
       <r>   28.7531    0.0000 </r>
       <r>   32.3183    0.0000 </r>
       <r>   32.3183    0.0000 </r>
       <r>   32.3185    0.0000 </r>
      </set>
      <set comment="kpoint 82">
       <r>   -4.1970    1.0000 </r>
       <r>    2.3241    1.0000 </r>
       <r>    2.3372    1.0000 </r>
       <r>    2.3372    1.0000 </r>
       <r>    3.3774    1.0000 </r>
       <r>    3.3774    1.0000 </r>
       <r>   28.6708    0.0000 </r>
       <r>   31.7768    0.0000 </r>
       <r>   32.2297    0.0000 </r>
       <r>   32.2297    0.0000 </r>
      </set>
      <set comment="kpoint 83">
       <r>   -4.1163    1.0000 </r>
       <r>    2.3034    1.0000 </r>
       <r>    2.3553    1.0000 </r>
       <r>    2.3553    1.0000 </r>
       <r>    3.3699    1.0000 </r>
       <r>    3.3699    1.0000 </r>
       <r>   28.3481    0.0000 </r>
       <r>   30.8473    0.0000 </r>
       <r>   32.0038    0.0000 </r>
       <r>   32.0039    0.0000 </r>
      </set>
      <set comment="kpoint 84">
       <r>   -3.9827    1.0000 </r>
       <r>    2.2706    1.0000 </r>
       <r>    2.3835    1.0000 </r>
       <r>    2.3835    1.0000 </r>
       <r>    3.3592    1.0000 </r>
       <r>    3.3592    1.0000 </r>
       <r>   27.6082    0.0000 </r>
       <r>   30.1663    0.0000 </r>
       <r>   31.7100    0.0000 </r>
       <r>   31.7100    0.0000 </r>
      </set>
      <set comment="kpoint 85">
       <r>   -3.7974    1.0000 </r>
       <r>    2.2278    1.0000 </r>
       <r>    2.4191    1.0000 </r>
       <r>    2.4192    1.0000 </r>
       <r>    3.3479    1.0000 </r>
       <r>    3.3479    1.0000 </r>
       <r>   26.4780    0.0000 </r>
       <r>   29.8179    0.0000 </r>
       <r>   31.3962    0.0000 </r>
       <r>   31.3963    0.0000 </r>
      </set>
      <set comment="kpoint 86">
       <r>   -3.5626    1.0000 </r>
       <r>    2.1782    1.0000 </r>
       <r>    2.4580    1.0000 </r>
       <r>    2.4580    1.0000 </r>
       <r>    3.3401    1.0000 </r>
       <r>    3.3401    1.0000 </r>
       <r>   25.1674    0.0000 </r>
       <r>   29.6205    0.0000 </r>
       <r>   31.0876    0.0000 </r>
       <r>   31.0877    0.0000 </r>
      </set>
      <set comment="kpoint 87">
       <r>   -3.2812    1.0000 </r>
       <r>    2.1260    1.0000 </r>
       <r>    2.4945    1.0000 </r>
       <r>    2.4945    1.0000 </r>
       <r>    3.3409    1.0000 </r>
       <r>    3.3409    1.0000 </r>
       <r>   23.7992    0.0000 </r>
       <r>   29.4590    0.0000 </r>
       <r>   30.7966    0.0000 </r>
       <r>   30.7967    0.0000 </r>
      </set>
      <set comment="kpoint 88">
       <r>   -2.9574    1.0000 </r>
       <r>    2.0765    1.0000 </r>
       <r>    2.5223    1.0000 </r>
       <r>    2.5223    1.0000 </r>
       <r>    3.3562    1.0000 </r>
       <r>    3.3562    1.0000 </r>
       <r>   22.4228    0.0000 </r>
       <r>   29.2881    0.0000 </r>
       <r>   30.5294    0.0000 </r>
       <r>   30.5294    0.0000 </r>
      </set>
      <set comment="kpoint 89">
       <r>   -2.5973    1.0000 </r>
       <r>    2.0368    1.0000 </r>
       <r>    2.5363    1.0000 </r>
       <r>    2.5363    1.0000 </r>
       <r>    3.3903    1.0000 </r>
       <r>    3.3903    1.0000 </r>
       <r>   21.0598    0.0000 </r>
       <r>   29.0927    0.0000 </r>
       <r>   30.2888    0.0000 </r>
       <r>   30.2888    0.0000 </r>
      </set>
      <set comment="kpoint 90">
       <r>   -2.2096    1.0000 </r>
       <r>    2.0159    1.0000 </r>
       <r>    2.5343    1.0000 </r>
       <r>    2.5343    1.0000 </r>
       <r>    3.4446    1.0000 </r>
       <r>    3.4446    1.0000 </r>
       <r>   19.7216    0.0000 </r>
       <r>   28.8720    0.0000 </r>
       <r>   30.0761    0.0000 </r>
       <r>   30.0761    0.0000 </r>
      </set>
      <set comment="kpoint 91">
       <r>   -1.8068    1.0000 </r>
       <r>    2.0263    1.0000 </r>
       <r>    2.5177    1.0000 </r>
       <r>    2.5177    1.0000 </r>
       <r>    3.5164    1.0001 </r>
       <r>    3.5164    1.0001 </r>
       <r>   18.4161    0.0000 </r>
       <r>   28.6328    0.0000 </r>
       <r>   29.8915    0.0000 </r>
       <r>   29.8915    0.0000 </r>
      </set>
      <set comment="kpoint 92">
       <r>   -1.4070    1.0000 </r>
       <r>    2.0845    1.0000 </r>
       <r>    2.4904    1.0000 </r>
       <r>    2.4904    1.0000 </r>
       <r>    3.6005    1.0010 </r>
       <r>    3.6005    1.0010 </r>
       <r>   17.1495    0.0000 </r>
       <r>   28.3855    0.0000 </r>
       <r>   29.7347    0.0000 </r>
       <r>   29.7347    0.0000 </r>
      </set>
      <set comment="kpoint 93">
       <r>   -1.0336    1.0000 </r>
       <r>    2.2110    1.0000 </r>
       <r>    2.4566    1.0000 </r>
       <r>    2.4566    1.0000 </r>
       <r>    3.6908    1.0063 </r>
       <r>    3.6908    1.0063 </r>
       <r>   15.9289    0.0000 </r>
       <r>   28.1410    0.0000 </r>
       <r>   29.6050    0.0000 </r>
       <r>   29.6050    0.0000 </r>
      </set>
      <set comment="kpoint 94">
       <r>   -0.7124    1.0000 </r>
       <r>    2.4205    1.0000 </r>
       <r>    2.4205    1.0000 </r>
       <r>    2.4262    1.0000 </r>
       <r>    3.7815    1.0221 </r>
       <r>    3.7815    1.0221 </r>
       <r>   14.7625    0.0000 </r>
       <r>   27.9096    0.0000 </r>
       <r>   29.5011    0.0000 </r>
       <r>   29.5011    0.0000 </r>
      </set>
      <set comment="kpoint 95">
       <r>   -0.4620    1.0000 </r>
       <r>    2.3851    1.0000 </r>
       <r>    2.3851    1.0000 </r>
       <r>    2.7393    1.0000 </r>
       <r>    3.8674    1.0353 </r>
       <r>    3.8674    1.0353 </r>
       <r>   13.6623    0.0000 </r>
       <r>   27.7001    0.0000 </r>
       <r>   29.4213    0.0000 </r>
       <r>   29.4213    0.0000 </r>
      </set>
      <set comment="kpoint 96">
       <r>   -0.2856    1.0000 </r>
       <r>    2.3531    1.0000 </r>
       <r>    2.3531    1.0000 </r>
       <r>    3.1371    1.0000 </r>
       <r>    3.9441    0.9918 </r>
       <r>    3.9441    0.9918 </r>
       <r>   12.6463    0.0000 </r>
       <r>   27.5197    0.0000 </r>
       <r>   29.3633    0.0000 </r>
       <r>   29.3633    0.0000 </r>
      </set>
      <set comment="kpoint 97">
       <r>   -0.1716    1.0000 </r>
       <r>    2.3263    1.0000 </r>
       <r>    2.3263    1.0000 </r>
       <r>    3.5806    1.0007 </r>
       <r>    4.0078    0.8637 </r>
       <r>    4.0078    0.8636 </r>
       <r>   11.7439    0.0000 </r>
       <r>   27.3739    0.0000 </r>
       <r>   29.3242    0.0000 </r>
       <r>   29.3243    0.0000 </r>
      </set>
      <set comment="kpoint 98">
       <r>   -0.1039    1.0000 </r>
       <r>    2.3063    1.0000 </r>
       <r>    2.3063    1.0000 </r>
       <r>    4.0063    0.8678 </r>
       <r>    4.0555    0.7043 </r>
       <r>    4.0555    0.7043 </r>
       <r>   11.0032    0.0000 </r>
       <r>   27.2670    0.0000 </r>
       <r>   29.3004    0.0000 </r>
       <r>   29.3004    0.0000 </r>
      </set>
      <set comment="kpoint 99">
       <r>   -0.0688    1.0000 </r>
       <r>    2.2938    1.0000 </r>
       <r>    2.2938    1.0000 </r>
       <r>    4.0850    0.5860 </r>
       <r>    4.0850    0.5860 </r>
       <r>    4.3274   -0.0331 </r>
       <r>   10.4984    0.0000 </r>
       <r>   27.2018    0.0000 </r>
       <r>   29.2881    0.0000 </r>
       <r>   29.2881    0.0000 </r>
      </set>
      <set comment="kpoint 100">
       <r>   -0.0581    1.0000 </r>
       <r>    2.2896    1.0000 </r>
       <r>    2.2896    1.0000 </r>
       <r>    4.0950    0.5442 </r>
       <r>    4.0950    0.5442 </r>
       <r>    4.4494   -0.0177 </r>
       <r>   10.3159    0.0000 </r>
       <r>   27.1798    0.0000 </r>
       <r>   29.2844    0.0000 </r>
       <r>   29.2844    0.0000 </r>
      </set>
     </set>
     <set comment="spin 2">
      <set comment="kpoint 1">
       <r>   -4.2403    1.0000 </r>
       <r>    2.9731    1.0000 </r>
       <r>    2.9731    1.0000 </r>
       <r>    2.9731    1.0000 </r>
       <r>    4.0101    0.8573 </r>
       <r>    4.0101    0.8573 </r>
       <r>   28.6134    0.0000 </r>
       <r>   32.3183    0.0000 </r>
       <r>   32.3184    0.0000 </r>
       <r>   32.3184    0.0000 </r>
      </set>
      <set comment="kpoint 2">
       <r>   -4.1415    1.0000 </r>
       <r>    2.9396    1.0000 </r>
       <r>    2.9984    1.0000 </r>
       <r>    2.9998    1.0000 </r>
       <r>    3.9825    0.9267 </r>
       <r>    4.0171    0.8367 </r>
       <r>   28.3354    0.0000 </r>
       <r>   31.0803    0.0000 </r>
       <r>   31.5602    0.0000 </r>
       <r>   32.1945    0.0000 </r>
      </set>
      <set comment="kpoint 3">
       <r>   -3.8480    1.0000 </r>
       <r>    2.8436    1.0000 </r>
       <r>    3.0711    1.0000 </r>
       <r>    3.0746    1.0000 </r>
       <r>    3.9056    1.0251 </r>
       <r>    4.0412    0.7570 </r>
       <r>   27.2590    0.0000 </r>
       <r>   29.5227    0.0000 </r>
       <r>   30.2035    0.0000 </r>
       <r>   31.9913    0.0000 </r>
      </set>
      <set comment="kpoint 4">
       <r>   -3.3695    1.0000 </r>
       <r>    2.6977    1.0000 </r>
       <r>    3.1760    1.0000 </r>
       <r>    3.1823    1.0000 </r>
       <r>    3.8040    1.0273 </r>
       <r>    4.0919    0.5572 </r>
       <r>   25.3631    0.0000 </r>
       <r>   28.5469    0.0000 </r>
       <r>   28.7927    0.0000 </r>
       <r>   31.7868    0.0000 </r>
      </set>
      <set comment="kpoint 5">
       <r>   -2.7245    1.0000 </r>
       <r>    2.5211    1.0000 </r>
       <r>    3.2485    1.0000 </r>
       <r>    3.2999    1.0000 </r>
       <r>    3.7586    1.0171 </r>
       <r>    4.1819    0.2013 </r>
       <r>   23.2373    0.0000 </r>
       <r>   27.4419    0.0000 </r>
       <r>   27.7629    0.0000 </r>
       <r>   31.2213    0.0000 </r>
      </set>
      <set comment="kpoint 6">
       <r>   -1.9456    1.0000 </r>
       <r>    2.3358    1.0000 </r>
       <r>    3.1798    1.0000 </r>
       <r>    3.4062    1.0000 </r>
       <r>    3.9076    1.0240 </r>
       <r>    4.3171   -0.0302 </r>
       <r>   21.1398    0.0000 </r>
       <r>   26.1988    0.0000 </r>
       <r>   26.9472    0.0000 </r>
       <r>   29.8425    0.0000 </r>
      </set>
      <set comment="kpoint 7">
       <r>   -1.0897    1.0000 </r>
       <r>    2.1633    1.0000 </r>
       <r>    3.0275    1.0000 </r>
       <r>    3.4941    1.0001 </r>
       <r>    4.2444    0.0420 </r>
       <r>    4.4841   -0.0111 </r>
       <r>   19.1414    0.0000 </r>
       <r>   25.0994    0.0000 </r>
       <r>   25.8344    0.0000 </r>
       <r>   28.3077    0.0000 </r>
      </set>
      <set comment="kpoint 8">
       <r>   -0.2525    1.0000 </r>
       <r>    2.0185    1.0000 </r>
       <r>    2.8899    1.0000 </r>
       <r>    3.5703    1.0005 </r>
       <r>    4.6513   -0.0004 </r>
       <r>    4.7614   -0.0000 </r>
       <r>   17.2712    0.0000 </r>
       <r>   24.1615    0.0000 </r>
       <r>   24.1786    0.0000 </r>
       <r>   27.3540    0.0000 </r>
      </set>
      <set comment="kpoint 9">
       <r>    0.4357    1.0000 </r>
       <r>    1.9014    1.0000 </r>
       <r>    2.8298    1.0000 </r>
       <r>    3.6445    1.0026 </r>
       <r>    4.7823   -0.0000 </r>
       <r>    5.5262   -0.0000 </r>
       <r>   15.5493    0.0000 </r>
       <r>   22.2060    0.0000 </r>
       <r>   23.4694    0.0000 </r>
       <r>   26.8676    0.0000 </r>
      </set>
      <set comment="kpoint 10">
       <r>    0.8909    1.0000 </r>
       <r>    1.7990    1.0000 </r>
       <r>    2.8606    1.0000 </r>
       <r>    3.7223    1.0104 </r>
       <r>    4.8473   -0.0000 </r>
       <r>    6.6082   -0.0000 </r>
       <r>   13.9979    0.0000 </r>
       <r>   20.2564    0.0000 </r>
       <r>   22.9998    0.0000 </r>
       <r>   26.6183    0.0000 </r>
      </set>
      <set comment="kpoint 11">
       <r>    1.1620    1.0000 </r>
       <r>    1.7111    1.0000 </r>
       <r>    2.9098    1.0000 </r>
       <r>    3.8031    1.0271 </r>
       <r>    4.8311   -0.0000 </r>
       <r>    7.9922   -0.0000 </r>
       <r>   12.6479    0.0000 </r>
       <r>   18.4319    0.0000 </r>
       <r>   22.7878    0.0000 </r>
       <r>   26.5193    0.0000 </r>
      </set>
      <set comment="kpoint 12">
       <r>    1.3490    1.0000 </r>
       <r>    1.6556    1.0000 </r>
       <r>    2.8920    1.0000 </r>
       <r>    3.8771    1.0343 </r>
       <r>    4.7401   -0.0000 </r>
       <r>    9.5137   -0.0000 </r>
       <r>   11.5888    0.0000 </r>
       <r>   16.8151    0.0000 </r>
       <r>   22.8373    0.0000 </r>
       <r>   26.5324    0.0000 </r>
      </set>
      <set comment="kpoint 13">
       <r>    1.5042    1.0000 </r>
       <r>    1.6453    1.0000 </r>
       <r>    2.7862    1.0000 </r>
       <r>    3.9145    1.0198 </r>
       <r>    4.6141   -0.0010 </r>
       <r>   10.0776    0.0000 </r>
       <r>   11.6974    0.0000 </r>
       <r>   15.5924    0.0000 </r>
       <r>   23.1379    0.0000 </r>
       <r>   26.6333    0.0000 </r>
      </set>
      <set comment="kpoint 14">
       <r>    1.5824    1.0000 </r>
       <r>    1.7049    1.0000 </r>
       <r>    2.6580    1.0000 </r>
       <r>    3.8558    1.0354 </r>
       <r>    4.5326   -0.0050 </r>
       <r>    9.4086   -0.0000 </r>
       <r>   12.4237    0.0000 </r>
       <r>   15.5409    0.0000 </r>
       <r>   23.6685    0.0000 </r>
       <r>   26.8013    0.0000 </r>
      </set>
      <set comment="kpoint 15">
       <r>    1.4512    1.0000 </r>
       <r>    1.8816    1.0000 </r>
       <r>    2.6434    1.0000 </r>
       <r>    3.6780    1.0050 </r>
       <r>    4.5433   -0.0041 </r>
       <r>    8.6603   -0.0000 </r>
       <r>   12.0301    0.0000 </r>
       <r>   17.1781    0.0000 </r>
       <r>   24.4031    0.0000 </r>
       <r>   27.0182    0.0000 </r>
      </set>
      <set comment="kpoint 16">
       <r>    1.1660    1.0000 </r>
       <r>    2.1247    1.0000 </r>
       <r>    2.7891    1.0000 </r>
       <r>    3.4458    1.0000 </r>
       <r>    4.6053   -0.0012 </r>
       <r>    7.8717   -0.0000 </r>
       <r>   11.4638    0.0000 </r>
       <r>   19.4364    0.0000 </r>
       <r>   25.3141    0.0000 </r>
       <r>   27.2675    0.0000 </r>
      </set>
      <set comment="kpoint 17">
       <r>    0.8417    1.0000 </r>
       <r>    2.4074    1.0000 </r>
       <r>    3.0474    1.0000 </r>
       <r>    3.2213    1.0000 </r>
       <r>    4.6771   -0.0002 </r>
       <r>    7.0340   -0.0000 </r>
       <r>   11.0636    0.0000 </r>
       <r>   21.8924    0.0000 </r>
       <r>   26.3734    0.0000 </r>
       <r>   27.5386    0.0000 </r>
      </set>
      <set comment="kpoint 18">
       <r>    0.5643    1.0000 </r>
       <r>    2.6645    1.0000 </r>
       <r>    3.0406    1.0000 </r>
       <r>    3.4201    1.0000 </r>
       <r>    4.7383   -0.0000 </r>
       <r>    6.1843   -0.0000 </r>
       <r>   10.8304    0.0000 </r>
       <r>   24.3659    0.0000 </r>
       <r>   27.5415    0.0000 </r>
       <r>   27.8535    0.0000 </r>
      </set>
      <set comment="kpoint 19">
       <r>    0.3819    1.0000 </r>
       <r>    2.8297    1.0000 </r>
       <r>    2.9246    1.0000 </r>
       <r>    3.9265    1.0105 </r>
       <r>    4.7786   -0.0000 </r>
       <r>    5.3761   -0.0000 </r>
       <r>   10.7147    0.0000 </r>
       <r>   26.4037    0.0000 </r>
       <r>   28.4590    0.0000 </r>
       <r>   28.7133    0.0000 </r>
      </set>
      <set comment="kpoint 20">
       <r>    0.3186    1.0000 </r>
       <r>    2.8847    1.0000 </r>
       <r>    2.8847    1.0000 </r>
       <r>    4.4090   -0.0269 </r>
       <r>    4.7925   -0.0000 </r>
       <r>    4.7925   -0.0000 </r>
       <r>   10.6803    0.0000 </r>
       <r>   27.0509    0.0000 </r>
       <r>   29.3800    0.0000 </r>
       <r>   29.3800    0.0000 </r>
      </set>
      <set comment="kpoint 21">
       <r>    0.3186    1.0000 </r>
       <r>    2.8847    1.0000 </r>
       <r>    2.8847    1.0000 </r>
       <r>    4.4090   -0.0269 </r>
       <r>    4.7925   -0.0000 </r>
       <r>    4.7925   -0.0000 </r>
       <r>   10.6803    0.0000 </r>
       <r>   27.0509    0.0000 </r>
       <r>   29.3800    0.0000 </r>
       <r>   29.3800    0.0000 </r>
      </set>
      <set comment="kpoint 22">
       <r>    0.3676    1.0000 </r>
       <r>    2.8423    1.0000 </r>
       <r>    2.9151    1.0000 </r>
       <r>    4.0061    0.8685 </r>
       <r>    4.7880   -0.0000 </r>
       <r>    5.2763   -0.0000 </r>
       <r>   10.6912    0.0000 </r>
       <r>   26.6067    0.0000 </r>
       <r>   28.4515    0.0000 </r>
       <r>   28.9683    0.0000 </r>
      </set>
      <set comment="kpoint 23">
       <r>    0.5099    1.0000 </r>
       <r>    2.7124    1.0000 </r>
       <r>    3.0050    1.0000 </r>
       <r>    3.5506    1.0003 </r>
       <r>    4.7750   -0.0000 </r>
       <r>    5.9803   -0.0000 </r>
       <r>   10.7265    0.0000 </r>
       <r>   25.2984    0.0000 </r>
       <r>   26.7124    0.0000 </r>
       <r>   28.8834    0.0000 </r>
      </set>
      <set comment="kpoint 24">
       <r>    0.7318    1.0000 </r>
       <r>    2.4969    1.0000 </r>
       <r>    3.1501    1.0000 </r>
       <r>    3.1929    1.0000 </r>
       <r>    4.7554   -0.0000 </r>
       <r>    6.7616   -0.0000 </r>
       <r>   10.7938    0.0000 </r>
       <r>   23.6511    0.0000 </r>
       <r>   24.8215    0.0000 </r>
       <r>   29.2503    0.0000 </r>
      </set>
      <set comment="kpoint 25">
       <r>    1.0112    1.0000 </r>
       <r>    2.2286    1.0000 </r>
       <r>    2.9234    1.0000 </r>
       <r>    3.3402    1.0000 </r>
       <r>    4.7344   -0.0000 </r>
       <r>    7.6100   -0.0000 </r>
       <r>   10.9060    0.0000 </r>
[...]
       <set comment="band 1">
        <r>  0.6614  0.0204  0.0204  0.0204  0.0019  0.0019  0.0000  0.0019  0.0000 </r>
       </set>
       <set comment="band 2">
        <r>  0.0009  0.0040  0.0040  0.0040  0.3166  0.3166  0.0000  0.3166  0.0000 </r>
       </set>
       <set comment="band 3">
        <r>  0.0000  0.0002  0.0002  0.0008  0.1518  0.6071  0.0160  0.1518  0.0481 </r>
       </set>
       <set comment="band 4">
        <r>  0.0000  0.0006  0.0006  0.0000  0.4554  0.0000  0.0481  0.4554  0.0160 </r>
       </set>
       <set comment="band 5">
        <r>  0.0000  0.0000  0.0000  0.0002  0.0107  0.0429  0.2301  0.0107  0.6903 </r>
       </set>
       <set comment="band 6">
        <r>  0.0000  0.0001  0.0001  0.0000  0.0322  0.0000  0.6903  0.0322  0.2301 </r>
       </set>
       <set comment="band 7">
        <r>  0.0439  0.0853  0.0853  0.0853  0.1353  0.1353  0.0000  0.1353  0.0000 </r>
       </set>
       <set comment="band 8">
        <r>  0.0304  0.0155  0.0155  0.0154  0.0132  0.0132  0.0000  0.0132  0.0000 </r>
       </set>
       <set comment="band 9">
        <r>  0.0000  0.0575  0.0573  0.2295  0.0640  0.2563  0.0116  0.0642  0.0349 </r>
       </set>
       <set comment="band 10">
        <r>  0.0000  0.1720  0.1722  0.0000  0.1924  0.0000  0.0349  0.1921  0.0116 </r>
       </set>
      </set>
      <set comment="kpoint 88">
       <set comment="band 1">
        <r>  0.6379  0.0268  0.0268  0.0268  0.0038  0.0038  0.0000  0.0038  0.0000 </r>
       </set>
       <set comment="band 2">
        <r>  0.0018  0.0063  0.0063  0.0063  0.3123  0.3123  0.0000  0.3123  0.0000 </r>
       </set>
       <set comment="band 3">
        <r>  0.0000  0.0002  0.0002  0.0009  0.1422  0.5686  0.0304  0.1422  0.0912 </r>
       </set>
       <set comment="band 4">
        <r>  0.0000  0.0007  0.0007  0.0000  0.4265  0.0000  0.0912  0.4265  0.0304 </r>
       </set>
       <set comment="band 5">
        <r>  0.0000  0.0001  0.0001  0.0003  0.0203  0.0814  0.2154  0.0203  0.6463 </r>
       </set>
       <set comment="band 6">
        <r>  0.0000  0.0003  0.0003  0.0000  0.0610  0.0000  0.6463  0.0610  0.2154 </r>
       </set>
       <set comment="band 7">
        <r>  0.0607  0.0923  0.0923  0.0923  0.1329  0.1329  0.0000  0.1329  0.0000 </r>
       </set>
       <set comment="band 8">
        <r>  0.0303  0.0074  0.0074  0.0074  0.0216  0.0216  0.0000  0.0216  0.0000 </r>
       </set>
       <set comment="band 9">
        <r>  0.0000  0.0630  0.0547  0.2350  0.0620  0.2667  0.0126  0.0714  0.0417 </r>
       </set>
       <set comment="band 10">
        <r>  0.0000  0.1721  0.1804  0.0002  0.2046  0.0002  0.0416  0.1954  0.0126 </r>
       </set>
      </set>
      <set comment="kpoint 89">
       <set comment="band 1">
        <r>  0.6106  0.0334  0.0334  0.0334  0.0070  0.0070  0.0000  0.0070  0.0000 </r>
       </set>
       <set comment="band 2">
        <r>  0.0034  0.0097  0.0097  0.0097  0.3062  0.3062  0.0000  0.3062  0.0000 </r>
       </set>
       <set comment="band 3">
        <r>  0.0000  0.0002  0.0002  0.0009  0.1293  0.5174  0.0495  0.1293  0.1486 </r>
       </set>
       <set comment="band 4">
        <r>  0.0000  0.0007  0.0007  0.0000  0.3880  0.0000  0.1486  0.3880  0.0495 </r>
       </set>
       <set comment="band 5">
        <r>  0.0000  0.0001  0.0001  0.0005  0.0332  0.1328  0.1960  0.0332  0.5880 </r>
       </set>
       <set comment="band 6">
        <r>  0.0000  0.0004  0.0004  0.0000  0.0996  0.0000  0.5880  0.0996  0.1960 </r>
       </set>
       <set comment="band 7">
        <r>  0.0795  0.0967  0.0967  0.0967  0.1293  0.1293  0.0000  0.1293  0.0000 </r>
       </set>
       <set comment="band 8">
        <r>  0.0286  0.0026  0.0026  0.0026  0.0271  0.0271  0.0000  0.0271  0.0000 </r>
       </set>
       <set comment="band 9">
        <r>  0.0000  0.0608  0.0610  0.2434  0.0673  0.2687  0.0152  0.0671  0.0454 </r>
       </set>
       <set comment="band 10">
        <r>  0.0000  0.1827  0.1825  0.0000  0.2014  0.0000  0.0454  0.2017  0.0152 </r>
       </set>
      </set>
      <set comment="kpoint 90">
       <set comment="band 1">
        <r>  0.5792  0.0397  0.0397  0.0397  0.0124  0.0124  0.0000  0.0124  0.0000 </r>
       </set>
       <set comment="band 2">
        <r>  0.0060  0.0146  0.0146  0.0146  0.2976  0.2976  0.0000  0.2976  0.0000 </r>
       </set>
       <set comment="band 3">
        <r>  0.0000  0.0002  0.0002  0.0008  0.1153  0.4614  0.0704  0.1153  0.2112 </r>
       </set>
       <set comment="band 4">
        <r>  0.0000  0.0006  0.0006  0.0000  0.3460  0.0000  0.2112  0.3460  0.0704 </r>
       </set>
       <set comment="band 5">
        <r>  0.0000  0.0002  0.0002  0.0007  0.0472  0.1890  0.1749  0.0472  0.5246 </r>
       </set>
       <set comment="band 6">
        <r>  0.0000  0.0006  0.0006  0.0000  0.1417  0.0000  0.5246  0.1417  0.1749 </r>
       </set>
       <set comment="band 7">
        <r>  0.1008  0.0989  0.0989  0.0989  0.1255  0.1255  0.0000  0.1255  0.0000 </r>
       </set>
       <set comment="band 8">
        <r>  0.0255  0.0004  0.0004  0.0004  0.0291  0.0291  0.0000  0.0291  0.0000 </r>
       </set>
       <set comment="band 9">
        <r>  0.0000  0.0637  0.0634  0.2543  0.0657  0.2632  0.0163  0.0660  0.0489 </r>
       </set>
       <set comment="band 10">
        <r>  0.0000  0.1906  0.1909  0.0000  0.1975  0.0000  0.0489  0.1973  0.0162 </r>
       </set>
      </set>
      <set comment="kpoint 91">
       <set comment="band 1">
        <r>  0.5431  0.0448  0.0448  0.0448  0.0213  0.0213  0.0000  0.0213  0.0000 </r>
       </set>
       <set comment="band 2">
        <r>  0.0104  0.0219  0.0219  0.0219  0.2849  0.2849  0.0000  0.2849  0.0000 </r>
       </set>
       <set comment="band 3">
        <r>  0.0000  0.0002  0.0002  0.0007  0.1024  0.4095  0.0897  0.1024  0.2691 </r>
       </set>
       <set comment="band 4">
        <r>  0.0000  0.0005  0.0005  0.0000  0.3071  0.0000  0.2691  0.3071  0.0897 </r>
       </set>
       <set comment="band 5">
        <r>  0.0000  0.0002  0.0002  0.0009  0.0603  0.2414  0.1553  0.0603  0.4658 </r>
       </set>
       <set comment="band 6">
        <r>  0.0000  0.0007  0.0007  0.0000  0.1810  0.0000  0.4658  0.1810  0.1553 </r>
       </set>
       <set comment="band 7">
        <r>  0.1249  0.0989  0.0989  0.0989  0.1221  0.1221  0.0000  0.1221  0.0000 </r>
       </set>
       <set comment="band 8">
        <r>  0.0216  0.0000  0.0000  0.0000  0.0281  0.0281  0.0000  0.0281  0.0000 </r>
       </set>
       <set comment="band 9">
        <r>  0.0000  0.0685  0.0653  0.2677  0.0611  0.2506  0.0164  0.0642  0.0510 </r>
       </set>
       <set comment="band 10">
        <r>  0.0000  0.1992  0.2024  0.0000  0.1895  0.0000  0.0510  0.1864  0.0164 </r>
       </set>
      </set>
      <set comment="kpoint 92">
       <set comment="band 1">
        <r>  0.5014  0.0478  0.0478  0.0478  0.0353  0.0353  0.0000  0.0353  0.0000 </r>
       </set>
       <set comment="band 2">
        <r>  0.0173  0.0327  0.0327  0.0327  0.2665  0.2665  0.0000  0.2665  0.0000 </r>
       </set>
       <set comment="band 3">
        <r>  0.0000  0.0001  0.0001  0.0006  0.0915  0.3662  0.1057  0.0916  0.3173 </r>
       </set>
       <set comment="band 4">
        <r>  0.0000  0.0004  0.0004  0.0000  0.2747  0.0000  0.3173  0.2747  0.1057 </r>
       </set>
       <set comment="band 5">
        <r>  0.0000  0.0002  0.0002  0.0010  0.0713  0.2853  0.1390  0.0713  0.4169 </r>
       </set>
       <set comment="band 6">
        <r>  0.0000  0.0007  0.0007  0.0000  0.2139  0.0000  0.4169  0.2139  0.1390 </r>
       </set>
       <set comment="band 7">
        <r>  0.1519  0.0967  0.0967  0.0967  0.1195  0.1195  0.0000  0.1195  0.0000 </r>
       </set>
       <set comment="band 8">
        <r>  0.0175  0.0009  0.0009  0.0009  0.0250  0.0250  0.0000  0.0250  0.0000 </r>
       </set>
       <set comment="band 9">
        <r>  0.0000  0.0740  0.0679  0.2837  0.0554  0.2313  0.0160  0.0604  0.0510 </r>
       </set>
       <set comment="band 10">
        <r>  0.0000  0.2098  0.2159  0.0000  0.1760  0.0000  0.0510  0.1710  0.0160 </r>
       </set>
      </set>
      <set comment="kpoint 93">
       <set comment="band 1">
        <r>  0.4534  0.0474  0.0474  0.0474  0.0566  0.0566  0.0000  0.0566  0.0000 </r>
       </set>
       <set comment="band 2">
        <r>  0.0275  0.0484  0.0484  0.0484  0.2400  0.2400  0.0000  0.2400  0.0000 </r>
       </set>
       <set comment="band 3">
        <r>  0.0000  0.0003  0.0003  0.0000  0.2492  0.0000  0.3548  0.2493  0.1183 </r>
       </set>
       <set comment="band 4">
        <r>  0.0000  0.0001  0.0001  0.0004  0.0831  0.3323  0.1183  0.0830  0.3548 </r>
       </set>
       <set comment="band 5">
        <r>  0.0000  0.0002  0.0002  0.0010  0.0800  0.3200  0.1262  0.0800  0.3787 </r>
       </set>
       <set comment="band 6">
        <r>  0.0000  0.0007  0.0007  0.0000  0.2400  0.0000  0.3787  0.2400  0.1262 </r>
       </set>
       <set comment="band 7">
        <r>  0.1823  0.0920  0.0920  0.0920  0.1180  0.1180  0.0000  0.1180  0.0000 </r>
       </set>
       <set comment="band 8">
        <r>  0.0135  0.0023  0.0023  0.0023  0.0207  0.0207  0.0000  0.0207  0.0000 </r>
       </set>
       <set comment="band 9">
        <r>  0.0000  0.0814  0.0703  0.3019  0.0478  0.2055  0.0148  0.0554  0.0490 </r>
       </set>
       <set comment="band 10">
        <r>  0.0000  0.2210  0.2322  0.0005  0.1579  0.0004  0.0489  0.1504  0.0148 </r>
       </set>
      </set>
      <set comment="kpoint 94">
       <set comment="band 1">
        <r>  0.3994  0.0425  0.0425  0.0425  0.0864  0.0864  0.0000  0.0864  0.0000 </r>
       </set>
       <set comment="band 2">
        <r>  0.0406  0.0701  0.0701  0.0701  0.2039  0.2039  0.0000  0.2039  0.0000 </r>
       </set>
       <set comment="band 3">
        <r>  0.0000  0.0002  0.0002  0.0000  0.2299  0.0000  0.3833  0.2299  0.1278 </r>
       </set>
       <set comment="band 4">
        <r>  0.0000  0.0001  0.0001  0.0003  0.0766  0.3066  0.1278  0.0766  0.3833 </r>
       </set>
       <set comment="band 5">
        <r>  0.0000  0.0002  0.0002  0.0009  0.0867  0.3467  0.1166  0.0867  0.3498 </r>
       </set>
       <set comment="band 6">
        <r>  0.0000  0.0007  0.0007  0.0000  0.2600  0.0000  0.3498  0.2600  0.1166 </r>
       </set>
       <set comment="band 7">
        <r>  0.2163  0.0846  0.0846  0.0846  0.1183  0.1183  0.0000  0.1183  0.0000 </r>
       </set>
       <set comment="band 8">
        <r>  0.0098  0.0040  0.0040  0.0040  0.0161  0.0160  0.0000  0.0161  0.0000 </r>
       </set>
       <set comment="band 9">
        <r>  0.0000  0.0802  0.0816  0.3236  0.0440  0.1746  0.0145  0.0433  0.0430 </r>
       </set>
       <set comment="band 10">
        <r>  0.0000  0.2434  0.2420  0.0000  0.1306  0.0000  0.0430  0.1313  0.0145 </r>
       </set>
      </set>
      <set comment="kpoint 95">
       <set comment="band 1">
        <r>  0.3424  0.0336  0.0336  0.0336  0.1229  0.1229  0.0000  0.1229  0.0000 </r>
       </set>
       <set comment="band 2">
        <r>  0.0000  0.0002  0.0002  0.0000  0.2155  0.0000  0.4045  0.2155  0.1348 </r>
       </set>
       <set comment="band 3">
        <r>  0.0000  0.0001  0.0001  0.0002  0.0718  0.2873  0.1348  0.0718  0.4045 </r>
       </set>
       <set comment="band 4">
        <r>  0.0533  0.0978  0.0978  0.0978  0.1596  0.1596  0.0000  0.1596  0.0000 </r>
       </set>
       <set comment="band 5">
        <r>  0.0000  0.0002  0.0002  0.0007  0.0917  0.3669  0.1094  0.0917  0.3282 </r>
       </set>
       <set comment="band 6">
        <r>  0.0000  0.0005  0.0005  0.0000  0.2752  0.0000  0.3282  0.2752  0.1094 </r>
       </set>
       <set comment="band 7">
        <r>  0.2544  0.0741  0.0741  0.0741  0.1207  0.1207  0.0000  0.1207  0.0000 </r>
       </set>
       <set comment="band 8">
        <r>  0.0068  0.0056  0.0056  0.0056  0.0115  0.0115  0.0000  0.0115  0.0000 </r>
       </set>
       <set comment="band 9">
        <r>  0.0000  0.1372  0.3380  0.0448  0.1355  0.0179  0.0472  0.0551  0.0012 </r>
       </set>
       <set comment="band 10">
        <r>  0.0000  0.2094  0.0087  0.3021  0.0035  0.1209  0.0012  0.0840  0.0471 </r>
       </set>
      </set>
      <set comment="kpoint 96">
       <set comment="band 1">
        <r>  0.2890  0.0228  0.0228  0.0228  0.1604  0.1604  0.0000  0.1604  0.0000 </r>
       </set>
       <set comment="band 2">
        <r>  0.0000  0.0001  0.0001  0.0000  0.2049  0.0000  0.4200  0.2049  0.1400 </r>
       </set>
       <set comment="band 3">
        <r>  0.0000  0.0000  0.0000  0.0001  0.0683  0.2732  0.1400  0.0683  0.4200 </r>
       </set>
       <set comment="band 4">
        <r>  0.0592  0.1293  0.1293  0.1293  0.1126  0.1126  0.0000  0.1126  0.0000 </r>
       </set>
       <set comment="band 5">
        <r>  0.0000  0.0001  0.0001  0.0005  0.0955  0.3820  0.1041  0.0955  0.3124 </r>
       </set>
       <set comment="band 6">
        <r>  0.0000  0.0004  0.0004  0.0000  0.2865  0.0000  0.3124  0.2865  0.1041 </r>
       </set>
       <set comment="band 7">
        <r>  0.2968  0.0603  0.0603  0.0603  0.1257  0.1257  0.0000  0.1257  0.0000 </r>
       </set>
       <set comment="band 8">
        <r>  0.0043  0.0071  0.0071  0.0071  0.0076  0.0076  0.0000  0.0076  0.0000 </r>
       </set>
       <set comment="band 9">
        <r>  0.0000  0.3428  0.1878  0.0257  0.0510  0.0070  0.0187  0.0931  0.0181 </r>
       </set>
       <set comment="band 10">
        <r>  0.0000  0.0281  0.1831  0.3451  0.0498  0.0938  0.0183  0.0076  0.0187 </r>
       </set>
      </set>
      <set comment="kpoint 97">
       <set comment="band 1">
        <r>  0.2455  0.0129  0.0129  0.0129  0.1924  0.1924  0.0000  0.1924  0.0000 </r>
       </set>
       <set comment="band 2">
        <r>  0.0000  0.0001  0.0001  0.0000  0.1974  0.0000  0.4310  0.1974  0.1437 </r>
       </set>
       <set comment="band 3">
        <r>  0.0000  0.0000  0.0000  0.0001  0.0658  0.2632  0.1437  0.0658  0.4310 </r>
       </set>
       <set comment="band 4">
        <r>  0.0524  0.1619  0.1619  0.1619  0.0691  0.0691  0.0000  0.0691  0.0000 </r>
       </set>
       <set comment="band 5">
        <r>  0.0000  0.0001  0.0001  0.0003  0.0982  0.3930  0.1004  0.0982  0.3012 </r>
       </set>
       <set comment="band 6">
        <r>  0.0000  0.0002  0.0002  0.0000  0.2947  0.0000  0.3012  0.2947  0.1004 </r>
       </set>
       <set comment="band 7">
        <r>  0.3428  0.0430  0.0430  0.0430  0.1336  0.1336  0.0000  0.1336  0.0000 </r>
       </set>
       <set comment="band 8">
        <r>  0.0024  0.0082  0.0082  0.0082  0.0043  0.0043  0.0000  0.0043  0.0000 </r>
       </set>
       <set comment="band 9">
        <r>  0.0000  0.2629  0.3241  0.0046  0.0519  0.0007  0.0197  0.0421  0.0043 </r>
       </set>
       <set comment="band 10">
        <r>  0.0000  0.1315  0.0703  0.3898  0.0113  0.0625  0.0043  0.0210  0.0197 </r>
       </set>
      </set>
      <set comment="kpoint 98">
       <set comment="band 1">
        <r>  0.2150  0.0056  0.0056  0.0056  0.2153  0.2153  0.0000  0.2153  0.0000 </r>
       </set>
       <set comment="band 2">
        <r>  0.0000  0.0000  0.0000  0.0000  0.1924  0.0000  0.4383  0.1924  0.1461 </r>
       </set>
       <set comment="band 3">
        <r>  0.0000  0.0000  0.0000  0.0000  0.0641  0.2565  0.1461  0.0641  0.4383 </r>
       </set>
       <set comment="band 4">
        <r>  0.0332  0.1923  0.1923  0.1923  0.0335  0.0335  0.0000  0.0335  0.0000 </r>
       </set>
       <set comment="band 5">
        <r>  0.0000  0.0000  0.0000  0.0002  0.1001  0.4004  0.0979  0.1001  0.2938 </r>
       </set>
       <set comment="band 6">
        <r>  0.0000  0.0001  0.0001  0.0000  0.3003  0.0000  0.2938  0.3003  0.0979 </r>
       </set>
       <set comment="band 7">
        <r>  0.3894  0.0239  0.0239  0.0239  0.1437  0.1437  0.0000  0.1437  0.0000 </r>
       </set>
       <set comment="band 8">
        <r>  0.0010  0.0091  0.0091  0.0091  0.0019  0.0019  0.0000  0.0019  0.0000 </r>
       </set>
       <set comment="band 9">
        <r>  0.0000  0.2450  0.3628  0.0140  0.0269  0.0010  0.0106  0.0181  0.0015 </r>
       </set>
       <set comment="band 10">
        <r>  0.0000  0.1695  0.0517  0.4007  0.0038  0.0296  0.0015  0.0125  0.0105 </r>
       </set>
      </set>
      <set comment="kpoint 99">
       <set comment="band 1">
        <r>  0.1975  0.0014  0.0014  0.0014  0.2286  0.2286  0.0000  0.2286  0.0000 </r>
       </set>
       <set comment="band 2">
        <r>  0.0000  0.0000  0.0000  0.0000  0.1895  0.0000  0.4425  0.1895  0.1475 </r>
       </set>
       <set comment="band 3">
        <r>  0.0000  0.0000  0.0000  0.0000  0.0632  0.2526  0.1475  0.0632  0.4425 </r>
       </set>
       <set comment="band 4">
        <r>  0.0105  0.2158  0.2158  0.2158  0.0090  0.0090  0.0000  0.0090  0.0000 </r>
       </set>
       <set comment="band 5">
        <r>  0.0000  0.0000  0.0000  0.0000  0.1012  0.4047  0.0965  0.1012  0.2895 </r>
       </set>
       <set comment="band 6">
        <r>  0.0000  0.0000  0.0000  0.0000  0.3035  0.0000  0.2895  0.3035  0.0965 </r>
       </set>
       <set comment="band 7">
        <r>  0.4277  0.0070  0.0070  0.0070  0.1533  0.1533  0.0000  0.1533  0.0000 </r>
       </set>
       <set comment="band 8">
        <r>  0.0003  0.0096  0.0096  0.0096  0.0005  0.0005  0.0000  0.0005  0.0000 </r>
       </set>
       <set comment="band 9">
        <r>  0.0000  0.3458  0.2952  0.0020  0.0056  0.0000  0.0022  0.0065  0.0010 </r>
       </set>
       <set comment="band 10">
        <r>  0.0000  0.0829  0.1335  0.4267  0.0025  0.0081  0.0010  0.0016  0.0022 </r>
       </set>
      </set>
      <set comment="kpoint 100">
       <set comment="band 1">
        <r>  0.1919  0.0000  0.0000  0.0000  0.2329  0.2329  0.0000  0.2329  0.0000 </r>
       </set>
       <set comment="band 2">
        <r>  0.0000  0.0000  0.0000  0.0000  0.1885  0.0000  0.4439  0.1885  0.1480 </r>
       </set>
       <set comment="band 3">
        <r>  0.0000  0.0000  0.0000  0.0000  0.0628  0.2514  0.1480  0.0628  0.4439 </r>
       </set>
       <set comment="band 4">
        <r>  0.0000  0.2250  0.2250  0.2250  0.0000  0.0000  0.0000  0.0000  0.0000 </r>
       </set>
       <set comment="band 5">
        <r>  0.0000  0.0000  0.0000  0.0000  0.1015  0.4061  0.0960  0.1015  0.2881 </r>
       </set>
       <set comment="band 6">
        <r>  0.0000  0.0000  0.0000  0.0000  0.3046  0.0000  0.2881  0.3046  0.0960 </r>
       </set>
       <set comment="band 7">
        <r>  0.4432  0.0000  0.0000  0.0000  0.1575  0.1575  0.0000  0.1575  0.0000 </r>
       </set>
       <set comment="band 8">
        <r>  0.0000  0.0097  0.0097  0.0097  0.0000  0.0000  0.0000  0.0000  0.0000 </r>
       </set>
       <set comment="band 9">
        <r>  0.0000  0.3109  0.3391  0.0006  0.0000  0.0000  0.0000  0.0000  0.0000 </r>
       </set>
       <set comment="band 10">
        <r>  0.0000  0.1228  0.0947  0.4332  0.0000  0.0000  0.0000  0.0000  0.0000 </r>
       </set>
      </set>
     </set>
    </set>
   </array>
  </projected>
 </calculation>
 <structure name="finalpos" >
  <crystal>
   <varray name="basis" >
    <v>       1.76475000       1.76475000       0.00000000 </v>
    <v>       0.00000000       1.76475000       1.76475000 </v>
    <v>       1.76475000       0.00000000       1.76475000 </v>
   </varray>
   <i name="volume">     10.99207207 </i>
   <varray name="rec_basis" >
    <v>       0.28332625       0.28332625      -0.28332625 </v>
    <v>      -0.28332625       0.28332625       0.28332625 </v>
    <v>       0.28332625      -0.28332625       0.28332625 </v>
   </varray>
  </crystal>
  <varray name="positions" >
   <v>       0.00000000       0.00000000       0.00000000 </v>
  </varray>
 </structure>
</modeling>
