fcc Ni                                  
           1
     1.764750    1.764750    0.000000
     0.000000    1.764750    1.764750
     1.764750    0.000000    1.764750
   Ni
   1
Direct configuration=     1
   0.00000000  0.00000000  0.00000000
