   4   4   1   0
  0.1098546E+02  0.5445216E-09  0.5445216E-09  0.5445216E-09  0.5000000E-15
  1.000000000000000E-004
  CAR 
 MnO double cell                         
     13.41193446    -15.87883319  301      3.86802600      1.00000000
    -15.879  0.0000E+00  0.0000E+00  0.0000E+00  0.0000E+00
    -15.781  0.0000E+00  0.0000E+00  0.0000E+00  0.0000E+00
    -15.684  0.0000E+00  0.0000E+00  0.0000E+00  0.0000E+00
    -15.586  0.0000E+00  0.0000E+00  0.0000E+00  0.0000E+00
    -15.488  0.0000E+00  0.0000E+00  0.0000E+00  0.0000E+00
    -15.391  0.0000E+00  0.0000E+00  0.0000E+00  0.0000E+00
    -15.293  0.0000E+00  0.0000E+00  0.0000E+00  0.0000E+00
    -15.195  0.0000E+00  0.0000E+00  0.0000E+00  0.0000E+00
    -15.098  0.0000E+00  0.0000E+00  0.0000E+00  0.0000E+00
    -15.000  0.0000E+00  0.0000E+00  0.0000E+00  0.0000E+00
    -14.902  0.0000E+00  0.0000E+00  0.0000E+00  0.0000E+00
    -14.805  0.0000E+00  0.0000E+00  0.0000E+00  0.0000E+00
    -14.707  0.0000E+00  0.0000E+00  0.0000E+00  0.0000E+00
    -14.610  0.0000E+00  0.0000E+00  0.0000E+00  0.0000E+00
    -14.512  0.0000E+00  0.0000E+00  0.0000E+00  0.0000E+00
    -14.414  0.0000E+00  0.0000E+00  0.0000E+00  0.0000E+00
    -14.317  0.0000E+00  0.0000E+00  0.0000E+00  0.0000E+00
    -14.219  0.0000E+00  0.0000E+00  0.0000E+00  0.0000E+00
    -14.121  0.0000E+00  0.0000E+00  0.0000E+00  0.0000E+00
    -14.024  0.0000E+00  0.0000E+00  0.0000E+00  0.0000E+00
    -13.926  0.0000E+00  0.0000E+00  0.0000E+00  0.0000E+00
    -13.828  0.1378E+00  0.1378E+00  0.4152E-02  0.4152E-02
    -13.731  0.2752E+00  0.2752E+00  0.2464E-01  0.2464E-01
    -13.633  0.3951E+00  0.3951E+00  0.5738E-01  0.5738E-01
    -13.536  0.5271E+00  0.5271E+00  0.1022E+00  0.1022E+00
    -13.438  0.6972E+00  0.6972E+00  0.1614E+00  0.1614E+00
    -13.340  0.8915E+00  0.8915E+00  0.2368E+00  0.2368E+00
    -13.243  0.1202E+01  0.1202E+01  0.3380E+00  0.3380E+00
    -13.145  0.1701E+01  0.1701E+01  0.4770E+00  0.4770E+00
    -13.047  0.2767E+01  0.2767E+01  0.6859E+00  0.6859E+00
    -12.950  0.5272E+01  0.5272E+01  0.1098E+01  0.1098E+01
    -12.852  0.1155E+02  0.1155E+02  0.1990E+01  0.1990E+01
    -12.754  0.0000E+00  0.0000E+00  0.2000E+01  0.2000E+01
    -12.657  0.0000E+00  0.0000E+00  0.2000E+01  0.2000E+01
    -12.559  0.0000E+00  0.0000E+00  0.2000E+01  0.2000E+01
    -12.462  0.0000E+00  0.0000E+00  0.2000E+01  0.2000E+01
    -12.364  0.0000E+00  0.0000E+00  0.2000E+01  0.2000E+01
    -12.266  0.0000E+00  0.0000E+00  0.2000E+01  0.2000E+01
    -12.169  0.0000E+00  0.0000E+00  0.2000E+01  0.2000E+01
    -12.071  0.0000E+00  0.0000E+00  0.2000E+01  0.2000E+01
    -11.973  0.0000E+00  0.0000E+00  0.2000E+01  0.2000E+01
    -11.876  0.0000E+00  0.0000E+00  0.2000E+01  0.2000E+01
    -11.778  0.0000E+00  0.0000E+00  0.2000E+01  0.2000E+01
    -11.680  0.0000E+00  0.0000E+00  0.2000E+01  0.2000E+01
    -11.583  0.0000E+00  0.0000E+00  0.2000E+01  0.2000E+01
    -11.485  0.0000E+00  0.0000E+00  0.2000E+01  0.2000E+01
    -11.388  0.0000E+00  0.0000E+00  0.2000E+01  0.2000E+01
    -11.290  0.0000E+00  0.0000E+00  0.2000E+01  0.2000E+01
    -11.192  0.0000E+00  0.0000E+00  0.2000E+01  0.2000E+01
    -11.095  0.0000E+00  0.0000E+00  0.2000E+01  0.2000E+01
    -10.997  0.0000E+00  0.0000E+00  0.2000E+01  0.2000E+01
    -10.899  0.0000E+00  0.0000E+00  0.2000E+01  0.2000E+01
    -10.802  0.0000E+00  0.0000E+00  0.2000E+01  0.2000E+01
    -10.704  0.0000E+00  0.0000E+00  0.2000E+01  0.2000E+01
    -10.606  0.0000E+00  0.0000E+00  0.2000E+01  0.2000E+01
    -10.509  0.0000E+00  0.0000E+00  0.2000E+01  0.2000E+01
    -10.411  0.0000E+00  0.0000E+00  0.2000E+01  0.2000E+01
    -10.314  0.0000E+00  0.0000E+00  0.2000E+01  0.2000E+01
    -10.216  0.0000E+00  0.0000E+00  0.2000E+01  0.2000E+01
    -10.118  0.0000E+00  0.0000E+00  0.2000E+01  0.2000E+01
    -10.021  0.0000E+00  0.0000E+00  0.2000E+01  0.2000E+01
     -9.923  0.0000E+00  0.0000E+00  0.2000E+01  0.2000E+01
     -9.825  0.0000E+00  0.0000E+00  0.2000E+01  0.2000E+01
     -9.728  0.0000E+00  0.0000E+00  0.2000E+01  0.2000E+01
     -9.630  0.0000E+00  0.0000E+00  0.2000E+01  0.2000E+01
     -9.533  0.0000E+00  0.0000E+00  0.2000E+01  0.2000E+01
     -9.435  0.0000E+00  0.0000E+00  0.2000E+01  0.2000E+01
     -9.337  0.0000E+00  0.0000E+00  0.2000E+01  0.2000E+01
     -9.240  0.0000E+00  0.0000E+00  0.2000E+01  0.2000E+01
     -9.142  0.0000E+00  0.0000E+00  0.2000E+01  0.2000E+01
     -9.044  0.0000E+00  0.0000E+00  0.2000E+01  0.2000E+01
     -8.947  0.0000E+00  0.0000E+00  0.2000E+01  0.2000E+01
     -8.849  0.0000E+00  0.0000E+00  0.2000E+01  0.2000E+01
     -8.751  0.0000E+00  0.0000E+00  0.2000E+01  0.2000E+01
     -8.654  0.0000E+00  0.0000E+00  0.2000E+01  0.2000E+01
     -8.556  0.0000E+00  0.0000E+00  0.2000E+01  0.2000E+01
     -8.459  0.0000E+00  0.0000E+00  0.2000E+01  0.2000E+01
     -8.361  0.0000E+00  0.0000E+00  0.2000E+01  0.2000E+01
     -8.263  0.0000E+00  0.0000E+00  0.2000E+01  0.2000E+01
     -8.166  0.0000E+00  0.0000E+00  0.2000E+01  0.2000E+01
     -8.068  0.0000E+00  0.0000E+00  0.2000E+01  0.2000E+01
     -7.970  0.0000E+00  0.0000E+00  0.2000E+01  0.2000E+01
     -7.873  0.0000E+00  0.0000E+00  0.2000E+01  0.2000E+01
     -7.775  0.0000E+00  0.0000E+00  0.2000E+01  0.2000E+01
     -7.677  0.0000E+00  0.0000E+00  0.2000E+01  0.2000E+01
     -7.580  0.0000E+00  0.0000E+00  0.2000E+01  0.2000E+01
     -7.482  0.0000E+00  0.0000E+00  0.2000E+01  0.2000E+01
     -7.385  0.0000E+00  0.0000E+00  0.2000E+01  0.2000E+01
     -7.287  0.0000E+00  0.0000E+00  0.2000E+01  0.2000E+01
     -7.189  0.0000E+00  0.0000E+00  0.2000E+01  0.2000E+01
     -7.092  0.0000E+00  0.0000E+00  0.2000E+01  0.2000E+01
     -6.994  0.0000E+00  0.0000E+00  0.2000E+01  0.2000E+01
     -6.896  0.0000E+00  0.0000E+00  0.2000E+01  0.2000E+01
     -6.799  0.0000E+00  0.0000E+00  0.2000E+01  0.2000E+01
     -6.701  0.0000E+00  0.0000E+00  0.2000E+01  0.2000E+01
     -6.603  0.0000E+00  0.0000E+00  0.2000E+01  0.2000E+01
     -6.506  0.0000E+00  0.0000E+00  0.2000E+01  0.2000E+01
     -6.408  0.0000E+00  0.0000E+00  0.2000E+01  0.2000E+01
     -6.311  0.0000E+00  0.0000E+00  0.2000E+01  0.2000E+01
     -6.213  0.0000E+00  0.0000E+00  0.2000E+01  0.2000E+01
     -6.115  0.0000E+00  0.0000E+00  0.2000E+01  0.2000E+01
     -6.018  0.0000E+00  0.0000E+00  0.2000E+01  0.2000E+01
     -5.920  0.0000E+00  0.0000E+00  0.2000E+01  0.2000E+01
     -5.822  0.0000E+00  0.0000E+00  0.2000E+01  0.2000E+01
     -5.725  0.0000E+00  0.0000E+00  0.2000E+01  0.2000E+01
     -5.627  0.0000E+00  0.0000E+00  0.2000E+01  0.2000E+01
     -5.529  0.0000E+00  0.0000E+00  0.2000E+01  0.2000E+01
     -5.432  0.0000E+00  0.0000E+00  0.2000E+01  0.2000E+01
     -5.334  0.0000E+00  0.0000E+00  0.2000E+01  0.2000E+01
     -5.237  0.0000E+00  0.0000E+00  0.2000E+01  0.2000E+01
     -5.139  0.0000E+00  0.0000E+00  0.2000E+01  0.2000E+01
     -5.041  0.0000E+00  0.0000E+00  0.2000E+01  0.2000E+01
     -4.944  0.0000E+00  0.0000E+00  0.2000E+01  0.2000E+01
     -4.846  0.0000E+00  0.0000E+00  0.2000E+01  0.2000E+01
     -4.748  0.0000E+00  0.0000E+00  0.2000E+01  0.2000E+01
     -4.651  0.0000E+00  0.0000E+00  0.2000E+01  0.2000E+01
     -4.553  0.0000E+00  0.0000E+00  0.2000E+01  0.2000E+01
     -4.455  0.0000E+00  0.0000E+00  0.2000E+01  0.2000E+01
     -4.358  0.0000E+00  0.0000E+00  0.2000E+01  0.2000E+01
     -4.260  0.0000E+00  0.0000E+00  0.2000E+01  0.2000E+01
     -4.163  0.0000E+00  0.0000E+00  0.2000E+01  0.2000E+01
     -4.065  0.0000E+00  0.0000E+00  0.2000E+01  0.2000E+01
     -3.967  0.0000E+00  0.0000E+00  0.2000E+01  0.2000E+01
     -3.870  0.0000E+00  0.0000E+00  0.2000E+01  0.2000E+01
     -3.772  0.0000E+00  0.0000E+00  0.2000E+01  0.2000E+01
     -3.674  0.0000E+00  0.0000E+00  0.2000E+01  0.2000E+01
     -3.577  0.0000E+00  0.0000E+00  0.2000E+01  0.2000E+01
     -3.479  0.0000E+00  0.0000E+00  0.2000E+01  0.2000E+01
     -3.381  0.0000E+00  0.0000E+00  0.2000E+01  0.2000E+01
     -3.284  0.0000E+00  0.0000E+00  0.2000E+01  0.2000E+01
     -3.186  0.0000E+00  0.0000E+00  0.2000E+01  0.2000E+01
     -3.089  0.0000E+00  0.0000E+00  0.2000E+01  0.2000E+01
     -2.991  0.0000E+00  0.0000E+00  0.2000E+01  0.2000E+01
     -2.893  0.0000E+00  0.0000E+00  0.2000E+01  0.2000E+01
     -2.796  0.0000E+00  0.0000E+00  0.2000E+01  0.2000E+01
     -2.698  0.0000E+00  0.0000E+00  0.2000E+01  0.2000E+01
     -2.600  0.0000E+00  0.0000E+00  0.2000E+01  0.2000E+01
     -2.503  0.0000E+00  0.0000E+00  0.2000E+01  0.2000E+01
     -2.405  0.0000E+00  0.0000E+00  0.2000E+01  0.2000E+01
     -2.307  0.1429E+00  0.1429E+00  0.2003E+01  0.2003E+01
     -2.210  0.3512E+00  0.3512E+00  0.2028E+01  0.2028E+01
     -2.112  0.5248E+00  0.5248E+00  0.2070E+01  0.2070E+01
     -2.015  0.7475E+00  0.7475E+00  0.2132E+01  0.2132E+01
     -1.917  0.1175E+01  0.1175E+01  0.2222E+01  0.2222E+01
     -1.819  0.2057E+01  0.2057E+01  0.2391E+01  0.2391E+01
     -1.722  0.2704E+01  0.2704E+01  0.2630E+01  0.2630E+01
     -1.624  0.2377E+01  0.2377E+01  0.2878E+01  0.2878E+01
     -1.526  0.1246E+01  0.1246E+01  0.3003E+01  0.3003E+01
     -1.429  0.1700E+01  0.1700E+01  0.3148E+01  0.3148E+01
     -1.331  0.3235E+01  0.3235E+01  0.3360E+01  0.3360E+01
     -1.233  0.3734E+01  0.3734E+01  0.3783E+01  0.3783E+01
     -1.136  0.4553E+01  0.4553E+01  0.4135E+01  0.4135E+01
     -1.038  0.5794E+01  0.5794E+01  0.4686E+01  0.4686E+01
     -0.941  0.1387E+01  0.1387E+01  0.4979E+01  0.4979E+01
     -0.843  0.1274E+01  0.1274E+01  0.5076E+01  0.5076E+01
     -0.745  0.2762E+01  0.2762E+01  0.5313E+01  0.5313E+01
     -0.648  0.2330E+01  0.2330E+01  0.5544E+01  0.5544E+01
     -0.550  0.2940E+01  0.2940E+01  0.5787E+01  0.5787E+01
     -0.452  0.2498E+01  0.2498E+01  0.6086E+01  0.6086E+01
     -0.355  0.1815E+01  0.1815E+01  0.6285E+01  0.6285E+01
     -0.257  0.2054E+01  0.2054E+01  0.6472E+01  0.6472E+01
     -0.159  0.2336E+01  0.2336E+01  0.6745E+01  0.6745E+01
     -0.062  0.8746E+00  0.8746E+00  0.6908E+01  0.6908E+01
      0.036  0.4154E+00  0.4154E+00  0.6977E+01  0.6977E+01
      0.133  0.1736E+00  0.1736E+00  0.6998E+01  0.6998E+01
      0.231  0.9993E+00  0.9993E+00  0.7053E+01  0.7053E+01
      0.329  0.1998E+01  0.1998E+01  0.7189E+01  0.7189E+01
      0.426  0.2546E+01  0.2546E+01  0.7396E+01  0.7396E+01
      0.524  0.2468E+01  0.2468E+01  0.7673E+01  0.7673E+01
      0.622  0.1661E+01  0.1661E+01  0.7874E+01  0.7874E+01
      0.719  0.1875E+01  0.1875E+01  0.8015E+01  0.8015E+01
      0.817  0.2080E+01  0.2080E+01  0.8147E+01  0.8147E+01
      0.915  0.2141E+01  0.2141E+01  0.8371E+01  0.8371E+01
      1.012  0.1457E+01  0.1457E+01  0.8551E+01  0.8551E+01
      1.110  0.1080E+01  0.1080E+01  0.8660E+01  0.8660E+01
      1.207  0.1798E+01  0.1798E+01  0.8804E+01  0.8804E+01
      1.305  0.2264E+01  0.2264E+01  0.9007E+01  0.9007E+01
      1.403  0.2806E+01  0.2806E+01  0.9244E+01  0.9244E+01
      1.500  0.1556E+01  0.1556E+01  0.9441E+01  0.9441E+01
      1.598  0.2446E+01  0.2446E+01  0.9648E+01  0.9648E+01
      1.696  0.2387E+01  0.2387E+01  0.9882E+01  0.9882E+01
      1.793  0.1983E+01  0.1983E+01  0.1010E+02  0.1010E+02
      1.891  0.1469E+01  0.1469E+01  0.1027E+02  0.1027E+02
      1.989  0.1278E+01  0.1278E+01  0.1040E+02  0.1040E+02
      2.086  0.1666E+01  0.1666E+01  0.1053E+02  0.1053E+02
      2.184  0.1144E+01  0.1144E+01  0.1066E+02  0.1066E+02
      2.281  0.9834E+00  0.9834E+00  0.1077E+02  0.1077E+02
      2.379  0.1008E+01  0.1008E+01  0.1086E+02  0.1086E+02
      2.477  0.7059E+00  0.7059E+00  0.1095E+02  0.1095E+02
      2.574  0.4246E+00  0.4246E+00  0.1101E+02  0.1101E+02
      2.672  0.4246E+00  0.4246E+00  0.1104E+02  0.1104E+02
      2.770  0.8254E+00  0.8254E+00  0.1109E+02  0.1109E+02
      2.867  0.1159E+01  0.1159E+01  0.1119E+02  0.1119E+02
      2.965  0.1524E+01  0.1524E+01  0.1132E+02  0.1132E+02
      3.063  0.2445E+01  0.2445E+01  0.1150E+02  0.1150E+02
      3.160  0.1592E+01  0.1592E+01  0.1167E+02  0.1167E+02
      3.258  0.2386E+01  0.2386E+01  0.1185E+02  0.1185E+02
      3.355  0.4238E+01  0.4238E+01  0.1221E+02  0.1221E+02
      3.453  0.3934E+01  0.3934E+01  0.1263E+02  0.1263E+02
      3.551  0.1404E+01  0.1404E+01  0.1292E+02  0.1292E+02
      3.648  0.3303E+00  0.3303E+00  0.1297E+02  0.1297E+02
      3.746  0.1609E+00  0.1609E+00  0.1299E+02  0.1299E+02
      3.844  0.0000E+00  0.0000E+00  0.1300E+02  0.1300E+02
      3.941  0.0000E+00  0.0000E+00  0.1300E+02  0.1300E+02
      4.039  0.0000E+00  0.0000E+00  0.1300E+02  0.1300E+02
      4.137  0.0000E+00  0.0000E+00  0.1300E+02  0.1300E+02
      4.234  0.0000E+00  0.0000E+00  0.1300E+02  0.1300E+02
      4.332  0.0000E+00  0.0000E+00  0.1300E+02  0.1300E+02
      4.429  0.0000E+00  0.0000E+00  0.1300E+02  0.1300E+02
      4.527  0.0000E+00  0.0000E+00  0.1300E+02  0.1300E+02
      4.625  0.0000E+00  0.0000E+00  0.1300E+02  0.1300E+02
      4.722  0.0000E+00  0.0000E+00  0.1300E+02  0.1300E+02
      4.820  0.0000E+00  0.0000E+00  0.1300E+02  0.1300E+02
      4.918  0.0000E+00  0.0000E+00  0.1300E+02  0.1300E+02
      5.015  0.0000E+00  0.0000E+00  0.1300E+02  0.1300E+02
      5.113  0.0000E+00  0.0000E+00  0.1300E+02  0.1300E+02
      5.211  0.0000E+00  0.0000E+00  0.1300E+02  0.1300E+02
      5.308  0.0000E+00  0.0000E+00  0.1300E+02  0.1300E+02
      5.406  0.0000E+00  0.0000E+00  0.1300E+02  0.1300E+02
      5.503  0.0000E+00  0.0000E+00  0.1300E+02  0.1300E+02
      5.601  0.0000E+00  0.0000E+00  0.1300E+02  0.1300E+02
      5.699  0.0000E+00  0.0000E+00  0.1300E+02  0.1300E+02
      5.796  0.0000E+00  0.0000E+00  0.1300E+02  0.1300E+02
      5.894  0.0000E+00  0.0000E+00  0.1300E+02  0.1300E+02
      5.992  0.0000E+00  0.0000E+00  0.1300E+02  0.1300E+02
      6.089  0.0000E+00  0.0000E+00  0.1300E+02  0.1300E+02
      6.187  0.2990E-02  0.2990E-02  0.1300E+02  0.1300E+02
      6.285  0.1079E-01  0.1079E-01  0.1300E+02  0.1300E+02
      6.382  0.1301E-01  0.1301E-01  0.1300E+02  0.1300E+02
      6.480  0.1656E-01  0.1656E-01  0.1300E+02  0.1300E+02
      6.577  0.2049E-01  0.2049E-01  0.1301E+02  0.1301E+02
      6.675  0.2416E-01  0.2416E-01  0.1301E+02  0.1301E+02
      6.773  0.2771E-01  0.2771E-01  0.1301E+02  0.1301E+02
      6.870  0.3154E-01  0.3154E-01  0.1301E+02  0.1301E+02
      6.968  0.3578E-01  0.3578E-01  0.1302E+02  0.1302E+02
      7.066  0.4019E-01  0.4019E-01  0.1302E+02  0.1302E+02
      7.163  0.4478E-01  0.4478E-01  0.1302E+02  0.1302E+02
      7.261  0.4996E-01  0.4996E-01  0.1303E+02  0.1303E+02
      7.359  0.5524E-01  0.5524E-01  0.1303E+02  0.1303E+02
      7.456  0.6070E-01  0.6070E-01  0.1304E+02  0.1304E+02
      7.554  0.6698E-01  0.6698E-01  0.1305E+02  0.1305E+02
      7.651  0.7370E-01  0.7370E-01  0.1305E+02  0.1305E+02
      7.749  0.8091E-01  0.8091E-01  0.1306E+02  0.1306E+02
      7.847  0.8935E-01  0.8935E-01  0.1307E+02  0.1307E+02
      7.944  0.9814E-01  0.9814E-01  0.1308E+02  0.1308E+02
      8.042  0.1074E+00  0.1074E+00  0.1309E+02  0.1309E+02
      8.140  0.1189E+00  0.1189E+00  0.1310E+02  0.1310E+02
      8.237  0.1320E+00  0.1320E+00  0.1311E+02  0.1311E+02
      8.335  0.1481E+00  0.1481E+00  0.1312E+02  0.1312E+02
      8.433  0.1714E+00  0.1714E+00  0.1314E+02  0.1314E+02
      8.530  0.2001E+00  0.2001E+00  0.1316E+02  0.1316E+02
      8.628  0.6461E+00  0.6461E+00  0.1319E+02  0.1319E+02
      8.725  0.1106E+01  0.1106E+01  0.1328E+02  0.1328E+02
      8.823  0.1060E+01  0.1060E+01  0.1338E+02  0.1338E+02
      8.921  0.1011E+01  0.1011E+01  0.1348E+02  0.1348E+02
      9.018  0.9860E+00  0.9860E+00  0.1358E+02  0.1358E+02
      9.116  0.9728E+00  0.9728E+00  0.1367E+02  0.1367E+02
      9.214  0.1464E+01  0.1464E+01  0.1378E+02  0.1378E+02
      9.311  0.1785E+01  0.1785E+01  0.1393E+02  0.1393E+02
      9.409  0.1899E+01  0.1899E+01  0.1412E+02  0.1412E+02
      9.506  0.1238E+01  0.1238E+01  0.1427E+02  0.1427E+02
      9.604  0.8419E+00  0.8419E+00  0.1437E+02  0.1437E+02
      9.702  0.1565E+01  0.1562E+01  0.1449E+02  0.1449E+02
      9.799  0.2407E+01  0.2448E+01  0.1467E+02  0.1467E+02
      9.897  0.1745E+01  0.1667E+01  0.1487E+02  0.1486E+02
      9.995  0.1850E+01  0.1843E+01  0.1504E+02  0.1503E+02
     10.092  0.1845E+01  0.1847E+01  0.1523E+02  0.1523E+02
     10.190  0.1525E+01  0.1529E+01  0.1539E+02  0.1539E+02
     10.288  0.1665E+01  0.1665E+01  0.1555E+02  0.1554E+02
     10.385  0.1732E+01  0.1774E+01  0.1572E+02  0.1571E+02
     10.483  0.1337E+01  0.1372E+01  0.1588E+02  0.1588E+02
     10.580  0.1425E+01  0.1404E+01  0.1601E+02  0.1602E+02
     10.678  0.1433E+01  0.1426E+01  0.1615E+02  0.1615E+02
     10.776  0.1330E+01  0.1416E+01  0.1629E+02  0.1629E+02
     10.873  0.1224E+01  0.1271E+01  0.1640E+02  0.1641E+02
     10.971  0.2202E+01  0.1968E+01  0.1657E+02  0.1657E+02
     11.069  0.2192E+01  0.2053E+01  0.1682E+02  0.1682E+02
     11.166  0.6293E+00  0.8032E+00  0.1695E+02  0.1694E+02
     11.264  0.2016E+00  0.2000E+00  0.1699E+02  0.1699E+02
     11.362  0.2703E-02  0.7729E-03  0.1700E+02  0.1700E+02
     11.459  0.0000E+00  0.0000E+00  0.1700E+02  0.1700E+02
     11.557  0.0000E+00  0.0000E+00  0.1700E+02  0.1700E+02
     11.654  0.0000E+00  0.0000E+00  0.1700E+02  0.1700E+02
     11.752  0.0000E+00  0.0000E+00  0.1700E+02  0.1700E+02
     11.850  0.0000E+00  0.0000E+00  0.1700E+02  0.1700E+02
     11.947  0.0000E+00  0.0000E+00  0.1700E+02  0.1700E+02
     12.045  0.0000E+00  0.0000E+00  0.1700E+02  0.1700E+02
     12.143  0.0000E+00  0.0000E+00  0.1700E+02  0.1700E+02
     12.240  0.0000E+00  0.0000E+00  0.1700E+02  0.1700E+02
     12.338  0.0000E+00  0.0000E+00  0.1700E+02  0.1700E+02
     12.436  0.0000E+00  0.0000E+00  0.1700E+02  0.1700E+02
     12.533  0.0000E+00  0.0000E+00  0.1700E+02  0.1700E+02
     12.631  0.0000E+00  0.0000E+00  0.1700E+02  0.1700E+02
     12.728  0.0000E+00  0.0000E+00  0.1700E+02  0.1700E+02
     12.826  0.0000E+00  0.0000E+00  0.1700E+02  0.1700E+02
     12.924  0.0000E+00  0.0000E+00  0.1700E+02  0.1700E+02
     13.021  0.0000E+00  0.0000E+00  0.1700E+02  0.1700E+02
     13.119  0.0000E+00  0.0000E+00  0.1700E+02  0.1700E+02
     13.217  0.0000E+00  0.0000E+00  0.1700E+02  0.1700E+02
     13.314  0.0000E+00  0.0000E+00  0.1700E+02  0.1700E+02
     13.412  0.0000E+00  0.0000E+00  0.1700E+02  0.1700E+02
     13.41193446    -15.87883319  301      3.86802600      1.00000000
    -15.879  0.0000E+00  0.0000E+00  0.0000E+00  0.0000E+00  0.0000E+00  0.0000E+00  0.0000E+00  0.0000E+00  0.0000E+00  0.0000E+00  0.0000E+00  0.0000E+00  0.0000E+00  0.0000E+00  0.0000E+00  0.0000E+00  0.0000E+00  0.0000E+00
    -15.781  0.0000E+00  0.0000E+00  0.0000E+00  0.0000E+00  0.0000E+00  0.0000E+00  0.0000E+00  0.0000E+00  0.0000E+00  0.0000E+00  0.0000E+00  0.0000E+00  0.0000E+00  0.0000E+00  0.0000E+00  0.0000E+00  0.0000E+00  0.0000E+00
    -15.684  0.0000E+00  0.0000E+00  0.0000E+00  0.0000E+00  0.0000E+00  0.0000E+00  0.0000E+00  0.0000E+00  0.0000E+00  0.0000E+00  0.0000E+00  0.0000E+00  0.0000E+00  0.0000E+00  0.0000E+00  0.0000E+00  0.0000E+00  0.0000E+00
    -15.586  0.0000E+00  0.0000E+00  0.0000E+00  0.0000E+00  0.0000E+00  0.0000E+00  0.0000E+00  0.0000E+00  0.0000E+00  0.0000E+00  0.0000E+00  0.0000E+00  0.0000E+00  0.0000E+00  0.0000E+00  0.0000E+00  0.0000E+00  0.0000E+00
    -15.488  0.0000E+00  0.0000E+00  0.0000E+00  0.0000E+00  0.0000E+00  0.0000E+00  0.0000E+00  0.0000E+00  0.0000E+00  0.0000E+00  0.0000E+00  0.0000E+00  0.0000E+00  0.0000E+00  0.0000E+00  0.0000E+00  0.0000E+00  0.0000E+00
    -15.391  0.0000E+00  0.0000E+00  0.0000E+00  0.0000E+00  0.0000E+00  0.0000E+00  0.0000E+00  0.0000E+00  0.0000E+00  0.0000E+00  0.0000E+00  0.0000E+00  0.0000E+00  0.0000E+00  0.0000E+00  0.0000E+00  0.0000E+00  0.0000E+00
    -15.293  0.0000E+00  0.0000E+00  0.0000E+00  0.0000E+00  0.0000E+00  0.0000E+00  0.0000E+00  0.0000E+00  0.0000E+00  0.0000E+00  0.0000E+00  0.0000E+00  0.0000E+00  0.0000E+00  0.0000E+00  0.0000E+00  0.0000E+00  0.0000E+00
    -15.195  0.0000E+00  0.0000E+00  0.0000E+00  0.0000E+00  0.0000E+00  0.0000E+00  0.0000E+00  0.0000E+00  0.0000E+00  0.0000E+00  0.0000E+00  0.0000E+00  0.0000E+00  0.0000E+00  0.0000E+00  0.0000E+00  0.0000E+00  0.0000E+00
    -15.098  0.0000E+00  0.0000E+00  0.0000E+00  0.0000E+00  0.0000E+00  0.0000E+00  0.0000E+00  0.0000E+00  0.0000E+00  0.0000E+00  0.0000E+00  0.0000E+00  0.0000E+00  0.0000E+00  0.0000E+00  0.0000E+00  0.0000E+00  0.0000E+00
    -15.000  0.0000E+00  0.0000E+00  0.0000E+00  0.0000E+00  0.0000E+00  0.0000E+00  0.0000E+00  0.0000E+00  0.0000E+00  0.0000E+00  0.0000E+00  0.0000E+00  0.0000E+00  0.0000E+00  0.0000E+00  0.0000E+00  0.0000E+00  0.0000E+00
    -14.902  0.0000E+00  0.0000E+00  0.0000E+00  0.0000E+00  0.0000E+00  0.0000E+00  0.0000E+00  0.0000E+00  0.0000E+00  0.0000E+00  0.0000E+00  0.0000E+00  0.0000E+00  0.0000E+00  0.0000E+00  0.0000E+00  0.0000E+00  0.0000E+00
    -14.805  0.0000E+00  0.0000E+00  0.0000E+00  0.0000E+00  0.0000E+00  0.0000E+00  0.0000E+00  0.0000E+00  0.0000E+00  0.0000E+00  0.0000E+00  0.0000E+00  0.0000E+00  0.0000E+00  0.0000E+00  0.0000E+00  0.0000E+00  0.0000E+00
    -14.707  0.0000E+00  0.0000E+00  0.0000E+00  0.0000E+00  0.0000E+00  0.0000E+00  0.0000E+00  0.0000E+00  0.0000E+00  0.0000E+00  0.0000E+00  0.0000E+00  0.0000E+00  0.0000E+00  0.0000E+00  0.0000E+00  0.0000E+00  0.0000E+00
    -14.610  0.0000E+00  0.0000E+00  0.0000E+00  0.0000E+00  0.0000E+00  0.0000E+00  0.0000E+00  0.0000E+00  0.0000E+00  0.0000E+00  0.0000E+00  0.0000E+00  0.0000E+00  0.0000E+00  0.0000E+00  0.0000E+00  0.0000E+00  0.0000E+00
    -14.512  0.0000E+00  0.0000E+00  0.0000E+00  0.0000E+00  0.0000E+00  0.0000E+00  0.0000E+00  0.0000E+00  0.0000E+00  0.0000E+00  0.0000E+00  0.0000E+00  0.0000E+00  0.0000E+00  0.0000E+00  0.0000E+00  0.0000E+00  0.0000E+00
    -14.414  0.0000E+00  0.0000E+00  0.0000E+00  0.0000E+00  0.0000E+00  0.0000E+00  0.0000E+00  0.0000E+00  0.0000E+00  0.0000E+00  0.0000E+00  0.0000E+00  0.0000E+00  0.0000E+00  0.0000E+00  0.0000E+00  0.0000E+00  0.0000E+00
    -14.317  0.0000E+00  0.0000E+00  0.0000E+00  0.0000E+00  0.0000E+00  0.0000E+00  0.0000E+00  0.0000E+00  0.0000E+00  0.0000E+00  0.0000E+00  0.0000E+00  0.0000E+00  0.0000E+00  0.0000E+00  0.0000E+00  0.0000E+00  0.0000E+00
    -14.219  0.0000E+00  0.0000E+00  0.0000E+00  0.0000E+00  0.0000E+00  0.0000E+00  0.0000E+00  0.0000E+00  0.0000E+00  0.0000E+00  0.0000E+00  0.0000E+00  0.0000E+00  0.0000E+00  0.0000E+00  0.0000E+00  0.0000E+00  0.0000E+00
    -14.121  0.0000E+00  0.0000E+00  0.0000E+00  0.0000E+00  0.0000E+00  0.0000E+00  0.0000E+00  0.0000E+00  0.0000E+00  0.0000E+00  0.0000E+00  0.0000E+00  0.0000E+00  0.0000E+00  0.0000E+00  0.0000E+00  0.0000E+00  0.0000E+00
    -14.024  0.0000E+00  0.0000E+00  0.0000E+00  0.0000E+00  0.0000E+00  0.0000E+00  0.0000E+00  0.0000E+00  0.0000E+00  0.0000E+00  0.0000E+00  0.0000E+00  0.0000E+00  0.0000E+00  0.0000E+00  0.0000E+00  0.0000E+00  0.0000E+00
    -13.926  0.0000E+00  0.0000E+00  0.0000E+00  0.0000E+00  0.0000E+00  0.0000E+00  0.0000E+00  0.0000E+00  0.0000E+00  0.0000E+00  0.0000E+00  0.0000E+00  0.0000E+00  0.0000E+00  0.0000E+00  0.0000E+00  0.0000E+00  0.0000E+00
    -13.828  0.4211E-02  0.3556E-02  0.2505E-04  0.2371E-04  0.1136E-04  0.9672E-05  0.6282E-04  0.5757E-04  0.5798E-07  0.1145E-07  0.3193E-07  0.1146E-07  0.8901E-06  0.3620E-06  0.1989E-07  0.1743E-07  0.1639E-05  0.6250E-06
    -13.731  0.7639E-02  0.6398E-02  0.1459E-03  0.1384E-03  0.6418E-04  0.5568E-04  0.3373E-03  0.3085E-03  0.4296E-06  0.8866E-07  0.1220E-06  0.5373E-07  0.1418E-04  0.5666E-05  0.1081E-06  0.7381E-07  0.2575E-04  0.9481E-05
    -13.633  0.9812E-02  0.8135E-02  0.3394E-03  0.3236E-03  0.1493E-03  0.1340E-03  0.7828E-03  0.7108E-03  0.1287E-05  0.3106E-06  0.3279E-06  0.1284E-06  0.6058E-04  0.2346E-04  0.3814E-06  0.1950E-06  0.1096E-03  0.3883E-04
    -13.536  0.1157E-01  0.9435E-02  0.5977E-03  0.5793E-03  0.2742E-03  0.2614E-03  0.1404E-02  0.1272E-02  0.2856E-05  0.7476E-06  0.6948E-06  0.2509E-06  0.1701E-03  0.6359E-04  0.1001E-05  0.4238E-06  0.3122E-03  0.1061E-03
    -13.438  0.1366E-01  0.1029E-01  0.9582E-03  0.1021E-02  0.4376E-03  0.5234E-03  0.2168E-02  0.2038E-02  0.5481E-05  0.1434E-05  0.1649E-05  0.4647E-06  0.3850E-03  0.1421E-03  0.2234E-05  0.7544E-06  0.7471E-03  0.2420E-03
    -13.340  0.1321E-01  0.1200E-01  0.1669E-02  0.1399E-02  0.1032E-02  0.8556E-03  0.3146E-02  0.2643E-02  0.7754E-05  0.2456E-05  0.2853E-05  0.1148E-05  0.9158E-03  0.2908E-03  0.3120E-05  0.1372E-05  0.1634E-02  0.4757E-03
    -13.243  0.1334E-01  0.1332E-01  0.2679E-02  0.2098E-02  0.2025E-02  0.1958E-02  0.3967E-02  0.3415E-02  0.1028E-04  0.3250E-05  0.6853E-05  0.2348E-05  0.2585E-02  0.5721E-03  0.5152E-05  0.2002E-05  0.3400E-02  0.8562E-03
    -13.145  0.1404E-01  0.1349E-01  0.4085E-02  0.3398E-02  0.3629E-02  0.3963E-02  0.4616E-02  0.4465E-02  0.1258E-04  0.3963E-05  0.1283E-04  0.4166E-05  0.6504E-02  0.1465E-02  0.7460E-05  0.2841E-05  0.6757E-02  0.1493E-02
    -13.047  0.1515E-01  0.1282E-01  0.6670E-02  0.6183E-02  0.6239E-02  0.7656E-02  0.5449E-02  0.6632E-02  0.1520E-04  0.4821E-05  0.2035E-04  0.6622E-05  0.1838E-01  0.4340E-02  0.1007E-04  0.3864E-05  0.1506E-01  0.2779E-02
    -12.950  0.1567E-01  0.9243E-02  0.1303E-01  0.1147E-01  0.1111E-01  0.1233E-01  0.6807E-02  0.1002E-01  0.1549E-04  0.5070E-05  0.2933E-04  0.9544E-05  0.6407E-01  0.1878E-01  0.8714E-05  0.3225E-05  0.2289E-01  0.5378E-02
    -12.852  0.1621E-02  0.1114E-01  0.4446E-01  0.1429E-01  0.3590E-01  0.8438E-02  0.3939E-01  0.1465E-01  0.4337E-04  0.1660E-04  0.2996E-04  0.1302E-04  0.7257E-01  0.3683E-01  0.9898E-05  0.6855E-05  0.2679E-01  0.5578E-01
    -12.754  0.0000E+00  0.0000E+00  0.0000E+00  0.0000E+00  0.0000E+00  0.0000E+00  0.0000E+00  0.0000E+00  0.0000E+00  0.0000E+00  0.0000E+00  0.0000E+00  0.0000E+00  0.0000E+00  0.0000E+00  0.0000E+00  0.0000E+00  0.0000E+00
    -12.657  0.0000E+00  0.0000E+00  0.0000E+00  0.0000E+00  0.0000E+00  0.0000E+00  0.0000E+00  0.0000E+00  0.0000E+00  0.0000E+00  0.0000E+00  0.0000E+00  0.0000E+00  0.0000E+00  0.0000E+00  0.0000E+00  0.0000E+00  0.0000E+00
    -12.559  0.0000E+00  0.0000E+00  0.0000E+00  0.0000E+00  0.0000E+00  0.0000E+00  0.0000E+00  0.0000E+00  0.0000E+00  0.0000E+00  0.0000E+00  0.0000E+00  0.0000E+00  0.0000E+00  0.0000E+00  0.0000E+00  0.0000E+00  0.0000E+00
    -12.462  0.0000E+00  0.0000E+00  0.0000E+00  0.0000E+00  0.0000E+00  0.0000E+00  0.0000E+00  0.0000E+00  0.0000E+00  0.0000E+00  0.0000E+00  0.0000E+00  0.0000E+00  0.0000E+00  0.0000E+00  0.0000E+00  0.0000E+00  0.0000E+00
    -12.364  0.0000E+00  0.0000E+00  0.0000E+00  0.0000E+00  0.0000E+00  0.0000E+00  0.0000E+00  0.0000E+00  0.0000E+00  0.0000E+00  0.0000E+00  0.0000E+00  0.0000E+00  0.0000E+00  0.0000E+00  0.0000E+00  0.0000E+00  0.0000E+00
    -12.266  0.0000E+00  0.0000E+00  0.0000E+00  0.0000E+00  0.0000E+00  0.0000E+00  0.0000E+00  0.0000E+00  0.0000E+00  0.0000E+00  0.0000E+00  0.0000E+00  0.0000E+00  0.0000E+00  0.0000E+00  0.0000E+00  0.0000E+00  0.0000E+00
    -12.169  0.0000E+00  0.0000E+00  0.0000E+00  0.0000E+00  0.0000E+00  0.0000E+00  0.0000E+00  0.0000E+00  0.0000E+00  0.0000E+00  0.0000E+00  0.0000E+00  0.0000E+00  0.0000E+00  0.0000E+00  0.0000E+00  0.0000E+00  0.0000E+00
    -12.071  0.0000E+00  0.0000E+00  0.0000E+00  0.0000E+00  0.0000E+00  0.0000E+00  0.0000E+00  0.0000E+00  0.0000E+00  0.0000E+00  0.0000E+00  0.0000E+00  0.0000E+00  0.0000E+00  0.0000E+00  0.0000E+00  0.0000E+00  0.0000E+00
    -11.973  0.0000E+00  0.0000E+00  0.0000E+00  0.0000E+00  0.0000E+00  0.0000E+00  0.0000E+00  0.0000E+00  0.0000E+00  0.0000E+00  0.0000E+00  0.0000E+00  0.0000E+00  0.0000E+00  0.0000E+00  0.0000E+00  0.0000E+00  0.0000E+00
    -11.876  0.0000E+00  0.0000E+00  0.0000E+00  0.0000E+00  0.0000E+00  0.0000E+00  0.0000E+00  0.0000E+00  0.0000E+00  0.0000E+00  0.0000E+00  0.0000E+00  0.0000E+00  0.0000E+00  0.0000E+00  0.0000E+00  0.0000E+00  0.0000E+00
    -11.778  0.0000E+00  0.0000E+00  0.0000E+00  0.0000E+00  0.0000E+00  0.0000E+00  0.0000E+00  0.0000E+00  0.0000E+00  0.0000E+00  0.0000E+00  0.0000E+00  0.0000E+00  0.0000E+00  0.0000E+00  0.0000E+00  0.0000E+00  0.0000E+00
    -11.680  0.0000E+00  0.0000E+00  0.0000E+00  0.0000E+00  0.0000E+00  0.0000E+00  0.0000E+00  0.0000E+00  0.0000E+00  0.0000E+00  0.0000E+00  0.0000E+00  0.0000E+00  0.0000E+00  0.0000E+00  0.0000E+00  0.0000E+00  0.0000E+00
    -11.583  0.0000E+00  0.0000E+00  0.0000E+00  0.0000E+00  0.0000E+00  0.0000E+00  0.0000E+00  0.0000E+00  0.0000E+00  0.0000E+00  0.0000E+00  0.0000E+00  0.0000E+00  0.0000E+00  0.0000E+00  0.0000E+00  0.0000E+00  0.0000E+00
    -11.485  0.0000E+00  0.0000E+00  0.0000E+00  0.0000E+00  0.0000E+00  0.0000E+00  0.0000E+00  0.0000E+00  0.0000E+00  0.0000E+00  0.0000E+00  0.0000E+00  0.0000E+00  0.0000E+00  0.0000E+00  0.0000E+00  0.0000E+00  0.0000E+00
    -11.388  0.0000E+00  0.0000E+00  0.0000E+00  0.0000E+00  0.0000E+00  0.0000E+00  0.0000E+00  0.0000E+00  0.0000E+00  0.0000E+00  0.0000E+00  0.0000E+00  0.0000E+00  0.0000E+00  0.0000E+00  0.0000E+00  0.0000E+00  0.0000E+00
    -11.290  0.0000E+00  0.0000E+00  0.0000E+00  0.0000E+00  0.0000E+00  0.0000E+00  0.0000E+00  0.0000E+00  0.0000E+00  0.0000E+00  0.0000E+00  0.0000E+00  0.0000E+00  0.0000E+00  0.0000E+00  0.0000E+00  0.0000E+00  0.0000E+00
    -11.192  0.0000E+00  0.0000E+00  0.0000E+00  0.0000E+00  0.0000E+00  0.0000E+00  0.0000E+00  0.0000E+00  0.0000E+00  0.0000E+00  0.0000E+00  0.0000E+00  0.0000E+00  0.0000E+00  0.0000E+00  0.0000E+00  0.0000E+00  0.0000E+00
    -11.095  0.0000E+00  0.0000E+00  0.0000E+00  0.0000E+00  0.0000E+00  0.0000E+00  0.0000E+00  0.0000E+00  0.0000E+00  0.0000E+00  0.0000E+00  0.0000E+00  0.0000E+00  0.0000E+00  0.0000E+00  0.0000E+00  0.0000E+00  0.0000E+00
    -10.997  0.0000E+00  0.0000E+00  0.0000E+00  0.0000E+00  0.0000E+00  0.0000E+00  0.0000E+00  0.0000E+00  0.0000E+00  0.0000E+00  0.0000E+00  0.0000E+00  0.0000E+00  0.0000E+00  0.0000E+00  0.0000E+00  0.0000E+00  0.0000E+00