    4    4    1    2
  0.1098546E+02  0.5445216E-09  0.5445216E-09  0.5445216E-09  0.5000000E-15
  1.000000000000000E-004
  CAR 
 MnO double cell                         
     26    770     17
 
  0.2500000E-01  0.2500000E-01  0.2500000E-01  0.2500000E-03
    1      -13.878833    -13.878833   1.000000   1.000000
    2      -12.889435    -12.889435   1.000000   1.000000
    3       -2.361106     -2.361106   1.000000   1.000000
    4       -1.248501     -1.248501   1.000000   1.000000
    5       -1.248501     -1.248501   1.000000   1.000000
    6       -0.104466     -0.104466   1.000000   1.000000
    7       -0.104466     -0.104466   1.000000   1.000000
    8        0.757693      0.757693   1.000000   1.000000
    9        2.594651      2.594651   1.000000   1.000000
   10        2.598815      2.598815   1.000000   1.000000
   11        2.598815      2.598815   1.000000   1.000000
   12        3.296851      3.296851   1.000000   1.000000
   13        3.296851      3.296851   1.000000   1.000000
   14        6.124500      6.124500   0.000000   0.000000
   15        9.766345      9.765428   0.000000   0.000000
   16        9.968361      9.964390   0.000000   0.000000
   17        9.968507      9.969154   0.000000   0.000000
 
  0.7500000E-01  0.2500000E-01  0.2500000E-01  0.7500000E-03
    1      -13.856688    -13.856688   1.000000   1.000000
    2      -12.892624    -12.892625   1.000000   1.000000
    3       -2.319633     -2.319633   1.000000   1.000000
    4       -1.252820     -1.252821   1.000000   1.000000
    5       -1.234760     -1.234760   1.000000   1.000000
    6       -0.124881     -0.124881   1.000000   1.000000
    7       -0.117195     -0.117195   1.000000   1.000000
    8        0.752353      0.752352   1.000000   1.000000
    9        2.363945      2.363945   1.000000   1.000000
   10        2.585635      2.585635   1.000000   1.000000
   11        2.599485      2.599485   1.000000   1.000000
   12        3.282718      3.282718   1.000000   1.000000
   13        3.334601      3.334601   1.000000   1.000000
   14        6.312632      6.312632   0.000000   0.000000
   15        9.727020      9.727025   0.000000   0.000000
   16        9.806165      9.808067   0.000000   0.000000
   17       10.008427     10.072247   0.000000   0.000000
 
  0.1250000E+00  0.2500000E-01  0.2500000E-01  0.7500000E-03
    1      -13.796246    -13.796246   1.000000   1.000000
    2      -12.892646    -12.892646   1.000000   1.000000
    3       -2.211725     -2.211725   1.000000   1.000000
    4       -1.262705     -1.262705   1.000000   1.000000
    5       -1.194328     -1.194328   1.000000   1.000000
    6       -0.193625     -0.193625   1.000000   1.000000
    7       -0.148697     -0.148697   1.000000   1.000000
    8        0.736294      0.736294   1.000000   1.000000
    9        1.994330      1.994330   1.000000   1.000000
   10        2.465199      2.465199   1.000000   1.000000
   11        2.575027      2.575027   1.000000   1.000000
   12        3.274567      3.274567   1.000000   1.000000
   13        3.329727      3.329727   1.000000   1.000000
   14        6.769175      6.769175   0.000000   0.000000
   15        9.629586      9.629609   0.000000   0.000000
   16        9.781017      9.781029   0.000000   0.000000
   17       10.064688     10.058244   0.000000   0.000000
 
  0.1750000E+00  0.2500000E-01  0.2500000E-01  0.7500000E-03
    1      -13.704255    -13.704255   1.000000   1.000000
    2      -12.891088    -12.891088   1.000000   1.000000
    3       -2.058914     -2.058914   1.000000   1.000000
    4       -1.264677     -1.264677   1.000000   1.000000
    5       -1.138308     -1.138308   1.000000   1.000000
    6       -0.333287     -0.333287   1.000000   1.000000
    7       -0.184552     -0.184552   1.000000   1.000000
    8        0.693226      0.693226   1.000000   1.000000
    9        1.675652      1.675652   1.000000   1.000000
   10        2.224616      2.224616   1.000000   1.000000
   11        2.513562      2.513562   1.000000   1.000000
   12        3.276581      3.276581   1.000000   1.000000
   13        3.278808      3.278808   1.000000   1.000000
   14        7.350916      7.350916   0.000000   0.000000
   15        9.498134      9.498135   0.000000   0.000000
   16        9.852667      9.852677   0.000000   0.000000
   17       10.168216     10.162986   0.000000   0.000000
 
  0.2250000E+00  0.2500000E-01  0.2500000E-01  0.7500000E-03
    1      -13.587748    -13.587748   1.000000   1.000000
    2      -12.887028    -12.887028   1.000000   1.000000
    3       -1.903653     -1.903653   1.000000   1.000000
    4       -1.222907     -1.222907   1.000000   1.000000
    5       -1.082921     -1.082921   1.000000   1.000000
    6       -0.562251     -0.562251   1.000000   1.000000
    7       -0.201986     -0.201986   1.000000   1.000000
    8        0.618308      0.618308   1.000000   1.000000
    9        1.482610      1.482610   1.000000   1.000000
   10        1.912660      1.912660   1.000000   1.000000
   11        2.409448      2.409448   1.000000   1.000000
   12        3.207824      3.207824   1.000000   1.000000
   13        3.295503      3.295503   1.000000   1.000000
   14        7.954134      7.954134   0.000000   0.000000
   15        9.345733      9.345732   0.000000   0.000000
   16        9.985213      9.985351   0.000000   0.000000
   17       10.315828     10.310545   0.000000   0.000000
 
  0.2750000E+00  0.2500000E-01  0.2500000E-01  0.7500000E-03
    1      -13.456784    -13.456784   1.000000   1.000000
    2      -12.878379    -12.878379   1.000000   1.000000
    3       -1.798021     -1.798021   1.000000   1.000000
    4       -1.103076     -1.103076   1.000000   1.000000
    5       -1.049468     -1.049468   1.000000   1.000000
    6       -0.845690     -0.845690   1.000000   1.000000
    7       -0.174785     -0.174785   1.000000   1.000000
    8        0.546805      0.546805   1.000000   1.000000
    9        1.261282      1.261282   1.000000   1.000000
   10        1.706768      1.706768   1.000000   1.000000
   11        2.266286      2.266286   1.000000   1.000000
   12        3.126686      3.126686   1.000000   1.000000
   13        3.328144      3.328144   1.000000   1.000000
   14        8.512073      8.512074   0.000000   0.000000
   15        9.200440      9.200441   0.000000   0.000000
   16       10.143813     10.143827   0.000000   0.000000
   17       10.470855     10.457086   0.000000   0.000000
 
  0.3250000E+00  0.2500000E-01  0.2500000E-01  0.7500000E-03
    1      -13.323616    -13.323616   1.000000   1.000000
    2      -12.869424    -12.869424   1.000000   1.000000
    3       -1.742902     -1.742903   1.000000   1.000000
    4       -1.213473     -1.213473   1.000000   1.000000
    5       -1.049181     -1.049181   1.000000   1.000000
    6       -0.836579     -0.836579   1.000000   1.000000
    7       -0.090889     -0.090890   1.000000   1.000000
    8        0.509622      0.509621   1.000000   1.000000
    9        0.879361      0.879361   1.000000   1.000000
   10        1.689803      1.689803   1.000000   1.000000
   11        2.094231      2.094231   1.000000   1.000000
   12        3.046764      3.046764   1.000000   1.000000
   13        3.366045      3.366045   1.000000   1.000000
   14        8.837952      8.837952   0.000000   0.000000
   15        9.248018      9.248018   0.000000   0.000000
   16       10.303165     10.303039   0.000000   0.000000
   17       10.628860     10.884017   0.000000   0.000000
 
  0.3750000E+00  0.2500000E-01  0.2500000E-01  0.7500000E-03
    1      -13.198736    -13.198736   1.000000   1.000000
    2      -12.860028    -12.860028   1.000000   1.000000
    3       -1.696863     -1.696863   1.000000   1.000000
    4       -1.480657     -1.480657   1.000000   1.000000
    5       -1.071873     -1.071873   1.000000   1.000000
    6       -0.625519     -0.625519   1.000000   1.000000
    7        0.037414      0.037414   1.000000   1.000000
    8        0.461929      0.461929   1.000000   1.000000
    9        0.544935      0.544935   1.000000   1.000000
   10        1.689513      1.689513   1.000000   1.000000
   11        1.911498      1.911498   1.000000   1.000000
   12        2.998555      2.998555   1.000000   1.000000
   13        3.405485      3.405485   1.000000   1.000000
   14        8.769907      8.769907   0.000000   0.000000
   15        9.670694      9.670679   0.000000   0.000000
   16       10.463579     10.463627   0.000000   0.000000
   17       10.776049     10.776301   0.000000   0.000000
 
  0.4250000E+00  0.2500000E-01  0.2500000E-01  0.7500000E-03
    1      -13.095247    -13.095247   1.000000   1.000000
    2      -12.853981    -12.853981   1.000000   1.000000
    3       -1.729445     -1.729445   1.000000   1.000000
    4       -1.587305     -1.587305   1.000000   1.000000
    5       -1.101058     -1.101058   1.000000   1.000000
    6       -0.503948     -0.503948   1.000000   1.000000
    7        0.169196      0.169196   1.000000   1.000000
    8        0.180634      0.180634   1.000000   1.000000
    9        0.609654      0.609654   1.000000   1.000000
   10        1.622294      1.622294   1.000000   1.000000
   11        1.736731      1.736731   1.000000   1.000000
   12        2.997308      2.997308   1.000000   1.000000
   13        3.438962      3.438962   1.000000   1.000000
   14        8.663937      8.663937   0.000000   0.000000
   15       10.102142     10.102260   0.000000   0.000000
   16       10.640652     10.641222   0.000000   0.000000
   17       10.901763     10.904227   0.000000   0.000000
 
  0.4750000E+00  0.2500000E-01  0.2500000E-01  0.7500000E-03
    1      -13.022998    -13.022997   1.000000   1.000000
    2      -12.854676    -12.854676   1.000000   1.000000
    3       -1.854683     -1.854683   1.000000   1.000000
    4       -1.501342     -1.501341   1.000000   1.000000
    5       -1.123251     -1.123251   1.000000   1.000000
    6       -0.553461     -0.553461   1.000000   1.000000
    7        0.037188      0.037188   1.000000   1.000000
    8        0.299478      0.299478   1.000000   1.000000
    9        0.741715      0.741715   1.000000   1.000000
   10        1.494017      1.494017   1.000000   1.000000
   11        1.600081      1.600081   1.000000   1.000000
   12        3.029076      3.029076   1.000000   1.000000
   13        3.463143      3.463143   1.000000   1.000000
   14        8.590171      8.590171   0.000000   0.000000
   15       10.393059     10.392967   0.000000   0.000000
   16       10.876741     10.882692   0.000000   0.000000
   17       10.982894     11.004452   0.000000   0.000000
 
 -0.4750000E+00  0.2500000E-01  0.2500000E-01  0.7500000E-03
    1      -12.994471    -12.994470   1.000000   1.000000
    2      -12.859224    -12.859224   1.000000   1.000000
    3       -1.902355     -1.902355   1.000000   1.000000
    4       -1.438846     -1.438845   1.000000   1.000000
    5       -1.131538     -1.131538   1.000000   1.000000
    6       -0.621021     -0.621020   1.000000   1.000000
    7        0.004774      0.004774   1.000000   1.000000
    8        0.347240      0.347240   1.000000   1.000000
    9        0.836622      0.836622   1.000000   1.000000
   10        1.393677      1.393677   1.000000   1.000000
   11        1.543567      1.543567   1.000000   1.000000
   12        3.059529      3.059529   1.000000   1.000000
   13        3.474717      3.474717   1.000000   1.000000
   14        8.561705      8.561705   0.000000   0.000000
   15       10.482979     10.483009   0.000000   0.000000
   16       11.010949     11.012910   0.000000   0.000000
   17       11.047729     11.167008   0.000000   0.000000
 
 -0.4250000E+00  0.2500000E-01  0.2500000E-01  0.7500000E-03
    1      -13.019844    -13.019844   1.000000   1.000000
    2      -12.859172    -12.859172   1.000000   1.000000
    3       -1.858728     -1.858728   1.000000   1.000000
    4       -1.467878     -1.467878   1.000000   1.000000
    5       -1.122336     -1.122336   1.000000   1.000000
    6       -0.558371     -0.558371   1.000000   1.000000
    7       -0.002699     -0.002699   1.000000   1.000000
    8        0.298580      0.298580   1.000000   1.000000
    9        0.781127      0.781127   1.000000   1.000000
   10        1.430413      1.430413   1.000000   1.000000
   11        1.591288      1.591288   1.000000   1.000000
   12        3.075609      3.075609   1.000000   1.000000
   13        3.472608      3.472608   1.000000   1.000000
   14        8.581837      8.581837   0.000000   0.000000
   15       10.403780     10.408080   0.000000   0.000000
   16       10.892412     10.875047   0.000000   0.000000
   17       11.027113     11.133532   0.000000   0.000000
 
 -0.3750000E+00  0.2500000E-01  0.2500000E-01  0.7500000E-03
    1      -13.092764    -13.092765   1.000000   1.000000
    2      -12.857117    -12.857117   1.000000   1.000000
    3       -1.727024     -1.727024   1.000000   1.000000
    4       -1.542351     -1.542351   1.000000   1.000000
    5       -1.098753     -1.098754   1.000000   1.000000
    6       -0.518618     -0.518618   1.000000   1.000000
    7        0.104234      0.104234   1.000000   1.000000
    8        0.179121      0.179121   1.000000   1.000000
    9        0.665638      0.665638   1.000000   1.000000
   10        1.522453      1.522453   1.000000   1.000000
   11        1.721198      1.721198   1.000000   1.000000
   12        3.091552      3.091552   1.000000   1.000000
   13        3.460368      3.460368   1.000000   1.000000
   14        8.646805      8.646805   0.000000   0.000000
   15       10.113588     10.113551   0.000000   0.000000
   16       10.648684     10.648573   0.000000   0.000000
   17       10.914689     10.899426   0.000000   0.000000
 
 -0.3250000E+00  0.2500000E-01  0.2500000E-01  0.7500000E-03
    1      -13.200263    -13.200263   1.000000   1.000000
    2      -12.859504    -12.859504   1.000000   1.000000
    3       -1.625937     -1.625937   1.000000   1.000000
    4       -1.496768     -1.496768   1.000000   1.000000
    5       -1.068442     -1.068442   1.000000   1.000000
    6       -0.662234     -0.662234   1.000000   1.000000
    7        0.034988      0.034988   1.000000   1.000000
    8        0.393591      0.393591   1.000000   1.000000
    9        0.607725      0.607725   1.000000   1.000000
   10        1.573109      1.573109   1.000000   1.000000
   11        1.887623      1.887623   1.000000   1.000000
   12        3.128175      3.128175   1.000000   1.000000
   13        3.436074      3.436074   1.000000   1.000000
   14        8.741728      8.741728   0.000000   0.000000
   15        9.678632      9.678654   0.000000   0.000000
   16       10.480324     10.481037   0.000000   0.000000
   17       10.776177     10.779001   0.000000   0.000000
 
 -0.2750000E+00  0.2500000E-01  0.2500000E-01  0.7500000E-03
    1      -13.328317    -13.328317   1.000000   1.000000
    2      -12.864430    -12.864430   1.000000   1.000000
    3       -1.676043     -1.676043   1.000000   1.000000
    4       -1.234085     -1.234085   1.000000   1.000000
    5       -1.045160     -1.045160   1.000000   1.000000
    6       -0.875458     -0.875458   1.000000   1.000000
    7       -0.093497     -0.093497   1.000000   1.000000
    8        0.539997      0.539997   1.000000   1.000000
    9        0.843394      0.843394   1.000000   1.000000
   10        1.578414      1.578414   1.000000   1.000000
   11        2.062933      2.062933   1.000000   1.000000
   12        3.193514      3.193514   1.000000   1.000000
   13        3.406900      3.406900   1.000000   1.000000
   14        8.789883      8.789884   0.000000   0.000000
   15        9.259572      9.259583   0.000000   0.000000
   16       10.323072     10.323104   0.000000   0.000000
   17       10.620363     10.624337   0.000000   0.000000
 
 -0.2250000E+00  0.2500000E-01  0.2500000E-01  0.7500000E-03
    1      -13.464404    -13.464404   1.000000   1.000000
    2      -12.870105    -12.870105   1.000000   1.000000
    3       -1.750841     -1.750841   1.000000   1.000000
    4       -1.159657     -1.159657   1.000000   1.000000
    5       -1.045817     -1.045817   1.000000   1.000000
    6       -0.838303     -0.838302   1.000000   1.000000
    7       -0.176861     -0.176861   1.000000   1.000000
    8        0.577560      0.577560   1.000000   1.000000
    9        1.239926      1.239926   1.000000   1.000000
   10        1.596804      1.596804   1.000000   1.000000
   11        2.227448      2.227448   1.000000   1.000000
   12        3.268569      3.268569   1.000000   1.000000
   13        3.376634      3.376634   1.000000   1.000000
   14        8.461812      8.461812   0.000000   0.000000
   15        9.191978      9.191978   0.000000   0.000000
   16       10.165147     10.165600   0.000000   0.000000
   17       10.579884     10.455418   0.000000   0.000000
 
 -0.1750000E+00  0.2500000E-01  0.2500000E-01  0.7500000E-03
    1      -13.596569    -13.596569   1.000000   1.000000
    2      -12.876889    -12.876889   1.000000   1.000000
    3       -1.889909     -1.889909   1.000000   1.000000
    4       -1.252907     -1.252907   1.000000   1.000000
    5       -1.080457     -1.080457   1.000000   1.000000
    6       -0.557432     -0.557432   1.000000   1.000000
    7       -0.202828     -0.202828   1.000000   1.000000
    8        0.638765      0.638765   1.000000   1.000000
    9        1.531229      1.531229   1.000000   1.000000
   10        1.771598      1.771598   1.000000   1.000000
   11        2.365419      2.365419   1.000000   1.000000
   12        3.332637      3.332637   1.000000   1.000000
   13        3.347550      3.347550   1.000000   1.000000
   14        7.895689      7.895689   0.000000   0.000000
   15        9.322667      9.322667   0.000000   0.000000
   16       10.012979     10.012944   0.000000   0.000000
   17       10.296946     10.346670   0.000000   0.000000
 
 -0.1250000E+00  0.2500000E-01  0.2500000E-01  0.7500000E-03
    1      -13.712929    -13.712929   1.000000   1.000000
    2      -12.880854    -12.880854   1.000000   1.000000
    3       -2.067945     -2.067945   1.000000   1.000000
    4       -1.276189     -1.276189   1.000000   1.000000
    5       -1.136842     -1.136842   1.000000   1.000000
    6       -0.331970     -0.331970   1.000000   1.000000
    7       -0.184607     -0.184607   1.000000   1.000000
    8        0.702059      0.702059   1.000000   1.000000
    9        1.771965      1.771965   1.000000   1.000000
   10        2.084425      2.084425   1.000000   1.000000
   11        2.470450      2.470450   1.000000   1.000000
   12        3.325940      3.325940   1.000000   1.000000
   13        3.370315      3.370315   1.000000   1.000000
   14        7.286404      7.286404   0.000000   0.000000
   15        9.467943      9.467945   0.000000   0.000000
   16        9.893698      9.893329   0.000000   0.000000
   17       10.164364     10.212754   0.000000   0.000000
 
 -0.7500000E-01  0.2500000E-01  0.2500000E-01  0.7500000E-03
    1      -13.802949    -13.802949   1.000000   1.000000
    2      -12.884490    -12.884490   1.000000   1.000000
    3       -2.226185     -2.226185   1.000000   1.000000
    4       -1.267430     -1.267430   1.000000   1.000000
    5       -1.193710     -1.193710   1.000000   1.000000
    6       -0.194657     -0.194657   1.000000   1.000000
    7       -0.148031     -0.148031   1.000000   1.000000
    8        0.739838      0.739838   1.000000   1.000000
    9        2.117757      2.117757   1.000000   1.000000
   10        2.347553      2.347553   1.000000   1.000000
   11        2.540501      2.540501   1.000000   1.000000
   12        3.312576      3.312576   1.000000   1.000000
   13        3.369723      3.369723   1.000000   1.000000
   14        6.713125      6.713125   0.000000   0.000000
   15        9.604861      9.604816   0.000000   0.000000
   16        9.823628      9.824116   0.000000   0.000000
   17       10.058265     10.096741   0.000000   0.000000
 
 -0.2500000E-01  0.2500000E-01  0.2500000E-01  0.7500000E-03
    1      -13.860191    -13.860191   1.000000   1.000000
    2      -12.887839    -12.887839   1.000000   1.000000
    3       -2.329074     -2.329074   1.000000   1.000000
    4       -1.255077     -1.255077   1.000000   1.000000
    5       -1.234254     -1.234254   1.000000   1.000000
    6       -0.125718     -0.125718   1.000000   1.000000
    7       -0.116673     -0.116673   1.000000   1.000000
    8        0.754831      0.754831   1.000000   1.000000
    9        2.467395      2.467395   1.000000   1.000000
   10        2.523051      2.523051   1.000000   1.000000
   11        2.580828      2.580828   1.000000   1.000000
   12        3.304368      3.304368   1.000000   1.000000
   13        3.320099      3.320099   1.000000   1.000000
   14        6.280703      6.280703   0.000000   0.000000
   15        9.750598      9.746281   0.000000   0.000000
   16        9.805502      9.804826   0.000000   0.000000
   17       10.021160     10.019684   0.000000   0.000000
 
  0.7500000E-01  0.7500000E-01  0.2500000E-01  0.7500000E-03
    1      -13.853087    -13.853087   1.000000   1.000000
    2      -12.896935    -12.896935   1.000000   1.000000
    3       -2.309259     -2.309259   1.000000   1.000000
    4       -1.254552     -1.254552   1.000000   1.000000
    5       -1.230756     -1.230756   1.000000   1.000000
    6       -0.126268     -0.126268   1.000000   1.000000
    7       -0.115626     -0.115626   1.000000   1.000000
    8        0.750363      0.750363   1.000000   1.000000
    9        2.384178      2.384178   1.000000   1.000000
   10        2.525598      2.525598   1.000000   1.000000
   11        2.564593      2.564593   1.000000   1.000000
   12        3.310198      3.310198   1.000000   1.000000
   13        3.360454      3.360454   1.000000   1.000000
   14        6.340208      6.340208   0.000000   0.000000
   15        9.669574      9.669592   0.000000   0.000000
   16        9.852086      9.852028   0.000000   0.000000
   17        9.993386      9.997996   0.000000   0.000000
 
  0.1250000E+00  0.7500000E-01  0.2500000E-01  0.1500000E-02
    1      -13.809827    -13.809827   1.000000   1.000000
    2      -12.900234    -12.900234   1.000000   1.000000
    3       -2.229744     -2.229744   1.000000   1.000000
    4       -1.262270     -1.262270   1.000000   1.000000
    5       -1.202803     -1.202803   1.000000   1.000000
    6       -0.164054     -0.164054   1.000000   1.000000
    7       -0.144327     -0.144327   1.000000   1.000000
    8        0.740855      0.740855   1.000000   1.000000
    9        2.074566      2.074566   1.000000   1.000000
   10        2.472032      2.472032   1.000000   1.000000
   11        2.543968      2.543968   1.000000   1.000000
   12        3.309355      3.309355   1.000000   1.000000
   13        3.371318      3.371318   1.000000   1.000000
   14        6.667980      6.667980   0.000000   0.000000
   15        9.613344      9.613419   0.000000   0.000000
   16        9.798256      9.798232   0.000000   0.000000
   17       10.180917     10.054081   0.000000   0.000000
 
  0.1750000E+00  0.7500000E-01  0.2500000E-01  0.1500000E-02
    1      -13.732417    -13.732417   1.000000   1.000000
    2      -12.901083    -12.901083   1.000000   1.000000
    3       -2.097241     -2.097241   1.000000   1.000000
    4       -1.270291     -1.270291   1.000000   1.000000
    5       -1.155085     -1.155085   1.000000   1.000000
    6       -0.253630     -0.253630   1.000000   1.000000
    7       -0.192943     -0.192943   1.000000   1.000000
    8        0.712666      0.712666   1.000000   1.000000
    9        1.730504      1.730504   1.000000   1.000000
   10        2.300974      2.300974   1.000000   1.000000
   11        2.553979      2.553979   1.000000   1.000000
   12        3.246264      3.246264   1.000000   1.000000
   13        3.345222      3.345222   1.000000   1.000000
   14        7.183186      7.183186   0.000000   0.000000
   15        9.569621      9.569617   0.000000   0.000000
   16        9.755108      9.755150   0.000000   0.000000
   17       10.149715     10.187989   0.000000   0.000000
 
  0.2250000E+00  0.7500000E-01  0.2500000E-01  0.1500000E-02
    1      -13.628043    -13.628043   1.000000   1.000000
    2      -12.898210    -12.898210   1.000000   1.000000
    3       -1.946161     -1.946161   1.000000   1.000000
    4       -1.252384     -1.252384   1.000000   1.000000
    5       -1.101651     -1.101651   1.000000   1.000000
    6       -0.430491     -0.430490   1.000000   1.000000
    7       -0.229541     -0.229541   1.000000   1.000000
    8        0.646966      0.646966   1.000000   1.000000
    9        1.510918      1.510918   1.000000   1.000000
   10        2.041024      2.041024   1.000000   1.000000
   11        2.511314      2.511314   1.000000   1.000000
   12        3.132443      3.132443   1.000000   1.000000
   13        3.338997      3.338997   1.000000   1.000000
   14        7.765708      7.765708   0.000000   0.000000
   15        9.456431      9.456430   0.000000   0.000000
   16        9.825739      9.825724   0.000000   0.000000
   17       10.287124     10.287995   0.000000   0.000000
 
  0.2750000E+00  0.7500000E-01  0.2500000E-01  0.1500000E-02
    1      -13.504522    -13.504522   1.000000   1.000000
    2      -12.890895    -12.890895   1.000000   1.000000
    3       -1.829307     -1.829307   1.000000   1.000000
    4       -1.166303     -1.166303   1.000000   1.000000
    5       -1.062837     -1.062837   1.000000   1.000000
    6       -0.686354     -0.686354   1.000000   1.000000
    7       -0.229604     -0.229604   1.000000   1.000000
    8        0.565404      0.565403   1.000000   1.000000
    9        1.382106      1.382106   1.000000   1.000000
   10        1.768861      1.768861   1.000000   1.000000
   11        2.406624      2.406624   1.000000   1.000000
   12        3.030925      3.030925   1.000000   1.000000
   13        3.340822      3.340822   1.000000   1.000000
   14        8.338264      8.338264   0.000000   0.000000
   15        9.303806      9.303807   0.000000   0.000000
   16        9.964915      9.965063   0.000000   0.000000
   17       10.435405     10.452939   0.000000   0.000000
 
  0.3250000E+00  0.7500000E-01  0.2500000E-01  0.1500000E-02
    1      -13.373533    -13.373533   1.000000   1.000000
    2      -12.879494    -12.879494   1.000000   1.000000
    3       -1.770614     -1.770614   1.000000   1.000000
    4       -1.139427     -1.139427   1.000000   1.000000
    5       -0.989654     -0.989654   1.000000   1.000000
    6       -0.900428     -0.900428   1.000000   1.000000
    7       -0.176277     -0.176277   1.000000   1.000000
    8        0.513839      0.513839   1.000000   1.000000
    9        1.101042      1.101042   1.000000   1.000000
   10        1.678890      1.678890   1.000000   1.000000
   11        2.257394      2.257394   1.000000   1.000000
   12        2.951778      2.951778   1.000000   1.000000
   13        3.352993      3.352993   1.000000   1.000000
   14        8.830900      8.830902   0.000000   0.000000
   15        9.187557      9.187562   0.000000   0.000000
   16       10.124587     10.124602   0.000000   0.000000
   17       10.686692     10.602881   0.000000   0.000000
 
  0.3750000E+00  0.7500000E-01  0.2500000E-01  0.1500000E-02
    1      -13.246756    -13.246756   1.000000   1.000000
    2      -12.867065    -12.867065   1.000000   1.000000
    3       -1.733355     -1.733355   1.000000   1.000000
    4       -1.357913     -1.357912   1.000000   1.000000
    5       -1.044968     -1.044968   1.000000   1.000000
    6       -0.718866     -0.718866   1.000000   1.000000
    7       -0.077405     -0.077405   1.000000   1.000000
    8        0.514084      0.514084   1.000000   1.000000
    9        0.714030      0.714030   1.000000   1.000000
   10        1.674193      1.674193   1.000000   1.000000
   11        2.092480      2.092480   1.000000   1.000000
   12        2.906094      2.906094   1.000000   1.000000
   13        3.372600      3.372600   1.000000   1.000000
   14        8.899260      8.899260   0.000000   0.000000
   15        9.467791      9.467787   0.000000   0.000000
   16       10.290467     10.290443   0.000000   0.000000
   17       10.763971     10.767115   0.000000   0.000000
 
  0.4250000E+00  0.7500000E-01  0.2500000E-01  0.1500000E-02
    1      -13.135605    -13.135605   1.000000   1.000000
    2      -12.856128    -12.856128   1.000000   1.000000
    3       -1.692450     -1.692450   1.000000   1.000000
    4       -1.574220     -1.574220   1.000000   1.000000
    5       -1.094153     -1.094153   1.000000   1.000000
    6       -0.535067     -0.535067   1.000000   1.000000
    7        0.038166      0.038166   1.000000   1.000000
    8        0.360517      0.360516   1.000000   1.000000
    9        0.580830      0.580830   1.000000   1.000000
   10        1.607707      1.607707   1.000000   1.000000
   11        1.932600      1.932600   1.000000   1.000000
   12        2.918231      2.918231   1.000000   1.000000
   13        3.391651      3.391651   1.000000   1.000000
   14        8.782395      8.782395   0.000000   0.000000
   15        9.915142      9.915064   0.000000   0.000000
   16       10.469676     10.468532   0.000000   0.000000
   17       10.997697     10.877528   0.000000   0.000000
 
  0.4750000E+00  0.7500000E-01  0.2500000E-01  0.1500000E-02
    1      -13.049738    -13.049738   1.000000   1.000000
    2      -12.852030    -12.852030   1.000000   1.000000
    3       -1.787971     -1.787971   1.000000   1.000000
    4       -1.557890     -1.557889   1.000000   1.000000
    5       -1.140573     -1.140573   1.000000   1.000000
    6       -0.477086     -0.477086   1.000000   1.000000