Automatically generated mesh
     770
Reciprocal lattice
    0.02500000000000    0.02500000000000    0.02500000000000             2
    0.07500000000000    0.02500000000000    0.02500000000000             6
    0.12500000000000    0.02500000000000    0.02500000000000             6
    0.17500000000000    0.02500000000000    0.02500000000000             6
    0.22500000000000    0.02500000000000    0.02500000000000             6
    0.27500000000000    0.02500000000000    0.02500000000000             6
    0.32500000000000    0.02500000000000    0.02500000000000             6
    0.37500000000000    0.02500000000000    0.02500000000000             6
    0.42500000000000    0.02500000000000    0.02500000000000             6
    0.47500000000000    0.02500000000000    0.02500000000000             6
   -0.47500000000000    0.02500000000000    0.02500000000000             6
   -0.42500000000000    0.02500000000000    0.02500000000000             6
   -0.37500000000000    0.02500000000000    0.02500000000000             6
   -0.32500000000000    0.02500000000000    0.02500000000000             6
   -0.27500000000000    0.02500000000000    0.02500000000000             6
   -0.22500000000000    0.02500000000000    0.02500000000000             6
   -0.17500000000000    0.02500000000000    0.02500000000000             6
   -0.12500000000000    0.02500000000000    0.02500000000000             6
   -0.07500000000000    0.02500000000000    0.02500000000000             6
   -0.02500000000000    0.02500000000000    0.02500000000000             6
    0.07500000000000    0.07500000000000    0.02500000000000             6
    0.12500000000000    0.07500000000000    0.02500000000000            12
    0.17500000000000    0.07500000000000    0.02500000000000            12
    0.22500000000000    0.07500000000000    0.02500000000000            12
    0.27500000000000    0.07500000000000    0.02500000000000            12
    0.32500000000000    0.07500000000000    0.02500000000000            12
    0.37500000000000    0.07500000000000    0.02500000000000            12
    0.42500000000000    0.07500000000000    0.02500000000000            12
    0.47500000000000    0.07500000000000    0.02500000000000            12
   -0.47500000000000    0.07500000000000    0.02500000000000            12
   -0.42500000000000    0.07500000000000    0.02500000000000            12
   -0.37500000000000    0.07500000000000    0.02500000000000            12
   -0.32500000000000    0.07500000000000    0.02500000000000            12
   -0.27500000000000    0.07500000000000    0.02500000000000            12
   -0.22500000000000    0.07500000000000    0.02500000000000            12
   -0.17500000000000    0.07500000000000    0.02500000000000            12
   -0.12500000000000    0.07500000000000    0.02500000000000            12
   -0.07500000000000    0.07500000000000    0.02500000000000            12
   -0.02500000000000    0.07500000000000    0.02500000000000            12
    0.12500000000000    0.12500000000000    0.02500000000000             6
    0.17500000000000    0.12500000000000    0.02500000000000            12
    0.22500000000000    0.12500000000000    0.02500000000000            12
    0.27500000000000    0.12500000000000    0.02500000000000            12
    0.32500000000000    0.12500000000000    0.02500000000000            12
    0.37500000000000    0.12500000000000    0.02500000000000            12
    0.42500000000000    0.12500000000000    0.02500000000000            12
    0.47500000000000    0.12500000000000    0.02500000000000            12
   -0.47500000000000    0.12500000000000    0.02500000000000            12
   -0.42500000000000    0.12500000000000    0.02500000000000            12
   -0.37500000000000    0.12500000000000    0.02500000000000            12
   -0.32500000000000    0.12500000000000    0.02500000000000            12
   -0.27500000000000    0.12500000000000    0.02500000000000            12
   -0.22500000000000    0.12500000000000    0.02500000000000            12
   -0.17500000000000    0.12500000000000    0.02500000000000            12
   -0.12500000000000    0.12500000000000    0.02500000000000            12
   -0.07500000000000    0.12500000000000    0.02500000000000            12
   -0.02500000000000    0.12500000000000    0.02500000000000            12
    0.17500000000000    0.17500000000000    0.02500000000000             6
    0.22500000000000    0.17500000000000    0.02500000000000            12
    0.27500000000000    0.17500000000000    0.02500000000000            12
    0.32500000000000    0.17500000000000    0.02500000000000            12
    0.37500000000000    0.17500000000000    0.02500000000000            12
    0.42500000000000    0.17500000000000    0.02500000000000            12
    0.47500000000000    0.17500000000000    0.02500000000000            12
   -0.47500000000000    0.17500000000000    0.02500000000000            12
   -0.42500000000000    0.17500000000000    0.02500000000000            12
   -0.37500000000000    0.17500000000000    0.02500000000000            12
   -0.32500000000000    0.17500000000000    0.02500000000000            12
   -0.27500000000000    0.17500000000000    0.02500000000000            12
   -0.22500000000000    0.17500000000000    0.02500000000000            12
   -0.17500000000000    0.17500000000000    0.02500000000000            12
   -0.12500000000000    0.17500000000000    0.02500000000000            12
   -0.07500000000000    0.17500000000000    0.02500000000000            12
   -0.02500000000000    0.17500000000000    0.02500000000000            12
    0.22500000000000    0.22500000000000    0.02500000000000             6
    0.27500000000000    0.22500000000000    0.02500000000000            12
    0.32500000000000    0.22500000000000    0.02500000000000            12
    0.37500000000000    0.22500000000000    0.02500000000000            12
    0.42500000000000    0.22500000000000    0.02500000000000            12
    0.47500000000000    0.22500000000000    0.02500000000000            12
   -0.47500000000000    0.22500000000000    0.02500000000000            12
   -0.42500000000000    0.22500000000000    0.02500000000000            12
   -0.37500000000000    0.22500000000000    0.02500000000000            12
   -0.32500000000000    0.22500000000000    0.02500000000000            12
   -0.27500000000000    0.22500000000000    0.02500000000000            12
   -0.22500000000000    0.22500000000000    0.02500000000000            12
   -0.17500000000000    0.22500000000000    0.02500000000000            12
   -0.12500000000000    0.22500000000000    0.02500000000000            12
   -0.07500000000000    0.22500000000000    0.02500000000000            12
   -0.02500000000000    0.22500000000000    0.02500000000000            12
    0.27500000000000    0.27500000000000    0.02500000000000             6
    0.32500000000000    0.27500000000000    0.02500000000000            12
    0.37500000000000    0.27500000000000    0.02500000000000            12
    0.42500000000000    0.27500000000000    0.02500000000000            12
    0.47500000000000    0.27500000000000    0.02500000000000            12
   -0.47500000000000    0.27500000000000    0.02500000000000            12
   -0.42500000000000    0.27500000000000    0.02500000000000            12
   -0.37500000000000    0.27500000000000    0.02500000000000            12
   -0.32500000000000    0.27500000000000    0.02500000000000            12
   -0.27500000000000    0.27500000000000    0.02500000000000            12
   -0.22500000000000    0.27500000000000    0.02500000000000            12
   -0.17500000000000    0.27500000000000    0.02500000000000            12
   -0.12500000000000    0.27500000000000    0.02500000000000            12
   -0.07500000000000    0.27500000000000    0.02500000000000            12
   -0.02500000000000    0.27500000000000    0.02500000000000            12
    0.32500000000000    0.32500000000000    0.02500000000000             6
    0.37500000000000    0.32500000000000    0.02500000000000            12
    0.42500000000000    0.32500000000000    0.02500000000000            12
    0.47500000000000    0.32500000000000    0.02500000000000            12
   -0.47500000000000    0.32500000000000    0.02500000000000            12
   -0.42500000000000    0.32500000000000    0.02500000000000            12
   -0.37500000000000    0.32500000000000    0.02500000000000            12
   -0.32500000000000    0.32500000000000    0.02500000000000            12
   -0.27500000000000    0.32500000000000    0.02500000000000            12
   -0.22500000000000    0.32500000000000    0.02500000000000            12
   -0.17500000000000    0.32500000000000    0.02500000000000            12
   -0.12500000000000    0.32500000000000    0.02500000000000            12
   -0.07500000000000    0.32500000000000    0.02500000000000            12
   -0.02500000000000    0.32500000000000    0.02500000000000            12
    0.37500000000000    0.37500000000000    0.02500000000000             6
    0.42500000000000    0.37500000000000    0.02500000000000            12
    0.47500000000000    0.37500000000000    0.02500000000000            12
   -0.47500000000000    0.37500000000000    0.02500000000000            12
   -0.42500000000000    0.37500000000000    0.02500000000000            12
   -0.37500000000000    0.37500000000000    0.02500000000000            12
   -0.32500000000000    0.37500000000000    0.02500000000000            12
   -0.27500000000000    0.37500000000000    0.02500000000000            12
   -0.22500000000000    0.37500000000000    0.02500000000000            12
   -0.17500000000000    0.37500000000000    0.02500000000000            12
   -0.12500000000000    0.37500000000000    0.02500000000000            12
   -0.07500000000000    0.37500000000000    0.02500000000000            12
   -0.02500000000000    0.37500000000000    0.02500000000000            12
    0.42500000000000    0.42500000000000    0.02500000000000             6
    0.47500000000000    0.42500000000000    0.02500000000000            12
   -0.47500000000000    0.42500000000000    0.02500000000000            12
   -0.42500000000000    0.42500000000000    0.02500000000000            12
   -0.37500000000000    0.42500000000000    0.02500000000000            12
   -0.32500000000000    0.42500000000000    0.02500000000000            12
   -0.27500000000000    0.42500000000000    0.02500000000000            12
   -0.22500000000000    0.42500000000000    0.02500000000000            12
   -0.17500000000000    0.42500000000000    0.02500000000000            12
   -0.12500000000000    0.42500000000000    0.02500000000000            12
   -0.07500000000000    0.42500000000000    0.02500000000000            12
   -0.02500000000000    0.42500000000000    0.02500000000000            12
    0.47500000000000    0.47500000000000    0.02500000000000             6
   -0.47500000000000    0.47500000000000    0.02500000000000            12
   -0.42500000000000    0.47500000000000    0.02500000000000            12
   -0.37500000000000    0.47500000000000    0.02500000000000            12
   -0.32500000000000    0.47500000000000    0.02500000000000            12
   -0.27500000000000    0.47500000000000    0.02500000000000            12
   -0.22500000000000    0.47500000000000    0.02500000000000            12
   -0.17500000000000    0.47500000000000    0.02500000000000            12
   -0.12500000000000    0.47500000000000    0.02500000000000            12
   -0.07500000000000    0.47500000000000    0.02500000000000            12
   -0.02500000000000    0.47500000000000    0.02500000000000            12
   -0.47500000000000   -0.47500000000000    0.02500000000000             6
   -0.42500000000000   -0.47500000000000    0.02500000000000            12
   -0.37500000000000   -0.47500000000000    0.02500000000000            12
   -0.32500000000000   -0.47500000000000    0.02500000000000            12
   -0.27500000000000   -0.47500000000000    0.02500000000000            12
   -0.22500000000000   -0.47500000000000    0.02500000000000            12
   -0.17500000000000   -0.47500000000000    0.02500000000000            12
   -0.12500000000000   -0.47500000000000    0.02500000000000            12
   -0.07500000000000   -0.47500000000000    0.02500000000000            12
   -0.42500000000000   -0.42500000000000    0.02500000000000             6
   -0.37500000000000   -0.42500000000000    0.02500000000000            12
   -0.32500000000000   -0.42500000000000    0.02500000000000            12
   -0.27500000000000   -0.42500000000000    0.02500000000000            12
   -0.22500000000000   -0.42500000000000    0.02500000000000            12
   -0.17500000000000   -0.42500000000000    0.02500000000000            12
   -0.12500000000000   -0.42500000000000    0.02500000000000            12
   -0.07500000000000   -0.42500000000000    0.02500000000000            12
   -0.37500000000000   -0.37500000000000    0.02500000000000             6
   -0.32500000000000   -0.37500000000000    0.02500000000000            12
   -0.27500000000000   -0.37500000000000    0.02500000000000            12
   -0.22500000000000   -0.37500000000000    0.02500000000000            12
   -0.17500000000000   -0.37500000000000    0.02500000000000            12
   -0.12500000000000   -0.37500000000000    0.02500000000000            12
   -0.07500000000000   -0.37500000000000    0.02500000000000            12
   -0.32500000000000   -0.32500000000000    0.02500000000000             6
   -0.27500000000000   -0.32500000000000    0.02500000000000            12
   -0.22500000000000   -0.32500000000000    0.02500000000000            12
   -0.17500000000000   -0.32500000000000    0.02500000000000            12
   -0.12500000000000   -0.32500000000000    0.02500000000000            12
   -0.07500000000000   -0.32500000000000    0.02500000000000            12
   -0.27500000000000   -0.27500000000000    0.02500000000000             6
   -0.22500000000000   -0.27500000000000    0.02500000000000            12
   -0.17500000000000   -0.27500000000000    0.02500000000000            12
   -0.12500000000000   -0.27500000000000    0.02500000000000            12
   -0.07500000000000   -0.27500000000000    0.02500000000000            12
   -0.22500000000000   -0.22500000000000    0.02500000000000             6
   -0.17500000000000   -0.22500000000000    0.02500000000000            12
   -0.12500000000000   -0.22500000000000    0.02500000000000            12
   -0.07500000000000   -0.22500000000000    0.02500000000000            12
   -0.17500000000000   -0.17500000000000    0.02500000000000             6
   -0.12500000000000   -0.17500000000000    0.02500000000000            12
   -0.07500000000000   -0.17500000000000    0.02500000000000            12
   -0.12500000000000   -0.12500000000000    0.02500000000000             6
   -0.07500000000000   -0.12500000000000    0.02500000000000            12
   -0.07500000000000   -0.07500000000000    0.02500000000000             6
    0.07500000000000    0.07500000000000    0.07500000000000             2
    0.12500000000000    0.07500000000000    0.07500000000000             6
    0.17500000000000    0.07500000000000    0.07500000000000             6
    0.22500000000000    0.07500000000000    0.07500000000000             6
    0.27500000000000    0.07500000000000    0.07500000000000             6
    0.32500000000000    0.07500000000000    0.07500000000000             6
    0.37500000000000    0.07500000000000    0.07500000000000             6
    0.42500000000000    0.07500000000000    0.07500000000000             6
    0.47500000000000    0.07500000000000    0.07500000000000             6
   -0.47500000000000    0.07500000000000    0.07500000000000             6
   -0.42500000000000    0.07500000000000    0.07500000000000             6
   -0.37500000000000    0.07500000000000    0.07500000000000             6
   -0.32500000000000    0.07500000000000    0.07500000000000             6
   -0.27500000000000    0.07500000000000    0.07500000000000             6
   -0.22500000000000    0.07500000000000    0.07500000000000             6
   -0.17500000000000    0.07500000000000    0.07500000000000             6
   -0.12500000000000    0.07500000000000    0.07500000000000             6
   -0.07500000000000    0.07500000000000    0.07500000000000             6
    0.12500000000000    0.12500000000000    0.07500000000000             6
    0.17500000000000    0.12500000000000    0.07500000000000            12
    0.22500000000000    0.12500000000000    0.07500000000000            12
    0.27500000000000    0.12500000000000    0.07500000000000            12
    0.32500000000000    0.12500000000000    0.07500000000000            12
    0.37500000000000    0.12500000000000    0.07500000000000            12
    0.42500000000000    0.12500000000000    0.07500000000000            12
    0.47500000000000    0.12500000000000    0.07500000000000            12
   -0.47500000000000    0.12500000000000    0.07500000000000            12
   -0.42500000000000    0.12500000000000    0.07500000000000            12
   -0.37500000000000    0.12500000000000    0.07500000000000            12
   -0.32500000000000    0.12500000000000    0.07500000000000            12
   -0.27500000000000    0.12500000000000    0.07500000000000            12
   -0.22500000000000    0.12500000000000    0.07500000000000            12
   -0.17500000000000    0.12500000000000    0.07500000000000            12
   -0.12500000000000    0.12500000000000    0.07500000000000            12
   -0.07500000000000    0.12500000000000    0.07500000000000            12
    0.17500000000000    0.17500000000000    0.07500000000000             6
    0.22500000000000    0.17500000000000    0.07500000000000            12
    0.27500000000000    0.17500000000000    0.07500000000000            12
    0.32500000000000    0.17500000000000    0.07500000000000            12
    0.37500000000000    0.17500000000000    0.07500000000000            12
    0.42500000000000    0.17500000000000    0.07500000000000            12
    0.47500000000000    0.17500000000000    0.07500000000000            12
   -0.47500000000000    0.17500000000000    0.07500000000000            12
   -0.42500000000000    0.17500000000000    0.07500000000000            12
   -0.37500000000000    0.17500000000000    0.07500000000000            12
   -0.32500000000000    0.17500000000000    0.07500000000000            12
   -0.27500000000000    0.17500000000000    0.07500000000000            12
   -0.22500000000000    0.17500000000000    0.07500000000000            12
   -0.17500000000000    0.17500000000000    0.07500000000000            12
   -0.12500000000000    0.17500000000000    0.07500000000000            12
   -0.07500000000000    0.17500000000000    0.07500000000000            12
    0.22500000000000    0.22500000000000    0.07500000000000             6
    0.27500000000000    0.22500000000000    0.07500000000000            12
    0.32500000000000    0.22500000000000    0.07500000000000            12
    0.37500000000000    0.22500000000000    0.07500000000000            12
    0.42500000000000    0.22500000000000    0.07500000000000            12
    0.47500000000000    0.22500000000000    0.07500000000000            12
   -0.47500000000000    0.22500000000000    0.07500000000000            12
   -0.42500000000000    0.22500000000000    0.07500000000000            12
   -0.37500000000000    0.22500000000000    0.07500000000000            12
   -0.32500000000000    0.22500000000000    0.07500000000000            12
   -0.27500000000000    0.22500000000000    0.07500000000000            12
   -0.22500000000000    0.22500000000000    0.07500000000000            12
   -0.17500000000000    0.22500000000000    0.07500000000000            12
   -0.12500000000000    0.22500000000000    0.07500000000000            12
   -0.07500000000000    0.22500000000000    0.07500000000000            12
    0.27500000000000    0.27500000000000    0.07500000000000             6
    0.32500000000000    0.27500000000000    0.07500000000000            12
    0.37500000000000    0.27500000000000    0.07500000000000            12
    0.42500000000000    0.27500000000000    0.07500000000000            12
    0.47500000000000    0.27500000000000    0.07500000000000            12
   -0.47500000000000    0.27500000000000    0.07500000000000            12
   -0.42500000000000    0.27500000000000    0.07500000000000            12
   -0.37500000000000    0.27500000000000    0.07500000000000            12
   -0.32500000000000    0.27500000000000    0.07500000000000            12
   -0.27500000000000    0.27500000000000    0.07500000000000            12
   -0.22500000000000    0.27500000000000    0.07500000000000            12
   -0.17500000000000    0.27500000000000    0.07500000000000            12
   -0.12500000000000    0.27500000000000    0.07500000000000            12
   -0.07500000000000    0.27500000000000    0.07500000000000            12
    0.32500000000000    0.32500000000000    0.07500000000000             6
    0.37500000000000    0.32500000000000    0.07500000000000            12
    0.42500000000000    0.32500000000000    0.07500000000000            12
    0.47500000000000    0.32500000000000    0.07500000000000            12
   -0.47500000000000    0.32500000000000    0.07500000000000            12
   -0.42500000000000    0.32500000000000    0.07500000000000            12
   -0.37500000000000    0.32500000000000    0.07500000000000            12
   -0.32500000000000    0.32500000000000    0.07500000000000            12
   -0.27500000000000    0.32500000000000    0.07500000000000            12
   -0.22500000000000    0.32500000000000    0.07500000000000            12
   -0.17500000000000    0.32500000000000    0.07500000000000            12
   -0.12500000000000    0.32500000000000    0.07500000000000            12
   -0.07500000000000    0.32500000000000    0.07500000000000            12
    0.37500000000000    0.37500000000000    0.07500000000000             6
    0.42500000000000    0.37500000000000    0.07500000000000            12
    0.47500000000000    0.37500000000000    0.07500000000000            12
   -0.47500000000000    0.37500000000000    0.07500000000000            12
   -0.42500000000000    0.37500000000000    0.07500000000000            12
   -0.37500000000000    0.37500000000000    0.07500000000000            12
   -0.32500000000000    0.37500000000000    0.07500000000000            12
   -0.27500000000000    0.37500000000000    0.07500000000000            12
   -0.22500000000000    0.37500000000000    0.07500000000000            12
   -0.17500000000000    0.37500000000000    0.07500000000000            12
   -0.12500000000000    0.37500000000000    0.07500000000000            12
   -0.07500000000000    0.37500000000000    0.07500000000000            12
    0.42500000000000    0.42500000000000    0.07500000000000             6
    0.47500000000000    0.42500000000000    0.07500000000000            12
   -0.47500000000000    0.42500000000000    0.07500000000000            12
   -0.42500000000000    0.42500000000000    0.07500000000000            12
   -0.37500000000000    0.42500000000000    0.07500000000000            12
   -0.32500000000000    0.42500000000000    0.07500000000000            12
   -0.27500000000000    0.42500000000000    0.07500000000000            12
   -0.22500000000000    0.42500000000000    0.07500000000000            12
   -0.17500000000000    0.42500000000000    0.07500000000000            12
   -0.12500000000000    0.42500000000000    0.07500000000000            12
   -0.07500000000000    0.42500000000000    0.07500000000000            12
    0.47500000000000    0.47500000000000    0.07500000000000             6
   -0.47500000000000    0.47500000000000    0.07500000000000            12
   -0.42500000000000    0.47500000000000    0.07500000000000            12
   -0.37500000000000    0.47500000000000    0.07500000000000            12
   -0.32500000000000    0.47500000000000    0.07500000000000            12
   -0.27500000000000    0.47500000000000    0.07500000000000            12
   -0.22500000000000    0.47500000000000    0.07500000000000            12
   -0.17500000000000    0.47500000000000    0.07500000000000            12
   -0.12500000000000    0.47500000000000    0.07500000000000            12
   -0.07500000000000    0.47500000000000    0.07500000000000            12
   -0.47500000000000   -0.47500000000000    0.07500000000000             6
   -0.42500000000000   -0.47500000000000    0.07500000000000            12
   -0.37500000000000   -0.47500000000000    0.07500000000000            12
   -0.32500000000000   -0.47500000000000    0.07500000000000            12
   -0.27500000000000   -0.47500000000000    0.07500000000000            12
   -0.22500000000000   -0.47500000000000    0.07500000000000            12
   -0.17500000000000   -0.47500000000000    0.07500000000000            12
   -0.12500000000000   -0.47500000000000    0.07500000000000            12
   -0.42500000000000   -0.42500000000000    0.07500000000000             6
   -0.37500000000000   -0.42500000000000    0.07500000000000            12
   -0.32500000000000   -0.42500000000000    0.07500000000000            12
   -0.27500000000000   -0.42500000000000    0.07500000000000            12
   -0.22500000000000   -0.42500000000000    0.07500000000000            12
   -0.17500000000000   -0.42500000000000    0.07500000000000            12
   -0.12500000000000   -0.42500000000000    0.07500000000000            12
   -0.37500000000000   -0.37500000000000    0.07500000000000             6
   -0.32500000000000   -0.37500000000000    0.07500000000000            12
   -0.27500000000000   -0.37500000000000    0.07500000000000            12
   -0.22500000000000   -0.37500000000000    0.07500000000000            12
   -0.17500000000000   -0.37500000000000    0.07500000000000            12
   -0.12500000000000   -0.37500000000000    0.07500000000000            12
   -0.32500000000000   -0.32500000000000    0.07500000000000             6
   -0.27500000000000   -0.32500000000000    0.07500000000000            12
   -0.22500000000000   -0.32500000000000    0.07500000000000            12
   -0.17500000000000   -0.32500000000000    0.07500000000000            12
   -0.12500000000000   -0.32500000000000    0.07500000000000            12
   -0.27500000000000   -0.27500000000000    0.07500000000000             6
   -0.22500000000000   -0.27500000000000    0.07500000000000            12
   -0.17500000000000   -0.27500000000000    0.07500000000000            12
   -0.12500000000000   -0.27500000000000    0.07500000000000            12
   -0.22500000000000   -0.22500000000000    0.07500000000000             6
   -0.17500000000000   -0.22500000000000    0.07500000000000            12
   -0.12500000000000   -0.22500000000000    0.07500000000000            12
   -0.17500000000000   -0.17500000000000    0.07500000000000             6
   -0.12500000000000   -0.17500000000000    0.07500000000000            12
   -0.12500000000000   -0.12500000000000    0.07500000000000             6
    0.12500000000000    0.12500000000000    0.12500000000000             2
    0.17500000000000    0.12500000000000    0.12500000000000             6
    0.22500000000000    0.12500000000000    0.12500000000000             6
    0.27500000000000    0.12500000000000    0.12500000000000             6
    0.32500000000000    0.12500000000000    0.12500000000000             6
    0.37500000000000    0.12500000000000    0.12500000000000             6
    0.42500000000000    0.12500000000000    0.12500000000000             6
    0.47500000000000    0.12500000000000    0.12500000000000             6
   -0.47500000000000    0.12500000000000    0.12500000000000             6
   -0.42500000000000    0.12500000000000    0.12500000000000             6
   -0.37500000000000    0.12500000000000    0.12500000000000             6
   -0.32500000000000    0.12500000000000    0.12500000000000             6
   -0.27500000000000    0.12500000000000    0.12500000000000             6
   -0.22500000000000    0.12500000000000    0.12500000000000             6
   -0.17500000000000    0.12500000000000    0.12500000000000             6
   -0.12500000000000    0.12500000000000    0.12500000000000             6
    0.17500000000000    0.17500000000000    0.12500000000000             6
    0.22500000000000    0.17500000000000    0.12500000000000            12
    0.27500000000000    0.17500000000000    0.12500000000000            12
    0.32500000000000    0.17500000000000    0.12500000000000            12
    0.37500000000000    0.17500000000000    0.12500000000000            12
    0.42500000000000    0.17500000000000    0.12500000000000            12
    0.47500000000000    0.17500000000000    0.12500000000000            12
   -0.47500000000000    0.17500000000000    0.12500000000000            12
   -0.42500000000000    0.17500000000000    0.12500000000000            12
   -0.37500000000000    0.17500000000000    0.12500000000000            12
   -0.32500000000000    0.17500000000000    0.12500000000000            12
   -0.27500000000000    0.17500000000000    0.12500000000000            12
   -0.22500000000000    0.17500000000000    0.12500000000000            12
   -0.17500000000000    0.17500000000000    0.12500000000000            12
   -0.12500000000000    0.17500000000000    0.12500000000000            12
    0.22500000000000    0.22500000000000    0.12500000000000             6
    0.27500000000000    0.22500000000000    0.12500000000000            12
    0.32500000000000    0.22500000000000    0.12500000000000            12
    0.37500000000000    0.22500000000000    0.12500000000000            12
    0.42500000000000    0.22500000000000    0.12500000000000            12
    0.47500000000000    0.22500000000000    0.12500000000000            12