bcc Fe                                  
   2.67000000000000     
    -0.508442    0.508442    0.508442
     0.508442   -0.508442    0.508442
     0.508442    0.508442   -0.508442
   Fe
     1
Direct
  0.000000  0.000000  0.000000
 
   20   20   20
  79.815      75.691      64.654      49.911      34.888      22.066      12.770      7.3258      5.0571      4.4264    
  4.2389      4.4264      5.0571      7.3258      12.770      22.066      34.888      49.911      64.654      75.691    
  75.691      74.335      65.675      52.356      37.768      24.660      14.655      8.3559      5.3989      4.4973    
  4.2000      4.2620      4.6772      6.0801      10.057      17.616      28.791      42.649      57.175      69.297    
  64.654      65.675      59.914      49.208      36.512      24.533      15.022      8.7377      5.5508      4.4661    
  4.0914      4.0367      4.3167      5.0435      7.4137      12.687      21.296      32.740      45.532      57.175    
  49.911      52.356      49.208      41.527      31.597      21.788      13.761      8.3034      5.4104      4.3429    
  3.9340      3.7923      3.9479      4.3775      5.4944      8.5278      14.263      22.654      32.740      42.649    
  34.888      37.768      36.512      31.597      24.609      17.406      11.388      7.2468      5.0180      4.1497    
  3.7531      3.5650      3.6180      3.9140      4.4451      5.8064      8.9553      14.263      21.296      28.791    
  22.066      24.660      24.533      21.788      17.406      12.697      8.7119      5.9825      4.5275      3.9237    
  3.5699      3.3753      3.3626      3.5391      3.9063      4.4779      5.8064      8.5278      12.687      17.616    
  12.770      14.655      15.022      13.761      11.388      8.7119      6.4310      4.8973      4.0941      3.6926    
  3.3994      3.2284      3.1883      3.2806      3.5181      3.9063      4.4451      5.4944      7.4137      10.057    
  7.3258      8.3559      8.7377      8.3034      7.2468      5.9825      4.8973      4.1784      3.7727      3.4748    
  3.2514      3.1219      3.0845      3.1347      3.2806      3.5391      3.9140      4.3775      5.0435      6.0801    
  5.0571      5.3989      5.5508      5.4104      5.0180      4.5275      4.0941      3.7727      3.5065      3.2877    
  3.1352      3.0548      3.0404      3.0845      3.1883      3.3626      3.6180      3.9479      4.3167      4.6772    
  4.4264      4.4973      4.4661      4.3429      4.1497      3.9237      3.6926      3.4748      3.2877      3.1461    
  3.0601      3.0315      3.0548      3.1219      3.2284      3.3753      3.5650      3.7923      4.0367      4.2620    
  4.2389      4.2000      4.0914      3.9340      3.7531      3.5699      3.3994      3.2514      3.1352      3.0601    
  3.0341      3.0601      3.1352      3.2514      3.3994      3.5699      3.7531      3.9340      4.0914      4.2000    
  4.4264      4.2620      4.0367      3.7923      3.5650      3.3753      3.2284      3.1219      3.0548      3.0315    
  3.0601      3.1461      3.2877      3.4748      3.6926      3.9237      4.1497      4.3429      4.4661      4.4973    
  5.0571      4.6772      4.3167      3.9479      3.6180      3.3626      3.1883      3.0845      3.0404      3.0548    
  3.1352      3.2877      3.5065      3.7727      4.0941      4.5275      5.0180      5.4104      5.5508      5.3989    
  7.3258      6.0801      5.0435      4.3775      3.9140      3.5391      3.2806      3.1347      3.0845      3.1219    
  3.2514      3.4748      3.7727      4.1784      4.8973      5.9825      7.2468      8.3034      8.7377      8.3559    
  12.770      10.057      7.4137      5.4944      4.4451      3.9063      3.5181      3.2806      3.1883      3.2284    
  3.3994      3.6926      4.0941      4.8973      6.4310      8.7119      11.388      13.761      15.022      14.655    
  22.066      17.616      12.687      8.5278      5.8064      4.4779      3.9063      3.5391      3.3626      3.3753    
  3.5699      3.9237      4.5275      5.9825      8.7119      12.697      17.406      21.788      24.533      24.660    
  34.888      28.791      21.296      14.263      8.9553      5.8064      4.4451      3.9140      3.6180      3.5650    
  3.7531      4.1497      5.0180      7.2468      11.388      17.406      24.609      31.597      36.512      37.768    
  49.911      42.649      32.740      22.654      14.263      8.5278      5.4944      4.3775      3.9479      3.7923    
  3.9340      4.3429      5.4104      8.3034      13.761      21.788      31.597      41.527      49.208      52.356    
  64.654      57.175      45.532      32.740      21.296      12.687      7.4137      5.0435      4.3167      4.0367    
  4.0914      4.4661      5.5508      8.7377      15.022      24.533      36.512      49.208      59.914      65.675    
  75.691      69.297      57.175      42.649      28.791      17.616      10.057      6.0801      4.6772      4.2620    
  4.2000      4.4973      5.3989      8.3559      14.655      24.660      37.768      52.356      65.675      74.335    
  75.691      74.335      65.675      52.356      37.768      24.660      14.655      8.3559      5.3989      4.4973    
  4.2000      4.2620      4.6772      6.0801      10.057      17.616      28.791      42.649      57.175      69.297    
  74.335      75.689      69.294      57.172      42.647      28.790      17.615      10.057      6.0802      4.6773    
  4.2620      4.2000      4.4973      5.3989      8.3560      14.656      24.661      37.770      52.358      65.676    
  65.675      69.294      65.673      55.988      43.071      29.969      18.899      11.023      6.5525      4.7725    
  4.2424      4.0683      4.2424      4.7724      6.5523      11.023      18.899      29.970      43.074      55.991    
  52.356      57.172      55.988      49.208      38.932      27.831      18.065      10.867      6.5845      4.7384    
  4.1468      3.8924      3.9477      4.3019      5.1706      7.7708      13.112      21.394      31.927      43.073    
  37.768      42.647      43.071      38.932      31.598      23.155      15.467      9.6740      6.1460      4.5586    
  3.9942      3.7015      3.6644      3.8928      4.3631      5.5519      8.5369      13.890      21.394      29.969    
  24.660      28.790      29.969      27.831      23.155      17.407      12.022      7.9238      5.4242      4.2830    
  3.8094      3.5190      3.4278      3.5469      3.8766      4.4147      5.7082      8.5368      13.111      18.898    
  14.655      17.615      18.899      18.065      15.467      12.022      8.7120      6.1971      4.6900      3.9927    
  3.6151      3.3583      3.2507      3.2960      3.5024      3.8744      4.4147      5.5518      7.7706      11.022    
  8.3559      10.057      11.023      10.867      9.6740      7.9238      6.1971      4.8971      4.1331      3.7302    
  3.4292      3.2248      3.1297      3.1399      3.2589      3.5024      3.8766      4.3630      5.1705      6.5522    
  5.3989      6.0802      6.5525      6.5845      6.1460      5.4242      4.6900      4.1331      3.7726      3.4899    
  3.2666      3.1219      3.0569      3.0637      3.1399      3.2960      3.5469      3.8927      4.3019      4.7724    
  4.4973      4.6773      4.7725      4.7384      4.5586      4.2830      3.9927      3.7302      3.4899      3.2877    
  3.1400      3.0550      3.0301      3.0569      3.1297      3.2507      3.4277      3.6644      3.9477      4.2424    
  4.2000      4.2620      4.2424      4.1468      3.9942      3.8094      3.6151      3.4292      3.2666      3.1400    
  3.0601      3.0322      3.0550      3.1218      3.2248      3.3583      3.5190      3.7015      3.8925      4.0684    
  4.2620      4.2000      4.0683      3.8924      3.7015      3.5190      3.3583      3.2248      3.1219      3.0550    
  3.0322      3.0601      3.1400      3.2666      3.4293      3.6152      3.8095      3.9942      4.1468      4.2424    
  4.6772      4.4973      4.2424      3.9477      3.6644      3.4278      3.2507      3.1297      3.0569      3.0301    
  3.0550      3.1400      3.2877      3.4900      3.7303      3.9928      4.2831      4.5586      4.7383      4.7724    
  6.0801      5.3989      4.7724      4.3019      3.8928      3.5469      3.2960      3.1399      3.0637      3.0569    
  3.1218      3.2666      3.4900      3.7728      4.1334      4.6901      5.4242      6.1457      6.5841      6.5522    
  10.057      8.3560      6.5523      5.1706      4.3631      3.8766      3.5024      3.2589      3.1399      3.1297    
  3.2248      3.4293      3.7303      4.1334      4.8972      6.1971      7.9234      9.6733      10.866      11.022    
  17.616      14.656      11.023      7.7708      5.5519      4.4147      3.8744      3.5024      3.2960      3.2507    
  3.3583      3.6152      3.9928      4.6901      6.1971      8.7116      12.021      15.466      18.064      18.898    
  28.791      24.661      18.899      13.112      8.5369      5.7082      4.4147      3.8766      3.5469      3.4277    
  3.5190      3.8095      4.2831      5.4242      7.9234      12.021      17.406      23.154      27.831      29.969    
  42.649      37.770      29.970      21.394      13.890      8.5368      5.5518      4.3630      3.8927      3.6644    
  3.7015      3.9942      4.5586      6.1457      9.6733      15.466      23.154      31.597      38.932      43.073    
  57.175      52.358      43.074      31.927      21.394      13.111      7.7706      5.1705      4.3019      3.9477    
  3.8925      4.1468      4.7383      6.5841      10.866      18.064      27.831      38.932      49.209      55.991    
  69.297      65.676      55.991      43.073      29.969      18.898      11.022      6.5522      4.7724      4.2424    
  4.0684      4.2424      4.7724      6.5522      11.022      18.898      29.969      43.073      55.991      65.676    
  64.654      65.675      59.914      49.208      36.512      24.533      15.022      8.7377      5.5508      4.4661    
  4.0914      4.0367      4.3167      5.0435      7.4137      12.687      21.296      32.740      45.532      57.175    
  65.675      69.294      65.673      55.988      43.071      29.969      18.899      11.023      6.5525      4.7725    
  4.2424      4.0683      4.2424      4.7724      6.5523      11.023      18.899      29.970      43.074      55.991    
  59.914      65.673      64.651      57.172      45.530      32.739      21.296      12.688      7.4140      5.0437    
  4.3167      4.0367      4.0914      4.4661      5.5508      8.7379      15.022      24.535      36.514      49.209    
  49.208      55.988      57.172      52.356      43.073      31.928      21.395      13.112      7.7711      5.1706    
  4.3019      3.9477      3.8925      4.1468      4.7383      6.5843      10.866      18.065      27.831      38.932    
  36.512      43.071      45.530      43.073      36.514      27.833      19.186      12.147      7.4597      5.0691    
  4.2047      3.8173      3.6806      3.8173      4.2047      5.0691      7.4594      12.146      19.185      27.831    
  24.533      29.969      32.739      31.928      27.833      21.790      15.468      10.187      6.6177      4.7637    
  4.0447      3.6648      3.4850      3.5271      3.7910      4.2531      5.3010      7.7969      12.146      18.064    
  15.022      18.899      21.296      21.395      19.186      15.468      11.388      7.9234      5.5841      4.3729    
  3.8484      3.5074      3.3222      3.3049      3.4586      3.7865      4.2752      5.3009      7.4593      10.866    
  8.7377      11.023      12.688      13.112      12.147      10.187      7.9234      5.9820      4.6897      4.0175    
  3.6398      3.3581      3.1960      3.1547      3.2326      3.4406      3.7865      4.2531      5.0690      6.5841    
  5.5508      6.5525      7.4140      7.7711      7.4597      6.6177      5.5841      4.6897      4.0938      3.7301    
  3.4398      3.2268      3.1042      3.0664      3.1071      3.2326      3.4586      3.7910      4.2047      4.7383    
  4.4661      4.7725      5.0437      5.1706      5.0691      4.7637      4.3729      4.0175      3.7301      3.4748    
  3.2666      3.1226      3.0463      3.0303      3.0664      3.1547      3.3049      3.5271      3.8173      4.1468    
  4.0914      4.2424      4.3167      4.3019      4.2047      4.0447      3.8484      3.6398      3.4398      3.2666    
  3.1352      3.0550      3.0273      3.0463      3.1041      3.1960      3.3222      3.4850      3.6806      3.8925    
  4.0367      4.0683      4.0367      3.9477      3.8173      3.6648      3.5074      3.3581      3.2268      3.1226    
  3.0550      3.0315      3.0550      3.1226      3.2268      3.3582      3.5075      3.6648      3.8173      3.9477    
  4.3167      4.2424      4.0914      3.8925      3.6806      3.4850      3.3222      3.1960      3.1042      3.0463    
  3.0273      3.0550      3.1352      3.2666      3.4399      3.6400      3.8486      4.0448      4.2047      4.3019    
  5.0435      4.7724      4.4661      4.1468      3.8173      3.5271      3.3049      3.1547      3.0664      3.0303    
  3.0463      3.1226      3.2666      3.4749      3.7303      4.0178      4.3732      4.7638      5.0690      5.1705    
  7.4137      6.5523      5.5508      4.7383      4.2047      3.7910      3.4586      3.2326      3.1071      3.0664    
  3.1041      3.2268      3.4399      3.7303      4.0941      4.6901      5.5843      6.6176      7.4593      7.7706    
  12.687      11.023      8.7379      6.5843      5.0691      4.2531      3.7865      3.4406      3.2326      3.1547    
  3.1960      3.3582      3.6400      4.0178      4.6901      5.9822      7.9232      10.187      12.146      13.111    
  21.296      18.899      15.022      10.866      7.4594      5.3010      4.2752      3.7865      3.4586      3.3049    
  3.3222      3.5075      3.8486      4.3732      5.5843      7.9232      11.387      15.466      19.185      21.394    
  32.740      29.970      24.535      18.065      12.146      7.7969      5.3009      4.2531      3.7910      3.5271    
  3.4850      3.6648      4.0448      4.7638      6.6176      10.187      15.466      21.788      27.831      31.927    
  45.532      43.074      36.514      27.831      19.185      12.146      7.4593      5.0690      4.2047      3.8173    
  3.6806      3.8173      4.2047      5.0690      7.4593      12.146      19.185      27.831      36.514      43.074    
  57.175      55.991      49.209      38.932      27.831      18.064      10.866      6.5841      4.7383      4.1468    
  3.8925      3.9477      4.3019      5.1705      7.7706      13.111      21.394      31.927      43.074      52.358    
  49.911      52.356      49.208      41.527      31.597      21.788      13.761      8.3034      5.4104      4.3429    
  3.9340      3.7923      3.9479      4.3775      5.4944      8.5278      14.263      22.654      32.740      42.649    
  52.356      57.172      55.988      49.208      38.932      27.831      18.065      10.867      6.5845      4.7384    
  4.1468      3.8924      3.9477      4.3019      5.1706      7.7708      13.112      21.394      31.927      43.073    
  49.208      55.988      57.172      52.356      43.073      31.928      21.395      13.112      7.7711      5.1706    
  4.3019      3.9477      3.8925      4.1468      4.7383      6.5843      10.866      18.065      27.831      38.932    
  41.527      49.208      52.356      49.911      42.649      32.741      22.654      14.264      8.5281      5.4944    
  4.3775      3.9479      3.7923      3.9340      4.3429      5.4103      8.3033      13.761      21.788      31.597    
  31.597      38.932      43.073      42.649      37.771      29.971      21.395      13.891      8.5368      5.5517    
  4.3629      3.8927      3.6644      3.7015      3.9942      4.5586      6.1457      9.6733      15.466      23.154    
  21.788      27.831      31.928      32.741      29.971      24.536      18.065      12.146      7.7966      5.3005    
  4.2528      3.7909      3.5271      3.4850      3.6648      4.0448      4.7638      6.6176      10.187      15.466    
  13.761      18.065      21.395      22.654      21.395      18.065      13.761      9.6729      6.6170      4.8488    
  4.0728      3.6572      3.3950      3.3078      3.3950      3.6573      4.0731      4.8493      6.6176      9.6733    
  8.3034      10.867      13.112      14.264      13.891      12.146      9.6729      7.2457      5.4234      4.3728    
  3.8617      3.5083      3.2766      3.1772      3.2043      3.3618      3.6575      4.0731      4.7638      6.1457    
  5.4104      6.5845      7.7711      8.5281      8.5368      7.7966      6.6170      5.4234      4.5269      3.9926    
  3.6400      3.3600      3.1762      3.0890      3.0889      3.1755      3.3618      3.6573      4.0448      4.5586    
  4.3429      4.7384      5.1706      5.4944      5.5517      5.3005      4.8488      4.3728      3.9926      3.6926    
  3.4294      3.2269      3.0975      3.0372      3.0357      3.0889      3.2043      3.3950      3.6648      3.9942    
  3.9340      4.1468      4.3019      4.3775      4.3629      4.2528      4.0728      3.8617      3.6400      3.4294    
  3.2516      3.1219      3.0463      3.0209      3.0372      3.0890      3.1772      3.3078      3.4850      3.7015    
  3.7923      3.8924      3.9477      3.9479      3.8927      3.7909      3.6572      3.5083      3.3600      3.2269    
  3.1219      3.0548      3.0301      3.0463      3.0975      3.1761      3.2765      3.3950      3.5271      3.6644    
  3.9479      3.9477      3.8925      3.7923      3.6644      3.5271      3.3950      3.2766      3.1762      3.0975    
  3.0463      3.0301      3.0548      3.1219      3.2268      3.3599      3.5083      3.6573      3.7910      3.8927    
  4.3775      4.3019      4.1468      3.9340      3.7015      3.4850      3.3078      3.1772      3.0890      3.0372    
  3.0209      3.0463      3.1219      3.2515      3.4293      3.6399      3.8619      4.0731      4.2531      4.3630    
  5.4944      5.1706      4.7383      4.3429      3.9942      3.6648      3.3950      3.2043      3.0889      3.0357    
  3.0372      3.0975      3.2268      3.4293      3.6926      3.9928      4.3732      4.8493      5.3009      5.5518    
  8.5278      7.7708      6.5843      5.4103      4.5586      4.0448      3.6573      3.3618      3.1755      3.0889    
  3.0890      3.1761      3.3599      3.6399      3.9928      4.5273      5.4240      6.6176      7.7969      8.5368    
  14.263      13.112      10.866      8.3033      6.1457      4.7638      4.0731      3.6575      3.3618      3.2043    
  3.1772      3.2765      3.5083      3.8619      4.3732      5.4240      7.2465      9.6733      12.146      13.890    
  22.654      21.394      18.065      13.761      9.6733      6.6176      4.8493      4.0731      3.6573      3.3950    
  3.3078      3.3950      3.6573      4.0731      4.8493      6.6176      9.6733      13.761      18.065      21.394    
  32.740      31.927      27.831      21.788      15.466      10.187      6.6176      4.7638      4.0448      3.6648    
  3.4850      3.5271      3.7910      4.2531      5.3009      7.7969      12.146      18.065      24.535      29.970    
  42.649      43.073      38.932      31.597      23.154      15.466      9.6733      6.1457      4.5586      3.9942    
  3.7015      3.6644      3.8927      4.3630      5.5518      8.5368      13.890      21.394      29.970      37.770    
  34.888      37.768      36.512      31.597      24.609      17.406      11.388      7.2468      5.0180      4.1497    
  3.7531      3.5650      3.6180      3.9140      4.4451      5.8064      8.9553      14.263      21.296      28.791    
  37.768      42.647      43.071      38.932      31.598      23.155      15.467      9.6740      6.1460      4.5586    
  3.9942      3.7015      3.6644      3.8928      4.3631      5.5519      8.5369      13.890      21.394      29.969    
  36.512      43.071      45.530      43.073      36.514      27.833      19.186      12.147      7.4597      5.0691    
  4.2047      3.8173      3.6806      3.8173      4.2047      5.0691      7.4594      12.146      19.185      27.831    
  31.597      38.932      43.073      42.649      37.771      29.971      21.395      13.891      8.5368      5.5517    
  4.3629      3.8927      3.6644      3.7015      3.9942      4.5586      6.1457      9.6733      15.466      23.154    
  24.609      31.598      36.514      37.771      34.890      28.793      21.297      14.263      8.9547      5.8059    
  4.4448      3.9138      3.6180      3.5650      3.7530      4.1496      5.0178      7.2465      11.387      17.406    
  17.406      23.155      27.833      29.971      28.793      24.662      18.899      13.111      8.5358      5.7074    
  4.4144      3.8765      3.5468      3.4277      3.5190      3.8095      4.2830      5.4240      7.9232      12.021    
  11.388      15.467      19.186      21.395      21.297      18.899      15.021      10.865      7.4582      5.3003    
  4.2750      3.7864      3.4586      3.3050      3.3223      3.5075      3.8486      4.3732      5.5843      7.9234    
  7.2468      9.6740      12.147      13.891      14.263      13.111      10.865      8.3018      6.1448      4.7635    
  4.0731      3.6577      3.3619      3.2043      3.1772      3.2765      3.5083      3.8619      4.3732      5.4242    
  5.0180      6.1460      7.4597      8.5368      8.9547      8.5358      7.4582      6.1448      5.0174      4.2831    
  3.8489      3.5085      3.2650      3.1268      3.0831      3.1267      3.2648      3.5083      3.8486      4.2831    
  4.1497      4.5586      5.0691      5.5517      5.8059      5.7074      5.3003      4.7635      4.2831      3.9240    
  3.6155      3.3584      3.1762      3.0709      3.0315      3.0491      3.1267      3.2765      3.5075      3.8095    
  3.7531      3.9942      4.2047      4.3629      4.4448      4.4144      4.2750      4.0731      3.8489      3.6155    
  3.3997      3.2250      3.1042      3.0372      3.0158      3.0315      3.0831      3.1772      3.3222      3.5190    
  3.5650      3.7015      3.8173      3.8927      3.9138      3.8765      3.7864      3.6577      3.5085      3.3584    
  3.2250      3.1220      3.0569      3.0303      3.0372      3.0709      3.1267      3.2043      3.3049      3.4277    
  3.6180      3.6644      3.6806      3.6644      3.6180      3.5468      3.4586      3.3619      3.2650      3.1762    
  3.1042      3.0569      3.0404      3.0569      3.1041      3.1761      3.2648      3.3618      3.4586      3.5469    
  3.9140      3.8928      3.8173      3.7015      3.5650      3.4277      3.3050      3.2043      3.1268      3.0709    
  3.0372      3.0303      3.0569      3.1219      3.2248      3.3582      3.5083      3.6575      3.7865      3.8766    
  4.4451      4.3631      4.2047      3.9942      3.7530      3.5190      3.3223      3.1772      3.0831      3.0315    
  3.0158      3.0372      3.1041      3.2248      3.3994      3.6151      3.8486      4.0731      4.2752      4.4147    
  5.8064      5.5519      5.0691      4.5586      4.1496      3.8095      3.5075      3.2765      3.1267      3.0491    
  3.0315      3.0709      3.1761      3.3582      3.6151      3.9236      4.2830      4.7638      5.3010      5.7082    
  8.9553      8.5369      7.4594      6.1457      5.0178      4.2830      3.8486      3.5083      3.2648      3.1267    
  3.0831      3.1267      3.2648      3.5083      3.8486      4.2830      5.0178      6.1457      7.4594      8.5369    
  14.263      13.890      12.146      9.6733      7.2465      5.4240      4.3732      3.8619      3.5083      3.2765    
  3.1772      3.2043      3.3618      3.6575      4.0731      4.7638      6.1457      8.3033      10.866      13.112    
  21.296      21.394      19.185      15.466      11.387      7.9232      5.5843      4.3732      3.8486      3.5075    
  3.3222      3.3049      3.4586      3.7865      4.2752      5.3010      7.4594      10.866      15.022      18.899    
  28.791      29.969      27.831      23.154      17.406      12.021      7.9234      5.4242      4.2831      3.8095    
  3.5190      3.4277      3.5469      3.8766      4.4147      5.7082      8.5369      13.112      18.899      24.661    
  22.066      24.660      24.533      21.788      17.406      12.697      8.7119      5.9825      4.5275      3.9237    
  3.5699      3.3753      3.3626      3.5391      3.9063      4.4779      5.8064      8.5278      12.687      17.616    
  24.660      28.790      29.969      27.831      23.155      17.407      12.022      7.9238      5.4242      4.2830    
  3.8094      3.5190      3.4278      3.5469      3.8766      4.4147      5.7082      8.5368      13.111      18.898    
  24.533      29.969      32.739      31.928      27.833      21.790      15.468      10.187      6.6177      4.7637    
  4.0447      3.6648      3.4850      3.5271      3.7910      4.2531      5.3010      7.7969      12.146      18.064    
  21.788      27.831      31.928      32.741      29.971      24.536      18.065      12.146      7.7966      5.3005    
  4.2528      3.7909      3.5271      3.4850      3.6648      4.0448      4.7638      6.6176      10.187      15.466    
  17.406      23.155      27.833      29.971      28.793      24.662      18.899      13.111      8.5358      5.7074    
  4.4144      3.8765      3.5468      3.4277      3.5190      3.8095      4.2830      5.4240      7.9232      12.021    
  12.697      17.407      21.790      24.536      24.662      22.066      17.615      12.686      8.5264      5.8055    
  4.4776      3.9062      3.5391      3.3626      3.3753      3.5699      3.9236      4.5273      5.9822      8.7116    
  8.7119      12.022      15.468      18.065      18.899      17.615      14.654      11.021      7.7694      5.5513    
  4.4147      3.8746      3.5026      3.2961      3.2507      3.3584      3.6151      3.9928      4.6901      6.1971    
  5.9825      7.9238      10.187      12.146      13.111      12.686      11.021      8.7362      6.5835      5.0691    
  4.2535      3.7869      3.4409      3.2327      3.1548      3.1960      3.3582      3.6399      4.0178      4.6901    
  4.5275      5.4242      6.6177      7.7966      8.5358      8.5264      7.7694      6.5835      5.4103      4.5591    
  4.0456      3.6578      3.3620      3.1755      3.0889      3.0890      3.1761      3.3599      3.6400      3.9928    
  3.9237      4.2830      4.7637      5.3005      5.7074      5.8055      5.5513      5.0691      4.5591      4.1505    
  3.8102      3.5079      3.2767      3.1267      3.0491      3.0315      3.0709      3.1761      3.3582      3.6152    
  3.5699      3.8094      4.0447      4.2528      4.4144      4.4776      4.4147      4.2535      4.0456      3.8102    
  3.5704      3.3585      3.1960      3.0889      3.0314      3.0138      3.0315      3.0890      3.1960      3.3583    
  3.3753      3.5190      3.6648      3.7909      3.8765      3.9062      3.8746      3.7869      3.6578      3.5079    
  3.3585      3.2284      3.1296      3.0663      3.0357      3.0315      3.0491      3.0889      3.1547      3.2507    
  3.3626      3.4278      3.4850      3.5271      3.5468      3.5391      3.5026      3.4409      3.3620      3.2767    
  3.1960      3.1296      3.0844      3.0636      3.0664      3.0890      3.1267      3.1755      3.2326      3.2960    
  3.5391      3.5469      3.5271      3.4850      3.4277      3.3626      3.2961      3.2327      3.1755      3.1267    
  3.0889      3.0663      3.0636      3.0845      3.1297      3.1960      3.2765      3.3618      3.4406      3.5024    
  3.9063      3.8766      3.7910      3.6648      3.5190      3.3753      3.2507      3.1548      3.0889      3.0491    
  3.0314      3.0357      3.0664      3.1297      3.2284      3.3584      3.5075      3.6573      3.7865      3.8744    
  4.4779      4.4147      4.2531      4.0448      3.8095      3.5699      3.3584      3.1960      3.0890      3.0315    
  3.0138      3.0315      3.0890      3.1960      3.3584      3.5699      3.8095      4.0448      4.2531      4.4147    
  5.8064      5.7082      5.3010      4.7638      4.2830      3.9236      3.6151      3.3582      3.1761      3.0709    
  3.0315      3.0491      3.1267      3.2765      3.5075      3.8095      4.1496      4.5586      5.0691      5.5519    
  8.5278      8.5368      7.7969      6.6176      5.4240      4.5273      3.9928      3.6399      3.3599      3.1761    
  3.0890      3.0889      3.1755      3.3618      3.6573      4.0448      4.5586      5.4103      6.5843      7.7708    
  12.687      13.111      12.146      10.187      7.9232      5.9822      4.6901      4.0178      3.6400      3.3582    
  3.1960      3.1547      3.2326      3.4406      3.7865      4.2531      5.0691      6.5843      8.7379      11.023    
  17.616      18.898      18.064      15.466      12.021      8.7116      6.1971      4.6901      3.9928      3.6152    
  3.3583      3.2507      3.2960      3.5024      3.8744      4.4147      5.5519      7.7708      11.023      14.656    
  12.770      14.655      15.022      13.761      11.388      8.7119      6.4310      4.8973      4.0941      3.6926    
  3.3994      3.2284      3.1883      3.2806      3.5181      3.9063      4.4451      5.4944      7.4137      10.057    
  14.655      17.615      18.899      18.065      15.467      12.022      8.7120      6.1971      4.6900      3.9927    
  3.6151      3.3583      3.2507      3.2960      3.5024      3.8744      4.4147      5.5518      7.7706      11.022    
  15.022      18.899      21.296      21.395      19.186      15.468      11.388      7.9234      5.5841      4.3729    