bcc Fe                                  
   2.67000000000000     
    -0.502410    0.502410    0.502410
     0.502410   -0.502410    0.502410
     0.502410    0.502410   -0.502410
   Fe
     1
Direct
  0.000000  0.000000  0.000000
 
   20   20   20
 0.80978976055E+02 0.76755284999E+02 0.65462482943E+02 0.50405805224E+02 0.35104773660E+02
 0.22094446767E+02 0.12715126449E+02 0.72711508459E+01 0.50347273140E+01 0.44064783813E+01
 0.42144991328E+01 0.44064783813E+01 0.50347273140E+01 0.72711508459E+01 0.12715126449E+02
 0.22094446767E+02 0.35104773660E+02 0.50405805224E+02 0.65462482943E+02 0.76755284999E+02
 0.76755284999E+02 0.75366762427E+02 0.66505836757E+02 0.52899817951E+02 0.38033499943E+02
 0.24721277828E+02 0.14611368600E+02 0.82954363460E+01 0.53684227808E+01 0.44806759766E+01
 0.41758219162E+01 0.42391543692E+01 0.46614958693E+01 0.60381411586E+01 0.99941968084E+01
 0.17595864795E+02 0.28910542242E+02 0.43002392905E+02 0.57819753139E+02 0.70210902588E+02
 0.65462482943E+02 0.66505836757E+02 0.60615589573E+02 0.49685856145E+02 0.36753586839E+02
 0.24592093454E+02 0.14979962438E+02 0.86755747622E+01 0.55154350003E+01 0.44506942152E+01
 0.40678163581E+01 0.40120060715E+01 0.42982345116E+01 0.50185016788E+01 0.73572426115E+01
 0.12631057754E+02 0.21314579576E+02 0.32919553649E+02 0.45939786759E+02 0.57819753139E+02
 0.50405805224E+02 0.52899817951E+02 0.49685856145E+02 0.41855901002E+02 0.31756110006E+02
 0.21811411375E+02 0.13711363184E+02 0.82416728947E+01 0.53747790815E+01 0.43275430564E+01
 0.39110629698E+01 0.37670902663E+01 0.39251136073E+01 0.43624596271E+01 0.54584044250E+01
 0.84652095023E+01 0.14215453885E+02 0.22687571930E+02 0.32919553649E+02 0.43002392905E+02
 0.35104773660E+02 0.38033499943E+02 0.36753586839E+02 0.31756110006E+02 0.24667021502E+02
 0.17383517998E+02 0.11326818906E+02 0.71890700419E+01 0.49864362464E+01 0.41342431197E+01
 0.37304551072E+01 0.35402118016E+01 0.35937520470E+01 0.38936948838E+01 0.44283988479E+01
 0.57642252461E+01 0.88912656641E+01 0.14215453885E+02 0.21314579576E+02 0.28910542242E+02
 0.22094446767E+02 0.24721277828E+02 0.24592093454E+02 0.21811411375E+02 0.17383517998E+02
 0.12641042480E+02 0.86484105817E+01 0.59343309588E+01 0.45029986369E+01 0.39069660745E+01
 0.35473754158E+01 0.33514775342E+01 0.33389194833E+01 0.35162048736E+01 0.38878127784E+01
 0.44600252925E+01 0.57642252461E+01 0.84652095023E+01 0.12631057754E+02 0.17595864795E+02
 0.12715126449E+02 0.14611368600E+02 0.14979962438E+02 0.13711363184E+02 0.11326818906E+02
 0.86484105817E+01 0.63779741906E+01 0.48633588399E+01 0.40763075824E+01 0.36730867357E+01
 0.33766102504E+01 0.32055734713E+01 0.31659131949E+01 0.32580476878E+01 0.34958659354E+01
 0.38878127784E+01 0.44283988479E+01 0.54584044250E+01 0.73572426115E+01 0.99941968084E+01
 0.72711508459E+01 0.82954363460E+01 0.86755747622E+01 0.82416728947E+01 0.71890700419E+01
 0.59343309588E+01 0.48633588399E+01 0.41580975448E+01 0.37555161925E+01 0.34528716731E+01
 0.32283407434E+01 0.30996378414E+01 0.30631003572E+01 0.31131502156E+01 0.32580476878E+01
 0.35162048736E+01 0.38936948838E+01 0.43624596271E+01 0.50185016788E+01 0.60381411586E+01
 0.50347273140E+01 0.53684227808E+01 0.55154350003E+01 0.53747790815E+01 0.49864362464E+01
 0.45029986369E+01 0.40763075824E+01 0.37555161925E+01 0.34849985501E+01 0.32641886488E+01
 0.31117567767E+01 0.30323862650E+01 0.30189243974E+01 0.30631003572E+01 0.31659131949E+01
 0.33389194833E+01 0.35937520470E+01 0.39251136073E+01 0.42982345116E+01 0.46614958693E+01
 0.44064783813E+01 0.44806759766E+01 0.44506942152E+01 0.43275430564E+01 0.41342431197E+01
 0.39069660745E+01 0.36730867357E+01 0.34528716731E+01 0.32641886488E+01 0.31221267788E+01
 0.30364083524E+01 0.30085040292E+01 0.30323862650E+01 0.30996378414E+01 0.32055734713E+01
 0.33514775342E+01 0.35402118016E+01 0.37670902663E+01 0.40120060715E+01 0.42391543692E+01
 0.42144991328E+01 0.41758219162E+01 0.40678163581E+01 0.39110629698E+01 0.37304551072E+01
 0.35473754158E+01 0.33766102504E+01 0.32283407434E+01 0.31117567767E+01 0.30364083524E+01
 0.30102426776E+01 0.30364083524E+01 0.31117567767E+01 0.32283407434E+01 0.33766102504E+01
 0.35473754158E+01 0.37304551072E+01 0.39110629698E+01 0.40678163581E+01 0.41758219162E+01
 0.44064783813E+01 0.42391543692E+01 0.40120060715E+01 0.37670902663E+01 0.35402118016E+01
 0.33514775342E+01 0.32055734713E+01 0.30996378414E+01 0.30323862650E+01 0.30085040292E+01
 0.30364083524E+01 0.31221267788E+01 0.32641886488E+01 0.34528716731E+01 0.36730867357E+01
 0.39069660745E+01 0.41342431197E+01 0.43275430564E+01 0.44506942152E+01 0.44806759766E+01
 0.50347273140E+01 0.46614958693E+01 0.42982345116E+01 0.39251136073E+01 0.35937520470E+01
 0.33389194833E+01 0.31659131949E+01 0.30631003572E+01 0.30189243974E+01 0.30323862650E+01
 0.31117567767E+01 0.32641886488E+01 0.34849985501E+01 0.37555161925E+01 0.40763075824E+01
 0.45029986369E+01 0.49864362464E+01 0.53747790815E+01 0.55154350003E+01 0.53684227808E+01
 0.72711508459E+01 0.60381411586E+01 0.50185016788E+01 0.43624596271E+01 0.38936948838E+01
 0.35162048736E+01 0.32580476878E+01 0.31131502156E+01 0.30631003572E+01 0.30996378414E+01
 0.32283407434E+01 0.34528716731E+01 0.37555161925E+01 0.41580975448E+01 0.48633588399E+01
 0.59343309588E+01 0.71890700419E+01 0.82416728947E+01 0.86755747622E+01 0.82954363460E+01
 0.12715126449E+02 0.99941968084E+01 0.73572426115E+01 0.54584044250E+01 0.44283988479E+01
 0.38878127784E+01 0.34958659354E+01 0.32580476878E+01 0.31659131949E+01 0.32055734713E+01
 0.33766102504E+01 0.36730867357E+01 0.40763075824E+01 0.48633588399E+01 0.63779741906E+01
 0.86484105817E+01 0.11326818906E+02 0.13711363184E+02 0.14979962438E+02 0.14611368600E+02
 0.22094446767E+02 0.17595864795E+02 0.12631057754E+02 0.84652095023E+01 0.57642252461E+01
 0.44600252925E+01 0.38878127784E+01 0.35162048736E+01 0.33389194833E+01 0.33514775342E+01
 0.35473754158E+01 0.39069660745E+01 0.45029986369E+01 0.59343309588E+01 0.86484105817E+01
 0.12641042480E+02 0.17383517998E+02 0.21811411375E+02 0.24592093454E+02 0.24721277828E+02
 0.35104773660E+02 0.28910542242E+02 0.21314579576E+02 0.14215453885E+02 0.88912656641E+01
 0.57642252461E+01 0.44283988479E+01 0.38936948838E+01 0.35937520470E+01 0.35402118016E+01
 0.37304551072E+01 0.41342431197E+01 0.49864362464E+01 0.71890700419E+01 0.11326818906E+02
 0.17383517998E+02 0.24667021502E+02 0.31756110006E+02 0.36753586839E+02 0.38033499943E+02
 0.50405805224E+02 0.43002392905E+02 0.32919553649E+02 0.22687571930E+02 0.14215453885E+02
 0.84652095023E+01 0.54584044250E+01 0.43624596271E+01 0.39251136073E+01 0.37670902663E+01
 0.39110629698E+01 0.43275430564E+01 0.53747790815E+01 0.82416728947E+01 0.13711363184E+02
 0.21811411375E+02 0.31756110006E+02 0.41855901002E+02 0.49685856145E+02 0.52899817951E+02
 0.65462482943E+02 0.57819753139E+02 0.45939786759E+02 0.32919553649E+02 0.21314579576E+02
 0.12631057754E+02 0.73572426115E+01 0.50185016788E+01 0.42982345116E+01 0.40120060715E+01
 0.40678163581E+01 0.44506942152E+01 0.55154350003E+01 0.86755747622E+01 0.14979962438E+02
 0.24592093454E+02 0.36753586839E+02 0.49685856145E+02 0.60615589573E+02 0.66505836757E+02
 0.76755284999E+02 0.70210902588E+02 0.57819753139E+02 0.43002392905E+02 0.28910542242E+02
 0.17595864795E+02 0.99941968084E+01 0.60381411586E+01 0.46614958693E+01 0.42391543692E+01
 0.41758219162E+01 0.44806759766E+01 0.53684227808E+01 0.82954363460E+01 0.14611368600E+02
 0.24721277828E+02 0.38033499943E+02 0.52899817951E+02 0.66505836757E+02 0.75366762427E+02
 0.76755284999E+02 0.75366762427E+02 0.66505836757E+02 0.52899817951E+02 0.38033499943E+02
 0.24721277828E+02 0.14611368600E+02 0.82954363460E+01 0.53684227808E+01 0.44806759766E+01
 0.41758219162E+01 0.42391543692E+01 0.46614958693E+01 0.60381411586E+01 0.99941968084E+01
 0.17595864795E+02 0.28910542242E+02 0.43002392905E+02 0.57819753139E+02 0.70210902588E+02
 0.75366762427E+02 0.76753324601E+02 0.70207730000E+02 0.57816631288E+02 0.43000275297E+02
 0.28909617159E+02 0.17595732576E+02 0.99943530722E+01 0.60382939130E+01 0.46615709906E+01
 0.42391682312E+01 0.41758015598E+01 0.44806418693E+01 0.53684011532E+01 0.82955223968E+01
 0.14611812135E+02 0.24722425957E+02 0.38035481100E+02 0.52902172016E+02 0.66507528335E+02
 0.66505836757E+02 0.70207730000E+02 0.66503913687E+02 0.56606584319E+02 0.43431811388E+02
 0.30105365267E+02 0.18891075840E+02 0.10960815890E+02 0.65037842897E+01 0.47538247817E+01
 0.42211878721E+01 0.40434468305E+01 0.42211797471E+01 0.47537613773E+01 0.65036429383E+01
 0.10960748777E+02 0.18891504097E+02 0.30106783178E+02 0.43434295941E+02 0.56609422568E+02
 0.52899817951E+02 0.57816631288E+02 0.56606584319E+02 0.49685651918E+02 0.39215441340E+02
 0.27934816488E+02 0.18048639625E+02 0.10804284945E+02 0.65340272077E+01 0.47177163130E+01
 0.41267491744E+01 0.38675065702E+01 0.39236977435E+01 0.42856458114E+01 0.51411358636E+01
 0.77115836364E+01 0.13057314211E+02 0.21412949393E+02 0.32093444420E+02 0.43433227861E+02
 0.38033499943E+02 0.43000275297E+02 0.43431811388E+02 0.39215441340E+02 0.31757160630E+02
 0.23194811930E+02 0.15428671518E+02 0.96098927178E+01 0.60984455087E+01 0.45384656873E+01
 0.39745890169E+01 0.36770194035E+01 0.36395140977E+01 0.38709771366E+01 0.43476734675E+01
 0.55137397004E+01 0.84738414876E+01 0.13840040687E+02 0.21412488134E+02 0.30105532899E+02
 0.24721277828E+02 0.28909617159E+02 0.30105365267E+02 0.27934816488E+02 0.23194811930E+02
 0.17384403870E+02 0.11963185096E+02 0.78623826467E+01 0.53842570678E+01 0.42653116893E+01
 0.37892867921E+01 0.34952022435E+01 0.34034329169E+01 0.35232884753E+01 0.38570354763E+01
 0.43977351549E+01 0.56668806169E+01 0.84737325147E+01 0.13056886693E+02 0.18890629372E+02
 0.14611368600E+02 0.17595732576E+02 0.18891075840E+02 0.18048639625E+02 0.15428671518E+02
 0.11963185096E+02 0.86485571660E+01 0.61463845497E+01 0.46609603772E+01 0.39768487140E+01
 0.35938676096E+01 0.33351415888E+01 0.32276248053E+01 0.32730363578E+01 0.34799426707E+01
 0.38558020567E+01 0.43977387252E+01 0.55136768485E+01 0.77113497059E+01 0.10960322964E+02
 0.82954363460E+01 0.99943530722E+01 0.10960815890E+02 0.10804284945E+02 0.96098927178E+01
 0.78623826467E+01 0.61463845497E+01 0.48631500486E+01 0.41141476635E+01 0.37117109096E+01
 0.34068527079E+01 0.32020600868E+01 0.31077421663E+01 0.31182150066E+01 0.32366239578E+01
 0.34799513947E+01 0.38570453352E+01 0.43476469325E+01 0.51410343068E+01 0.65034881695E+01
 0.53684227808E+01 0.60382939130E+01 0.65037842897E+01 0.65340272077E+01 0.60984455087E+01
 0.53842570678E+01 0.46609603772E+01 0.41141476635E+01 0.37554009688E+01 0.34682043604E+01
 0.32433000710E+01 0.30991491906E+01 0.30353235085E+01 0.30425858636E+01 0.31182099022E+01
 0.32730335228E+01 0.35232798067E+01 0.38709489356E+01 0.42855959752E+01 0.47537170249E+01
 0.44806759766E+01 0.46615709906E+01 0.47538247817E+01 0.47177163130E+01 0.45384656873E+01
 0.42653116893E+01 0.39768487140E+01 0.37117109096E+01 0.34682043604E+01 0.32642108674E+01
 0.31163334505E+01 0.30320344731E+01 0.30080256466E+01 0.30353027490E+01 0.31077223781E+01
 0.32276087053E+01 0.34034121388E+01 0.36394879158E+01 0.39236774935E+01 0.42211803726E+01
 0.41758219162E+01 0.42391682312E+01 0.42211878721E+01 0.41267491744E+01 0.39745890169E+01
 0.37892867921E+01 0.35938676096E+01 0.34068527079E+01 0.32433000710E+01 0.31163334505E+01
 0.30364139002E+01 0.30088112286E+01 0.30319961425E+01 0.30991102491E+01 0.32020451038E+01
 0.33351440732E+01 0.34952049386E+01 0.36770194737E+01 0.38675139637E+01 0.40434651538E+01
 0.42391543692E+01 0.41758015598E+01 0.40434468305E+01 0.38675065702E+01 0.36770194035E+01
 0.34952022435E+01 0.33351415888E+01 0.32020600868E+01 0.30991491906E+01 0.30320344731E+01
 0.30088112286E+01 0.30363670687E+01 0.31162774075E+01 0.32432855712E+01 0.34068952062E+01
 0.35939364152E+01 0.37893398900E+01 0.39746103017E+01 0.41267495479E+01 0.42211803726E+01
 0.46614958693E+01 0.44806418693E+01 0.42211797471E+01 0.39236977435E+01 0.36395140977E+01
 0.34034329169E+01 0.32276248053E+01 0.31077421663E+01 0.30353235085E+01 0.30080256466E+01
 0.30319961425E+01 0.31162774075E+01 0.32641955716E+01 0.34682778541E+01 0.37118588016E+01
 0.39769953181E+01 0.42653780076E+01 0.45384283654E+01 0.47176141198E+01 0.47537170249E+01
 0.60381411586E+01 0.53684011532E+01 0.47537613773E+01 0.42856458114E+01 0.38709771366E+01
 0.35232884753E+01 0.32730363578E+01 0.31182150066E+01 0.30425858636E+01 0.30353027490E+01
 0.30991102491E+01 0.32432855712E+01 0.34682778541E+01 0.37555852187E+01 0.41143742264E+01
 0.46610927158E+01 0.53841847866E+01 0.60981716365E+01 0.65336690581E+01 0.65034881695E+01
 0.99941968084E+01 0.82955223968E+01 0.65036429383E+01 0.51411358636E+01 0.43476734675E+01
 0.38570354763E+01 0.34799426707E+01 0.32366239578E+01 0.31182099022E+01 0.31077223781E+01
 0.32020451038E+01 0.34068952062E+01 0.37118588016E+01 0.41143742264E+01 0.48633151218E+01
 0.61462939212E+01 0.78619300880E+01 0.96091702514E+01 0.10803549310E+02 0.10960322964E+02
 0.17595864795E+02 0.14611812135E+02 0.10960748777E+02 0.77115836364E+01 0.55137397004E+01
 0.43977351549E+01 0.38558020567E+01 0.34799513947E+01 0.32730335228E+01 0.32276087053E+01
 0.33351440732E+01 0.35939364152E+01 0.39769953181E+01 0.46610927158E+01 0.61462939212E+01
 0.86480269932E+01 0.11962181075E+02 0.15427450134E+02 0.18047636775E+02 0.18890629372E+02
 0.28910542242E+02 0.24722425957E+02 0.18891504097E+02 0.13057314211E+02 0.84738414876E+01
 0.56668806169E+01 0.43977387252E+01 0.38570453352E+01 0.35232798067E+01 0.34034121388E+01
 0.34952049386E+01 0.37893398900E+01 0.42653780076E+01 0.53841847866E+01 0.78619300880E+01
 0.11962181075E+02 0.17382966250E+02 0.23193410945E+02 0.27934042142E+02 0.30105532899E+02
 0.43002392905E+02 0.38035481100E+02 0.30106783178E+02 0.21412949393E+02 0.13840040687E+02
 0.84737325147E+01 0.55136768485E+01 0.43476469325E+01 0.38709489356E+01 0.36394879158E+01
 0.36770194737E+01 0.39746103017E+01 0.45384283654E+01 0.60981716365E+01 0.96091702514E+01
 0.15427450134E+02 0.23193410945E+02 0.31756239600E+02 0.39215627409E+02 0.43433227861E+02
 0.57819753139E+02 0.52902172016E+02 0.43434295941E+02 0.32093444420E+02 0.21412488134E+02
 0.13056886693E+02 0.77113497059E+01 0.51410343068E+01 0.42855959752E+01 0.39236774935E+01
 0.38675139637E+01 0.41267495479E+01 0.47176141198E+01 0.65336690581E+01 0.10803549310E+02
 0.18047636775E+02 0.27934042142E+02 0.39215627409E+02 0.49687280226E+02 0.56609422568E+02
 0.70210902588E+02 0.66507528335E+02 0.56609422568E+02 0.43433227861E+02 0.30105532899E+02
 0.18890629372E+02 0.10960322964E+02 0.65034881695E+01 0.47537170249E+01 0.42211803726E+01
 0.40434651538E+01 0.42211803726E+01 0.47537170249E+01 0.65034881695E+01 0.10960322964E+02
 0.18890629372E+02 0.30105532899E+02 0.43433227861E+02 0.56609422568E+02 0.66507528335E+02
 0.65462482943E+02 0.66505836757E+02 0.60615589573E+02 0.49685856145E+02 0.36753586839E+02
 0.24592093454E+02 0.14979962438E+02 0.86755747622E+01 0.55154350003E+01 0.44506942152E+01
 0.40678163581E+01 0.40120060715E+01 0.42982345116E+01 0.50185016788E+01 0.73572426115E+01
 0.12631057754E+02 0.21314579576E+02 0.32919553649E+02 0.45939786759E+02 0.57819753139E+02
 0.66505836757E+02 0.70207730000E+02 0.66503913687E+02 0.56606584319E+02 0.43431811388E+02
 0.30105365267E+02 0.18891075840E+02 0.10960815890E+02 0.65037842897E+01 0.47538247817E+01
 0.42211878721E+01 0.40434468305E+01 0.42211797471E+01 0.47537613773E+01 0.65036429383E+01
 0.10960748777E+02 0.18891504097E+02 0.30106783178E+02 0.43434295941E+02 0.56609422568E+02
 0.60615589573E+02 0.66503913687E+02 0.65459190659E+02 0.57816394703E+02 0.45937537047E+02
 0.32918763278E+02 0.21314791590E+02 0.12631566507E+02 0.73576077522E+01 0.50186518515E+01
 0.42982739635E+01 0.40120247885E+01 0.40678352749E+01 0.44506963966E+01 0.55154384846E+01
 0.86757322558E+01 0.14980578702E+02 0.24593405150E+02 0.36755374783E+02 0.49687280226E+02
 0.49685856145E+02 0.56606584319E+02 0.57816394703E+02 0.52899561767E+02 0.43433235656E+02
 0.32093815365E+02 0.21413522402E+02 0.13057821919E+02 0.77118641053E+01 0.51412087065E+01
 0.42856300450E+01 0.39236922812E+01 0.38675343896E+01 0.41267660373E+01 0.47176476072E+01
 0.65338252789E+01 0.10803994836E+02 0.18048409175E+02 0.27934794738E+02 0.39215627409E+02
 0.36753586839E+02 0.43431811388E+02 0.45937537047E+02 0.43433235656E+02 0.36755815675E+02
 0.27936230402E+02 0.19180999126E+02 0.12088315736E+02 0.74012607603E+01 0.50391990520E+01
 0.41890234645E+01 0.37938995325E+01 0.36553785766E+01 0.37939165247E+01 0.41890595835E+01
 0.50391928639E+01 0.74010161021E+01 0.12087528563E+02 0.19179447314E+02 0.27934042142E+02
 0.24592093454E+02 0.30105365267E+02 0.32918763278E+02 0.32093815365E+02 0.27936230402E+02
 0.21813329058E+02 0.15428960097E+02 0.10123348350E+02 0.65644205539E+01 0.47372446041E+01
 0.40284930025E+01 0.36417994213E+01 0.34604681449E+01 0.35028462896E+01 0.37696444957E+01
 0.42377400169E+01 0.52653296786E+01 0.77362109775E+01 0.12087273285E+02 0.18047636775E+02
 0.14979962438E+02 0.18891075840E+02 0.21314791590E+02 0.21413522402E+02 0.19180999126E+02
 0.15428960097E+02 0.11327062354E+02 0.78619139087E+01 0.55412058029E+01 0.43522153383E+01
 0.38302851727E+01 0.34846326954E+01 0.32987288232E+01 0.32815252545E+01 0.34355515668E+01
 0.37665976978E+01 0.42593225965E+01 0.52652916565E+01 0.74008258270E+01 0.10803549310E+02
 0.86755747622E+01 0.10960815890E+02 0.12631566507E+02 0.13057821919E+02 0.12088315736E+02
 0.10123348350E+02 0.78619139087E+01 0.59337135395E+01 0.46605756422E+01 0.40012680745E+01
 0.36194185135E+01 0.33353697104E+01 0.31735105944E+01 0.31327567997E+01 0.32102910346E+01
 0.34181253594E+01 0.37666036500E+01 0.42377335970E+01 0.50391257464E+01 0.65336690581E+01
 0.55154350003E+01 0.65037842897E+01 0.73576077522E+01 0.77118641053E+01 0.74012607603E+01
 0.65644205539E+01 0.55412058029E+01 0.46605756422E+01 0.40759290382E+01 0.37116604605E+01
 0.34175682846E+01 0.32039535966E+01 0.30823099162E+01 0.30454212078E+01 0.30859275161E+01
 0.32102951194E+01 0.34355612859E+01 0.37696542540E+01 0.41890508177E+01 0.47176141198E+01
 0.44506942152E+01 0.47538247817E+01 0.50186518515E+01 0.51412087065E+01 0.50391990520E+01
 0.47372446041E+01 0.43522153383E+01 0.40012680745E+01 0.37116604605E+01 0.34528795899E+01
 0.32433396768E+01 0.30997077440E+01 0.30244892883E+01 0.30093487543E+01 0.30454201938E+01
 0.31327592441E+01 0.32815310086E+01 0.35028520336E+01 0.37939127078E+01 0.41267495479E+01
 0.40678163581E+01 0.42211878721E+01 0.42982739635E+01 0.42856300450E+01 0.41890234645E+01
 0.40284930025E+01 0.38302851727E+01 0.36194185135E+01 0.34175682846E+01 0.32433396768E+01
 0.31117954504E+01 0.30320176702E+01 0.30049442709E+01 0.30244745693E+01 0.30822987400E+01
 0.31735105719E+01 0.32987372732E+01 0.34604754842E+01 0.36553732205E+01 0.38675139637E+01
 0.40120060715E+01 0.40434468305E+01 0.40120247885E+01 0.39236922812E+01 0.37938995325E+01
 0.36417994213E+01 0.34846326954E+01 0.33353697104E+01 0.32039535966E+01 0.30997077440E+01
 0.30320176702E+01 0.30084553735E+01 0.30319870832E+01 0.30996710493E+01 0.32039415263E+01
 0.33353959450E+01 0.34846831046E+01 0.36418429279E+01 0.37939127078E+01 0.39236774935E+01
 0.42982345116E+01 0.42211797471E+01 0.40678352749E+01 0.38675343896E+01 0.36553785766E+01
 0.34604681449E+01 0.32987288232E+01 0.31735105944E+01 0.30823099162E+01 0.30244892883E+01
 0.30049442709E+01 0.30319870832E+01 0.31117444490E+01 0.32433126986E+01 0.34176153417E+01
 0.36195475991E+01 0.38304439709E+01 0.40286056031E+01 0.41890508177E+01 0.42855959752E+01
 0.50185016788E+01 0.47537613773E+01 0.44506963966E+01 0.41267660373E+01 0.37939165247E+01
 0.35028462896E+01 0.32815252545E+01 0.31327567997E+01 0.30454212078E+01 0.30093487543E+01
 0.30244745693E+01 0.30996710493E+01 0.32433126986E+01 0.34529356751E+01 0.37118564132E+01
 0.40015694792E+01 0.43524920136E+01 0.47373620226E+01 0.50391257464E+01 0.51410343068E+01
 0.73572426115E+01 0.65036429383E+01 0.55154384846E+01 0.47176476072E+01 0.41890595835E+01
 0.37696444957E+01 0.34355515668E+01 0.32102910346E+01 0.30859275161E+01 0.30454201938E+01
 0.30822987400E+01 0.32039415263E+01 0.34176153417E+01 0.37118564132E+01 0.40762971653E+01
 0.46609884921E+01 0.55414309035E+01 0.65642925077E+01 0.74008258270E+01 0.77113497059E+01
 0.12631057754E+02 0.10960748777E+02 0.86757322558E+01 0.65338252789E+01 0.50391928639E+01
 0.42377400169E+01 0.37665976978E+01 0.34181253594E+01 0.32102951194E+01 0.31327592441E+01
 0.31735105719E+01 0.33353959450E+01 0.36195475991E+01 0.40015694792E+01 0.46609884921E+01
 0.59339882269E+01 0.78617442912E+01 0.10122627111E+02 0.12087273285E+02 0.13056886693E+02
 0.21314579576E+02 0.18891504097E+02 0.14980578702E+02 0.10803994836E+02 0.74010161021E+01
 0.52653296786E+01 0.42593225965E+01 0.37666036500E+01 0.34355612859E+01 0.32815310086E+01
 0.32987372732E+01 0.34846831046E+01 0.38304439709E+01 0.43524920136E+01 0.55414309035E+01
 0.78617442912E+01 0.11326213577E+02 0.15427509391E+02 0.19179447314E+02 0.21412488134E+02
 0.32919553649E+02 0.30106783178E+02 0.24593405150E+02 0.18048409175E+02 0.12087528563E+02
 0.77362109775E+01 0.52652916565E+01 0.42377335970E+01 0.37696542540E+01 0.35028520336E+01
 0.34604754842E+01 0.36418429279E+01 0.40286056031E+01 0.47373620226E+01 0.65642925077E+01
 0.10122627111E+02 0.15427509391E+02 0.21811505288E+02 0.27934794738E+02 0.32093444420E+02
 0.45939786759E+02 0.43434295941E+02 0.36755374783E+02 0.27934794738E+02 0.19179447314E+02
 0.12087273285E+02 0.74008258270E+01 0.50391257464E+01 0.41890508177E+01 0.37939127078E+01
 0.36553732205E+01 0.37939127078E+01 0.41890508177E+01 0.50391257464E+01 0.74008258270E+01
 0.12087273285E+02 0.19179447314E+02 0.27934794738E+02 0.36755374783E+02 0.43434295941E+02
 0.57819753139E+02 0.56609422568E+02 0.49687280226E+02 0.39215627409E+02 0.27934042142E+02
 0.18047636775E+02 0.10803549310E+02 0.65336690581E+01 0.47176141198E+01 0.41267495479E+01
 0.38675139637E+01 0.39236774935E+01 0.42855959752E+01 0.51410343068E+01 0.77113497059E+01
 0.13056886693E+02 0.21412488134E+02 0.32093444420E+02 0.43434295941E+02 0.52902172016E+02
 0.50405805224E+02 0.52899817951E+02 0.49685856145E+02 0.41855901002E+02 0.31756110006E+02
 0.21811411375E+02 0.13711363184E+02 0.82416728947E+01 0.53747790815E+01 0.43275430564E+01
 0.39110629698E+01 0.37670902663E+01 0.39251136073E+01 0.43624596271E+01 0.54584044250E+01
 0.84652095023E+01 0.14215453885E+02 0.22687571930E+02 0.32919553649E+02 0.43002392905E+02
 0.52899817951E+02 0.57816631288E+02 0.56606584319E+02 0.49685651918E+02 0.39215441340E+02
 0.27934816488E+02 0.18048639625E+02 0.10804284945E+02 0.65340272077E+01 0.47177163130E+01
 0.41267491744E+01 0.38675065702E+01 0.39236977435E+01 0.42856458114E+01 0.51411358636E+01
 0.77115836364E+01 0.13057314211E+02 0.21412949393E+02 0.32093444420E+02 0.43433227861E+02
 0.49685856145E+02 0.56606584319E+02 0.57816394703E+02 0.52899561767E+02 0.43433235656E+02
 0.32093815365E+02 0.21413522402E+02 0.13057821919E+02 0.77118641053E+01 0.51412087065E+01
 0.42856300450E+01 0.39236922812E+01 0.38675343896E+01 0.41267660373E+01 0.47176476072E+01
 0.65338252789E+01 0.10803994836E+02 0.18048409175E+02 0.27934794738E+02 0.39215627409E+02
 0.41855901002E+02 0.49685651918E+02 0.52899561767E+02 0.50405806063E+02 0.43002863410E+02
 0.32920407066E+02 0.22688473232E+02 0.14216077589E+02 0.84654582212E+01 0.54584079385E+01
 0.43624073138E+01 0.39251063773E+01 0.37671191370E+01 0.39110717021E+01 0.43274889490E+01
 0.53746647843E+01 0.82415574108E+01 0.13711334359E+02 0.21811505288E+02 0.31756239600E+02
 0.31756110006E+02 0.39215441340E+02 0.43433235656E+02 0.43002863410E+02 0.38036453449E+02
 0.30107970161E+02 0.21413916562E+02 0.13840513393E+02 0.84737542207E+01 0.55134999466E+01
 0.43474990914E+01 0.38708993297E+01 0.36394860955E+01 0.36770030669E+01 0.39745630547E+01
 0.45383738914E+01 0.60981481270E+01 0.96092017769E+01 0.15427509391E+02 0.23193410945E+02
 0.21811411375E+02 0.27934816488E+02 0.32093815365E+02 0.32920407066E+02 0.30107970161E+02
 0.24594518775E+02 0.18049045109E+02 0.12087566258E+02 0.77358623231E+01 0.52648912213E+01
 0.42374875374E+01 0.37695649738E+01 0.35028243779E+01 0.34604453858E+01 0.36418096626E+01
 0.40285905827E+01 0.47373728175E+01 0.65643152202E+01 0.10122627111E+02 0.15427450134E+02
 0.13711363184E+02 0.18048639625E+02 0.21413522402E+02 0.22688473232E+02 0.21413916562E+02
 0.18049045109E+02 0.13711378939E+02 0.96087260914E+01 0.65636525227E+01 0.48197635783E+01
 0.40575801729E+01 0.36357256736E+01 0.33714651978E+01 0.32842215795E+01 0.33714703828E+01
 0.36358037225E+01 0.40578469383E+01 0.48202818402E+01 0.65642925077E+01 0.96091702514E+01
 0.82416728947E+01 0.10804284945E+02 0.13057821919E+02 0.14216077589E+02 0.13840513393E+02
 0.12087566258E+02 0.96087260914E+01 0.71878908419E+01 0.53833104461E+01 0.43520333768E+01
 0.38443224429E+01 0.34861961508E+01 0.32538091385E+01 0.31549296365E+01 0.31819028429E+01
 0.33390706780E+01 0.36366164999E+01 0.40578337989E+01 0.47373620226E+01 0.60981716365E+01
 0.53747790815E+01 0.65340272077E+01 0.77118641053E+01 0.84654582212E+01 0.84737542207E+01
 0.77358623231E+01 0.65636525227E+01 0.53833104461E+01 0.45023350697E+01 0.39767343457E+01
 0.36195490775E+01 0.33373320031E+01 0.31540024037E+01 0.30679267255E+01 0.30679567046E+01
 0.31536683410E+01 0.33390626393E+01 0.36357966548E+01 0.40286056031E+01 0.45384283654E+01
 0.43275430564E+01 0.47177163130E+01 0.51412087065E+01 0.54584079385E+01 0.55134999466E+01
 0.52648912213E+01 0.48197635783E+01 0.43520333768E+01 0.39767343457E+01 0.36731359470E+01
 0.34070224642E+01 0.32040326166E+01 0.30756516050E+01 0.30165996428E+01 0.30155211485E+01
 0.30679562871E+01 0.31819012334E+01 0.33714814552E+01 0.36418429279E+01 0.39746103017E+01
 0.39110629698E+01 0.41267491744E+01 0.42856300450E+01 0.43624073138E+01 0.43474990914E+01
 0.42374875374E+01 0.40575801729E+01 0.38443224429E+01 0.36195490775E+01 0.34070224642E+01
 0.32284833164E+01 0.30991912881E+01 0.30245011552E+01 0.29999979782E+01 0.30165993846E+01
 0.30679221748E+01 0.31549291099E+01 0.32842395239E+01 0.34604754842E+01 0.36770194737E+01
 0.37670902663E+01 0.38675065702E+01 0.39236922812E+01 0.39251063773E+01 0.38708993297E+01
 0.37695649738E+01 0.36357256736E+01 0.34861961508E+01 0.33373320031E+01 0.32040326166E+01
 0.30991912881E+01 0.30323826803E+01 0.30080171967E+01 0.30244909008E+01 0.30756236742E+01
 0.31539648390E+01 0.32537907333E+01 0.33714814552E+01 0.35028520336E+01 0.36394879158E+01
 0.39251136073E+01 0.39236977435E+01 0.38675343896E+01 0.37671191370E+01 0.36394860955E+01
 0.35028243779E+01 0.33714651978E+01 0.32538091385E+01 0.31540024037E+01 0.30756516050E+01
 0.30245011552E+01 0.30080171967E+01 0.30323658830E+01 0.30991369650E+01 0.32039439156E+01
 0.33372575169E+01 0.34861923692E+01 0.36357966548E+01 0.37696542540E+01 0.38709489356E+01
 0.43624596271E+01 0.42856458114E+01 0.41267660373E+01 0.39110717021E+01 0.36770030669E+01
 0.34604453858E+01 0.32842215795E+01 0.31549296365E+01 0.30679267255E+01 0.30165996428E+01
 0.29999979782E+01 0.30244909008E+01 0.30991369650E+01 0.32283697660E+01 0.34069034880E+01
 0.36195282337E+01 0.38444623106E+01 0.40578337989E+01 0.42377335970E+01 0.43476469325E+01
 0.54584044250E+01 0.51411358636E+01 0.47176476072E+01 0.43274889490E+01 0.39745630547E+01
 0.36418096626E+01 0.33714703828E+01 0.31819028429E+01 0.30679567046E+01 0.30155211485E+01
 0.30165993846E+01 0.30756236742E+01 0.32039439156E+01 0.34069034880E+01 0.36731087255E+01
 0.39769310500E+01 0.43524655983E+01 0.48202818402E+01 0.52652916565E+01 0.55136768485E+01
 0.84652095023E+01 0.77115836364E+01 0.65338252789E+01 0.53746647843E+01 0.45383738914E+01
 0.40285905827E+01 0.36358037225E+01 0.33390706780E+01 0.31536683410E+01 0.30679562871E+01
 0.30679221748E+01 0.31539648390E+01 0.33372575169E+01 0.36195282337E+01 0.39769310500E+01
 0.45028465458E+01 0.53840340721E+01 0.65643152202E+01 0.77362109775E+01 0.84737325147E+01
 0.14215453885E+02 0.13057314211E+02 0.10803994836E+02 0.82415574108E+01 0.60981481270E+01
 0.47373728175E+01 0.40578469383E+01 0.36366164999E+01 0.33390626393E+01 0.31819012334E+01
 0.31549291099E+01 0.32537907333E+01 0.34861923692E+01 0.38444623106E+01 0.43524655983E+01
 0.53840340721E+01 0.71886669065E+01 0.96092017769E+01 0.12087528563E+02 0.13840040687E+02
 0.22687571930E+02 0.21412949393E+02 0.18048409175E+02 0.13711334359E+02 0.96092017769E+01
 0.65643152202E+01 0.48202818402E+01 0.40578337989E+01 0.36357966548E+01 0.33714814552E+01
 0.32842395239E+01 0.33714814552E+01 0.36357966548E+01 0.40578337989E+01 0.48202818402E+01
 0.65643152202E+01 0.96092017769E+01 0.13711334359E+02 0.18048409175E+02 0.21412949393E+02
 0.32919553649E+02 0.32093444420E+02 0.27934794738E+02 0.21811505288E+02 0.15427509391E+02
 0.10122627111E+02 0.65642925077E+01 0.47373620226E+01 0.40286056031E+01 0.36418429279E+01
 0.34604754842E+01 0.35028520336E+01 0.37696542540E+01 0.42377335970E+01 0.52652916565E+01
 0.77362109775E+01 0.12087528563E+02 0.18048409175E+02 0.24593405150E+02 0.30106783178E+02
 0.43002392905E+02 0.43433227861E+02 0.39215627409E+02 0.31756239600E+02 0.23193410945E+02
 0.15427450134E+02 0.96091702514E+01 0.60981716365E+01 0.45384283654E+01 0.39746103017E+01
 0.36770194737E+01 0.36394879158E+01 0.38709489356E+01 0.43476469325E+01 0.55136768485E+01
 0.84737325147E+01 0.13840040687E+02 0.21412949393E+02 0.30106783178E+02 0.38035481100E+02
 0.35104773660E+02 0.38033499943E+02 0.36753586839E+02 0.31756110006E+02 0.24667021502E+02
 0.17383517998E+02 0.11326818906E+02 0.71890700419E+01 0.49864362464E+01 0.41342431197E+01
 0.37304551072E+01 0.35402118016E+01 0.35937520470E+01 0.38936948838E+01 0.44283988479E+01
 0.57642252461E+01 0.88912656641E+01 0.14215453885E+02 0.21314579576E+02 0.28910542242E+02
 0.38033499943E+02 0.43000275297E+02 0.43431811388E+02 0.39215441340E+02 0.31757160630E+02
 0.23194811930E+02 0.15428671518E+02 0.96098927178E+01 0.60984455087E+01 0.45384656873E+01