   1   1   0   0
  0.9517081E+01  0.2312288E-09  0.2312288E-09  0.2312288E-09  0.5000000E-15
  1.000000000000000E-004
  CAR 
 bcc Fe                                  
     36.11025312     -3.71178775  301      7.55801359      1.00000000
     -3.712  0.0000E+00  0.0000E+00
     -3.579  0.0000E+00  0.0000E+00
     -3.446  0.0000E+00  0.0000E+00
     -3.314 -0.7102E-31 -0.9428E-32
     -3.181 -0.1736E-26 -0.2304E-27
     -3.048 -0.1744E-22 -0.2315E-23
     -2.915 -0.7190E-19 -0.9546E-20
     -2.783 -0.1172E-15 -0.1557E-16
     -2.650 -0.7994E-13 -0.1063E-13
     -2.517 -0.2205E-10 -0.2937E-11
     -2.384 -0.2434E-08 -0.3261E-09
     -2.252 -0.1055E-06 -0.1433E-07
     -2.119 -0.1719E-05 -0.2426E-06
     -1.986 -0.9131E-05 -0.1455E-05
     -1.853 -0.1461E-05 -0.1649E-05
     -1.721  0.1020E-03  0.1190E-04
     -1.588  0.3454E-03  0.5775E-04
     -1.455  0.5631E-03  0.1325E-03
     -1.322  0.6125E-03  0.2138E-03
     -1.190  0.8948E-03  0.3326E-03
     -1.057  0.1035E-02  0.4700E-03
     -0.924  0.8064E-03  0.5770E-03
     -0.792  0.1079E-02  0.7203E-03
     -0.659  0.1578E-02  0.9298E-03
     -0.526  0.1394E-02  0.1115E-02
     -0.393  0.1001E-02  0.1248E-02
     -0.261  0.1480E-02  0.1444E-02
     -0.128  0.2042E-02  0.1715E-02
      0.005  0.1855E-02  0.1961E-02
      0.138  0.1807E-02  0.2201E-02
      0.270  0.1553E-02  0.2407E-02
      0.403  0.1961E-02  0.2668E-02
      0.536  0.2781E-02  0.3037E-02
      0.669  0.2449E-02  0.3362E-02
      0.801  0.2371E-02  0.3677E-02
      0.934  0.2721E-02  0.4038E-02
      1.067  0.2347E-02  0.4349E-02
      1.200  0.3127E-02  0.4764E-02
      1.332  0.3816E-02  0.5271E-02
      1.465  0.3827E-02  0.5779E-02
      1.598  0.4218E-02  0.6339E-02
      1.731  0.3429E-02  0.6794E-02
      1.863  0.4065E-02  0.7334E-02
      1.996  0.7245E-02  0.8295E-02
      2.129  0.1030E-01  0.9663E-02
      2.262  0.1323E-01  0.1142E-01
      2.394  0.1509E-01  0.1342E-01
      2.527  0.1809E-01  0.1582E-01
      2.660  0.2077E-01  0.1858E-01
      2.792  0.2175E-01  0.2147E-01
      2.925  0.2269E-01  0.2448E-01
      3.058  0.2878E-01  0.2830E-01
      3.191  0.3245E-01  0.3261E-01
      3.323  0.2575E-01  0.3602E-01
      3.456  0.2107E-01  0.3882E-01
      3.589  0.1809E-01  0.4122E-01
      3.722  0.1310E-01  0.4296E-01
      3.854  0.1107E-01  0.4443E-01
      3.987  0.2055E-01  0.4716E-01
      4.120  0.4065E-01  0.5256E-01
      4.253  0.4849E-01  0.5899E-01
      4.385  0.4227E-01  0.6460E-01
      4.518  0.3492E-01  0.6924E-01
      4.651  0.3257E-01  0.7356E-01
      4.784  0.3361E-01  0.7802E-01
      4.916  0.3352E-01  0.8247E-01
      5.049  0.3859E-01  0.8760E-01
      5.182  0.4678E-01  0.9380E-01
      5.315  0.4463E-01  0.9973E-01
      5.447  0.3549E-01  0.1044E+00
      5.580  0.2430E-01  0.1077E+00
      5.713  0.1668E-01  0.1099E+00
      5.846  0.1455E-01  0.1118E+00
      5.978  0.1379E-01  0.1136E+00
      6.111  0.1005E-01  0.1150E+00
      6.244  0.9742E-02  0.1163E+00
      6.376  0.1280E-01  0.1180E+00
      6.509  0.1506E-01  0.1200E+00
      6.642  0.1953E-01  0.1226E+00
      6.775  0.2346E-01  0.1257E+00
      6.907  0.2709E-01  0.1293E+00
      7.040  0.3378E-01  0.1338E+00
      7.173  0.4485E-01  0.1397E+00
      7.306  0.5204E-01  0.1466E+00
      7.438  0.5207E-01  0.1535E+00
      7.571  0.5440E-01  0.1607E+00
      7.704  0.6284E-01  0.1691E+00
      7.837  0.7181E-01  0.1786E+00
      7.969  0.6025E-01  0.1866E+00
      8.102  0.3603E-01  0.1914E+00
      8.235  0.2447E-01  0.1947E+00
      8.368  0.2405E-01  0.1978E+00
      8.500  0.2884E-01  0.2017E+00
      8.633  0.2817E-01  0.2054E+00
      8.766  0.2134E-01  0.2082E+00
      8.899  0.1501E-01  0.2102E+00
      9.031  0.1018E-01  0.2116E+00
      9.164  0.6900E-02  0.2125E+00
      9.297  0.6695E-02  0.2134E+00
      9.429  0.7965E-02  0.2144E+00
      9.562  0.6525E-02  0.2153E+00
      9.695  0.4772E-02  0.2159E+00
      9.828  0.4647E-02  0.2166E+00
      9.960  0.4136E-02  0.2171E+00
     10.093  0.4532E-02  0.2177E+00
     10.226  0.6326E-02  0.2186E+00
     10.359  0.7141E-02  0.2195E+00
     10.491  0.6093E-02  0.2203E+00
     10.624  0.5315E-02  0.2210E+00
     10.757  0.4383E-02  0.2216E+00
     10.890  0.3733E-02  0.2221E+00
     11.022  0.4944E-02  0.2228E+00
     11.155  0.4041E-02  0.2233E+00
     11.288  0.3918E-02  0.2238E+00
     11.421  0.7010E-02  0.2247E+00
     11.553  0.6794E-02  0.2256E+00
     11.686  0.4170E-02  0.2262E+00
     11.819  0.4334E-02  0.2268E+00
     11.952  0.4255E-02  0.2273E+00
     12.084  0.2968E-02  0.2277E+00
     12.217  0.3172E-02  0.2281E+00
     12.350  0.4184E-02  0.2287E+00
     12.483  0.4644E-02  0.2293E+00
     12.615  0.4209E-02  0.2299E+00
     12.748  0.5388E-02  0.2306E+00
     12.881  0.5460E-02  0.2313E+00
     13.013  0.3621E-02  0.2318E+00
     13.146  0.2778E-02  0.2322E+00
     13.279  0.2871E-02  0.2326E+00
     13.412  0.2390E-02  0.2329E+00
     13.544  0.2594E-02  0.2332E+00
     13.677  0.3070E-02  0.2336E+00
     13.810  0.3251E-02  0.2341E+00
     13.943  0.4456E-02  0.2346E+00
     14.075  0.4066E-02  0.2352E+00
     14.208  0.3268E-02  0.2356E+00
     14.341  0.3119E-02  0.2360E+00
     14.474  0.1687E-02  0.2363E+00
     14.606  0.1406E-02  0.2364E+00
     14.739  0.2091E-02  0.2367E+00
     14.872  0.2249E-02  0.2370E+00
     15.005  0.1849E-02  0.2373E+00
     15.137  0.1256E-02  0.2374E+00
     15.270  0.1919E-02  0.2377E+00
     15.403  0.3259E-02  0.2381E+00
     15.536  0.2718E-02  0.2385E+00
     15.668  0.1117E-02  0.2386E+00
     15.801  0.9025E-03  0.2387E+00
     15.934  0.1038E-02  0.2389E+00
     16.066  0.7058E-03  0.2390E+00
     16.199  0.7042E-03  0.2391E+00
     16.332  0.5931E-03  0.2391E+00
     16.465  0.8753E-03  0.2393E+00
     16.597  0.1486E-02  0.2395E+00
     16.730  0.1846E-02  0.2397E+00
     16.863  0.1936E-02  0.2400E+00
     16.996  0.3340E-02  0.2404E+00
     17.128  0.8245E-02  0.2415E+00
     17.261  0.1329E-01  0.2433E+00
     17.394  0.1288E-01  0.2450E+00
     17.527  0.8504E-02  0.2461E+00
     17.659  0.7132E-02  0.2471E+00
     17.792  0.9366E-02  0.2483E+00
     17.925  0.9607E-02  0.2496E+00
     18.058  0.5707E-02  0.2503E+00
     18.190  0.4224E-02  0.2509E+00
     18.323  0.6532E-02  0.2518E+00
     18.456  0.7851E-02  0.2528E+00
     18.589  0.6976E-02  0.2537E+00
     18.721  0.5444E-02  0.2544E+00
     18.854  0.5819E-02  0.2552E+00
     18.987  0.5807E-02  0.2560E+00
     19.120  0.5466E-02  0.2567E+00
     19.252  0.7298E-02  0.2577E+00
     19.385  0.8248E-02  0.2588E+00
     19.518  0.7717E-02  0.2598E+00
     19.650  0.8122E-02  0.2609E+00
     19.783  0.7625E-02  0.2619E+00
     19.916  0.6229E-02  0.2627E+00
     20.049  0.5983E-02  0.2635E+00
     20.181  0.7420E-02  0.2645E+00
     20.314  0.9129E-02  0.2657E+00
     20.447  0.8500E-02  0.2668E+00
     20.580  0.7076E-02  0.2678E+00
     20.712  0.6474E-02  0.2686E+00
     20.845  0.5679E-02  0.2694E+00
     20.978  0.5734E-02  0.2702E+00
     21.111  0.6835E-02  0.2711E+00
     21.243  0.7721E-02  0.2721E+00
     21.376  0.7094E-02  0.2730E+00
     21.509  0.6865E-02  0.2739E+00
     21.642  0.7791E-02  0.2750E+00
     21.774  0.7176E-02  0.2759E+00
     21.907  0.5530E-02  0.2767E+00
     22.040  0.5386E-02  0.2774E+00
     22.173  0.5739E-02  0.2781E+00
     22.305  0.5079E-02  0.2788E+00
     22.438  0.7252E-02  0.2798E+00
     22.571  0.1036E-01  0.2811E+00
     22.703  0.6793E-02  0.2821E+00
     22.836  0.4485E-02  0.2826E+00
     22.969  0.6139E-02  0.2835E+00
     23.102  0.5067E-02  0.2841E+00
     23.234  0.4035E-02  0.2847E+00
     23.367  0.6251E-02  0.2855E+00
     23.500  0.8822E-02  0.2867E+00
     23.633  0.8813E-02  0.2878E+00
     23.765  0.5938E-02  0.2886E+00
     23.898  0.3118E-02  0.2890E+00
     24.031  0.3413E-02  0.2895E+00
     24.164  0.5346E-02  0.2902E+00
     24.296  0.5686E-02  0.2910E+00
     24.429  0.6322E-02  0.2918E+00
     24.562  0.6918E-02  0.2927E+00
     24.695  0.8000E-02  0.2938E+00
     24.827  0.8297E-02  0.2949E+00
     24.960  0.4814E-02  0.2955E+00
     25.093  0.1730E-02  0.2957E+00
     25.226  0.3176E-02  0.2962E+00
     25.358  0.4942E-02  0.2968E+00
     25.491  0.5787E-02  0.2976E+00
     25.624  0.6606E-02  0.2985E+00
     25.757  0.7241E-02  0.2994E+00
     25.889  0.6460E-02  0.3003E+00
     26.022  0.3737E-02  0.3008E+00
     26.155  0.4128E-02  0.3013E+00
     26.287  0.5648E-02  0.3021E+00
     26.420  0.5076E-02  0.3028E+00
     26.553  0.4073E-02  0.3033E+00
     26.686  0.4267E-02  0.3039E+00
     26.818  0.6493E-02  0.3047E+00
     26.951  0.6265E-02  0.3056E+00
     27.084  0.4278E-02  0.3061E+00
     27.217  0.4104E-02  0.3067E+00
     27.349  0.5089E-02  0.3073E+00
     27.482  0.5738E-02  0.3081E+00
     27.615  0.4973E-02  0.3088E+00
     27.748  0.3825E-02  0.3093E+00
     27.880  0.4059E-02  0.3098E+00
     28.013  0.5159E-02  0.3105E+00
     28.146  0.4928E-02  0.3112E+00
     28.279  0.3564E-02  0.3116E+00
     28.411  0.1678E-02  0.3118E+00
     28.544  0.1618E-02  0.3121E+00
     28.677  0.2040E-02  0.3123E+00
     28.810  0.2873E-02  0.3127E+00
     28.942  0.4810E-02  0.3134E+00
     29.075  0.4912E-02  0.3140E+00
     29.208  0.2630E-02  0.3144E+00
     29.341  0.7786E-03  0.3145E+00
     29.473  0.9311E-03  0.3146E+00
     29.606  0.1776E-02  0.3148E+00
     29.739  0.2207E-02  0.3151E+00
     29.871  0.2312E-02  0.3154E+00
     30.004  0.2350E-02  0.3157E+00
     30.137  0.2385E-02  0.3160E+00
     30.270  0.2321E-02  0.3164E+00
     30.402  0.1879E-02  0.3166E+00
     30.535  0.1110E-02  0.3168E+00
     30.668  0.8711E-03  0.3169E+00
     30.801  0.1672E-02  0.3171E+00
     30.933  0.2251E-02  0.3174E+00
     31.066  0.1673E-02  0.3176E+00
     31.199  0.1315E-02  0.3178E+00
     31.332  0.4926E-03  0.3178E+00
     31.464  0.1908E-03  0.3179E+00
     31.597  0.9831E-03  0.3180E+00
     31.730  0.1276E-02  0.3182E+00
     31.863  0.9896E-03  0.3183E+00
     31.995  0.1742E-02  0.3185E+00
     32.128  0.2348E-02  0.3188E+00
     32.261  0.1433E-02  0.3190E+00
     32.394  0.3612E-03  0.3191E+00
     32.526 -0.5919E-04  0.3191E+00
     32.659  0.8922E-04  0.3191E+00
     32.792  0.5420E-03  0.3192E+00
     32.924  0.7334E-03  0.3193E+00
     33.057  0.7513E-03  0.3194E+00
     33.190  0.1220E-02  0.3195E+00
     33.323  0.1188E-02  0.3197E+00
     33.455  0.4735E-03  0.3197E+00
     33.588  0.2320E-03  0.3198E+00
     33.721  0.1953E-03  0.3198E+00
     33.854  0.4925E-03  0.3199E+00
     33.986  0.6478E-03  0.3200E+00
     34.119  0.3048E-03  0.3200E+00
     34.252  0.7030E-04  0.3200E+00
     34.385  0.6002E-06  0.3200E+00
     34.517 -0.7308E-05  0.3200E+00
     34.650 -0.1556E-05  0.3200E+00
     34.783 -0.1009E-06  0.3200E+00
     34.916 -0.2385E-08  0.3200E+00
     35.048 -0.2185E-10  0.3200E+00
     35.181 -0.7961E-13  0.3200E+00
     35.314 -0.1170E-15  0.3200E+00
     35.447 -0.5018E-19  0.3200E+00
     35.579  0.0000E+00  0.3200E+00
     35.712  0.0000E+00  0.3200E+00
     35.845  0.0000E+00  0.3200E+00
     35.978  0.0000E+00  0.3200E+00
     36.110  0.0000E+00  0.3200E+00
