    1    1   50    1
  0.9517081E+01  0.2312288E-09  0.2312288E-09  0.2312288E-09  0.5000000E-15
  1.000000000000000E-004
  CAR 
 bcc Fe                                  
      8    250      8
 
  0.2500000E-01  0.2500000E-01  0.2500000E-01  0.1000000E-02
    1       -1.593667   1.000000
    2        5.494989   1.000000
    3        5.494989   1.000000
    4        5.666940   1.000000
    5        7.449214   0.893299
    6        7.449214   0.893299
    7       33.507403   0.000000
    8       33.507403   0.000000
 
  0.7500000E-01  0.2500000E-01  0.2500000E-01  0.3000000E-02
    1       -1.246057   1.000000
    2        5.378213   1.000000
    3        5.458870   1.000000
    4        5.903039   1.000000
    5        7.345809   1.030356
    6        7.467145   0.844001
    7       32.040093   0.000000
    8       32.949357   0.000000
 
  0.1250000E+00  0.2500000E-01  0.2500000E-01  0.3000000E-02
    1       -0.691285   1.000000
    2        5.200582   1.000000
    3        5.391137   1.000000
    4        6.254170   1.000000
    5        7.234510   1.022257
    6        7.492883   0.760058
    7       30.091567   0.000000
    8       32.146663   0.000000
 
  0.1750000E+00  0.2500000E-01  0.2500000E-01  0.3000000E-02
    1        0.025254   1.000000
    2        4.984312   1.000000
    3        5.293197   1.000000
    4        6.710337   1.000000
    5        7.174605   1.010355
    6        7.528544   0.623210
    7       27.881125   0.000000
    8       31.159911   0.000000
 
  0.2250000E+00  0.2500000E-01  0.2500000E-01  0.3000000E-02
    1        0.815995   1.000000
    2        4.754317   1.000000
    3        5.234809   1.000000
    4        7.183074   1.011730
    5        7.258336   1.027723
    6        7.574453   0.430697
    7       25.552145   0.000000
    8       30.108652   0.000000
 
  0.2750000E+00  0.2500000E-01  0.2500000E-01  0.3000000E-02
    1        1.524006   1.000000
    2        4.532119   1.000000
    3        5.375924   1.000000
    4        7.261925   1.028514
    5        7.626502   0.228178
    6        7.828898  -0.033299
    7       23.221656   0.000000
    8       29.111697   0.000000
 
  0.3250000E+00  0.2500000E-01  0.2500000E-01  0.3000000E-02
    1        1.969091   1.000000
    2        4.335859   1.000000
    3        5.880025   1.000000
    4        7.362825   1.022447
    5        7.681128   0.073120
    6        8.401300  -0.000000
    7       21.012111   0.000000
    8       28.256865   0.000000
 
  0.3750000E+00  0.2500000E-01  0.2500000E-01  0.3000000E-02
    1        2.135549   1.000000
    2        4.185713   1.000000
    3        6.672096   1.000000
    4        7.464858   0.850728
    5        7.731880  -0.005720
    6        8.922665  -0.000000
    7       19.053861   0.000000
    8       27.608647   0.000000
 
  0.4250000E+00  0.2500000E-01  0.2500000E-01  0.3000000E-02
    1        2.162984   1.000000
    2        4.090942   1.000000
    3        7.355411   1.026426
    4        7.595686   0.343688
    5        7.768067  -0.029588
    6        9.338896  -0.000000
    7       17.598957   0.000000
    8       27.201851   0.000000
 
  0.4750000E+00  0.2500000E-01  0.2500000E-01  0.1500000E-02
    1        2.160466   1.000000
    2        4.060633   1.000000
    3        7.485012   0.787266
    4        7.773762  -0.031487
    5        7.792008  -0.034960
    6        9.520990  -0.000000
    7       17.027143   0.000000
    8       27.067356   0.000000
 
 -0.2500000E-01  0.2500000E-01  0.2500000E-01  0.7500000E-03
    1       -1.711788   1.000000
    2        5.535885   1.000000
    3        5.535913   1.000000
    4        5.555894   1.000000
    5        7.443088   0.908304
    6        7.490646   0.767920
    7       33.780835   0.000000
    8       34.110253   0.000000
 
  0.7500000E-01  0.7500000E-01  0.2500000E-01  0.3000000E-02
    1       -0.798403   1.000000
    2        5.265680   1.000000
    3        5.327698   1.000000
    4        6.229145   1.000000
    5        7.275745   1.031350
    6        7.469572   0.836725
    7       30.820182   0.000000
    8       31.645473   0.000000
 
  0.1250000E+00  0.7500000E-01  0.2500000E-01  0.6000000E-02
    1       -0.164185   1.000000
    2        5.073363   1.000000
    3        5.202218   1.000000
    4        6.666233   1.000000
    5        7.190973   1.013115
    6        7.516525   0.671433
    7       28.963538   0.000000
    8       30.525024   0.000000
 
  0.1750000E+00  0.7500000E-01  0.2500000E-01  0.6000000E-02
    1        0.596560   1.000000
    2        4.846429   1.000000
    3        5.085601   1.000000
    4        7.152526   1.007309
    5        7.211008   1.017048
    6        7.576126   0.423708
    7       26.771496   0.000000
    8       29.499259   0.000000
 
  0.2250000E+00  0.7500000E-01  0.2500000E-01  0.6000000E-02
    1        1.367853   1.000000
    2        4.618264   1.000000
    3        5.066048   1.000000
    4        7.203083   1.015425
    5        7.627992   0.223034
    6        7.815516  -0.034901
    7       24.460250   0.000000
    8       28.541404   0.000000
 
  0.2750000E+00  0.7500000E-01  0.2500000E-01  0.6000000E-02
    1        1.961676   1.000000
    2        4.412425   1.000000
    3        5.312260   1.000000
    4        7.292443   1.034040
    5        7.695286   0.044979
    6        8.458548  -0.000000
    7       22.189132   0.000000
    8       27.696413   0.000000
 
  0.3250000E+00  0.7500000E-01  0.2500000E-01  0.6000000E-02
    1        2.246805   1.000000
    2        4.243657   1.000000
    3        5.885696   1.000000
    4        7.391236   0.998216
    5        7.760210  -0.026230
    6        9.115604  -0.000000
    7       20.063832   0.000000
    8       27.007242   0.000000
 
  0.3750000E+00  0.7500000E-01  0.2500000E-01  0.6000000E-02
    1        2.314548   1.000000
    2        4.125824   1.000000
    3        6.547805   1.000000
    4        7.468332   0.840460
    5        7.846301  -0.030164
    6        9.750197  -0.000000
    7       18.289571   0.000000
    8       26.523613   0.000000
 
  0.4250000E+00  0.7500000E-01  0.2500000E-01  0.6000000E-02
    1        2.312509   1.000000
    2        4.064972   1.000000
    3        6.961570   1.000103
    4        7.490660   0.767870
    5        7.932515  -0.011804
    6       10.217529  -0.000000
    7       17.191580   0.000000
    8       26.272372   0.000000
 
 -0.7500000E-01  0.7500000E-01  0.2500000E-01  0.3000000E-02
    1       -1.476527   1.000000
    2        5.465032   1.000000
    3        5.528076   1.000000
    4        5.696888   1.000000
    5        7.347238   1.029853
    6        7.512428   0.687445
    7       32.760986   0.000000
    8       33.888198   0.000000
 
  0.1250000E+00  0.1250000E+00  0.2500000E-01  0.3000000E-02
    1        0.521712   1.000000
    2        4.928775   1.000000
    3        4.975713   1.000000
    4        7.140450   1.005958
    5        7.193524   1.013584
    6        7.589803   0.367355
    7       27.603248   0.000000
    8       28.813837   0.000000
 
  0.1750000E+00  0.1250000E+00  0.2500000E-01  0.6000000E-02
    1        1.290042   1.000000
    2        4.709612   1.000000
    3        4.843682   1.000000
    4        7.140816   1.005996
    5        7.641593   0.178267
    6        7.844790  -0.030470
    7       25.682312   0.000000
    8       27.514305   0.000000
 
  0.2250000E+00  0.1250000E+00  0.2500000E-01  0.6000000E-02
    1        1.994077   1.000000
    2        4.486346   1.000000
    3        4.874002   1.000000
    4        7.202117   1.015233
    5        7.724790   0.001785
    6        8.537450  -0.000000
    7       23.459692   0.000000
    8       26.558643   0.000000
 
  0.2750000E+00  0.1250000E+00  0.2500000E-01  0.6000000E-02
    1        2.433579   1.000000
    2        4.306898   1.000000
    3        5.181995   1.000000
    4        7.303251   1.035111
    5        7.792256  -0.034983
    6        9.305832  -0.000000
    7       21.251404   0.000000
    8       25.797174   0.000000
 
  0.3250000E+00  0.1250000E+00  0.2500000E-01  0.6000000E-02
    1        2.574743   1.000000
    2        4.177819   1.000000
    3        5.704484   1.000000
    4        7.408728   0.975045
    5        7.869794  -0.024968
    6       10.118898  -0.000000
    7       19.242299   0.000000
    8       25.227076   0.000000
 
  0.3750000E+00  0.1250000E+00  0.2500000E-01  0.6000000E-02
    1        2.579507   1.000000
    2        4.098849   1.000000
    3        6.151971   1.000000
    4        7.471205   0.831753
    5        7.950638  -0.008990
    6       10.876809  -0.000000
    7       17.686028   0.000000
    8       24.867346   0.000000
 
  0.4250000E+00  0.1250000E+00  0.2500000E-01  0.3000000E-02
    1        2.569134   1.000000
    2        4.073061   1.000000
    3        6.319676   1.000000
    4        7.488571   0.775121
    5        7.998905  -0.003910
    6       11.236122  -0.000000
    7       17.043967   0.000000
    8       24.745970   0.000000
 
 -0.1250000E+00  0.1250000E+00  0.2500000E-01  0.3000000E-02
    1       -1.020272   1.000000
    2        5.320960   1.000000
    3        5.497371   1.000000
    4        5.985245   1.000000
    5        7.220419   1.019075
    6        7.534778   0.597585
    7       31.105545   0.000000
    8       33.236961   0.000000
 
 -0.7500000E-01  0.1250000E+00  0.2500000E-01  0.3000000E-02
    1       -1.131902   1.000000
    2        5.411743   1.000000
    3        5.477788   1.000000
    4        5.894770   1.000000
    5        7.204702   1.015749
    6        7.560083   0.491245
    7       31.637277   0.000000
    8       33.152697   0.000000
 
  0.1750000E+00  0.1750000E+00  0.2500000E-01  0.3000000E-02
    1        2.014996   1.000000
    2        4.532781   1.000000
    3        4.697030   1.000000
    4        7.160796   1.008360
    5        7.738688  -0.011976
    6        8.573616  -0.000000
    7       24.428350   0.000000
    8       25.590307   0.000000
 
  0.2250000E+00  0.1750000E+00  0.2500000E-01  0.6000000E-02
    1        2.603667   1.000000
    2        4.340435   1.000000
    3        4.757333   1.000000
    4        7.232674   1.021836
    5        7.807960  -0.035365
    6        9.415891  -0.000000
    7       22.521835   0.000000
    8       24.396875   0.000000
 
  0.2750000E+00  0.1750000E+00  0.2500000E-01  0.6000000E-02
    1        2.885337   1.000000
    2        4.211488   1.000000
    3        5.051179   1.000000
    4        7.337688   1.032713
    5        7.865548  -0.025945
    6       10.357294  -0.000000
    7       20.421058   0.000000
    8       23.664415   0.000000
 
  0.3250000E+00  0.1750000E+00  0.2500000E-01  0.6000000E-02
    1        2.929160   1.000000
    2        4.136709   1.000000
    3        5.435937   1.000000
    4        7.438816   0.918207
    5        7.925964  -0.012951
    6       11.355143  -0.000000
    7       18.538460   0.000000
    8       23.181973   0.000000
 
  0.3750000E+00  0.1750000E+00  0.2500000E-01  0.6000000E-02
    1        2.910689   1.000000
    2        4.102168   1.000000
    3        5.679918   1.000000
    4        7.494959   0.752673
    5        7.973775  -0.006146
    6       12.161182  -0.000000
    7       17.263773   0.000000
    8       22.940007   0.000000
 
 -0.1750000E+00  0.1750000E+00  0.2500000E-01  0.3000000E-02
    1       -0.376037   1.000000
    2        5.125574   1.000000
    3        5.413446   1.000000
    4        6.385675   1.000000
    5        7.122825   1.004348
    6        7.561938   0.483396
    7       29.015402   0.000000
    8       32.233708   0.000000
 
 -0.1250000E+00  0.1750000E+00  0.2500000E-01  0.6000000E-02
    1       -0.582184   1.000000
    2        5.259050   1.000000
    3        5.408626   1.000000
    4        6.239225   1.000000
    5        7.063968   1.001321
    6        7.605690   0.304480
    7       30.005005   0.000000
    8       32.030045   0.000000
 
  0.2250000E+00  0.2250000E+00  0.2500000E-01  0.3000000E-02
    1        3.058589   1.000000
    2        4.204691   1.000000
    3        4.788961   1.000000
    4        7.308907   1.035393
    5        7.866045  -0.025831
    6       10.441670  -0.000000
    7       21.416800   0.000000
    8       22.533568   0.000000
 
  0.2750000E+00  0.2250000E+00  0.2500000E-01  0.6000000E-02
    1        3.251127   1.000000
    2        4.142521   1.000000
    3        4.950556   1.000000
    4        7.414047   0.966607
    5        7.902090  -0.017668
    6       11.597369  -0.000000
    7       19.641018   0.000000
    8       21.626081   0.000000
 
  0.3250000E+00  0.2250000E+00  0.2500000E-01  0.6000000E-02
    1        3.270193   1.000000
    2        4.134218   1.000000
    3        5.127670   1.000000
    4        7.509234   0.699754
    5        7.918403  -0.014357
    6       12.778138  -0.000000
    7       17.910168   0.000000
    8       21.205532   0.000000
 
  0.3750000E+00  0.2250000E+00  0.2500000E-01  0.3000000E-02
    1        3.260802   1.000000
    2        4.135791   1.000000
    3        5.199319   1.000000
    4        7.549633   0.535429
    5        7.924307  -0.013251
    6       13.429986   0.000000
    7       17.055975   0.000000
    8       21.073848   0.000000
 
 -0.2250000E+00  0.2250000E+00  0.2500000E-01  0.3000000E-02
    1        0.392147   1.000000
    2        4.901933   1.000000
    3        5.321991   1.000000
    4        6.880095   1.000009
    5        7.105399   1.003123
    6        7.599428   0.328857
    7       26.726895   0.000000
    8       31.092279   0.000000
 
 -0.1750000E+00  0.2250000E+00  0.2500000E-01  0.6000000E-02
    1        0.127220   1.000000
    2        5.050112   1.000000
    3        5.305616   1.000000
    4        6.692463   1.000000
    5        6.989174   1.000217
    6        7.655546   0.136753
    7       27.915889   0.000000
    8       30.889311   0.000000
 
 -0.1250000E+00  0.2250000E+00  0.2500000E-01  0.3000000E-02
    1        0.037284   1.000000
    2        5.158519   1.000000
    3        5.236818   1.000000
    4        6.647877   1.000000
    5        6.936009   1.000050
    6        7.681342   0.072657
    7       28.663349   0.000000
    8       30.301398   0.000000
 
  0.2750000E+00  0.2750000E+00  0.2500000E-01  0.3000000E-02
    1        3.459850   1.000000
    2        4.155034   1.000000
    3        4.867953   1.000000
    4        7.520377   0.656168
    5        7.891430  -0.020003
    6       12.989143  -0.000000
    7       18.565125   0.000000
    8       20.184866   0.000000
 
  0.3250000E+00  0.2750000E+00  0.2500000E-01  0.6000000E-02
    1        3.521440   1.000000
    2        4.231068   1.000000
    3        4.798215   1.000000
    4        7.618003   0.258380
    5        7.851273  -0.029125
    6       14.328533   0.000000
    7       17.151066   0.000000
    8       19.673668   0.000000
 
 -0.2750000E+00  0.2750000E+00  0.2500000E-01  0.3000000E-02
    1        1.163876   1.000000
    2        4.673170   1.000000
    3        5.337253   1.000000
    4        7.163431   1.008717
    5        7.424848   0.947372
    6        7.647816   0.159177
    7       24.377133   0.000000
    8       29.976473   0.000000
 
 -0.2250000E+00  0.2750000E+00  0.2500000E-01  0.6000000E-02
    1        0.909804   1.000000
    2        4.824731   1.000000
    3        5.225254   1.000000
    4        7.009266   1.000364
    5        7.234936   1.022356
    6        7.716412   0.012030
    7       25.622592   0.000000
    8       29.817555   0.000000
 
 -0.1750000E+00  0.2750000E+00  0.2500000E-01  0.6000000E-02
    1        0.778848   1.000000
    2        4.965581   1.000000
    3        5.095761   1.000000
    4        6.893414   1.000014
    5        7.169526   1.009586
    6        7.768366  -0.029698
    7       26.813712   0.000000
    8       28.847881   0.000000
 
  0.3250000E+00  0.3250000E+00  0.2500000E-01  0.1000000E-02
    1        3.603923   1.000000
    2        4.474512   1.000000
    3        4.474546   1.000000
    4        7.741933  -0.014646
    5        7.741960  -0.014667
    6       15.888544   0.000000
    7       15.888603   0.000000
    8       19.110386   0.000000
 
 -0.3250000E+00  0.3250000E+00  0.2500000E-01  0.3000000E-02
    1        1.756151   1.000000
    2        4.462296   1.000000
    3        5.643088   1.000000
    4        7.277225   1.031627
    5        7.711741   0.018417
    6        7.982436  -0.005283
    7       22.098340   0.000000
    8       28.991212   0.000000
 
 -0.2750000E+00  0.3250000E+00  0.2500000E-01  0.6000000E-02
    1        1.611696   1.000000
    2        4.604963   1.000000
    3        5.309929   1.000000
    4        7.117643   1.003948
    5        7.727212  -0.000896
    6        7.879610  -0.022697
    7       23.299987   0.000000
    8       28.846441   0.000000
 
 -0.2250000E+00  0.3250000E+00  0.2500000E-01  0.6000000E-02
    1        1.531238   1.000000
    2        4.729808   1.000000
    3        5.046026   1.000000
    4        6.951867   1.000079
    5        7.671998   0.093939
    6        7.960646  -0.007660
    7       24.584385   0.000000
    8       27.768320   0.000000
 
 -0.1750000E+00  0.3250000E+00  0.2500000E-01  0.3000000E-02
    1        1.506011   1.000000
    2        4.788620   1.000000
    3        4.942724   1.000000
    4        6.881980   1.000010
    5        7.655609   0.136576
    6        7.998974  -0.003905
    7       25.527778   0.000000
    8       26.826221   0.000000
 
 -0.3750000E+00  0.3750000E+00  0.2500000E-01  0.3000000E-02
    1        2.050597   1.000000
    2        4.284900   1.000000
    3        6.291974   1.000000
    4        7.405496   0.979848
    5        7.810478  -0.035251
    6        8.486989  -0.000000
    7       19.982696   0.000000
    8       28.198973   0.000000
 
 -0.3250000E+00  0.3750000E+00  0.2500000E-01  0.6000000E-02
    1        2.053685   1.000000
    2        4.412758   1.000000
    3        5.693884   1.000000
    4        7.266971   1.029594
    5        7.874476  -0.023884
    6        8.431958  -0.000000
    7       21.078964   0.000000
    8       28.024595   0.000000
 
 -0.2750000E+00  0.3750000E+00  0.2500000E-01  0.6000000E-02
    1        2.115943   1.000000
    2        4.526054   1.000000
    3        5.182553   1.000000
    4        7.088111   1.002209
    5        7.853262  -0.028697
    6        8.557184  -0.000000
    7       22.311052   0.000000
    8       26.902954   0.000000
 
 -0.2250000E+00  0.3750000E+00  0.2500000E-01  0.6000000E-02
    1        2.179589   1.000000
    2        4.553861   1.000000
    3        4.934727   1.000000
    4        6.959520   1.000097
    5        7.836953  -0.031964
    6        8.649308  -0.000000
    7       23.608468   0.000000
    8       25.513854   0.000000
 
 -0.4250000E+00  0.4250000E+00  0.2500000E-01  0.3000000E-02
    1        2.131769   1.000000
    2        4.160274   1.000000
    3        6.987292   1.000207
    4        7.492874   0.760090
    5        8.071402  -0.000854
    6        8.876595  -0.000000
    7       18.240132   0.000000
    8       27.647494   0.000000
 
 -0.3750000E+00  0.4250000E+00  0.2500000E-01  0.6000000E-02
    1        2.217068   1.000000
    2        4.265264   1.000000
    3        6.260760   1.000000
    4        7.385985   1.003874
    5        8.101929  -0.000411
    6        8.992248  -0.000000
    7       19.101908   0.000000
    8       27.398009   0.000000
 
 -0.3250000E+00  0.4250000E+00  0.2500000E-01  0.6000000E-02
    1        2.399903   1.000000
    2        4.369769   1.000000
    3        5.553260   1.000000
    4        7.240978   1.023752
    5        8.001000  -0.003758
    6        9.283909  -0.000000
    7       20.174021   0.000000
    8       26.212351   0.000000
 
 -0.2750000E+00  0.4250000E+00  0.2500000E-01  0.6000000E-02
    1        2.621371   1.000000
    2        4.394279   1.000000
    3        5.069973   1.000000
    4        7.100869   1.002857
    5        7.932045  -0.011884
    6        9.488041  -0.000000
    7       21.422722   0.000000
    8       24.673843   0.000000
 
 -0.2250000E+00  0.4250000E+00  0.2500000E-01  0.3000000E-02
    1        2.736925   1.000000
    2        4.339946   1.000000
    3        4.938583   1.000000
    4        7.040619   1.000778
    5        7.913521  -0.015310
    6        9.560715  -0.000000
    7       22.454933   0.000000
    8       23.529241   0.000000
 
 -0.4750000E+00  0.4750000E+00  0.2500000E-01  0.3000000E-02
    1        2.137045   1.000000
    2        4.095335   1.000000
    3        7.347976   1.029582
    4        7.482579   0.795411
    5        8.457942  -0.000000
    6        9.088024  -0.000000
    7       17.178231   0.000000
    8       27.363424   0.000000
 
 -0.4250000E+00  0.4750000E+00  0.2500000E-01  0.6000000E-02
    1        2.241601   1.000000
    2        4.172504   1.000000
    3        6.701659   1.000000
    4        7.415888   0.963529
    5        8.417282  -0.000000
    6        9.490802  -0.000000
    7       17.621580   0.000000
    8       27.006432   0.000000
 
 -0.3750000E+00  0.4750000E+00  0.2500000E-01  0.6000000E-02
    1        2.464029   1.000000
    2        4.263142   1.000000
    3        5.969439   1.000000
    4        7.332908   1.033728
    5        8.207819  -0.000022
    6       10.039336  -0.000000
    7       18.355667   0.000000
    8       25.724760   0.000000
 
 -0.3250000E+00  0.4750000E+00  0.2500000E-01  0.6000000E-02
    1        2.774263   1.000000
    2        4.309090   1.000000
    3        5.342063   1.000000
    4        7.243133   1.024251
    5        8.058943  -0.001134
    6       10.431514  -0.000000
    7       19.385282   0.000000
    8       24.076098   0.000000
 
 -0.2750000E+00  0.4750000E+00  0.2500000E-01  0.6000000E-02
    1        3.067879   1.000000
    2        4.222958   1.000000
    3        5.009255   1.000000
    4        7.178695   1.011005
    5        7.982434  -0.005283
    6       10.629394  -0.000000
    7       20.600985   0.000000
    8       22.504880   0.000000
 
 -0.4750000E+00 -0.4750000E+00  0.2500000E-01  0.3000000E-02
    1        2.237773   1.000000
    2        4.141801   1.000000
    3        6.858915   1.000004
    4        7.409264   0.974225
    5        8.568650  -0.000000
    6        9.728538  -0.000000
    7       17.031368   0.000000
    8       26.873309   0.000000
 
 -0.4250000E+00 -0.4750000E+00  0.2500000E-01  0.6000000E-02
    1        2.458767   1.000000
    2        4.208718   1.000000
    3        6.219732   1.000000
    4        7.357094   1.025598
    5        8.385838  -0.000000
    6       10.627325  -0.000000
    7       17.205640   0.000000
    8       25.472313   0.000000
 
 -0.3750000E+00 -0.4750000E+00  0.2500000E-01  0.6000000E-02
    1        2.780291   1.000000
    2        4.264305   1.000000
    3        5.587850   1.000000
    4        7.325068   1.034856
    5        8.201189  -0.000027
    6       11.351519  -0.000000
    7       17.755561   0.000000
    8       23.703226   0.000000
 
 -0.3250000E+00 -0.4750000E+00  0.2500000E-01  0.6000000E-02
    1        3.154175   1.000000
    2        4.226384   1.000000
    3        5.105967   1.000000
    4        7.316841   1.035402
    5        8.052193  -0.001317
    6       11.796492  -0.000000
    7       18.683900   0.000000
    8       21.974455   0.000000
 
 -0.2750000E+00 -0.4750000E+00  0.2500000E-01  0.3000000E-02
    1        3.382891   1.000000
    2        4.116666   1.000000
    3        4.941080   1.000000
    4        7.316421   1.035413
    5        7.992858  -0.004375
    6       11.944141  -0.000000
    7       19.525329   0.000000
    8       20.857120   0.000000
 
 -0.4250000E+00 -0.4250000E+00  0.2500000E-01  0.3000000E-02
    1        2.768717   1.000000
    2        4.249995   1.000000
    3        5.680333   1.000000
    4        7.345506   1.030459
    5        8.266519  -0.000003
    6       11.800808  -0.000000
    7       17.053114   0.000000
    8       23.574955   0.000000
 
 -0.3750000E+00 -0.4250000E+00  0.2500000E-01  0.6000000E-02
    1        3.145016   1.000000
    2        4.256019   1.000000
    3        5.172108   1.000000
    4        7.391828   0.997542
    5        8.111850  -0.000320
    6       12.779919  -0.000000
    7       17.294580   0.000000
    8       21.713616   0.000000
 
 -0.3250000E+00 -0.4250000E+00  0.2500000E-01  0.6000000E-02
    1        3.501587   1.000000
    2        4.169304   1.000000
    3        4.836707   1.000000
    4        7.462489   0.857562
    5        7.980755  -0.005443
    6       13.319917   0.000000
    7       17.925161   0.000000
    8       20.195039   0.000000
 
 -0.3750000E+00 -0.3750000E+00  0.2500000E-01  0.3000000E-02
    1        3.511926   1.000000
    2        4.243026   1.000000
    3        4.770205   1.000000
    4        7.529777   0.618170
    5        7.969077  -0.006659
    6       14.165936   0.000000
    7       16.944945   0.000000
    8       20.023164   0.000000
 
 -0.3250000E+00 -0.3750000E+00  0.2500000E-01  0.3000000E-02
    1        3.717213   1.000000
    2        4.245030   1.000000
    3        4.548369   1.000000
    4        7.642610   0.175083
    5        7.854980  -0.028322
    6       14.917197   0.000000
    7       16.752839   0.000000
    8       19.255526   0.000000
 
  0.7500000E-01  0.7500000E-01  0.7500000E-01  0.1000000E-02
    1       -0.263611   1.000000
    2        5.119904   1.000000
    3        5.119904   1.000000
    4        6.666565   1.000000
    5        7.366967   1.019836
    6        7.366967   1.019836
    7       29.880032   0.000000
    8       29.880032   0.000000
 
  0.1250000E+00  0.7500000E-01  0.7500000E-01  0.3000000E-02
    1        0.433331   1.000000
    2        4.889639   1.000000
    3        4.963046   1.000000
    4        7.204888   1.015787
    5        7.300825   1.034927
    6        7.459890   0.864901
    7       27.883077   0.000000
    8       28.933396   0.000000
 
  0.1750000E+00  0.7500000E-01  0.7500000E-01  0.3000000E-02
    1        1.214747   1.000000
    2        4.653476   1.000000
    3        4.840616   1.000000
    4        7.293000   1.034110
    5        7.546390   0.549093
    6        7.827863  -0.033453
    7       25.682996   0.000000
    8       27.994802   0.000000
 
  0.2250000E+00  0.7500000E-01  0.7500000E-01  0.3000000E-02
    1        1.928121   1.000000
    2        4.438962   1.000000
    3        4.881621   1.000000
    4        7.338207   1.032587
    5        7.620872   0.248028
    6        8.514849  -0.000000
    7       23.402412   0.000000
    8       27.152144   0.000000
 
  0.2750000E+00  0.7500000E-01  0.7500000E-01  0.3000000E-02
    1        2.367003   1.000000
    2        4.255875   1.000000
    3        5.250645   1.000000
    4        7.411497   0.970736
    5        7.687718   0.059400
    6        9.252505  -0.000000
    7       21.190758   0.000000
    8       26.435468   0.000000
 
  0.3250000E+00  0.7500000E-01  0.7500000E-01  0.3000000E-02
    1        2.504982   1.000000
    2        4.120055   1.000000
    3        5.877190   1.000000
    4        7.484926   0.787556
    5        7.740963  -0.013868
    6       10.017058  -0.000000
    7       19.193772   0.000000
    8       25.898686   0.000000
 
  0.3750000E+00  0.7500000E-01  0.7500000E-01  0.3000000E-02
    1        2.509393   1.000000
    2        4.035298   1.000000
    3        6.439042   1.000000
    4        7.530698   0.614394
    5        7.778506  -0.032753
    6       10.713377  -0.000000
    7       17.665516   0.000000
    8       25.558027   0.000000
 
  0.4250000E+00  0.7500000E-01  0.7500000E-01  0.1500000E-02
    1        2.498896   1.000000
    2        4.006595   1.000000
    3        6.660251   1.000000
    4        7.543805   0.559956
    5        7.783367  -0.033774
    6       11.039139  -0.000000
    7       17.038581   0.000000
    8       25.442613   0.000000
 
 -0.7500000E-01  0.7500000E-01  0.7500000E-01  0.7500000E-03
    1       -1.244978   1.000000
    2        5.532680   1.000000
    3        5.532708   1.000000
    4        5.703145   1.000000
    5        7.176233   1.010610
    6        7.595154   0.345809
    7       32.028780   0.000000
    8       33.905788   0.000000
 
  0.1250000E+00  0.1250000E+00  0.7500000E-01  0.3000000E-02
    1        1.162602   1.000000
    2        4.700064   1.000000
    3        4.719324   1.000000
    4        7.326315   1.034719
    5        7.512950   0.685418
    6        7.840076  -0.031389
    7       26.586612   0.000000
    8       27.322808   0.000000
 
  0.1750000E+00  0.1250000E+00  0.7500000E-01  0.6000000E-02
    1        1.926201   1.000000
    2        4.480994   1.000000
    3        4.598986   1.000000
    4        7.346811   1.030006
    5        7.604471   0.309179
    6        8.560749  -0.000000
    7       24.640826   0.000000
    8       26.236217   0.000000
 
  0.2250000E+00  0.1250000E+00  0.7500000E-01  0.6000000E-02
    1        2.530291   1.000000
    2        4.289387   1.000000
    3        4.705246   1.000000
    4        7.402098   0.984637
    5        7.686357   0.062144
    6        9.359994  -0.000000
    7       22.456489   0.000000
    8       25.434779   0.000000
 
  0.2750000E+00  0.1250000E+00  0.7500000E-01  0.6000000E-02
    1        2.789039   1.000000
    2        4.143299   1.000000
    3        5.141997   1.000000
    4        7.475246   0.819177
    5        7.747706  -0.018919
    6       10.228241  -0.000000
    7       20.323976   0.000000
    8       24.808823   0.000000
 
  0.3250000E+00  0.1250000E+00  0.7500000E-01  0.6000000E-02
    1        2.814632   1.000000
    2        4.044685   1.000000
    3        5.688937   1.000000
    4        7.541057   0.571464
    5        7.794805  -0.035187
    6       11.124298  -0.000000
    7       18.471149   0.000000
    8       24.371671   0.000000
 