 running on    1 total cores
 distrk:  each k-point on    1 cores,    1 groups
 distr:  one band on    1 cores,    1 groups
 using from now: INCAR     
 vasp.5.4.4.18Apr17-6-g9f103f2a35 (build May 20 2018 16:52:39) complex          
  
 POSCAR found type information on POSCAR  Fe
 POSCAR found :  1 types and       1 ions
 scaLAPACK will be used
 LDA part: xc-table for Ceperly-Alder, standard interpolation
 POSCAR, INCAR and KPOINTS ok, starting setup
 FFT: planning ...
 WAVECAR not read
 WARNING: random wavefunctions but no delay for mixing, default for NELMDL
 entering main loop
       N       E                     dE             d eps       ncg     rms          rms(c)
DAV:   1     0.365174903184E+01    0.36517E+01   -0.30652E+03  4176   0.783E+02
DAV:   2    -0.103499137713E+02   -0.14002E+02   -0.13576E+02  4152   0.105E+02
DAV:   3    -0.104156460878E+02   -0.65732E-01   -0.65707E-01  5096   0.915E+00
DAV:   4    -0.104159414322E+02   -0.29534E-03   -0.29534E-03  4456   0.492E-01
DAV:   5    -0.104159441705E+02   -0.27382E-05   -0.27390E-05  5056   0.390E-02    0.848E+00
DAV:   6    -0.907324403979E+01    0.13427E+01   -0.11381E+01  4128   0.564E+01    0.894E-01
DAV:   7    -0.900359578273E+01    0.69648E-01   -0.33150E-01  4072   0.959E+00    0.646E-01
DAV:   8    -0.898075409146E+01    0.22842E-01   -0.27563E-02  5880   0.139E+00    0.142E-01
DAV:   9    -0.898047208271E+01    0.28201E-03   -0.18504E-03  4280   0.680E-01    0.263E-02
DAV:  10    -0.898048879337E+01   -0.16711E-04   -0.13204E-05  4776   0.590E-02    0.695E-03
DAV:  11    -0.898048768572E+01    0.11076E-05   -0.12581E-06  2224   0.145E-02    0.669E-04
DAV:  12    -0.898048758203E+01    0.10369E-06   -0.65861E-08  2032   0.302E-03
   1 F= -.89804876E+01 E0= -.89809213E+01  d E =-.898049E+01
 curvature:   0.00 expect dE= 0.000E+00 dE for cont linesearch  0.000E+00
 trial: gam= 0.00000 g(F)=  0.305E-62 g(S)=  0.177E-01 ort = 0.000E+00 (trialstep = 0.100E+01)
 search vector abs. value=  0.177E-01
 bond charge predicted
       N       E                     dE             d eps       ncg     rms          rms(c)
DAV:   1    -0.914275346117E+01   -0.16227E+00   -0.49021E+00  4000   0.396E+01    0.314E+00
DAV:   2    -0.898749823785E+01    0.15526E+00   -0.16665E+00  4080   0.186E+01    0.600E-01
DAV:   3    -0.897117618387E+01    0.16322E-01   -0.85241E-02  4080   0.469E+00    0.335E-01
DAV:   4    -0.896727758079E+01    0.38986E-02   -0.49374E-03  4656   0.550E-01    0.318E-02
DAV:   5    -0.896727722130E+01    0.35949E-06   -0.26712E-05  4168   0.624E-02    0.198E-02
DAV:   6    -0.896727284826E+01    0.43730E-05   -0.50314E-06  3144   0.220E-02    0.199E-03
DAV:   7    -0.896727289424E+01   -0.45976E-07   -0.17482E-07  2008   0.418E-03
   2 F= -.89672729E+01 E0= -.89676663E+01  d E =0.132147E-01
 trial-energy change:    0.013215  1 .order    0.013115   -0.017728    0.043959
 step:   0.2854(harm=  0.2874)  dis= 0.00000  next Energy=    -8.983015 (dE=-0.253E-02)
 bond charge predicted
       N       E                     dE             d eps       ncg     rms          rms(c)
DAV:   1    -0.907138424574E+01   -0.10411E+00   -0.24340E+00  4000   0.275E+01    0.221E+00
DAV:   2    -0.899184705670E+01    0.79537E-01   -0.76333E-01  4096   0.135E+01    0.387E-01
DAV:   3    -0.898490457630E+01    0.69425E-02   -0.32675E-02  4104   0.300E+00    0.244E-01
DAV:   4    -0.898297696711E+01    0.19276E-02   -0.26720E-03  4776   0.396E-01    0.296E-02
DAV:   5    -0.898297036525E+01    0.66019E-05   -0.26655E-05  4320   0.731E-02    0.142E-02
DAV:   6    -0.898296633280E+01    0.40324E-05   -0.33077E-06  2432   0.194E-02    0.809E-04
DAV:   7    -0.898296621939E+01    0.11341E-06   -0.86546E-08  2016   0.380E-03
   3 F= -.89829662E+01 E0= -.89833952E+01  d E =-.247864E-02
 curvature:  -0.14 expect dE=-0.379E-06 dE for cont linesearch -0.379E-06
 trial: gam= 0.00000 g(F)=  0.124E-61 g(S)=  0.264E-05 ort =-0.216E-03 (trialstep = 0.857E+00)
 search vector abs. value=  0.264E-05
 reached required accuracy - stopping structural energy minimisation
