 running on    1 total cores
 distrk:  each k-point on    1 cores,    1 groups
 distr:  one band on    1 cores,    1 groups
 using from now: INCAR     
 vasp.5.4.4.18Apr17-6-g9f103f2a35 (build May 20 2018 16:52:39) complex          
  
 POSCAR found type information on POSCAR  Fe
 POSCAR found :  1 types and       1 ions
 scaLAPACK will be used
 LDA part: xc-table for Ceperly-Alder, standard interpolation
 POSCAR, INCAR and KPOINTS ok, starting setup
 FFT: planning ...
 WAVECAR not read
 WARNING: random wavefunctions but no delay for mixing, default for NELMDL
 entering main loop
       N       E                     dE             d eps       ncg     rms          rms(c)
DAV:   1     0.302117727814E+01    0.30212E+01   -0.30281E+03  4216   0.777E+02
DAV:   2    -0.103930986911E+02   -0.13414E+02   -0.12959E+02  4104   0.102E+02
DAV:   3    -0.104606453413E+02   -0.67547E-01   -0.67514E-01  5104   0.920E+00
DAV:   4    -0.104609593734E+02   -0.31403E-03   -0.31403E-03  4376   0.516E-01
DAV:   5    -0.104609622946E+02   -0.29212E-05   -0.29217E-05  5096   0.407E-02    0.857E+00
DAV:   6    -0.908929724945E+01    0.13717E+01   -0.12444E+01  4128   0.583E+01    0.112E+00
DAV:   7    -0.901018641836E+01    0.79111E-01   -0.45341E-01  4080   0.110E+01    0.656E-01
DAV:   8    -0.898829236790E+01    0.21894E-01   -0.32319E-02  5816   0.158E+00    0.159E-01
DAV:   9    -0.898790717304E+01    0.38519E-03   -0.25403E-03  4224   0.790E-01    0.256E-02
DAV:  10    -0.898792236287E+01   -0.15190E-04   -0.13254E-05  4848   0.580E-02    0.787E-03
DAV:  11    -0.898792127173E+01    0.10911E-05   -0.15272E-06  2264   0.166E-02    0.815E-04
DAV:  12    -0.898792114261E+01    0.12912E-06   -0.93737E-08  2112   0.377E-03
   1 F= -.89879211E+01 E0= -.89883540E+01  d E =-.898792E+01
 curvature:   0.00 expect dE= 0.000E+00 dE for cont linesearch  0.000E+00
 trial: gam= 0.00000 g(F)=  0.317E-62 g(S)=  0.176E-01 ort = 0.000E+00 (trialstep = 0.100E+01)
 search vector abs. value=  0.176E-01
 bond charge predicted
       N       E                     dE             d eps       ncg     rms          rms(c)
DAV:   1    -0.914912078484E+01   -0.16120E+00   -0.48381E+00  4000   0.399E+01    0.308E+00
DAV:   2    -0.899107046338E+01    0.15805E+00   -0.13949E+00  4104   0.193E+01    0.497E-01
DAV:   3    -0.897908933300E+01    0.11981E-01   -0.48366E-02  4152   0.386E+00    0.344E-01
DAV:   4    -0.897533538256E+01    0.37540E-02   -0.53702E-03  4816   0.579E-01    0.451E-02
DAV:   5    -0.897531718563E+01    0.18197E-04   -0.66461E-05  4384   0.123E-01    0.202E-02
DAV:   6    -0.897530970280E+01    0.74828E-05   -0.68485E-06  3208   0.290E-02    0.859E-04
DAV:   7    -0.897530957080E+01    0.13200E-06   -0.10949E-07  2016   0.451E-03
   2 F= -.89753096E+01 E0= -.89757554E+01  d E =0.126116E-01
 trial-energy change:    0.012612  1 .order    0.012837   -0.017635    0.043308
 step:   0.2940(harm=  0.2894)  dis= 0.00000  next Energy=    -8.990519 (dE=-0.260E-02)
 bond charge predicted
       N       E                     dE             d eps       ncg     rms          rms(c)
DAV:   1    -0.907901440633E+01   -0.10370E+00   -0.24887E+00  4000   0.292E+01    0.223E+00
DAV:   2    -0.900002553158E+01    0.78989E-01   -0.80105E-01  4080   0.136E+01    0.398E-01
DAV:   3    -0.899250759345E+01    0.75179E-02   -0.36401E-02  4104   0.322E+00    0.238E-01
DAV:   4    -0.899056601753E+01    0.19416E-02   -0.25278E-03  4648   0.415E-01    0.231E-02
DAV:   5    -0.899056368520E+01    0.23323E-05   -0.13166E-05  4152   0.423E-02    0.141E-02
DAV:   6    -0.899056142174E+01    0.22635E-05   -0.24863E-06  2472   0.157E-02    0.111E-03
DAV:   7    -0.899056146662E+01   -0.44882E-07   -0.94208E-08  2000   0.341E-03
   3 F= -.89905615E+01 E0= -.89910054E+01  d E =-.264032E-02
 curvature:  -0.14 expect dE=-0.423E-06 dE for cont linesearch -0.423E-06
 trial: gam=-0.01271 g(F)=  0.938E-63 g(S)=  0.292E-05 ort = 0.227E-03 (trialstep = 0.859E+00)
 search vector abs. value=  0.584E-09
 reached required accuracy - stopping structural energy minimisation
