<?xml version="1.0" encoding="ISO-8859-1"?>
<modeling>
 <generator>
  <i name="program" type="string">vasp </i>
  <i name="version" type="string">5.4.4.18Apr17-6-g9f103f2a35  </i>
  <i name="subversion" type="string">(build May 20 2018 16:52:39) complex            parallel </i>
  <i name="platform" type="string">LinuxIFC </i>
  <i name="date" type="string">2022 10 30 </i>
  <i name="time" type="string">23:08:33 </i>
 </generator>
 <incar>
  <i type="string" name="SYSTEM"> bcc Fe</i>
  <i type="string" name="PREC">normal</i>
  <i type="int" name="IBRION">     2</i>
  <i name="EDIFF">      0.00000100</i>
  <i type="int" name="NSW">    50</i>
  <i type="int" name="ISIF">     3</i>
  <i type="logical" name="LWAVE"> F  </i>
  <v type="int" name="KPOINT_BSE">    -1     0     0     0</v>
 </incar>
 <structure name="primitive_cell" >
  <crystal>
   <varray name="basis" >
    <v>      -1.33500000       1.33500000       1.33500000 </v>
    <v>       1.33500000      -1.33500000       1.33500000 </v>
    <v>       1.33500000       1.33500000      -1.33500000 </v>
   </varray>
   <i name="volume">      9.51708150 </i>
   <varray name="rec_basis" >
    <v>       0.00000000       0.37453184       0.37453184 </v>
    <v>       0.37453184       0.00000000       0.37453184 </v>
    <v>       0.37453184       0.37453184       0.00000000 </v>
   </varray>
  </crystal>
  <varray name="positions" >
   <v>       0.00000000       0.00000000       0.00000000 </v>
  </varray>
 </structure>
 <varray name="primitive_index" >
  <v type="int" >        1 </v>
 </varray>
 <kpoints>
  <generation param="Monkhorst-Pack">
   <v type="int" name="divisions">      20       20       20 </v>
   <v name="usershift">      0.00000000       0.00000000       0.00000000 </v>
   <v name="genvec1">      0.05000000       0.00000000       0.00000000 </v>
   <v name="genvec2">      0.00000000       0.05000000       0.00000000 </v>
   <v name="genvec3">      0.00000000       0.00000000       0.05000000 </v>
   <v name="shift">      0.50000000       0.50000000       0.50000000 </v>
  </generation>
  <varray name="kpointlist" >
   <v>       0.02500000       0.02500000       0.02500000 </v>
   <v>       0.07500000       0.02500000       0.02500000 </v>
   <v>       0.12500000       0.02500000       0.02500000 </v>
   <v>       0.17500000       0.02500000       0.02500000 </v>
   <v>       0.22500000       0.02500000       0.02500000 </v>
   <v>       0.27500000       0.02500000       0.02500000 </v>
   <v>       0.32500000       0.02500000       0.02500000 </v>
   <v>       0.37500000       0.02500000       0.02500000 </v>
   <v>       0.42500000       0.02500000       0.02500000 </v>
   <v>       0.47500000       0.02500000       0.02500000 </v>
   <v>      -0.02500000       0.02500000       0.02500000 </v>
   <v>       0.07500000       0.07500000       0.02500000 </v>
   <v>       0.12500000       0.07500000       0.02500000 </v>
   <v>       0.17500000       0.07500000       0.02500000 </v>
   <v>       0.22500000       0.07500000       0.02500000 </v>
   <v>       0.27500000       0.07500000       0.02500000 </v>
   <v>       0.32500000       0.07500000       0.02500000 </v>
   <v>       0.37500000       0.07500000       0.02500000 </v>
   <v>       0.42500000       0.07500000       0.02500000 </v>
   <v>      -0.07500000       0.07500000       0.02500000 </v>
   <v>       0.12500000       0.12500000       0.02500000 </v>
   <v>       0.17500000       0.12500000       0.02500000 </v>
   <v>       0.22500000       0.12500000       0.02500000 </v>
   <v>       0.27500000       0.12500000       0.02500000 </v>
   <v>       0.32500000       0.12500000       0.02500000 </v>
   <v>       0.37500000       0.12500000       0.02500000 </v>
   <v>       0.42500000       0.12500000       0.02500000 </v>
   <v>      -0.12500000       0.12500000       0.02500000 </v>
   <v>      -0.07500000       0.12500000       0.02500000 </v>
   <v>       0.17500000       0.17500000       0.02500000 </v>
   <v>       0.22500000       0.17500000       0.02500000 </v>
   <v>       0.27500000       0.17500000       0.02500000 </v>
   <v>       0.32500000       0.17500000       0.02500000 </v>
   <v>       0.37500000       0.17500000       0.02500000 </v>
   <v>      -0.17500000       0.17500000       0.02500000 </v>
   <v>      -0.12500000       0.17500000       0.02500000 </v>
   <v>       0.22500000       0.22500000       0.02500000 </v>
   <v>       0.27500000       0.22500000       0.02500000 </v>
   <v>       0.32500000       0.22500000       0.02500000 </v>
   <v>       0.37500000       0.22500000       0.02500000 </v>
   <v>      -0.22500000       0.22500000       0.02500000 </v>
   <v>      -0.17500000       0.22500000       0.02500000 </v>
   <v>      -0.12500000       0.22500000       0.02500000 </v>
   <v>       0.27500000       0.27500000       0.02500000 </v>
   <v>       0.32500000       0.27500000       0.02500000 </v>
   <v>      -0.27500000       0.27500000       0.02500000 </v>
   <v>      -0.22500000       0.27500000       0.02500000 </v>
   <v>      -0.17500000       0.27500000       0.02500000 </v>
   <v>       0.32500000       0.32500000       0.02500000 </v>
   <v>      -0.32500000       0.32500000       0.02500000 </v>
   <v>      -0.27500000       0.32500000       0.02500000 </v>
   <v>      -0.22500000       0.32500000       0.02500000 </v>
   <v>      -0.17500000       0.32500000       0.02500000 </v>
   <v>      -0.37500000       0.37500000       0.02500000 </v>
   <v>      -0.32500000       0.37500000       0.02500000 </v>
   <v>      -0.27500000       0.37500000       0.02500000 </v>
   <v>      -0.22500000       0.37500000       0.02500000 </v>
   <v>      -0.42500000       0.42500000       0.02500000 </v>
   <v>      -0.37500000       0.42500000       0.02500000 </v>
   <v>      -0.32500000       0.42500000       0.02500000 </v>
   <v>      -0.27500000       0.42500000       0.02500000 </v>
   <v>      -0.22500000       0.42500000       0.02500000 </v>
   <v>      -0.47500000       0.47500000       0.02500000 </v>
   <v>      -0.42500000       0.47500000       0.02500000 </v>
   <v>      -0.37500000       0.47500000       0.02500000 </v>
   <v>      -0.32500000       0.47500000       0.02500000 </v>
   <v>      -0.27500000       0.47500000       0.02500000 </v>
   <v>      -0.47500000      -0.47500000       0.02500000 </v>
   <v>      -0.42500000      -0.47500000       0.02500000 </v>
   <v>      -0.37500000      -0.47500000       0.02500000 </v>
   <v>      -0.32500000      -0.47500000       0.02500000 </v>
   <v>      -0.27500000      -0.47500000       0.02500000 </v>
   <v>      -0.42500000      -0.42500000       0.02500000 </v>
   <v>      -0.37500000      -0.42500000       0.02500000 </v>
   <v>      -0.32500000      -0.42500000       0.02500000 </v>
   <v>      -0.37500000      -0.37500000       0.02500000 </v>
   <v>      -0.32500000      -0.37500000       0.02500000 </v>
   <v>       0.07500000       0.07500000       0.07500000 </v>
   <v>       0.12500000       0.07500000       0.07500000 </v>
   <v>       0.17500000       0.07500000       0.07500000 </v>
   <v>       0.22500000       0.07500000       0.07500000 </v>
   <v>       0.27500000       0.07500000       0.07500000 </v>
   <v>       0.32500000       0.07500000       0.07500000 </v>
   <v>       0.37500000       0.07500000       0.07500000 </v>
   <v>       0.42500000       0.07500000       0.07500000 </v>
   <v>      -0.07500000       0.07500000       0.07500000 </v>
   <v>       0.12500000       0.12500000       0.07500000 </v>
   <v>       0.17500000       0.12500000       0.07500000 </v>
   <v>       0.22500000       0.12500000       0.07500000 </v>
   <v>       0.27500000       0.12500000       0.07500000 </v>
   <v>       0.32500000       0.12500000       0.07500000 </v>
   <v>       0.37500000       0.12500000       0.07500000 </v>
   <v>      -0.12500000       0.12500000       0.07500000 </v>
   <v>       0.17500000       0.17500000       0.07500000 </v>
   <v>       0.22500000       0.17500000       0.07500000 </v>
   <v>       0.27500000       0.17500000       0.07500000 </v>
   <v>       0.32500000       0.17500000       0.07500000 </v>
   <v>       0.37500000       0.17500000       0.07500000 </v>
   <v>      -0.17500000       0.17500000       0.07500000 </v>
   <v>      -0.12500000       0.17500000       0.07500000 </v>
   <v>       0.22500000       0.22500000       0.07500000 </v>
   <v>       0.27500000       0.22500000       0.07500000 </v>
   <v>       0.32500000       0.22500000       0.07500000 </v>
   <v>      -0.22500000       0.22500000       0.07500000 </v>
   <v>      -0.17500000       0.22500000       0.07500000 </v>
   <v>       0.27500000       0.27500000       0.07500000 </v>
   <v>       0.32500000       0.27500000       0.07500000 </v>
   <v>      -0.27500000       0.27500000       0.07500000 </v>
   <v>      -0.22500000       0.27500000       0.07500000 </v>
   <v>      -0.17500000       0.27500000       0.07500000 </v>
   <v>      -0.32500000       0.32500000       0.07500000 </v>
   <v>      -0.27500000       0.32500000       0.07500000 </v>
   <v>      -0.22500000       0.32500000       0.07500000 </v>
   <v>      -0.37500000       0.37500000       0.07500000 </v>
   <v>      -0.32500000       0.37500000       0.07500000 </v>
   <v>      -0.27500000       0.37500000       0.07500000 </v>
   <v>      -0.22500000       0.37500000       0.07500000 </v>
   <v>      -0.42500000       0.42500000       0.07500000 </v>
   <v>      -0.37500000       0.42500000       0.07500000 </v>
   <v>      -0.32500000       0.42500000       0.07500000 </v>
   <v>      -0.27500000       0.42500000       0.07500000 </v>
   <v>      -0.47500000       0.47500000       0.07500000 </v>
   <v>      -0.42500000       0.47500000       0.07500000 </v>
   <v>      -0.37500000       0.47500000       0.07500000 </v>
   <v>      -0.32500000       0.47500000       0.07500000 </v>
   <v>      -0.27500000       0.47500000       0.07500000 </v>
   <v>      -0.47500000      -0.47500000       0.07500000 </v>
   <v>      -0.42500000      -0.47500000       0.07500000 </v>
   <v>      -0.37500000      -0.47500000       0.07500000 </v>
   <v>      -0.32500000      -0.47500000       0.07500000 </v>
   <v>      -0.42500000      -0.42500000       0.07500000 </v>
   <v>      -0.37500000      -0.42500000       0.07500000 </v>
   <v>      -0.32500000      -0.42500000       0.07500000 </v>
   <v>      -0.37500000      -0.37500000       0.07500000 </v>
   <v>       0.12500000       0.12500000       0.12500000 </v>
   <v>       0.17500000       0.12500000       0.12500000 </v>
   <v>       0.22500000       0.12500000       0.12500000 </v>
   <v>       0.27500000       0.12500000       0.12500000 </v>
   <v>       0.32500000       0.12500000       0.12500000 </v>
   <v>       0.37500000       0.12500000       0.12500000 </v>
   <v>      -0.12500000       0.12500000       0.12500000 </v>
   <v>       0.17500000       0.17500000       0.12500000 </v>
   <v>       0.22500000       0.17500000       0.12500000 </v>
   <v>       0.27500000       0.17500000       0.12500000 </v>
   <v>       0.32500000       0.17500000       0.12500000 </v>
   <v>      -0.17500000       0.17500000       0.12500000 </v>
   <v>       0.22500000       0.22500000       0.12500000 </v>
   <v>       0.27500000       0.22500000       0.12500000 </v>
   <v>       0.32500000       0.22500000       0.12500000 </v>
   <v>      -0.22500000       0.22500000       0.12500000 </v>
   <v>      -0.17500000       0.22500000       0.12500000 </v>
   <v>       0.27500000       0.27500000       0.12500000 </v>
   <v>      -0.27500000       0.27500000       0.12500000 </v>
   <v>      -0.22500000       0.27500000       0.12500000 </v>
   <v>      -0.32500000       0.32500000       0.12500000 </v>
   <v>      -0.27500000       0.32500000       0.12500000 </v>
   <v>      -0.22500000       0.32500000       0.12500000 </v>
   <v>      -0.37500000       0.37500000       0.12500000 </v>
   <v>      -0.32500000       0.37500000       0.12500000 </v>
   <v>      -0.27500000       0.37500000       0.12500000 </v>
   <v>      -0.42500000       0.42500000       0.12500000 </v>
   <v>      -0.37500000       0.42500000       0.12500000 </v>
   <v>      -0.32500000       0.42500000       0.12500000 </v>
   <v>      -0.27500000       0.42500000       0.12500000 </v>
   <v>      -0.47500000       0.47500000       0.12500000 </v>
   <v>      -0.42500000       0.47500000       0.12500000 </v>
   <v>      -0.37500000       0.47500000       0.12500000 </v>
   <v>      -0.32500000       0.47500000       0.12500000 </v>
   <v>      -0.47500000      -0.47500000       0.12500000 </v>
   <v>      -0.42500000      -0.47500000       0.12500000 </v>
   <v>      -0.37500000      -0.47500000       0.12500000 </v>
   <v>      -0.32500000      -0.47500000       0.12500000 </v>
   <v>      -0.42500000      -0.42500000       0.12500000 </v>
   <v>      -0.37500000      -0.42500000       0.12500000 </v>
   <v>      -0.37500000      -0.37500000       0.12500000 </v>
   <v>       0.17500000       0.17500000       0.17500000 </v>
   <v>       0.22500000       0.17500000       0.17500000 </v>
   <v>       0.27500000       0.17500000       0.17500000 </v>
   <v>       0.32500000       0.17500000       0.17500000 </v>
   <v>      -0.17500000       0.17500000       0.17500000 </v>
   <v>       0.22500000       0.22500000       0.17500000 </v>
   <v>       0.27500000       0.22500000       0.17500000 </v>
   <v>      -0.22500000       0.22500000       0.17500000 </v>
   <v>       0.27500000       0.27500000       0.17500000 </v>
   <v>      -0.27500000       0.27500000       0.17500000 </v>
   <v>      -0.22500000       0.27500000       0.17500000 </v>
   <v>      -0.32500000       0.32500000       0.17500000 </v>
   <v>      -0.27500000       0.32500000       0.17500000 </v>
   <v>      -0.37500000       0.37500000       0.17500000 </v>
   <v>      -0.32500000       0.37500000       0.17500000 </v>
   <v>      -0.27500000       0.37500000       0.17500000 </v>
   <v>      -0.42500000       0.42500000       0.17500000 </v>
   <v>      -0.37500000       0.42500000       0.17500000 </v>
   <v>      -0.32500000       0.42500000       0.17500000 </v>
   <v>      -0.47500000       0.47500000       0.17500000 </v>
   <v>      -0.42500000       0.47500000       0.17500000 </v>
   <v>      -0.37500000       0.47500000       0.17500000 </v>
   <v>      -0.32500000       0.47500000       0.17500000 </v>
   <v>      -0.47500000      -0.47500000       0.17500000 </v>
   <v>      -0.42500000      -0.47500000       0.17500000 </v>
   <v>      -0.37500000      -0.47500000       0.17500000 </v>
   <v>      -0.42500000      -0.42500000       0.17500000 </v>
   <v>      -0.37500000      -0.42500000       0.17500000 </v>
   <v>       0.22500000       0.22500000       0.22500000 </v>
   <v>       0.27500000       0.22500000       0.22500000 </v>
   <v>      -0.22500000       0.22500000       0.22500000 </v>
   <v>      -0.27500000       0.27500000       0.22500000 </v>
   <v>      -0.32500000       0.32500000       0.22500000 </v>
   <v>      -0.27500000       0.32500000       0.22500000 </v>
   <v>      -0.37500000       0.37500000       0.22500000 </v>
   <v>      -0.32500000       0.37500000       0.22500000 </v>
   <v>      -0.42500000       0.42500000       0.22500000 </v>
   <v>      -0.37500000       0.42500000       0.22500000 </v>
   <v>      -0.32500000       0.42500000       0.22500000 </v>
   <v>      -0.47500000       0.47500000       0.22500000 </v>
   <v>      -0.42500000       0.47500000       0.22500000 </v>
   <v>      -0.37500000       0.47500000       0.22500000 </v>
   <v>      -0.47500000      -0.47500000       0.22500000 </v>
   <v>      -0.42500000      -0.47500000       0.22500000 </v>
   <v>      -0.37500000      -0.47500000       0.22500000 </v>
   <v>      -0.42500000      -0.42500000       0.22500000 </v>
   <v>      -0.27500000       0.27500000       0.27500000 </v>
   <v>      -0.32500000       0.32500000       0.27500000 </v>
   <v>      -0.37500000       0.37500000       0.27500000 </v>
   <v>      -0.32500000       0.37500000       0.27500000 </v>
   <v>      -0.42500000       0.42500000       0.27500000 </v>
   <v>      -0.37500000       0.42500000       0.27500000 </v>
   <v>      -0.47500000       0.47500000       0.27500000 </v>
   <v>      -0.42500000       0.47500000       0.27500000 </v>
   <v>      -0.37500000       0.47500000       0.27500000 </v>
   <v>      -0.47500000      -0.47500000       0.27500000 </v>
   <v>      -0.42500000      -0.47500000       0.27500000 </v>
   <v>      -0.42500000      -0.42500000       0.27500000 </v>
   <v>      -0.32500000       0.32500000       0.32500000 </v>
   <v>      -0.37500000       0.37500000       0.32500000 </v>
   <v>      -0.42500000       0.42500000       0.32500000 </v>
   <v>      -0.37500000       0.42500000       0.32500000 </v>
   <v>      -0.47500000       0.47500000       0.32500000 </v>
   <v>      -0.42500000       0.47500000       0.32500000 </v>
   <v>      -0.47500000      -0.47500000       0.32500000 </v>
   <v>      -0.42500000      -0.47500000       0.32500000 </v>
   <v>      -0.37500000       0.37500000       0.37500000 </v>
   <v>      -0.42500000       0.42500000       0.37500000 </v>
   <v>      -0.47500000       0.47500000       0.37500000 </v>
   <v>      -0.42500000       0.47500000       0.37500000 </v>
   <v>      -0.47500000      -0.47500000       0.37500000 </v>
   <v>      -0.42500000       0.42500000       0.42500000 </v>
   <v>      -0.47500000       0.47500000       0.42500000 </v>
   <v>      -0.47500000      -0.47500000       0.42500000 </v>
   <v>      -0.47500000       0.47500000       0.47500000 </v>
  </varray>
  <varray name="weights" >
   <v>       0.00100000 </v>
   <v>       0.00300000 </v>
   <v>       0.00300000 </v>
   <v>       0.00300000 </v>
   <v>       0.00300000 </v>
   <v>       0.00300000 </v>
   <v>       0.00300000 </v>
   <v>       0.00300000 </v>
   <v>       0.00300000 </v>
   <v>       0.00150000 </v>
   <v>       0.00075000 </v>
   <v>       0.00300000 </v>
   <v>       0.00600000 </v>
   <v>       0.00600000 </v>
   <v>       0.00600000 </v>
   <v>       0.00600000 </v>
   <v>       0.00600000 </v>
   <v>       0.00600000 </v>
   <v>       0.00600000 </v>
   <v>       0.00300000 </v>
   <v>       0.00300000 </v>
   <v>       0.00600000 </v>
   <v>       0.00600000 </v>
   <v>       0.00600000 </v>
   <v>       0.00600000 </v>
   <v>       0.00600000 </v>
   <v>       0.00300000 </v>
   <v>       0.00300000 </v>
   <v>       0.00300000 </v>
   <v>       0.00300000 </v>
   <v>       0.00600000 </v>
   <v>       0.00600000 </v>
   <v>       0.00600000 </v>
   <v>       0.00600000 </v>
   <v>       0.00300000 </v>
   <v>       0.00600000 </v>
   <v>       0.00300000 </v>
   <v>       0.00600000 </v>
   <v>       0.00600000 </v>
   <v>       0.00300000 </v>
   <v>       0.00300000 </v>
   <v>       0.00600000 </v>
   <v>       0.00300000 </v>
   <v>       0.00300000 </v>
   <v>       0.00600000 </v>
   <v>       0.00300000 </v>
   <v>       0.00600000 </v>
   <v>       0.00600000 </v>
   <v>       0.00100000 </v>
   <v>       0.00300000 </v>
   <v>       0.00600000 </v>
   <v>       0.00600000 </v>
   <v>       0.00300000 </v>
   <v>       0.00300000 </v>
   <v>       0.00600000 </v>
   <v>       0.00600000 </v>
   <v>       0.00600000 </v>
   <v>       0.00300000 </v>
   <v>       0.00600000 </v>
   <v>       0.00600000 </v>
   <v>       0.00600000 </v>
   <v>       0.00300000 </v>
   <v>       0.00300000 </v>
   <v>       0.00600000 </v>
   <v>       0.00600000 </v>
   <v>       0.00600000 </v>
   <v>       0.00600000 </v>
   <v>       0.00300000 </v>
   <v>       0.00600000 </v>
   <v>       0.00600000 </v>
   <v>       0.00600000 </v>
   <v>       0.00300000 </v>
   <v>       0.00300000 </v>
   <v>       0.00600000 </v>
   <v>       0.00600000 </v>
   <v>       0.00300000 </v>
   <v>       0.00300000 </v>
   <v>       0.00100000 </v>
   <v>       0.00300000 </v>
   <v>       0.00300000 </v>
   <v>       0.00300000 </v>
   <v>       0.00300000 </v>
   <v>       0.00300000 </v>
   <v>       0.00300000 </v>
   <v>       0.00150000 </v>
   <v>       0.00075000 </v>
   <v>       0.00300000 </v>
   <v>       0.00600000 </v>
   <v>       0.00600000 </v>
   <v>       0.00600000 </v>
   <v>       0.00600000 </v>
   <v>       0.00600000 </v>
   <v>       0.00300000 </v>
   <v>       0.00300000 </v>
   <v>       0.00600000 </v>
   <v>       0.00600000 </v>
   <v>       0.00600000 </v>
   <v>       0.00300000 </v>
   <v>       0.00300000 </v>
   <v>       0.00300000 </v>
   <v>       0.00300000 </v>
   <v>       0.00600000 </v>
   <v>       0.00600000 </v>
   <v>       0.00300000 </v>
   <v>       0.00600000 </v>
   <v>       0.00300000 </v>
   <v>       0.00300000 </v>
   <v>       0.00300000 </v>
   <v>       0.00600000 </v>
   <v>       0.00300000 </v>
   <v>       0.00300000 </v>
   <v>       0.00600000 </v>
   <v>       0.00600000 </v>
   <v>       0.00300000 </v>
   <v>       0.00600000 </v>
   <v>       0.00600000 </v>
   <v>       0.00300000 </v>
   <v>       0.00300000 </v>
   <v>       0.00600000 </v>
   <v>       0.00600000 </v>
   <v>       0.00600000 </v>
   <v>       0.00300000 </v>
   <v>       0.00600000 </v>
   <v>       0.00600000 </v>
   <v>       0.00600000 </v>
   <v>       0.00300000 </v>
   <v>       0.00300000 </v>
   <v>       0.00600000 </v>
   <v>       0.00600000 </v>
   <v>       0.00600000 </v>
   <v>       0.00300000 </v>
   <v>       0.00600000 </v>
   <v>       0.00300000 </v>
   <v>       0.00300000 </v>
   <v>       0.00100000 </v>
   <v>       0.00300000 </v>
   <v>       0.00300000 </v>
   <v>       0.00300000 </v>
   <v>       0.00300000 </v>
   <v>       0.00150000 </v>
   <v>       0.00075000 </v>
   <v>       0.00300000 </v>
   <v>       0.00600000 </v>
   <v>       0.00600000 </v>
   <v>       0.00600000 </v>
   <v>       0.00300000 </v>
   <v>       0.00300000 </v>
   <v>       0.00600000 </v>
   <v>       0.00300000 </v>
   <v>       0.00300000 </v>
   <v>       0.00300000 </v>
   <v>       0.00300000 </v>
   <v>       0.00300000 </v>
   <v>       0.00600000 </v>
   <v>       0.00300000 </v>
   <v>       0.00600000 </v>
   <v>       0.00300000 </v>
   <v>       0.00300000 </v>
   <v>       0.00600000 </v>
   <v>       0.00600000 </v>
   <v>       0.00300000 </v>
   <v>       0.00600000 </v>
   <v>       0.00600000 </v>
   <v>       0.00300000 </v>
   <v>       0.00300000 </v>
   <v>       0.00600000 </v>
   <v>       0.00600000 </v>
   <v>       0.00600000 </v>
   <v>       0.00300000 </v>
   <v>       0.00600000 </v>
   <v>       0.00600000 </v>
   <v>       0.00300000 </v>
   <v>       0.00300000 </v>
   <v>       0.00600000 </v>
   <v>       0.00100000 </v>
   <v>       0.00100000 </v>
   <v>       0.00300000 </v>
   <v>       0.00300000 </v>
   <v>       0.00150000 </v>
   <v>       0.00075000 </v>
   <v>       0.00300000 </v>
   <v>       0.00600000 </v>
   <v>       0.00300000 </v>
   <v>       0.00100000 </v>
   <v>       0.00300000 </v>
   <v>       0.00300000 </v>
   <v>       0.00300000 </v>
   <v>       0.00600000 </v>
   <v>       0.00300000 </v>
   <v>       0.00600000 </v>
   <v>       0.00300000 </v>
   <v>       0.00300000 </v>
   <v>       0.00600000 </v>
   <v>       0.00600000 </v>
   <v>       0.00300000 </v>
   <v>       0.00600000 </v>
   <v>       0.00600000 </v>
   <v>       0.00300000 </v>
   <v>       0.00300000 </v>
   <v>       0.00600000 </v>
   <v>       0.00600000 </v>
   <v>       0.00300000 </v>
   <v>       0.00300000 </v>
   <v>       0.00100000 </v>
   <v>       0.00150000 </v>
   <v>       0.00075000 </v>
   <v>       0.00300000 </v>
   <v>       0.00300000 </v>
   <v>       0.00300000 </v>
   <v>       0.00300000 </v>
   <v>       0.00600000 </v>
   <v>       0.00300000 </v>
   <v>       0.00600000 </v>
   <v>       0.00300000 </v>
   <v>       0.00300000 </v>
   <v>       0.00600000 </v>
   <v>       0.00600000 </v>
   <v>       0.00300000 </v>
   <v>       0.00600000 </v>
   <v>       0.00300000 </v>
   <v>       0.00300000 </v>
   <v>       0.00075000 </v>
   <v>       0.00300000 </v>
   <v>       0.00300000 </v>
   <v>       0.00300000 </v>
   <v>       0.00300000 </v>
   <v>       0.00600000 </v>
   <v>       0.00300000 </v>
   <v>       0.00600000 </v>
   <v>       0.00300000 </v>
   <v>       0.00300000 </v>
   <v>       0.00600000 </v>
   <v>       0.00100000 </v>
   <v>       0.00075000 </v>
   <v>       0.00300000 </v>
   <v>       0.00300000 </v>
   <v>       0.00300000 </v>
   <v>       0.00300000 </v>
   <v>       0.00600000 </v>
   <v>       0.00300000 </v>
   <v>       0.00300000 </v>
   <v>       0.00075000 </v>
   <v>       0.00300000 </v>
   <v>       0.00300000 </v>
   <v>       0.00300000 </v>
   <v>       0.00300000 </v>
   <v>       0.00075000 </v>
   <v>       0.00300000 </v>
   <v>       0.00100000 </v>
   <v>       0.00075000 </v>
  </varray>
 </kpoints>
 <parameters>
  <separator name="general" >
   <i type="string" name="SYSTEM">bcc Fe</i>
   <i type="logical" name="LCOMPAT"> F  </i>
  </separator>
  <separator name="electronic" >
   <i type="string" name="PREC">normal</i>
   <i name="ENMAX">    267.96900000</i>
   <i name="ENAUG">    511.36800000</i>
   <i name="EDIFF">      0.00000100</i>
   <i type="int" name="IALGO">    38</i>
   <i type="int" name="IWAVPR">    11</i>
   <i type="int" name="NBANDS">     8</i>
   <i name="NELECT">      8.00000000</i>
   <i type="int" name="TURBO">     0</i>
   <i type="int" name="IRESTART">     0</i>
   <i type="int" name="NREBOOT">     0</i>
   <i type="int" name="NMIN">     0</i>
   <i name="EREF">      0.00000000</i>
   <separator name="electronic smearing" >
    <i type="int" name="ISMEAR">     1</i>
    <i name="SIGMA">      0.20000000</i>
    <i name="KSPACING">      0.50000000</i>
    <i type="logical" name="KGAMMA"> T  </i>
   </separator>
   <separator name="electronic projectors" >
    <i type="logical" name="LREAL"> F  </i>
    <v name="ROPT">      0.00000000</v>
    <i type="int" name="LMAXPAW">  -100</i>
    <i type="int" name="LMAXMIX">     2</i>
    <i type="logical" name="NLSPLINE"> F  </i>
   </separator>
   <separator name="electronic startup" >
    <i type="int" name="ISTART">     0</i>
    <i type="int" name="ICHARG">     2</i>
    <i type="int" name="INIWAV">     1</i>
   </separator>
   <separator name="electronic spin" >
    <i type="int" name="ISPIN">     1</i>
    <i type="logical" name="LNONCOLLINEAR"> F  </i>
    <v name="MAGMOM">      1.00000000</v>
    <i name="NUPDOWN">     -1.00000000</i>
    <i type="logical" name="LSORBIT"> F  </i>
    <v name="SAXIS">      0.00000000      0.00000000      1.00000000</v>
    <i type="logical" name="LSPIRAL"> F  </i>
    <v name="QSPIRAL">      0.00000000      0.00000000      0.00000000</v>
    <i type="logical" name="LZEROZ"> F  </i>
   </separator>
   <separator name="electronic exchange-correlation" >
    <i type="logical" name="LASPH"> F  </i>
    <i type="logical" name="LMETAGGA"> F  </i>
   </separator>
   <separator name="electronic convergence" >
    <i type="int" name="NELM">    60</i>
    <i type="int" name="NELMDL">     0</i>
    <i type="int" name="NELMIN">     2</i>
    <i name="ENINI">    267.96900000</i>
    <separator name="electronic convergence detail" >
     <i type="logical" name="LDIAG"> T  </i>
     <i type="logical" name="LSUBROT"> F  </i>
     <i name="WEIMIN">      0.00100000</i>
     <i name="EBREAK">      0.00000003</i>
     <i name="DEPER">      0.30000000</i>
     <i type="int" name="NRMM">     4</i>
     <i name="TIME">      0.40000000</i>
    </separator>
   </separator>
   <separator name="electronic mixer" >
    <i name="AMIX">      0.40000000</i>
    <i name="BMIX">      1.00000000</i>
    <i name="AMIN">      0.10000000</i>
    <i name="AMIX_MAG">      1.60000000</i>
    <i name="BMIX_MAG">      1.00000000</i>
    <separator name="electronic mixer details" >
     <i type="int" name="IMIX">     4</i>
     <i type="logical" name="MIXFIRST"> F  </i>
     <i type="int" name="MAXMIX">   -45</i>
     <i name="WC">    100.00000000</i>
     <i type="int" name="INIMIX">     1</i>
     <i type="int" name="MIXPRE">     1</i>
     <i type="int" name="MREMOVE">     5</i>
    </separator>
   </separator>
   <separator name="electronic dipolcorrection" >
    <i type="logical" name="LDIPOL"> F  </i>
    <i type="logical" name="LMONO"> F  </i>
    <i type="int" name="IDIPOL">     0</i>
    <i name="EPSILON">      1.00000000</i>
    <v name="DIPOL">   -100.00000000   -100.00000000   -100.00000000</v>
    <i name="EFIELD">      0.00000000</i>
   </separator>
  </separator>
  <separator name="grids" >
   <i type="int" name="NGX">    10</i>
   <i type="int" name="NGY">    10</i>
   <i type="int" name="NGZ">    10</i>
   <i type="int" name="NGXF">    20</i>
   <i type="int" name="NGYF">    20</i>
   <i type="int" name="NGZF">    20</i>
   <i type="logical" name="ADDGRID"> F  </i>
  </separator>
  <separator name="ionic" >
   <i type="int" name="NSW">    50</i>
   <i type="int" name="IBRION">     2</i>
   <i type="int" name="MDALGO">     0</i>
   <i type="int" name="ISIF">     3</i>
   <i name="PSTRESS">      0.00000000</i>
   <i name="EDIFFG">      0.00001000</i>
   <i type="int" name="NFREE">     1</i>
   <i name="POTIM">      0.50000000</i>
   <i name="SMASS">     -3.00000000</i>
   <i name="SCALEE">      1.00000000</i>
  </separator>
  <separator name="ionic md" >
   <i name="TEBEG">      0.00010000</i>
   <i name="TEEND">      0.00010000</i>
   <i type="int" name="NBLOCK">     1</i>
   <i type="int" name="KBLOCK">    50</i>
   <i type="int" name="NPACO">   256</i>
   <i name="APACO">     16.00000000</i>
  </separator>
  <separator name="symmetry" >
   <i type="int" name="ISYM">     2</i>
   <i name="SYMPREC">      0.00001000</i>
  </separator>
  <separator name="dos" >
   <i type="int" name="LORBIT">     0</i>
   <v name="RWIGS">     -1.00000000</v>
   <i type="int" name="NEDOS">   301</i>
   <i name="EMIN">     10.00000000</i>
   <i name="EMAX">    -10.00000000</i>
   <i name="EFERMI">      0.00000000</i>
  </separator>
  <separator name="writing" >
   <i type="int" name="NWRITE">     2</i>
   <i type="logical" name="LWAVE"> F  </i>
   <i type="logical" name="LDOWNSAMPLE"> F  </i>
   <i type="logical" name="LCHARG"> T  </i>
   <i type="logical" name="LPARD"> F  </i>
   <i type="logical" name="LVTOT"> F  </i>
   <i type="logical" name="LVHAR"> F  </i>
   <i type="logical" name="LELF"> F  </i>
   <i type="logical" name="LOPTICS"> F  </i>
   <v name="STM">      0.00000000      0.00000000      0.00000000      0.00000000      0.00000000      0.00000000      0.00000000</v>
  </separator>
  <separator name="performance" >
   <i type="int" name="NPAR">     1</i>
   <i type="int" name="NSIM">     4</i>
   <i type="int" name="NBLK">    -1</i>
   <i type="logical" name="LPLANE"> T  </i>
   <i type="logical" name="LSCALAPACK"> T  </i>
   <i type="logical" name="LSCAAWARE"> F  </i>
   <i type="logical" name="LSCALU"> F  </i>
   <i type="logical" name="LASYNC"> F  </i>
   <i type="logical" name="LORBITALREAL"> F  </i>
  </separator>
  <separator name="miscellaneous" >
   <i type="int" name="IDIOT">     3</i>
   <i type="int" name="ISPECIAL">     0</i>
   <i type="logical" name="LMUSIC"> F  </i>
   <v name="POMASS">     55.84700000</v>
   <v name="DARWINR">      0.00000000</v>
   <v name="DARWINV">      1.00000000</v>
   <i type="logical" name="LCORR"> T  </i>
  </separator>
  <i type="logical" name="GGA_COMPAT"> T  </i>
  <i type="logical" name="LBERRY"> F  </i>
  <i type="int" name="ICORELEVEL">     0</i>
  <i type="logical" name="LDAU"> F  </i>
  <i type="int" name="I_CONSTRAINED_M">     0</i>
  <separator name="electronic exchange-correlation" >
   <i type="string" name="GGA">--</i>
   <i type="int" name="VOSKOWN">     0</i>
   <i type="logical" name="LHFCALC"> F  </i>
   <i type="string" name="PRECFOCK"></i>
   <i type="logical" name="LSYMGRAD"> F  </i>
   <i type="logical" name="LHFONE"> F  </i>
   <i type="logical" name="LRHFCALC"> F  </i>
   <i type="logical" name="LTHOMAS"> F  </i>
   <i type="logical" name="LMODELHF"> F  </i>
   <i name="ENCUT4O">     -1.00000000</i>
   <i type="int" name="EXXOEP">     0</i>
   <i type="int" name="FOURORBIT">     0</i>
   <i name="AEXX">      0.00000000</i>
   <i name="HFALPHA">      0.00000000</i>
   <i name="MCALPHA">      0.00000000</i>
   <i name="ALDAX">      1.00000000</i>
   <i name="AGGAX">      1.00000000</i>
   <i name="ALDAC">      1.00000000</i>
   <i name="AGGAC">      1.00000000</i>
   <i type="int" name="NKREDX">     1</i>
   <i type="int" name="NKREDY">     1</i>
   <i type="int" name="NKREDZ">     1</i>
   <i type="logical" name="SHIFTRED"> F  </i>
   <i type="logical" name="ODDONLY"> F  </i>
   <i type="logical" name="EVENONLY"> F  </i>
   <i type="int" name="LMAXFOCK">     0</i>
   <i type="int" name="NMAXFOCKAE">     0</i>
   <i type="logical" name="LFOCKAEDFT"> F  </i>
   <i name="HFSCREEN">      0.00000000</i>
   <i name="HFSCREENC">      0.00000000</i>
   <i type="int" name="NBANDSGWLOW">     0</i>
  </separator>
  <separator name="vdW DFT" >
   <i type="logical" name="LUSE_VDW"> F  </i>
   <i name="Zab_VDW">     -0.84910000</i>
   <i name="PARAM1">      0.12340000</i>
   <i name="PARAM2">      1.00000000</i>
   <i name="PARAM3">      0.00000000</i>
  </separator>
  <separator name="model GW" >
   <i type="int" name="MODEL_GW">     0</i>
   <i name="MODEL_EPS0">      5.71024890</i>
   <i name="MODEL_ALPHA">      1.00000000</i>
  </separator>
  <separator name="linear response parameters" >
   <i type="logical" name="LEPSILON"> F  </i>
   <i type="logical" name="LRPA"> F  </i>
   <i type="logical" name="LNABLA"> F  </i>
   <i type="logical" name="LVEL"> F  </i>
   <i type="int" name="KINTER">     0</i>
   <i name="CSHIFT">      0.10000000</i>
   <i name="OMEGAMAX">     -1.00000000</i>
   <i name="DEG_THRESHOLD">      0.00200000</i>
   <i name="RTIME">     -0.10000000</i>
   <i name="WPLASMAI">      0.00000000</i>
   <v name="DFIELD">      0.00000000      0.00000000      0.00000000</v>
   <v name="WPLASMA">      0.00000000      0.00000000      0.00000000      0.00000000      0.00000000      0.00000000      0.00000000      0.00000000      0.00000000</v>
  </separator>
  <separator name="orbital magnetization" >
   <i type="logical" name="NUCIND"> F  </i>
   <v name="MAGPOS">      0.00000000      0.00000000      0.00000000</v>
   <i type="logical" name="LNICSALL"> T  </i>
   <i type="logical" name="ORBITALMAG"> F  </i>
   <i type="logical" name="LMAGBLOCH"> F  </i>
   <i type="logical" name="LCHIMAG"> F  </i>
   <i type="logical" name="LGAUGE"> T  </i>
   <i type="int" name="MAGATOM">     0</i>
   <v name="MAGDIPOL">      0.00000000      0.00000000      0.00000000</v>
   <v name="AVECCONST">      0.00000000      0.00000000      0.00000000</v>
  </separator>
  <separator name="response functions" >
   <i type="logical" name="LADDER"> F  </i>
   <i type="logical" name="LRPAFORCE"> F  </i>
   <i type="logical" name="LFXC"> F  </i>
   <i type="logical" name="LHARTREE"> T  </i>
   <i type="int" name="IBSE">     0</i>
   <v type="int" name="KPOINT">    -1     0     0     0</v>
   <i type="logical" name="LTCTE"> F  </i>
   <i type="logical" name="LTETE"> F  </i>
   <i type="logical" name="LTRIPLET"> F  </i>
   <i type="logical" name="LFXCEPS"> F  </i>
   <i type="logical" name="LFXHEG"> F  </i>
   <i type="int" name="NATURALO">     2</i>
   <i type="logical" name="L2ORDER"> F  </i>
   <i type="logical" name="LMP2LT"> F  </i>
   <i type="logical" name="LUSEW"> F  </i>
   <i name="ENCUTGW">     -2.00000000</i>
   <i name="ENCUTGWSOFT">     -2.00000000</i>
   <i name="ENCUTLF">     -1.00000000</i>
   <i type="int" name="LMAXMP2">    -1</i>
   <i name="SCISSOR">      0.00000000</i>
   <i type="int" name="NOMEGA">     0</i>
   <i type="int" name="NOMEGAR">     0</i>
   <i type="int" name="NBANDSGW">    -1</i>
   <i type="int" name="NBANDSO">    -1</i>
   <i type="int" name="NBANDSV">    -1</i>
   <i type="int" name="NELM">     1</i>
   <i type="int" name="NELMHF">     1</i>
   <i type="int" name="DIM">     3</i>
   <i type="int" name="ANTIRES">     0</i>
   <i name="OMEGAMAX">    -30.00000000</i>
   <i name="OMEGAMIN">    -30.00000000</i>
   <i name="OMEGATL">   -200.00000000</i>
   <i type="int" name="OMEGAGRID">   140</i>
   <i name="CSHIFT">     -0.10000000</i>
   <i type="logical" name="SELFENERGY"> F  </i>
   <i type="logical" name="LSPECTRAL"> F  </i>
   <i type="logical" name="LSPECTRALGW"> F  </i>
   <i type="logical" name="LSINGLES"> F  </i>
   <i type="logical" name="LFERMIGW"> F  </i>
   <i type="logical" name="ODDONLYGW"> F  </i>
   <i type="logical" name="EVENONLYGW"> F  </i>
   <i type="int" name="NKREDLFX">     1</i>
   <i type="int" name="NKREDLFY">     1</i>
   <i type="int" name="NKREDLFZ">     1</i>
   <i type="int" name="MAXMEM">  2800</i>
   <i type="int" name="TELESCOPE">     0</i>
   <i type="int" name="TAUPAR">     1</i>
   <i type="int" name="OMEGAPAR">    -1</i>
   <i name="LAMBDA">      1.00000000</i>
  </separator>
  <separator name="External order field" >
   <i name="OFIELD_KAPPA">      0.00000000</i>
   <v name="OFIELD_K">      0.00000000      0.00000000      0.00000000</v>
   <i name="OFIELD_Q6_NEAR">      0.00000000</i>
   <i name="OFIELD_Q6_FAR">      0.00000000</i>
   <i name="OFIELD_A">      0.00000000</i>
  </separator>
 </parameters>
 <atominfo>
  <atoms>       1 </atoms>
  <types>       1 </types>
  <array name="atoms" >
   <dimension dim="1">ion</dimension>
   <field type="string">element</field>
   <field type="int">atomtype</field>
   <set>
    <rc><c>Fe</c><c>   1</c></rc>
   </set>
  </array>
  <array name="atomtypes" >
   <dimension dim="1">type</dimension>
   <field type="int">atomspertype</field>
   <field type="string">element</field>
   <field>mass</field>
   <field>valence</field>
   <field type="string">pseudopotential</field>
   <set>
    <rc><c>   1</c><c>Fe</c><c>     55.84700000</c><c>      8.00000000</c><c>  PAW Fe                                </c></rc>
   </set>
  </array>
 </atominfo>
 <structure name="initialpos" >
  <crystal>
   <varray name="basis" >
    <v>      -1.33500000       1.33500000       1.33500000 </v>
    <v>       1.33500000      -1.33500000       1.33500000 </v>
    <v>       1.33500000       1.33500000      -1.33500000 </v>
   </varray>
   <i name="volume">      9.51708150 </i>
   <varray name="rec_basis" >
    <v>       0.00000000       0.37453184       0.37453184 </v>
    <v>       0.37453184       0.00000000       0.37453184 </v>
    <v>       0.37453184       0.37453184       0.00000000 </v>
   </varray>
  </crystal>
  <varray name="positions" >
   <v>       0.00000000       0.00000000       0.00000000 </v>
  </varray>
 </structure>
 <calculation>
  <scstep>
   <time name="dav">    0.21    0.50</time>
   <time name="total">    0.22    0.55</time>
   <energy>
    <i name="alphaZ">     70.36680898 </i>
    <i name="ewald">   -628.06516395 </i>
    <i name="hartreedc">    -97.77544451 </i>
    <i name="XCdc">      4.91586032 </i>
    <i name="pawpsdc">    479.09899362 </i>
    <i name="pawaedc">   -488.38466797 </i>
    <i name="eentropy">      0.00138924 </i>
    <i name="bandstr">     66.16362105 </i>
    <i name="atom">    597.33035224 </i>
    <i name="e_fr_energy">      3.65174903 </i>
    <i name="e_wo_entrp">      3.65035979 </i>
    <i name="e_0_energy">      3.65128595 </i>
   </energy>
  </scstep>
  <scstep>
   <time name="dav">    0.21    0.45</time>
   <time name="total">    0.21    0.46</time>
   <energy>
    <i name="e_fr_energy">    -10.34991377 </i>
    <i name="e_wo_entrp">    -10.35189421 </i>
    <i name="e_0_energy">    -10.35057392 </i>
   </energy>
  </scstep>
  <scstep>
   <time name="dav">    0.27    0.72</time>
   <time name="total">    0.27    0.74</time>
   <energy>
    <i name="e_fr_energy">    -10.41564609 </i>
    <i name="e_wo_entrp">    -10.41752548 </i>
    <i name="e_0_energy">    -10.41627255 </i>
   </energy>
  </scstep>
  <scstep>
   <time name="dav">    0.23    0.67</time>
   <time name="total">    0.23    0.69</time>
   <energy>
    <i name="e_fr_energy">    -10.41594143 </i>
    <i name="e_wo_entrp">    -10.41781845 </i>
    <i name="e_0_energy">    -10.41656711 </i>
   </energy>
  </scstep>
  <scstep>
   <time name="dav">    0.26    0.52</time>
   <time name="total">    0.28    0.57</time>
   <energy>
    <i name="e_fr_energy">    -10.41594417 </i>
    <i name="e_wo_entrp">    -10.41782116 </i>
    <i name="e_0_energy">    -10.41656983 </i>
   </energy>
  </scstep>
  <scstep>
   <time name="dav">    0.20    0.47</time>
   <time name="total">    0.23    0.55</time>
   <energy>
    <i name="e_fr_energy">     -9.07324404 </i>
    <i name="e_wo_entrp">     -9.07389751 </i>
    <i name="e_0_energy">     -9.07346186 </i>
   </energy>
  </scstep>
  <scstep>
   <time name="dav">    0.20    0.47</time>
   <time name="total">    0.23    0.52</time>
   <energy>
    <i name="e_fr_energy">     -9.00359578 </i>
    <i name="e_wo_entrp">     -9.00506239 </i>
    <i name="e_0_energy">     -9.00408465 </i>
   </energy>
  </scstep>
  <scstep>
   <time name="dav">    0.30    0.60</time>
   <time name="total">    0.33    0.66</time>
   <energy>
    <i name="e_fr_energy">     -8.98075409 </i>
    <i name="e_wo_entrp">     -8.98198887 </i>
    <i name="e_0_energy">     -8.98116568 </i>
   </energy>
  </scstep>
  <scstep>
   <time name="dav">    0.21    0.42</time>
   <time name="total">    0.24    0.47</time>
   <energy>
    <i name="e_fr_energy">     -8.98047208 </i>
    <i name="e_wo_entrp">     -8.98177651 </i>
    <i name="e_0_energy">     -8.98090689 </i>
   </energy>
  </scstep>
  <scstep>
   <time name="dav">    0.24    0.47</time>
   <time name="total">    0.27    0.53</time>
   <energy>
    <i name="e_fr_energy">     -8.98048879 </i>
    <i name="e_wo_entrp">     -8.98178815 </i>
    <i name="e_0_energy">     -8.98092191 </i>
   </energy>
  </scstep>
  <scstep>
   <time name="dav">    0.12    0.24</time>
   <time name="total">    0.15    0.31</time>
   <energy>
    <i name="e_fr_energy">     -8.98048769 </i>
    <i name="e_wo_entrp">     -8.98178867 </i>
    <i name="e_0_energy">     -8.98092135 </i>
   </energy>
  </scstep>
  <scstep>
   <time name="dav">    0.11    0.22</time>
   <time name="total">    0.12    0.25</time>
   <energy>
    <i name="alphaZ">     70.36680898 </i>
    <i name="ewald">   -628.06516395 </i>
    <i name="hartreedc">    -81.46761168 </i>
    <i name="XCdc">      4.02575684 </i>
    <i name="pawpsdc">    556.72127764 </i>
    <i name="pawaedc">   -567.52701758 </i>
    <i name="eentropy">      0.00130110 </i>
    <i name="bandstr">     39.63380883 </i>
    <i name="atom">    597.33035224 </i>
    <i name="e_fr_energy">     -8.98048758 </i>
    <i name="e_wo_entrp">     -8.98178868 </i>
    <i name="e_0_energy">     -8.98092128 </i>
   </energy>
  </scstep>
  <structure>
   <crystal>
    <varray name="basis" >
     <v>      -1.33500000       1.33500000       1.33500000 </v>
     <v>       1.33500000      -1.33500000       1.33500000 </v>
     <v>       1.33500000       1.33500000      -1.33500000 </v>
    </varray>
    <i name="volume">      9.51708150 </i>
    <varray name="rec_basis" >
     <v>       0.00000000       0.37453184       0.37453184 </v>
     <v>       0.37453184       0.00000000       0.37453184 </v>
     <v>       0.37453184       0.37453184       0.00000000 </v>
    </varray>
   </crystal>
   <varray name="positions" >
    <v>       0.00000000       0.00000000       0.00000000 </v>
   </varray>
  </structure>
  <varray name="forces" >
   <v>       0.00000000       0.00000000       0.00000000 </v>
  </varray>
  <varray name="stress" >
   <v>      58.92012544       0.00000000       0.00000000 </v>
   <v>       0.00000000      58.92012544       0.00000000 </v>
   <v>       0.00000000      -0.00000000      58.92012544 </v>
  </varray>
  <energy>
   <i name="e_fr_energy">     -8.98048758 </i>
   <i name="e_wo_entrp">     -8.98092128 </i>
   <i name="e_0_energy">      0.00130110 </i>
  </energy>
  <time name="totalsc">    3.04    6.79</time>
 </calculation>
 <calculation>
  <scstep>
   <time name="dav">    0.20    0.39</time>
   <time name="total">    0.22    0.44</time>
   <energy>
    <i name="alphaZ">     66.91954528 </i>
    <i name="ewald">   -617.63668084 </i>
    <i name="hartreedc">    -80.11458855 </i>
    <i name="XCdc">      3.58831992 </i>
    <i name="pawpsdc">    556.73021165 </i>
    <i name="pawaedc">   -567.53634185 </i>
    <i name="eentropy">     -0.00045812 </i>
    <i name="bandstr">     31.57688679 </i>
    <i name="atom">    597.33035224 </i>
    <i name="e_fr_energy">     -9.14275346 </i>
    <i name="e_wo_entrp">     -9.14229535 </i>
    <i name="e_0_energy">     -9.14260076 </i>
   </energy>
  </scstep>
  <scstep>
   <time name="dav">    0.20    0.40</time>
   <time name="total">    0.23    0.46</time>
   <energy>
    <i name="e_fr_energy">     -8.98749824 </i>
    <i name="e_wo_entrp">     -8.98898846 </i>
    <i name="e_0_energy">     -8.98799498 </i>
   </energy>
  </scstep>
  <scstep>
   <time name="dav">    0.20    0.40</time>
   <time name="total">    0.23    0.45</time>
   <energy>
    <i name="e_fr_energy">     -8.97117618 </i>
    <i name="e_wo_entrp">     -8.97221546 </i>
    <i name="e_0_energy">     -8.97152261 </i>
   </energy>
  </scstep>
  <scstep>
   <time name="dav">    0.24    0.47</time>
   <time name="total">    0.26    0.54</time>
   <energy>
    <i name="e_fr_energy">     -8.96727758 </i>
    <i name="e_wo_entrp">     -8.96847685 </i>
    <i name="e_0_energy">     -8.96767734 </i>
   </energy>
  </scstep>
  <scstep>
   <time name="dav">    0.21    0.55</time>
   <time name="total">    0.24    0.61</time>
   <energy>
    <i name="e_fr_energy">     -8.96727722 </i>
    <i name="e_wo_entrp">     -8.96845895 </i>
    <i name="e_0_energy">     -8.96767113 </i>
   </energy>
  </scstep>
  <scstep>
   <time name="dav">    0.17    0.35</time>
   <time name="total">    0.19    0.42</time>
   <energy>
    <i name="e_fr_energy">     -8.96727285 </i>
    <i name="e_wo_entrp">     -8.96845359 </i>
    <i name="e_0_energy">     -8.96766643 </i>
   </energy>
  </scstep>
  <scstep>
   <time name="dav">    0.11    0.21</time>
   <time name="total">    0.13    0.25</time>
   <energy>
    <i name="alphaZ">     66.91954528 </i>
    <i name="ewald">   -617.63668084 </i>
    <i name="hartreedc">    -84.99743601 </i>
    <i name="XCdc">      3.88488675 </i>
    <i name="pawpsdc">    543.89772152 </i>
    <i name="pawaedc">   -554.32694255 </i>
    <i name="eentropy">      0.00118027 </i>
    <i name="bandstr">     35.96010044 </i>
    <i name="atom">    597.33035224 </i>
    <i name="e_fr_energy">     -8.96727289 </i>
    <i name="e_wo_entrp">     -8.96845317 </i>
    <i name="e_0_energy">     -8.96766632 </i>
   </energy>
  </scstep>
  <structure>
   <crystal>
    <varray name="basis" >
     <v>      -1.35754080       1.35754080       1.35754080 </v>
     <v>       1.35754080      -1.35754080       1.35754080 </v>
     <v>       1.35754080       1.35754080      -1.35754080 </v>
    </varray>
    <i name="volume">     10.00734020 </i>
    <varray name="rec_basis" >
     <v>       0.00000000       0.36831306       0.36831306 </v>
     <v>       0.36831306       0.00000000       0.36831306 </v>
     <v>       0.36831306       0.36831306       0.00000000 </v>
    </varray>
   </crystal>
   <varray name="positions" >
    <v>       0.00000000       0.00000000       0.00000000 </v>
   </varray>
  </structure>
  <varray name="forces" >
   <v>       0.00000000       0.00000000      -0.00000000 </v>
  </varray>
  <varray name="stress" >
   <v>    -138.94123263       0.00000000       0.00000000 </v>
   <v>      -0.00000000    -138.94123263       0.00000000 </v>
   <v>      -0.00000000      -0.00000000    -138.94123263 </v>
  </varray>
  <energy>
   <i name="e_fr_energy">     -8.96727289 </i>
   <i name="e_wo_entrp">     -8.96766632 </i>
   <i name="e_0_energy">      0.00118027 </i>
  </energy>
  <time name="totalsc">    1.73    3.70</time>
 </calculation>
 <calculation>
  <scstep>
   <time name="dav">    0.20    0.46</time>
   <time name="total">    0.22    0.51</time>
   <energy>
    <i name="alphaZ">     69.35920858 </i>
    <i name="ewald">   -625.05293145 </i>
    <i name="hartreedc">    -86.01813308 </i>
    <i name="XCdc">      4.20287554 </i>
    <i name="pawpsdc">    543.90625875 </i>
    <i name="pawaedc">   -554.33532444 </i>
    <i name="eentropy">      0.00203527 </i>
    <i name="bandstr">     41.53427435 </i>
    <i name="atom">    597.33035224 </i>
    <i name="e_fr_energy">     -9.07138425 </i>
    <i name="e_wo_entrp">     -9.07341951 </i>
    <i name="e_0_energy">     -9.07206267 </i>
   </energy>
  </scstep>
  <scstep>
   <time name="dav">    0.20    0.43</time>
   <time name="total">    0.23    0.49</time>
   <energy>
    <i name="e_fr_energy">     -8.99184706 </i>
    <i name="e_wo_entrp">     -8.99295394 </i>
    <i name="e_0_energy">     -8.99221602 </i>
   </energy>
  </scstep>
  <scstep>
   <time name="dav">    0.20    0.43</time>
   <time name="total">    0.23    0.49</time>
   <energy>
    <i name="e_fr_energy">     -8.98490458 </i>
    <i name="e_wo_entrp">     -8.98627677 </i>
    <i name="e_0_energy">     -8.98536197 </i>
   </energy>
  </scstep>
  <scstep>
   <time name="dav">    0.24    0.55</time>
   <time name="total">    0.27    0.60</time>
   <energy>
    <i name="e_fr_energy">     -8.98297697 </i>
    <i name="e_wo_entrp">     -8.98424922 </i>
    <i name="e_0_energy">     -8.98340105 </i>
   </energy>
  </scstep>
  <scstep>
   <time name="dav">    0.22    0.47</time>
   <time name="total">    0.24    0.55</time>
   <energy>
    <i name="e_fr_energy">     -8.98297037 </i>
    <i name="e_wo_entrp">     -8.98425632 </i>
    <i name="e_0_energy">     -8.98339902 </i>
   </energy>
  </scstep>
  <scstep>
   <time name="dav">    0.13    0.27</time>
   <time name="total">    0.16    0.33</time>
   <energy>
    <i name="e_fr_energy">     -8.98296633 </i>
    <i name="e_wo_entrp">     -8.98425312 </i>
    <i name="e_0_energy">     -8.98339526 </i>
   </energy>
  </scstep>
  <scstep>
   <time name="dav">    0.11    0.23</time>
   <time name="total">    0.13    0.27</time>
   <energy>
    <i name="alphaZ">     69.35920858 </i>
    <i name="ewald">   -625.05293145 </i>
    <i name="hartreedc">    -82.47125472 </i>
    <i name="XCdc">      3.98463155 </i>
    <i name="pawpsdc">    552.87375826 </i>
    <i name="pawaedc">   -563.56992804 </i>
    <i name="eentropy">      0.00128685 </i>
    <i name="bandstr">     38.56191052 </i>
    <i name="atom">    597.33035224 </i>
    <i name="e_fr_energy">     -8.98296622 </i>
    <i name="e_wo_entrp">     -8.98425307 </i>
    <i name="e_0_energy">     -8.98339517 </i>
   </energy>
  </scstep>
  <structure>
   <crystal>
    <varray name="basis" >
     <v>      -1.34143358       1.34143358       1.34143358 </v>
     <v>       1.34143358      -1.34143358       1.34143358 </v>
     <v>       1.34143358       1.34143358      -1.34143358 </v>
    </varray>
    <i name="volume">      9.65533877 </i>
    <varray name="rec_basis" >
     <v>       0.00000000       0.37273556       0.37273556 </v>
     <v>       0.37273556       0.00000000       0.37273556 </v>
     <v>       0.37273556       0.37273556       0.00000000 </v>
    </varray>
   </crystal>
   <varray name="positions" >
    <v>       0.00000000       0.00000000       0.00000000 </v>
   </varray>
  </structure>
  <varray name="forces" >
   <v>       0.00000000       0.00000000      -0.00000000 </v>
  </varray>
  <varray name="stress" >
   <v>      -0.70820469       0.00000000      -0.00000000 </v>
   <v>      -0.00000000      -0.70820469      -0.00000000 </v>
   <v>       0.00000000       0.00000000      -0.70820469 </v>
  </varray>
  <energy>
   <i name="e_fr_energy">     -8.98296622 </i>
   <i name="e_wo_entrp">     -8.98339517 </i>
   <i name="e_0_energy">      0.00128685 </i>
  </energy>
  <time name="totalsc">    1.70    3.69</time>
  <eigenvalues>
   <array>
    <dimension dim="1">band</dimension>
    <dimension dim="2">kpoint</dimension>
    <dimension dim="3">spin</dimension>
    <field>eigene</field>
    <field>occ</field>
    <set>
     <set comment="spin 1">
      <set comment="kpoint 1">
       <r>   -1.5937    1.0000 </r>
       <r>    5.4950    1.0000 </r>
       <r>    5.4950    1.0000 </r>
       <r>    5.6669    1.0000 </r>
       <r>    7.4492    0.8933 </r>
       <r>    7.4492    0.8933 </r>
       <r>   33.5074    0.0000 </r>
       <r>   33.5074    0.0000 </r>
      </set>
      <set comment="kpoint 2">
       <r>   -1.2461    1.0000 </r>
       <r>    5.3782    1.0000 </r>
       <r>    5.4589    1.0000 </r>
       <r>    5.9030    1.0000 </r>
       <r>    7.3458    1.0304 </r>
       <r>    7.4671    0.8440 </r>
       <r>   32.0401    0.0000 </r>
       <r>   32.9494    0.0000 </r>
      </set>
      <set comment="kpoint 3">
       <r>   -0.6913    1.0000 </r>
       <r>    5.2006    1.0000 </r>
       <r>    5.3911    1.0000 </r>
       <r>    6.2542    1.0000 </r>
       <r>    7.2345    1.0223 </r>
       <r>    7.4929    0.7601 </r>
       <r>   30.0916    0.0000 </r>
       <r>   32.1467    0.0000 </r>
      </set>
      <set comment="kpoint 4">
       <r>    0.0253    1.0000 </r>
       <r>    4.9843    1.0000 </r>
       <r>    5.2932    1.0000 </r>
       <r>    6.7103    1.0000 </r>
       <r>    7.1746    1.0104 </r>
       <r>    7.5285    0.6232 </r>
       <r>   27.8811    0.0000 </r>
       <r>   31.1599    0.0000 </r>
      </set>
      <set comment="kpoint 5">
       <r>    0.8160    1.0000 </r>
       <r>    4.7543    1.0000 </r>
       <r>    5.2348    1.0000 </r>
       <r>    7.1831    1.0117 </r>
       <r>    7.2583    1.0277 </r>
       <r>    7.5745    0.4307 </r>
       <r>   25.5521    0.0000 </r>
       <r>   30.1087    0.0000 </r>
      </set>
      <set comment="kpoint 6">
       <r>    1.5240    1.0000 </r>
       <r>    4.5321    1.0000 </r>
       <r>    5.3759    1.0000 </r>
       <r>    7.2619    1.0285 </r>
       <r>    7.6265    0.2282 </r>
       <r>    7.8289   -0.0333 </r>
       <r>   23.2217    0.0000 </r>
       <r>   29.1117    0.0000 </r>
      </set>
      <set comment="kpoint 7">
       <r>    1.9691    1.0000 </r>
       <r>    4.3359    1.0000 </r>
       <r>    5.8800    1.0000 </r>
       <r>    7.3628    1.0224 </r>
       <r>    7.6811    0.0731 </r>
       <r>    8.4013   -0.0000 </r>
       <r>   21.0121    0.0000 </r>
       <r>   28.2569    0.0000 </r>
      </set>
      <set comment="kpoint 8">
       <r>    2.1355    1.0000 </r>
       <r>    4.1857    1.0000 </r>
       <r>    6.6721    1.0000 </r>
       <r>    7.4649    0.8507 </r>
       <r>    7.7319   -0.0057 </r>
       <r>    8.9227   -0.0000 </r>
       <r>   19.0539    0.0000 </r>
       <r>   27.6086    0.0000 </r>
      </set>
      <set comment="kpoint 9">
       <r>    2.1630    1.0000 </r>
       <r>    4.0909    1.0000 </r>
       <r>    7.3554    1.0264 </r>
       <r>    7.5957    0.3437 </r>
       <r>    7.7681   -0.0296 </r>
       <r>    9.3389   -0.0000 </r>
       <r>   17.5990    0.0000 </r>
       <r>   27.2019    0.0000 </r>
      </set>
      <set comment="kpoint 10">
       <r>    2.1605    1.0000 </r>
       <r>    4.0606    1.0000 </r>
       <r>    7.4850    0.7873 </r>
       <r>    7.7738   -0.0315 </r>
       <r>    7.7920   -0.0350 </r>
       <r>    9.5210   -0.0000 </r>
       <r>   17.0271    0.0000 </r>
       <r>   27.0674    0.0000 </r>
      </set>
      <set comment="kpoint 11">
       <r>   -1.7118    1.0000 </r>
       <r>    5.5359    1.0000 </r>
       <r>    5.5359    1.0000 </r>
       <r>    5.5559    1.0000 </r>
       <r>    7.4431    0.9083 </r>
       <r>    7.4906    0.7679 </r>
       <r>   33.7808    0.0000 </r>
       <r>   34.1103    0.0000 </r>
      </set>
      <set comment="kpoint 12">
       <r>   -0.7984    1.0000 </r>
       <r>    5.2657    1.0000 </r>
       <r>    5.3277    1.0000 </r>
       <r>    6.2291    1.0000 </r>
       <r>    7.2757    1.0313 </r>
       <r>    7.4696    0.8367 </r>
       <r>   30.8202    0.0000 </r>
       <r>   31.6455    0.0000 </r>
      </set>
      <set comment="kpoint 13">
       <r>   -0.1642    1.0000 </r>
       <r>    5.0734    1.0000 </r>
       <r>    5.2022    1.0000 </r>
       <r>    6.6662    1.0000 </r>
       <r>    7.1910    1.0131 </r>
       <r>    7.5165    0.6714 </r>
       <r>   28.9635    0.0000 </r>
       <r>   30.5250    0.0000 </r>
      </set>
      <set comment="kpoint 14">
       <r>    0.5966    1.0000 </r>
       <r>    4.8464    1.0000 </r>
       <r>    5.0856    1.0000 </r>
       <r>    7.1525    1.0073 </r>
       <r>    7.2110    1.0170 </r>
       <r>    7.5761    0.4237 </r>
       <r>   26.7715    0.0000 </r>
       <r>   29.4993    0.0000 </r>
      </set>
      <set comment="kpoint 15">
       <r>    1.3679    1.0000 </r>
       <r>    4.6183    1.0000 </r>
       <r>    5.0660    1.0000 </r>
       <r>    7.2031    1.0154 </r>
       <r>    7.6280    0.2230 </r>
       <r>    7.8155   -0.0349 </r>
       <r>   24.4603    0.0000 </r>
       <r>   28.5414    0.0000 </r>
      </set>
      <set comment="kpoint 16">
       <r>    1.9617    1.0000 </r>
       <r>    4.4124    1.0000 </r>
       <r>    5.3123    1.0000 </r>
       <r>    7.2924    1.0340 </r>
       <r>    7.6953    0.0450 </r>
       <r>    8.4585   -0.0000 </r>
       <r>   22.1891    0.0000 </r>
       <r>   27.6964    0.0000 </r>
      </set>
      <set comment="kpoint 17">
       <r>    2.2468    1.0000 </r>
       <r>    4.2437    1.0000 </r>
       <r>    5.8857    1.0000 </r>
       <r>    7.3912    0.9982 </r>
       <r>    7.7602   -0.0262 </r>
       <r>    9.1156   -0.0000 </r>
       <r>   20.0638    0.0000 </r>
       <r>   27.0072    0.0000 </r>
      </set>
      <set comment="kpoint 18">
       <r>    2.3145    1.0000 </r>
       <r>    4.1258    1.0000 </r>
       <r>    6.5478    1.0000 </r>
       <r>    7.4683    0.8405 </r>
       <r>    7.8463   -0.0302 </r>
       <r>    9.7502   -0.0000 </r>
       <r>   18.2896    0.0000 </r>
       <r>   26.5236    0.0000 </r>
      </set>
      <set comment="kpoint 19">
       <r>    2.3125    1.0000 </r>
       <r>    4.0650    1.0000 </r>
       <r>    6.9616    1.0001 </r>
       <r>    7.4907    0.7679 </r>
       <r>    7.9325   -0.0118 </r>
       <r>   10.2175   -0.0000 </r>
       <r>   17.1916    0.0000 </r>
       <r>   26.2724    0.0000 </r>
      </set>
      <set comment="kpoint 20">
       <r>   -1.4765    1.0000 </r>
       <r>    5.4650    1.0000 </r>
       <r>    5.5281    1.0000 </r>
       <r>    5.6969    1.0000 </r>
       <r>    7.3472    1.0299 </r>
       <r>    7.5124    0.6874 </r>
       <r>   32.7610    0.0000 </r>
       <r>   33.8882    0.0000 </r>
      </set>
      <set comment="kpoint 21">
       <r>    0.5217    1.0000 </r>
       <r>    4.9288    1.0000 </r>
       <r>    4.9757    1.0000 </r>
       <r>    7.1405    1.0060 </r>
       <r>    7.1935    1.0136 </r>
       <r>    7.5898    0.3674 </r>
       <r>   27.6032    0.0000 </r>
       <r>   28.8138    0.0000 </r>
      </set>
      <set comment="kpoint 22">
       <r>    1.2900    1.0000 </r>
       <r>    4.7096    1.0000 </r>
       <r>    4.8437    1.0000 </r>
       <r>    7.1408    1.0060 </r>
       <r>    7.6416    0.1783 </r>
       <r>    7.8448   -0.0305 </r>
       <r>   25.6823    0.0000 </r>
       <r>   27.5143    0.0000 </r>
      </set>
      <set comment="kpoint 23">
       <r>    1.9941    1.0000 </r>
       <r>    4.4863    1.0000 </r>
       <r>    4.8740    1.0000 </r>
       <r>    7.2021    1.0152 </r>
       <r>    7.7248    0.0018 </r>
       <r>    8.5375   -0.0000 </r>
       <r>   23.4597    0.0000 </r>
       <r>   26.5586    0.0000 </r>
      </set>
      <set comment="kpoint 24">
       <r>    2.4336    1.0000 </r>
       <r>    4.3069    1.0000 </r>
       <r>    5.1820    1.0000 </r>
       <r>    7.3033    1.0351 </r>
       <r>    7.7923   -0.0350 </r>
       <r>    9.3058   -0.0000 </r>
       <r>   21.2514    0.0000 </r>
       <r>   25.7972    0.0000 </r>
      </set>
      <set comment="kpoint 25">
       <r>    2.5747    1.0000 </r>
       <r>    4.1778    1.0000 </r>
       <r>    5.7045    1.0000 </r>
       <r>    7.4087    0.9750 </r>
       <r>    7.8698   -0.0250 </r>
       <r>   10.1189   -0.0000 </r>
       <r>   19.2423    0.0000 </r>
       <r>   25.2271    0.0000 </r>
      </set>
      <set comment="kpoint 26">
       <r>    2.5795    1.0000 </r>
       <r>    4.0988    1.0000 </r>
       <r>    6.1520    1.0000 </r>
       <r>    7.4712    0.8318 </r>
       <r>    7.9506   -0.0090 </r>
       <r>   10.8768   -0.0000 </r>
       <r>   17.6860    0.0000 </r>
       <r>   24.8673    0.0000 </r>
      </set>
      <set comment="kpoint 27">
       <r>    2.5691    1.0000 </r>
       <r>    4.0731    1.0000 </r>
       <r>    6.3197    1.0000 </r>
       <r>    7.4886    0.7751 </r>
       <r>    7.9989   -0.0039 </r>
       <r>   11.2361   -0.0000 </r>
       <r>   17.0440    0.0000 </r>
       <r>   24.7460    0.0000 </r>
      </set>
      <set comment="kpoint 28">
       <r>   -1.0203    1.0000 </r>
       <r>    5.3210    1.0000 </r>
       <r>    5.4974    1.0000 </r>
       <r>    5.9852    1.0000 </r>
       <r>    7.2204    1.0191 </r>
       <r>    7.5348    0.5976 </r>
       <r>   31.1055    0.0000 </r>
       <r>   33.2370    0.0000 </r>
      </set>
      <set comment="kpoint 29">
       <r>   -1.1319    1.0000 </r>
       <r>    5.4117    1.0000 </r>
       <r>    5.4778    1.0000 </r>
       <r>    5.8948    1.0000 </r>
       <r>    7.2047    1.0157 </r>
       <r>    7.5601    0.4912 </r>
       <r>   31.6373    0.0000 </r>
       <r>   33.1527    0.0000 </r>
      </set>
      <set comment="kpoint 30">
       <r>    2.0150    1.0000 </r>
       <r>    4.5328    1.0000 </r>
       <r>    4.6970    1.0000 </r>
       <r>    7.1608    1.0084 </r>
       <r>    7.7387   -0.0120 </r>
       <r>    8.5736   -0.0000 </r>
       <r>   24.4283    0.0000 </r>
       <r>   25.5903    0.0000 </r>
      </set>
      <set comment="kpoint 31">
       <r>    2.6037    1.0000 </r>
       <r>    4.3404    1.0000 </r>
       <r>    4.7573    1.0000 </r>
       <r>    7.2327    1.0218 </r>
       <r>    7.8080   -0.0354 </r>
       <r>    9.4159   -0.0000 </r>
       <r>   22.5218    0.0000 </r>
       <r>   24.3969    0.0000 </r>
      </set>
      <set comment="kpoint 32">
       <r>    2.8853    1.0000 </r>
       <r>    4.2115    1.0000 </r>
       <r>    5.0512    1.0000 </r>
       <r>    7.3377    1.0327 </r>
       <r>    7.8655   -0.0259 </r>
       <r>   10.3573   -0.0000 </r>
       <r>   20.4211    0.0000 </r>
       <r>   23.6644    0.0000 </r>
      </set>
      <set comment="kpoint 33">
       <r>    2.9292    1.0000 </r>
       <r>    4.1367    1.0000 </r>
       <r>    5.4359    1.0000 </r>
       <r>    7.4388    0.9182 </r>
       <r>    7.9260   -0.0130 </r>
       <r>   11.3551   -0.0000 </r>
       <r>   18.5385    0.0000 </r>
       <r>   23.1820    0.0000 </r>
      </set>
      <set comment="kpoint 34">
       <r>    2.9107    1.0000 </r>
       <r>    4.1022    1.0000 </r>
       <r>    5.6799    1.0000 </r>
       <r>    7.4950    0.7527 </r>
       <r>    7.9738   -0.0061 </r>
       <r>   12.1612   -0.0000 </r>
       <r>   17.2638    0.0000 </r>
       <r>   22.9400    0.0000 </r>
      </set>
      <set comment="kpoint 35">
       <r>   -0.3760    1.0000 </r>
       <r>    5.1256    1.0000 </r>
       <r>    5.4134    1.0000 </r>
       <r>    6.3857    1.0000 </r>
       <r>    7.1228    1.0043 </r>
       <r>    7.5619    0.4834 </r>
       <r>   29.0154    0.0000 </r>
       <r>   32.2337    0.0000 </r>
      </set>
      <set comment="kpoint 36">
       <r>   -0.5822    1.0000 </r>
       <r>    5.2590    1.0000 </r>
       <r>    5.4086    1.0000 </r>
       <r>    6.2392    1.0000 </r>
       <r>    7.0640    1.0013 </r>
       <r>    7.6057    0.3045 </r>
       <r>   30.0050    0.0000 </r>
       <r>   32.0300    0.0000 </r>
      </set>
      <set comment="kpoint 37">
       <r>    3.0586    1.0000 </r>
       <r>    4.2047    1.0000 </r>
       <r>    4.7890    1.0000 </r>
       <r>    7.3089    1.0354 </r>
       <r>    7.8660   -0.0258 </r>
       <r>   10.4417   -0.0000 </r>
       <r>   21.4168    0.0000 </r>
       <r>   22.5336    0.0000 </r>
      </set>
      <set comment="kpoint 38">
       <r>    3.2511    1.0000 </r>
       <r>    4.1425    1.0000 </r>
       <r>    4.9506    1.0000 </r>
       <r>    7.4140    0.9666 </r>
       <r>    7.9021   -0.0177 </r>
       <r>   11.5974   -0.0000 </r>
       <r>   19.6410    0.0000 </r>
       <r>   21.6261    0.0000 </r>
      </set>
      <set comment="kpoint 39">
       <r>    3.2702    1.0000 </r>
       <r>    4.1342    1.0000 </r>
       <r>    5.1277    1.0000 </r>
       <r>    7.5092    0.6998 </r>
       <r>    7.9184   -0.0144 </r>
       <r>   12.7781   -0.0000 </r>
       <r>   17.9102    0.0000 </r>
       <r>   21.2055    0.0000 </r>
      </set>
      <set comment="kpoint 40">
       <r>    3.2608    1.0000 </r>
       <r>    4.1358    1.0000 </r>
       <r>    5.1993    1.0000 </r>
       <r>    7.5496    0.5354 </r>
       <r>    7.9243   -0.0133 </r>
       <r>   13.4300    0.0000 </r>
       <r>   17.0560    0.0000 </r>
       <r>   21.0738    0.0000 </r>
      </set>
      <set comment="kpoint 41">
       <r>    0.3921    1.0000 </r>
       <r>    4.9019    1.0000 </r>
       <r>    5.3220    1.0000 </r>
       <r>    6.8801    1.0000 </r>
       <r>    7.1054    1.0031 </r>
       <r>    7.5994    0.3289 </r>
       <r>   26.7269    0.0000 </r>
       <r>   31.0923    0.0000 </r>
      </set>
      <set comment="kpoint 42">
       <r>    0.1272    1.0000 </r>
       <r>    5.0501    1.0000 </r>
       <r>    5.3056    1.0000 </r>
       <r>    6.6925    1.0000 </r>
       <r>    6.9892    1.0002 </r>
       <r>    7.6555    0.1368 </r>
       <r>   27.9159    0.0000 </r>
       <r>   30.8893    0.0000 </r>
      </set>
      <set comment="kpoint 43">
       <r>    0.0373    1.0000 </r>
       <r>    5.1585    1.0000 </r>
       <r>    5.2368    1.0000 </r>
       <r>    6.6479    1.0000 </r>
       <r>    6.9360    1.0000 </r>
       <r>    7.6813    0.0727 </r>
       <r>   28.6633    0.0000 </r>
       <r>   30.3014    0.0000 </r>
      </set>
      <set comment="kpoint 44">
       <r>    3.4598    1.0000 </r>
       <r>    4.1550    1.0000 </r>
       <r>    4.8680    1.0000 </r>
       <r>    7.5204    0.6562 </r>
       <r>    7.8914   -0.0200 </r>
       <r>   12.9891   -0.0000 </r>
       <r>   18.5651    0.0000 </r>
       <r>   20.1849    0.0000 </r>
      </set>
      <set comment="kpoint 45">
       <r>    3.5214    1.0000 </r>
       <r>    4.2311    1.0000 </r>
       <r>    4.7982    1.0000 </r>
       <r>    7.6180    0.2584 </r>
       <r>    7.8513   -0.0291 </r>
       <r>   14.3285    0.0000 </r>
       <r>   17.1511    0.0000 </r>
       <r>   19.6737    0.0000 </r>
      </set>
      <set comment="kpoint 46">
       <r>    1.1639    1.0000 </r>
       <r>    4.6732    1.0000 </r>
       <r>    5.3373    1.0000 </r>
       <r>    7.1634    1.0087 </r>
       <r>    7.4248    0.9474 </r>
       <r>    7.6478    0.1592 </r>
       <r>   24.3771    0.0000 </r>
       <r>   29.9765    0.0000 </r>
      </set>
      <set comment="kpoint 47">
       <r>    0.9098    1.0000 </r>
       <r>    4.8247    1.0000 </r>
       <r>    5.2253    1.0000 </r>
       <r>    7.0093    1.0004 </r>
       <r>    7.2349    1.0224 </r>
       <r>    7.7164    0.0120 </r>
       <r>   25.6226    0.0000 </r>
       <r>   29.8176    0.0000 </r>
      </set>
      <set comment="kpoint 48">
       <r>    0.7788    1.0000 </r>
       <r>    4.9656    1.0000 </r>
       <r>    5.0958    1.0000 </r>
       <r>    6.8934    1.0000 </r>
       <r>    7.1695    1.0096 </r>
       <r>    7.7684   -0.0297 </r>
       <r>   26.8137    0.0000 </r>
       <r>   28.8479    0.0000 </r>
      </set>
      <set comment="kpoint 49">
       <r>    3.6039    1.0000 </r>
       <r>    4.4745    1.0000 </r>
       <r>    4.4745    1.0000 </r>
       <r>    7.7419   -0.0146 </r>
       <r>    7.7420   -0.0147 </r>
       <r>   15.8885    0.0000 </r>
       <r>   15.8886    0.0000 </r>
       <r>   19.1104    0.0000 </r>
      </set>
      <set comment="kpoint 50">
       <r>    1.7562    1.0000 </r>
       <r>    4.4623    1.0000 </r>
       <r>    5.6431    1.0000 </r>
       <r>    7.2772    1.0316 </r>
       <r>    7.7117    0.0184 </r>
       <r>    7.9824   -0.0053 </r>
       <r>   22.0983    0.0000 </r>
       <r>   28.9912    0.0000 </r>
      </set>
      <set comment="kpoint 51">
       <r>    1.6117    1.0000 </r>
       <r>    4.6050    1.0000 </r>
       <r>    5.3099    1.0000 </r>
       <r>    7.1176    1.0039 </r>
       <r>    7.7272   -0.0009 </r>
       <r>    7.8796   -0.0227 </r>
       <r>   23.3000    0.0000 </r>
       <r>   28.8464    0.0000 </r>
      </set>
      <set comment="kpoint 52">
       <r>    1.5312    1.0000 </r>
       <r>    4.7298    1.0000 </r>
       <r>    5.0460    1.0000 </r>
       <r>    6.9519    1.0001 </r>
       <r>    7.6720    0.0939 </r>
       <r>    7.9606   -0.0077 </r>
       <r>   24.5844    0.0000 </r>
       <r>   27.7683    0.0000 </r>
      </set>
      <set comment="kpoint 53">
       <r>    1.5060    1.0000 </r>
       <r>    4.7886    1.0000 </r>
       <r>    4.9427    1.0000 </r>
       <r>    6.8820    1.0000 </r>
       <r>    7.6556    0.1366 </r>
       <r>    7.9990   -0.0039 </r>
       <r>   25.5278    0.0000 </r>
       <r>   26.8262    0.0000 </r>
      </set>
      <set comment="kpoint 54">
       <r>    2.0506    1.0000 </r>
       <r>    4.2849    1.0000 </r>
       <r>    6.2920    1.0000 </r>
       <r>    7.4055    0.9798 </r>
       <r>    7.8105   -0.0353 </r>
       <r>    8.4870   -0.0000 </r>
       <r>   19.9827    0.0000 </r>
       <r>   28.1990    0.0000 </r>
      </set>
      <set comment="kpoint 55">
       <r>    2.0537    1.0000 </r>
       <r>    4.4128    1.0000 </r>
       <r>    5.6939    1.0000 </r>
       <r>    7.2670    1.0296 </r>
       <r>    7.8745   -0.0239 </r>
       <r>    8.4320   -0.0000 </r>
       <r>   21.0790    0.0000 </r>
       <r>   28.0246    0.0000 </r>
      </set>
      <set comment="kpoint 56">
       <r>    2.1159    1.0000 </r>
       <r>    4.5261    1.0000 </r>
       <r>    5.1826    1.0000 </r>
       <r>    7.0881    1.0022 </r>
       <r>    7.8533   -0.0287 </r>
       <r>    8.5572   -0.0000 </r>
       <r>   22.3111    0.0000 </r>
       <r>   26.9030    0.0000 </r>
      </set>
      <set comment="kpoint 57">
       <r>    2.1796    1.0000 </r>
       <r>    4.5539    1.0000 </r>
       <r>    4.9347    1.0000 </r>
       <r>    6.9595    1.0001 </r>
       <r>    7.8370   -0.0320 </r>
       <r>    8.6493   -0.0000 </r>
       <r>   23.6085    0.0000 </r>
       <r>   25.5139    0.0000 </r>
      </set>
      <set comment="kpoint 58">
       <r>    2.1318    1.0000 </r>
       <r>    4.1603    1.0000 </r>
       <r>    6.9873    1.0002 </r>
       <r>    7.4929    0.7601 </r>
       <r>    8.0714   -0.0009 </r>
       <r>    8.8766   -0.0000 </r>
       <r>   18.2401    0.0000 </r>
       <r>   27.6475    0.0000 </r>
      </set>
      <set comment="kpoint 59">
       <r>    2.2171    1.0000 </r>
       <r>    4.2653    1.0000 </r>
       <r>    6.2608    1.0000 </r>
       <r>    7.3860    1.0039 </r>
       <r>    8.1019   -0.0004 </r>
       <r>    8.9922   -0.0000 </r>
       <r>   19.1019    0.0000 </r>
       <r>   27.3980    0.0000 </r>
      </set>
      <set comment="kpoint 60">
       <r>    2.3999    1.0000 </r>
       <r>    4.3698    1.0000 </r>
       <r>    5.5533    1.0000 </r>
       <r>    7.2410    1.0238 </r>
       <r>    8.0010   -0.0038 </r>
       <r>    9.2839   -0.0000 </r>
       <r>   20.1740    0.0000 </r>
       <r>   26.2124    0.0000 </r>
      </set>
      <set comment="kpoint 61">
       <r>    2.6214    1.0000 </r>
       <r>    4.3943    1.0000 </r>
       <r>    5.0700    1.0000 </r>
       <r>    7.1009    1.0029 </r>
       <r>    7.9320   -0.0119 </r>
       <r>    9.4880   -0.0000 </r>
       <r>   21.4227    0.0000 </r>
       <r>   24.6738    0.0000 </r>
      </set>
      <set comment="kpoint 62">
       <r>    2.7369    1.0000 </r>
       <r>    4.3399    1.0000 </r>
       <r>    4.9386    1.0000 </r>
       <r>    7.0406    1.0008 </r>
       <r>    7.9135   -0.0153 </r>
       <r>    9.5607   -0.0000 </r>
       <r>   22.4549    0.0000 </r>
       <r>   23.5292    0.0000 </r>
      </set>
      <set comment="kpoint 63">
       <r>    2.1370    1.0000 </r>
       <r>    4.0953    1.0000 </r>
       <r>    7.3480    1.0296 </r>
       <r>    7.4826    0.7954 </r>
       <r>    8.4579   -0.0000 </r>
       <r>    9.0880   -0.0000 </r>
       <r>   17.1782    0.0000 </r>
       <r>   27.3634    0.0000 </r>
      </set>
      <set comment="kpoint 64">
       <r>    2.2416    1.0000 </r>
       <r>    4.1725    1.0000 </r>
       <r>    6.7017    1.0000 </r>
       <r>    7.4159    0.9635 </r>
       <r>    8.4173   -0.0000 </r>
       <r>    9.4908   -0.0000 </r>
       <r>   17.6216    0.0000 </r>
       <r>   27.0064    0.0000 </r>
      </set>
      <set comment="kpoint 65">
       <r>    2.4640    1.0000 </r>
       <r>    4.2631    1.0000 </r>
       <r>    5.9694    1.0000 </r>
       <r>    7.3329    1.0337 </r>
       <r>    8.2078   -0.0000 </r>
       <r>   10.0393   -0.0000 </r>
       <r>   18.3557    0.0000 </r>
       <r>   25.7248    0.0000 </r>
      </set>
      <set comment="kpoint 66">
       <r>    2.7743    1.0000 </r>
       <r>    4.3091    1.0000 </r>
       <r>    5.3421    1.0000 </r>
       <r>    7.2431    1.0243 </r>
       <r>    8.0589   -0.0011 </r>
       <r>   10.4315   -0.0000 </r>
       <r>   19.3853    0.0000 </r>
       <r>   24.0761    0.0000 </r>
      </set>
      <set comment="kpoint 67">
       <r>    3.0679    1.0000 </r>
       <r>    4.2230    1.0000 </r>
       <r>    5.0093    1.0000 </r>
       <r>    7.1787    1.0110 </r>
       <r>    7.9824   -0.0053 </r>
       <r>   10.6294   -0.0000 </r>
       <r>   20.6010    0.0000 </r>
       <r>   22.5049    0.0000 </r>
      </set>
      <set comment="kpoint 68">
       <r>    2.2378    1.0000 </r>
       <r>    4.1418    1.0000 </r>
       <r>    6.8589    1.0000 </r>
       <r>    7.4093    0.9742 </r>
       <r>    8.5687   -0.0000 </r>
       <r>    9.7285   -0.0000 </r>
       <r>   17.0314    0.0000 </r>
       <r>   26.8733    0.0000 </r>
      </set>
      <set comment="kpoint 69">
       <r>    2.4588    1.0000 </r>
       <r>    4.2087    1.0000 </r>
       <r>    6.2197    1.0000 </r>
       <r>    7.3571    1.0256 </r>
       <r>    8.3858   -0.0000 </r>
       <r>   10.6273   -0.0000 </r>
       <r>   17.2056    0.0000 </r>
       <r>   25.4723    0.0000 </r>
      </set>
      <set comment="kpoint 70">
       <r>    2.7803    1.0000 </r>
       <r>    4.2643    1.0000 </r>
       <r>    5.5878    1.0000 </r>
       <r>    7.3251    1.0349 </r>
       <r>    8.2012   -0.0000 </r>
       <r>   11.3515   -0.0000 </r>
       <r>   17.7556    0.0000 </r>
       <r>   23.7032    0.0000 </r>
      </set>
      <set comment="kpoint 71">
       <r>    3.1542    1.0000 </r>
       <r>    4.2264    1.0000 </r>
       <r>    5.1060    1.0000 </r>
       <r>    7.3168    1.0354 </r>
       <r>    8.0522   -0.0013 </r>
       <r>   11.7965   -0.0000 </r>
       <r>   18.6839    0.0000 </r>
       <r>   21.9745    0.0000 </r>
      </set>
      <set comment="kpoint 72">
       <r>    3.3829    1.0000 </r>
       <r>    4.1167    1.0000 </r>
       <r>    4.9411    1.0000 </r>
       <r>    7.3164    1.0354 </r>
       <r>    7.9929   -0.0044 </r>
       <r>   11.9441   -0.0000 </r>
       <r>   19.5253    0.0000 </r>
       <r>   20.8571    0.0000 </r>
      </set>
      <set comment="kpoint 73">
       <r>    2.7687    1.0000 </r>
       <r>    4.2500    1.0000 </r>
       <r>    5.6803    1.0000 </r>
       <r>    7.3455    1.0305 </r>
       <r>    8.2665   -0.0000 </r>
       <r>   11.8008   -0.0000 </r>
       <r>   17.0531    0.0000 </r>
       <r>   23.5750    0.0000 </r>
      </set>
      <set comment="kpoint 74">
       <r>    3.1450    1.0000 </r>
       <r>    4.2560    1.0000 </r>
       <r>    5.1721    1.0000 </r>
       <r>    7.3918    0.9975 </r>
       <r>    8.1118   -0.0003 </r>
       <r>   12.7799   -0.0000 </r>
       <r>   17.2946    0.0000 </r>
       <r>   21.7136    0.0000 </r>
      </set>
      <set comment="kpoint 75">
       <r>    3.5016    1.0000 </r>
       <r>    4.1693    1.0000 </r>
       <r>    4.8367    1.0000 </r>
       <r>    7.4625    0.8576 </r>
       <r>    7.9808   -0.0054 </r>
       <r>   13.3199    0.0000 </r>
       <r>   17.9252    0.0000 </r>
       <r>   20.1950    0.0000 </r>
      </set>
      <set comment="kpoint 76">
       <r>    3.5119    1.0000 </r>
       <r>    4.2430    1.0000 </r>
       <r>    4.7702    1.0000 </r>
       <r>    7.5298    0.6182 </r>
       <r>    7.9691   -0.0067 </r>
       <r>   14.1659    0.0000 </r>
       <r>   16.9449    0.0000 </r>
       <r>   20.0232    0.0000 </r>
      </set>
      <set comment="kpoint 77">
       <r>    3.7172    1.0000 </r>
       <r>    4.2450    1.0000 </r>
       <r>    4.5484    1.0000 </r>
       <r>    7.6426    0.1751 </r>
       <r>    7.8550   -0.0283 </r>
       <r>   14.9172    0.0000 </r>
       <r>   16.7528    0.0000 </r>
       <r>   19.2555    0.0000 </r>
      </set>
      <set comment="kpoint 78">
       <r>   -0.2636    1.0000 </r>
       <r>    5.1199    1.0000 </r>
       <r>    5.1199    1.0000 </r>
       <r>    6.6666    1.0000 </r>
       <r>    7.3670    1.0198 </r>
       <r>    7.3670    1.0198 </r>
       <r>   29.8800    0.0000 </r>
       <r>   29.8800    0.0000 </r>
      </set>
      <set comment="kpoint 79">
       <r>    0.4333    1.0000 </r>
       <r>    4.8896    1.0000 </r>
       <r>    4.9630    1.0000 </r>
       <r>    7.2049    1.0158 </r>
       <r>    7.3008    1.0349 </r>
       <r>    7.4599    0.8649 </r>
       <r>   27.8831    0.0000 </r>
       <r>   28.9334    0.0000 </r>
      </set>
      <set comment="kpoint 80">
       <r>    1.2147    1.0000 </r>
       <r>    4.6535    1.0000 </r>
       <r>    4.8406    1.0000 </r>
       <r>    7.2930    1.0341 </r>
       <r>    7.5464    0.5491 </r>
       <r>    7.8279   -0.0335 </r>
       <r>   25.6830    0.0000 </r>
       <r>   27.9948    0.0000 </r>
      </set>
      <set comment="kpoint 81">
       <r>    1.9281    1.0000 </r>
       <r>    4.4390    1.0000 </r>
       <r>    4.8816    1.0000 </r>
       <r>    7.3382    1.0326 </r>
       <r>    7.6209    0.2480 </r>
       <r>    8.5148   -0.0000 </r>
       <r>   23.4024    0.0000 </r>
       <r>   27.1521    0.0000 </r>
      </set>
      <set comment="kpoint 82">
       <r>    2.3670    1.0000 </r>
       <r>    4.2559    1.0000 </r>
       <r>    5.2506    1.0000 </r>
       <r>    7.4115    0.9707 </r>
       <r>    7.6877    0.0594 </r>
       <r>    9.2525   -0.0000 </r>
       <r>   21.1908    0.0000 </r>
       <r>   26.4355    0.0000 </r>
      </set>
      <set comment="kpoint 83">
[...]
      <set comment="kpoint 239">
       <r>    2.8193    1.0000 </r>
       <r>    2.8703    1.0000 </r>
       <r>    7.2132    1.0175 </r>
       <r>    7.8502   -0.0294 </r>
       <r>    8.6645   -0.0000 </r>
       <r>   15.3245    0.0000 </r>
       <r>   19.2347    0.0000 </r>
       <r>   20.5333    0.0000 </r>
      </set>
      <set comment="kpoint 240">
       <r>    2.7631    1.0000 </r>
       <r>    2.8394    1.0000 </r>
       <r>    7.2164    1.0182 </r>
       <r>    7.9399   -0.0106 </r>
       <r>    8.7656   -0.0000 </r>
       <r>   16.5374    0.0000 </r>
       <r>   17.9123    0.0000 </r>
       <r>   20.3334    0.0000 </r>
      </set>
      <set comment="kpoint 241">
       <r>    2.7459    1.0000 </r>
       <r>    2.7597    1.0000 </r>
       <r>    7.2228    1.0196 </r>
       <r>    8.2809   -0.0000 </r>
       <r>    8.6118   -0.0000 </r>
       <r>   16.8707    0.0000 </r>
       <r>   18.5024    0.0000 </r>
       <r>   19.2736    0.0000 </r>
      </set>
      <set comment="kpoint 242">
       <r>    2.8685    1.0000 </r>
       <r>    2.9765    1.0000 </r>
       <r>    7.5545    0.5148 </r>
       <r>    7.5546    0.5145 </r>
       <r>    8.2653   -0.0000 </r>
       <r>   13.6516    0.0000 </r>
       <r>   21.4757    0.0000 </r>
       <r>   21.4757    0.0000 </r>
      </set>
      <set comment="kpoint 243">
       <r>    2.7240    1.0000 </r>
       <r>    2.7559    1.0000 </r>
       <r>    7.7518   -0.0216 </r>
       <r>    7.8507   -0.0293 </r>
       <r>    8.5437   -0.0000 </r>
       <r>   15.0349    0.0000 </r>
       <r>   20.1659    0.0000 </r>
       <r>   20.6862    0.0000 </r>
      </set>
      <set comment="kpoint 244">
       <r>    2.6220    1.0000 </r>
       <r>    2.6624    1.0000 </r>
       <r>    7.7851   -0.0341 </r>
       <r>    8.0051   -0.0035 </r>
       <r>    8.7719   -0.0000 </r>
       <r>   16.5406    0.0000 </r>
       <r>   18.5647    0.0000 </r>
       <r>   20.2577    0.0000 </r>
      </set>
      <set comment="kpoint 245">
       <r>    2.5871    1.0000 </r>
       <r>    2.5893    1.0000 </r>
       <r>    7.8775   -0.0232 </r>
       <r>    8.2490   -0.0000 </r>
       <r>    8.6747   -0.0000 </r>
       <r>   16.4332    0.0000 </r>
       <r>   19.4540    0.0000 </r>
       <r>   19.6662    0.0000 </r>
      </set>
      <set comment="kpoint 246">
       <r>    2.5288    1.0000 </r>
       <r>    2.5428    1.0000 </r>
       <r>    7.8955   -0.0191 </r>
       <r>    8.4146   -0.0000 </r>
       <r>    8.7263   -0.0000 </r>
       <r>   17.6752    0.0000 </r>
       <r>   18.3152    0.0000 </r>
       <r>   19.3809    0.0000 </r>
      </set>
      <set comment="kpoint 247">
       <r>    2.5297    1.0000 </r>
       <r>    2.5335    1.0000 </r>
       <r>    8.2357   -0.0000 </r>
       <r>    8.2358   -0.0000 </r>
       <r>    8.5782   -0.0000 </r>
       <r>   16.2643    0.0000 </r>
       <r>   19.8524    0.0000 </r>
       <r>   19.8524    0.0000 </r>
      </set>
      <set comment="kpoint 248">
       <r>    2.4185    1.0000 </r>
       <r>    2.4252    1.0000 </r>
       <r>    8.3679   -0.0000 </r>
       <r>    8.4467   -0.0000 </r>
       <r>    8.7477   -0.0000 </r>
       <r>   17.5678    0.0000 </r>
       <r>   18.9189    0.0000 </r>
       <r>   19.3968    0.0000 </r>
      </set>
      <set comment="kpoint 249">
       <r>    2.3645    1.0000 </r>
       <r>    2.3645    1.0000 </r>
       <r>    8.4305   -0.0000 </r>
       <r>    8.7039   -0.0000 </r>
       <r>    8.7040   -0.0000 </r>
       <r>   18.5638    0.0000 </r>
       <r>   18.5638    0.0000 </r>
       <r>   18.8552    0.0000 </r>
      </set>
      <set comment="kpoint 250">
       <r>    2.3058    1.0000 </r>
       <r>    2.3072    1.0000 </r>
       <r>    8.7015   -0.0000 </r>
       <r>    8.7016   -0.0000 </r>
       <r>    8.7442   -0.0000 </r>
       <r>   18.4228    0.0000 </r>
       <r>   18.9224    0.0000 </r>
       <r>   18.9224    0.0000 </r>
      </set>
     </set>
    </set>
   </array>
  </eigenvalues>
  <separator name="orbital magnetization" >
   <v name="MAGDIPOLOUT">      0.00000000      0.00000000      0.00000000</v>
  </separator>
  <dos>
   <i name="efermi">      7.55801359 </i>
   <total>
    <array>
     <dimension dim="1">gridpoints</dimension>
     <dimension dim="2">spin</dimension>
     <field>energy</field>
     <field>total</field>
     <field>integrated</field>
     <set>
      <set comment="spin 1">
       <r>    -3.7118     0.0000     0.0000 </r>
       <r>    -3.5790     0.0000     0.0000 </r>
       <r>    -3.4463     0.0000     0.0000 </r>
       <r>    -3.3136    -0.0000    -0.0000 </r>
       <r>    -3.1808    -0.0000    -0.0000 </r>
       <r>    -3.0481    -0.0000    -0.0000 </r>
       <r>    -2.9153    -0.0000    -0.0000 </r>
       <r>    -2.7826    -0.0000    -0.0000 </r>
       <r>    -2.6499    -0.0000    -0.0000 </r>
       <r>    -2.5171    -0.0000    -0.0000 </r>
       <r>    -2.3844    -0.0000    -0.0000 </r>
       <r>    -2.2516    -0.0000    -0.0000 </r>
       <r>    -2.1189    -0.0001    -0.0000 </r>
       <r>    -1.9862    -0.0005    -0.0001 </r>
       <r>    -1.8534    -0.0001    -0.0001 </r>
       <r>    -1.7207     0.0051     0.0006 </r>
       <r>    -1.5879     0.0173     0.0029 </r>
       <r>    -1.4552     0.0282     0.0066 </r>
       <r>    -1.3225     0.0306     0.0107 </r>
       <r>    -1.1897     0.0447     0.0166 </r>
       <r>    -1.0570     0.0518     0.0235 </r>
       <r>    -0.9242     0.0403     0.0289 </r>
       <r>    -0.7915     0.0539     0.0360 </r>
       <r>    -0.6588     0.0789     0.0465 </r>
       <r>    -0.5260     0.0697     0.0557 </r>
       <r>    -0.3933     0.0500     0.0624 </r>
       <r>    -0.2605     0.0740     0.0722 </r>
       <r>    -0.1278     0.1021     0.0858 </r>
       <r>     0.0049     0.0927     0.0981 </r>
       <r>     0.1377     0.0904     0.1101 </r>
       <r>     0.2704     0.0776     0.1204 </r>
       <r>     0.4032     0.0980     0.1334 </r>
       <r>     0.5359     0.1390     0.1518 </r>
       <r>     0.6686     0.1224     0.1681 </r>
       <r>     0.8014     0.1186     0.1838 </r>
       <r>     0.9341     0.1361     0.2019 </r>
       <r>     1.0669     0.1173     0.2175 </r>
       <r>     1.1996     0.1564     0.2382 </r>
       <r>     1.3323     0.1908     0.2635 </r>
       <r>     1.4651     0.1913     0.2889 </r>
       <r>     1.5978     0.2109     0.3169 </r>
       <r>     1.7306     0.1714     0.3397 </r>
       <r>     1.8633     0.2033     0.3667 </r>
       <r>     1.9960     0.3623     0.4148 </r>
       <r>     2.1288     0.5152     0.4832 </r>
       <r>     2.2615     0.6614     0.5709 </r>
       <r>     2.3943     0.7547     0.6711 </r>
       <r>     2.5270     0.9043     0.7912 </r>
       <r>     2.6597     1.0386     0.9290 </r>
       <r>     2.7925     1.0874     1.0734 </r>
       <r>     2.9252     1.1345     1.2240 </r>
       <r>     3.0580     1.4391     1.4150 </r>
       <r>     3.1907     1.6224     1.6303 </r>
       <r>     3.3234     1.2874     1.8012 </r>
       <r>     3.4562     1.0534     1.9411 </r>
       <r>     3.5889     0.9046     2.0611 </r>
       <r>     3.7217     0.6552     2.1481 </r>
       <r>     3.8544     0.5536     2.2216 </r>
       <r>     3.9871     1.0275     2.3580 </r>
       <r>     4.1199     2.0327     2.6278 </r>
       <r>     4.2526     2.4243     2.9496 </r>
       <r>     4.3854     2.1137     3.2302 </r>
       <r>     4.5181     1.7458     3.4619 </r>
       <r>     4.6508     1.6284     3.6781 </r>
       <r>     4.7836     1.6804     3.9011 </r>
       <r>     4.9163     1.6761     4.1236 </r>
       <r>     5.0491     1.9296     4.3798 </r>
       <r>     5.1818     2.3390     4.6902 </r>
       <r>     5.3145     2.2313     4.9864 </r>
       <r>     5.4473     1.7744     5.2219 </r>
       <r>     5.5800     1.2150     5.3832 </r>
       <r>     5.7128     0.8340     5.4939 </r>
       <r>     5.8455     0.7277     5.5905 </r>
       <r>     5.9782     0.6894     5.6820 </r>
       <r>     6.1110     0.5025     5.7487 </r>
       <r>     6.2437     0.4871     5.8134 </r>
       <r>     6.3765     0.6401     5.8984 </r>
       <r>     6.5092     0.7528     5.9983 </r>
       <r>     6.6419     0.9766     6.1279 </r>
       <r>     6.7747     1.1732     6.2837 </r>
       <r>     6.9074     1.3546     6.4635 </r>
       <r>     7.0402     1.6892     6.6877 </r>
       <r>     7.1729     2.2425     6.9854 </r>
       <r>     7.3056     2.6022     7.3308 </r>
       <r>     7.4384     2.6036     7.6764 </r>
       <r>     7.5711     2.7199     8.0374 </r>
       <r>     7.7039     3.1421     8.4545 </r>
       <r>     7.8366     3.5907     8.9311 </r>
       <r>     7.9693     3.0126     9.3310 </r>
       <r>     8.1021     1.8017     9.5702 </r>
       <r>     8.2348     1.2233     9.7326 </r>
       <r>     8.3676     1.2026     9.8922 </r>
       <r>     8.5003     1.4419    10.0836 </r>
       <r>     8.6330     1.4087    10.2706 </r>
       <r>     8.7658     1.0668    10.4122 </r>
       <r>     8.8985     0.7505    10.5118 </r>
       <r>     9.0313     0.5089    10.5794 </r>
       <r>     9.1640     0.3450    10.6252 </r>
       <r>     9.2967     0.3348    10.6696 </r>
       <r>     9.4295     0.3982    10.7225 </r>
       <r>     9.5622     0.3263    10.7658 </r>
       <r>     9.6950     0.2386    10.7974 </r>
       <r>     9.8277     0.2324    10.8283 </r>
       <r>     9.9604     0.2068    10.8557 </r>
       <r>    10.0932     0.2266    10.8858 </r>
       <r>    10.2259     0.3163    10.9278 </r>
       <r>    10.3587     0.3571    10.9752 </r>
       <r>    10.4914     0.3047    11.0156 </r>
       <r>    10.6241     0.2657    11.0509 </r>
       <r>    10.7569     0.2192    11.0800 </r>
       <r>    10.8896     0.1867    11.1048 </r>
       <r>    11.0224     0.2472    11.1376 </r>
       <r>    11.1551     0.2020    11.1644 </r>
       <r>    11.2878     0.1959    11.1904 </r>
       <r>    11.4206     0.3505    11.2370 </r>
       <r>    11.5533     0.3397    11.2820 </r>
       <r>    11.6861     0.2085    11.3097 </r>
       <r>    11.8188     0.2167    11.3385 </r>
       <r>    11.9515     0.2127    11.3667 </r>
       <r>    12.0843     0.1484    11.3864 </r>
       <r>    12.2170     0.1586    11.4075 </r>
       <r>    12.3498     0.2092    11.4352 </r>
       <r>    12.4825     0.2322    11.4661 </r>
       <r>    12.6152     0.2105    11.4940 </r>
       <r>    12.7480     0.2694    11.5298 </r>
       <r>    12.8807     0.2730    11.5660 </r>
       <r>    13.0135     0.1811    11.5900 </r>
       <r>    13.1462     0.1389    11.6085 </r>
       <r>    13.2789     0.1435    11.6275 </r>
       <r>    13.4117     0.1195    11.6434 </r>
       <r>    13.5444     0.1297    11.6606 </r>
       <r>    13.6772     0.1535    11.6810 </r>
       <r>    13.8099     0.1625    11.7026 </r>
       <r>    13.9427     0.2228    11.7321 </r>
       <r>    14.0754     0.2033    11.7591 </r>
       <r>    14.2081     0.1634    11.7808 </r>
       <r>    14.3409     0.1559    11.8015 </r>
       <r>    14.4736     0.0844    11.8127 </r>
       <r>    14.6064     0.0703    11.8220 </r>
       <r>    14.7391     0.1046    11.8359 </r>
       <r>    14.8718     0.1125    11.8509 </r>
       <r>    15.0046     0.0924    11.8631 </r>
       <r>    15.1373     0.0628    11.8715 </r>
       <r>    15.2701     0.0960    11.8842 </r>
       <r>    15.4028     0.1629    11.9058 </r>
       <r>    15.5355     0.1359    11.9239 </r>
       <r>    15.6683     0.0559    11.9313 </r>
       <r>    15.8010     0.0451    11.9373 </r>
       <r>    15.9338     0.0519    11.9442 </r>
       <r>    16.0665     0.0353    11.9488 </r>
       <r>    16.1992     0.0352    11.9535 </r>
       <r>    16.3320     0.0297    11.9575 </r>
       <r>    16.4647     0.0438    11.9633 </r>
       <r>    16.5975     0.0743    11.9731 </r>
       <r>    16.7302     0.0923    11.9854 </r>
       <r>    16.8629     0.0968    11.9982 </r>
       <r>    16.9957     0.1670    12.0204 </r>
       <r>    17.1284     0.4123    12.0751 </r>
       <r>    17.2612     0.6646    12.1633 </r>
       <r>    17.3939     0.6441    12.2488 </r>
       <r>    17.5266     0.4252    12.3053 </r>
       <r>    17.6594     0.3566    12.3526 </r>
       <r>    17.7921     0.4683    12.4148 </r>
       <r>    17.9249     0.4803    12.4785 </r>
       <r>    18.0576     0.2853    12.5164 </r>
       <r>    18.1903     0.2112    12.5444 </r>
       <r>    18.3231     0.3266    12.5878 </r>
       <r>    18.4558     0.3925    12.6399 </r>
       <r>    18.5886     0.3488    12.6862 </r>
       <r>    18.7213     0.2722    12.7223 </r>
       <r>    18.8540     0.2909    12.7610 </r>
       <r>    18.9868     0.2903    12.7995 </r>
       <r>    19.1195     0.2733    12.8358 </r>
       <r>    19.2523     0.3649    12.8842 </r>
       <r>    19.3850     0.4124    12.9390 </r>
       <r>    19.5177     0.3859    12.9902 </r>
       <r>    19.6505     0.4061    13.0441 </r>
       <r>    19.7832     0.3812    13.0947 </r>
       <r>    19.9160     0.3114    13.1360 </r>
       <r>    20.0487     0.2992    13.1757 </r>
       <r>    20.1814     0.3710    13.2250 </r>
       <r>    20.3142     0.4564    13.2856 </r>
       <r>    20.4469     0.4250    13.3420 </r>
       <r>    20.5797     0.3538    13.3890 </r>
       <r>    20.7124     0.3237    13.4319 </r>
       <r>    20.8451     0.2840    13.4696 </r>
       <r>    20.9779     0.2867    13.5077 </r>
       <r>    21.1106     0.3418    13.5530 </r>
       <r>    21.2434     0.3861    13.6043 </r>
       <r>    21.3761     0.3547    13.6514 </r>
       <r>    21.5088     0.3433    13.6969 </r>
       <r>    21.6416     0.3895    13.7486 </r>
       <r>    21.7743     0.3588    13.7963 </r>
       <r>    21.9071     0.2765    13.8330 </r>
       <r>    22.0398     0.2693    13.8687 </r>
       <r>    22.1725     0.2870    13.9068 </r>
       <r>    22.3053     0.2540    13.9405 </r>
       <r>    22.4380     0.3626    13.9886 </r>
       <r>    22.5708     0.5182    14.0574 </r>
       <r>    22.7035     0.3396    14.1025 </r>
       <r>    22.8362     0.2243    14.1323 </r>
       <r>    22.9690     0.3070    14.1730 </r>
       <r>    23.1017     0.2534    14.2067 </r>
       <r>    23.2345     0.2018    14.2334 </r>
       <r>    23.3672     0.3126    14.2749 </r>
       <r>    23.4999     0.4411    14.3335 </r>
       <r>    23.6327     0.4406    14.3920 </r>
       <r>    23.7654     0.2969    14.4314 </r>
       <r>    23.8982     0.1559    14.4521 </r>
       <r>    24.0309     0.1706    14.4747 </r>
       <r>    24.1636     0.2673    14.5102 </r>
       <r>    24.2964     0.2843    14.5480 </r>
       <r>    24.4291     0.3161    14.5899 </r>
       <r>    24.5619     0.3459    14.6358 </r>
       <r>    24.6946     0.4000    14.6889 </r>
       <r>    24.8273     0.4149    14.7440 </r>
       <r>    24.9601     0.2407    14.7759 </r>
       <r>    25.0928     0.0865    14.7874 </r>
       <r>    25.2256     0.1588    14.8085 </r>
       <r>    25.3583     0.2471    14.8413 </r>
       <r>    25.4910     0.2894    14.8797 </r>
       <r>    25.6238     0.3303    14.9236 </r>
       <r>    25.7565     0.3621    14.9716 </r>
       <r>    25.8893     0.3230    15.0145 </r>
       <r>    26.0220     0.1868    15.0393 </r>
       <r>    26.1547     0.2064    15.0667 </r>
       <r>    26.2875     0.2824    15.1042 </r>
       <r>    26.4202     0.2538    15.1379 </r>
       <r>    26.5530     0.2037    15.1649 </r>
       <r>    26.6857     0.2133    15.1932 </r>
       <r>    26.8184     0.3247    15.2363 </r>
       <r>    26.9512     0.3132    15.2779 </r>
       <r>    27.0839     0.2139    15.3063 </r>
       <r>    27.2167     0.2052    15.3335 </r>
       <r>    27.3494     0.2544    15.3673 </r>
       <r>    27.4821     0.2869    15.4054 </r>
       <r>    27.6149     0.2487    15.4384 </r>
       <r>    27.7476     0.1913    15.4638 </r>
       <r>    27.8804     0.2029    15.4907 </r>
       <r>    28.0131     0.2579    15.5250 </r>
       <r>    28.1458     0.2464    15.5577 </r>
       <r>    28.2786     0.1782    15.5813 </r>
       <r>    28.4113     0.0839    15.5925 </r>
       <r>    28.5441     0.0809    15.6032 </r>
       <r>    28.6768     0.1020    15.6167 </r>
       <r>    28.8095     0.1436    15.6358 </r>
       <r>    28.9423     0.2405    15.6677 </r>
       <r>    29.0750     0.2456    15.7003 </r>
       <r>    29.2078     0.1315    15.7178 </r>
       <r>    29.3405     0.0389    15.7230 </r>
       <r>    29.4732     0.0466    15.7291 </r>
       <r>    29.6060     0.0888    15.7409 </r>
       <r>    29.7387     0.1104    15.7556 </r>
       <r>    29.8715     0.1156    15.7709 </r>
       <r>    30.0042     0.1175    15.7865 </r>
       <r>    30.1369     0.1193    15.8023 </r>
       <r>    30.2697     0.1160    15.8178 </r>
       <r>    30.4024     0.0939    15.8302 </r>
       <r>    30.5352     0.0555    15.8376 </r>
       <r>    30.6679     0.0436    15.8434 </r>
       <r>    30.8006     0.0836    15.8545 </r>
       <r>    30.9334     0.1125    15.8694 </r>
       <r>    31.0661     0.0836    15.8805 </r>
       <r>    31.1989     0.0657    15.8892 </r>
       <r>    31.3316     0.0246    15.8925 </r>
       <r>    31.4643     0.0095    15.8938 </r>
       <r>    31.5971     0.0492    15.9003 </r>
       <r>    31.7298     0.0638    15.9088 </r>
       <r>    31.8626     0.0495    15.9153 </r>
       <r>    31.9953     0.0871    15.9269 </r>
       <r>    32.1280     0.1174    15.9425 </r>
       <r>    32.2608     0.0716    15.9520 </r>
       <r>    32.3935     0.0181    15.9544 </r>
       <r>    32.5263    -0.0030    15.9540 </r>
       <r>    32.6590     0.0045    15.9546 </r>
       <r>    32.7917     0.0271    15.9582 </r>
       <r>    32.9245     0.0367    15.9630 </r>
       <r>    33.0572     0.0376    15.9680 </r>
       <r>    33.1900     0.0610    15.9761 </r>
       <r>    33.3227     0.0594    15.9840 </r>
       <r>    33.4555     0.0237    15.9872 </r>
       <r>    33.5882     0.0116    15.9887 </r>
       <r>    33.7209     0.0098    15.9900 </r>
       <r>    33.8537     0.0246    15.9933 </r>
       <r>    33.9864     0.0324    15.9976 </r>
       <r>    34.1192     0.0152    15.9996 </r>
       <r>    34.2519     0.0035    16.0001 </r>
       <r>    34.3846     0.0000    16.0001 </r>
       <r>    34.5174    -0.0004    16.0000 </r>
       <r>    34.6501    -0.0001    16.0000 </r>
       <r>    34.7829    -0.0000    16.0000 </r>
       <r>    34.9156    -0.0000    16.0000 </r>
       <r>    35.0483    -0.0000    16.0000 </r>
       <r>    35.1811    -0.0000    16.0000 </r>
       <r>    35.3138    -0.0000    16.0000 </r>
       <r>    35.4466    -0.0000    16.0000 </r>
       <r>    35.5793     0.0000    16.0000 </r>
       <r>    35.7120     0.0000    16.0000 </r>
       <r>    35.8448     0.0000    16.0000 </r>
       <r>    35.9775     0.0000    16.0000 </r>
       <r>    36.1103     0.0000    16.0000 </r>
      </set>
     </set>
    </array>
   </total>
  </dos>
 </calculation>
 <structure name="finalpos" >
  <crystal>
   <varray name="basis" >
    <v>      -1.34143358       1.34143358       1.34143358 </v>
    <v>       1.34143358      -1.34143358       1.34143358 </v>
    <v>       1.34143358       1.34143358      -1.34143358 </v>
   </varray>
   <i name="volume">      9.65533877 </i>
   <varray name="rec_basis" >
    <v>       0.00000000       0.37273556       0.37273556 </v>
    <v>       0.37273556       0.00000000       0.37273556 </v>
    <v>       0.37273556       0.37273556       0.00000000 </v>
   </varray>
  </crystal>
  <varray name="positions" >
   <v>       0.00000000       0.00000000       0.00000000 </v>
  </varray>
 </structure>
</modeling>
