 running on    1 total cores
 distrk:  each k-point on    1 cores,    1 groups
 distr:  one band on    1 cores,    1 groups
 using from now: INCAR     
 vasp.5.4.4.18Apr17-6-g9f103f2a35 (build May 20 2018 16:52:39) complex          
  
 POSCAR found type information on POSCAR  Fe
 POSCAR found :  1 types and       1 ions
 scaLAPACK will be used
 LDA part: xc-table for Ceperly-Alder, standard interpolation
 POSCAR, INCAR and KPOINTS ok, starting setup
 FFT: planning ...
 WAVECAR not read
 entering main loop
       N       E                     dE             d eps       ncg     rms          rms(c)
DAV:   1     0.369127587187E+01    0.36913E+01   -0.30241E+03   744   0.760E+02
DAV:   2    -0.102286973631E+02   -0.13920E+02   -0.13445E+02   744   0.988E+01
DAV:   3    -0.102986045129E+02   -0.69907E-01   -0.69860E-01   960   0.907E+00
DAV:   4    -0.102988641780E+02   -0.25967E-03   -0.25966E-03   784   0.458E-01
DAV:   5    -0.102988666880E+02   -0.25100E-05   -0.25098E-05   920   0.358E-02    0.899E+00
DAV:   6    -0.889942565372E+01    0.13994E+01   -0.18946E+01   720   0.674E+01    0.271E+00
DAV:   7    -0.870654635078E+01    0.19288E+00   -0.16817E+00   712   0.189E+01    0.731E-01
DAV:   8    -0.868764343443E+01    0.18903E-01   -0.65917E-02   784   0.272E+00    0.205E-01
DAV:   9    -0.868666283555E+01    0.98060E-03   -0.53342E-03   728   0.115E+00    0.314E-02
DAV:  10    -0.868665831760E+01    0.45179E-05   -0.59169E-05   864   0.120E-01    0.110E-02
DAV:  11    -0.868665749584E+01    0.82177E-06   -0.65550E-07   440   0.113E-02
   1 F= -.86866575E+01 E0= -.86853384E+01  d E =-.868666E+01
 curvature:   0.00 expect dE= 0.000E+00 dE for cont linesearch  0.000E+00
 trial: gam= 0.00000 g(F)=  0.235E-63 g(S)=  0.146E+01 ort = 0.000E+00 (trialstep = 0.100E+01)
 search vector abs. value=  0.146E+01
 bond charge predicted
       N       E                     dE             d eps       ncg     rms          rms(c)
DAV:   1    -0.219693756106E+02   -0.13283E+02   -0.35920E+02   720   0.312E+02    0.270E+01
DAV:   2    -0.885707775626E+01    0.13112E+02   -0.56103E+01   736   0.169E+02    0.663E+00
DAV:   3    -0.800298664139E+01    0.85409E+00   -0.59347E-01  1016   0.841E+00    0.314E+00
DAV:   4    -0.774378343476E+01    0.25920E+00   -0.36914E-01   720   0.893E+00    0.195E-01
DAV:   5    -0.774360016824E+01    0.18327E-03   -0.98854E-03   752   0.203E+00    0.175E-01
DAV:   6    -0.774328216272E+01    0.31801E-03   -0.17330E-03   776   0.809E-01    0.112E-02
DAV:   7    -0.774328062432E+01    0.15384E-05   -0.16636E-05   776   0.838E-02    0.125E-03
DAV:   8    -0.774328097468E+01   -0.35036E-06   -0.35093E-07   384   0.920E-03
   2 F= -.77432810E+01 E0= -.77435695E+01  d E =0.943377E+00
 trial-energy change:    0.943377  1 .order    1.377371   -1.463280    4.218022
 step:   0.3636(harm=  0.2576)  dis= 0.00000  next Energy=    -8.973563 (dE=-0.287E+00)
 bond charge predicted
       N       E                     dE             d eps       ncg     rms          rms(c)
DAV:   1    -0.154746921944E+02   -0.77314E+01   -0.20470E+02   704   0.312E+02    0.189E+01
DAV:   2    -0.973126161447E+01    0.57434E+01   -0.57525E+01   712   0.109E+02    0.302E+00
DAV:   3    -0.915740273913E+01    0.57386E+00   -0.25915E+00   704   0.301E+01    0.190E+00
DAV:   4    -0.899928081836E+01    0.15812E+00   -0.18427E-01   800   0.405E+00    0.158E-01
DAV:   5    -0.900038717178E+01   -0.11064E-02   -0.10333E-03   816   0.300E-01    0.128E-01
DAV:   6    -0.900008149317E+01    0.30568E-03   -0.12099E-04   960   0.101E-01    0.252E-02
DAV:   7    -0.900006149299E+01    0.20000E-04   -0.17422E-05   576   0.404E-02    0.246E-03
DAV:   8    -0.900006198939E+01   -0.49640E-06   -0.34159E-07   360   0.797E-03
   3 F= -.90000620E+01 E0= -.90004761E+01  d E =-.313404E+00
 curvature:  -0.13 expect dE=-0.185E-02 dE for cont linesearch -0.185E-02
 ZBRENT: interpolating
 opt :   0.3850  next Energy=    -9.001628 (dE=-0.315E+00)
 bond charge predicted
       N       E                     dE             d eps       ncg     rms          rms(c)
DAV:   1    -0.900994805868E+01   -0.98866E-02   -0.20950E-01   704   0.885E+00    0.654E-01
DAV:   2    -0.900309770171E+01    0.68504E-02   -0.69802E-02   712   0.441E+00    0.117E-01
DAV:   3    -0.900247282176E+01    0.62488E-03   -0.31055E-03   704   0.101E+00    0.710E-02
DAV:   4    -0.900231389651E+01    0.15893E-03   -0.21368E-04   800   0.128E-01    0.673E-03
DAV:   5    -0.900231377521E+01    0.12129E-06   -0.96314E-07   552   0.112E-02
   4 F= -.90023138E+01 E0= -.90027934E+01  d E =-.315656E+00
 curvature:  -0.11 expect dE=-0.237E-03 dE for cont linesearch -0.237E-03
 ZBRENT: interpolating
 opt :   0.3984  next Energy=    -9.002702 (dE=-0.316E+00)
 bond charge predicted
       N       E                     dE             d eps       ncg     rms          rms(c)
DAV:   1    -0.900562527866E+01   -0.33114E-02   -0.83249E-02   704   0.561E+00    0.410E-01
DAV:   2    -0.900292489749E+01    0.27004E-02   -0.27192E-02   712   0.276E+00    0.720E-02
DAV:   3    -0.900268551723E+01    0.23938E-03   -0.11684E-03   704   0.625E-01    0.444E-02
DAV:   4    -0.900262332551E+01    0.62192E-04   -0.83982E-05   800   0.810E-02    0.417E-03
DAV:   5    -0.900262334083E+01   -0.15320E-07   -0.34426E-07   432   0.674E-03
   5 F= -.90026233E+01 E0= -.90031412E+01  d E =-.315966E+00
 curvature:  -0.17 expect dE=-0.355E-05 dE for cont linesearch -0.355E-05
 trial: gam= 0.00000 g(F)=  0.235E-62 g(S)=  0.203E-04 ort =-0.545E-02 (trialstep = 0.880E+00)
 search vector abs. value=  0.203E-04
 reached required accuracy - stopping structural energy minimisation
