bcc Fe                                  
           1
    -1.335000    1.335000    1.335000
     1.335000   -1.335000    1.335000
     1.335000    1.335000   -1.335000
   Fe
   1
Direct configuration=     1
   0.00000000  0.00000000  0.00000000
bcc Fe                                  
           1
    -1.357541    1.357541    1.357541
     1.357541   -1.357541    1.357541
     1.357541    1.357541   -1.357541
   Fe
   1
Direct configuration=     2
   0.00000000  0.00000000  0.00000000
bcc Fe                                  
           1
    -1.341434    1.341434    1.341434
     1.341434   -1.341434    1.341434
     1.341434    1.341434   -1.341434
   Fe
   1
Direct configuration=     3
   0.00000000  0.00000000  0.00000000
