FCC Fe                                  
   3.45000000000000     
     0.000000    0.500000    0.500000
     0.500000    0.000000    0.500000
     0.500000    0.500000    0.000000
   Fe
     1
Direct
  0.000000  0.000000  0.000000
 
   20   20   20
  85.874      80.956      67.832      50.494      33.342      19.567      10.557      6.0420      4.5060      3.9884    
  3.8152      3.9884      4.5060      6.0420      10.557      19.567      33.342      50.494      67.832      80.956    
  80.956      71.958      56.833      39.837      24.761      13.833      7.5466      4.9449      4.1626      3.8232    
  3.8237      4.1634      4.9450      7.5477      13.837      24.764      39.833      56.817      71.940      80.948    
  67.832      56.833      42.267      27.863      16.382      9.0283      5.4903      4.3219      3.8479      3.6901    
  3.8483      4.3218      5.4904      9.0312      16.387      27.864      42.259      56.816      67.817      71.940    
  50.494      39.837      27.863      17.344      9.9501      5.9635      4.4560      3.8837      3.6007      3.6007    
  3.8834      4.4550      5.9629      9.9513      17.347      27.865      39.837      50.491      56.816      56.817    
  33.342      24.761      16.382      9.9501      6.1523      4.5443      3.9165      3.5528      3.4372      3.5532    
  3.9165      4.5428      6.1495      9.9477      16.382      24.764      33.348      39.837      42.259      39.833    
  19.567      13.833      9.0283      5.9635      4.5443      3.9302      3.5347      3.3490      3.3494      3.5357    
  3.9316      4.5444      5.9608      9.0231      13.828      19.565      24.764      27.865      27.864      24.764    
  10.557      7.5466      5.4903      4.4560      3.9165      3.5347      3.3220      3.2560      3.3219      3.5362    
  3.9201      4.4596      5.4905      7.5417      10.549      13.828      16.382      17.347      16.387      13.837    
  6.0420      4.9449      4.3219      3.8837      3.5528      3.3490      3.2560      3.2553      3.3477      3.5529    
  3.8872      4.3281      4.9503      6.0422      7.5417      9.0231      9.9477      9.9513      9.0312      7.5477    
  4.5060      4.1626      3.8479      3.6007      3.4372      3.3494      3.3219      3.3477      3.4337      3.5971    
  3.8479      4.1682      4.5142      4.9503      5.4905      5.9608      6.1495      5.9629      5.4904      4.9450    
  3.9884      3.8232      3.6901      3.6007      3.5532      3.5357      3.5362      3.5529      3.5971      3.6837    
  3.8181      3.9883      4.1682      4.3281      4.4596      4.5444      4.5428      4.4550      4.3218      4.1634    
  3.8152      3.8237      3.8483      3.8834      3.9165      3.9316      3.9201      3.8872      3.8479      3.8181    
  3.8072      3.8181      3.8479      3.8872      3.9201      3.9316      3.9165      3.8834      3.8483      3.8237    
  3.9884      4.1634      4.3218      4.4550      4.5428      4.5444      4.4596      4.3281      4.1682      3.9883    
  3.8181      3.6837      3.5971      3.5529      3.5362      3.5357      3.5532      3.6007      3.6901      3.8232    
  4.5060      4.9450      5.4904      5.9629      6.1495      5.9608      5.4905      4.9503      4.5142      4.1682    
  3.8479      3.5971      3.4337      3.3477      3.3219      3.3494      3.4372      3.6007      3.8479      4.1626    
  6.0420      7.5477      9.0312      9.9513      9.9477      9.0231      7.5417      6.0422      4.9503      4.3281    
  3.8872      3.5529      3.3477      3.2553      3.2560      3.3490      3.5528      3.8837      4.3219      4.9449    
  10.557      13.837      16.387      17.347      16.382      13.828      10.549      7.5417      5.4905      4.4596    
  3.9201      3.5362      3.3219      3.2560      3.3220      3.5347      3.9165      4.4560      5.4903      7.5466    
  19.567      24.764      27.864      27.865      24.764      19.565      13.828      9.0231      5.9608      4.5444    
  3.9316      3.5357      3.3494      3.3490      3.5347      3.9302      4.5443      5.9635      9.0283      13.833    
  33.342      39.833      42.259      39.837      33.348      24.764      16.382      9.9477      6.1495      4.5428    
  3.9165      3.5532      3.4372      3.5528      3.9165      4.5443      6.1523      9.9501      16.382      24.761    
  50.494      56.817      56.816      50.491      39.837      27.865      17.347      9.9513      5.9629      4.4550    
  3.8834      3.6007      3.6007      3.8837      4.4560      5.9635      9.9501      17.344      27.863      39.837    
  67.832      71.940      67.817      56.816      42.259      27.864      16.387      9.0312      5.4904      4.3218    
  3.8483      3.6901      3.8479      4.3219      5.4903      9.0283      16.382      27.863      42.267      56.833    
  80.956      80.948      71.940      56.817      39.833      24.764      13.837      7.5477      4.9450      4.1634    
  3.8237      3.8232      4.1626      4.9449      7.5466      13.833      24.761      39.837      56.833      71.958    
  80.956      71.958      56.833      39.837      24.761      13.833      7.5466      4.9449      4.1626      3.8232    
  3.8237      4.1634      4.9450      7.5477      13.837      24.764      39.833      56.817      71.940      80.948    
  71.958      60.250      44.778      29.506      17.327      9.4846      5.6614      4.3893      3.9033      3.7407    
  3.9036      4.3890      5.6619      9.4893      17.335      29.507      44.763      60.223      71.936      76.335    
  56.833      44.778      31.277      19.420      11.023      6.4003      4.6053      3.9874      3.6873      3.6873    
  3.9868      4.6042      6.4015      11.028      19.427      31.276      44.766      56.817      63.999      64.006    
  39.837      29.506      19.420      11.608      6.8742      4.7901      4.0592      3.6628      3.5352      3.6632    
  4.0586      4.7880      6.8728      11.610      19.425      29.511      39.840      47.679      50.615      47.678    
  24.761      17.327      11.023      6.8742      4.8658      4.1025      3.6582      3.4456      3.4461      3.6591    
  4.1021      4.8631      6.8704      11.021      17.330      24.768      31.496      35.513      35.510      31.488    
  13.833      9.4846      6.4003      4.7901      4.1025      3.6596      3.4070      3.3286      3.4072      3.6609    
  4.1044      4.7903      6.3971      9.4794      13.829      18.484      22.082      23.437      22.081      18.485    
  7.5466      5.6614      4.6053      4.0592      3.6582      3.4070      3.2927      3.2922      3.4067      3.6605    
  4.0638      4.6093      5.6614      7.5418      10.015      12.389      13.848      13.850      12.395      10.023    
  4.9449      4.3893      3.9874      3.6628      3.4456      3.3286      3.2922      3.3272      3.4439      3.6629    
  3.9911      4.3958      4.9503      5.8349      6.9172      7.8249      8.1814      7.8292      6.9213      5.8343    
  4.1626      3.9033      3.6873      3.5352      3.4461      3.4072      3.4067      3.4439      3.5308      3.6831    
  3.9034      4.1683      4.4359      4.7333      5.0521      5.2684      5.2686      5.0510      4.7284      4.4283    
  3.8232      3.7407      3.6873      3.6632      3.6591      3.6609      3.6605      3.6629      3.6831      3.7341    
  3.8183      3.9257      4.0386      4.1374      4.2047      4.2285      4.2013      4.1322      4.0346      3.9258    
  3.8237      3.9036      3.9868      4.0586      4.1021      4.1044      4.0638      3.9911      3.9034      3.8183    
  3.7500      3.7078      3.6929      3.6964      3.7028      3.7012      3.6937      3.6932      3.7129      3.7576    
  4.1634      4.3890      4.6042      4.7880      4.8631      4.7903      4.6093      4.3958      4.1683      3.9257    
  3.7078      3.5440      3.4418      3.3904      3.3751      3.3907      3.4443      3.5491      3.7123      3.9258    
  4.9450      5.6619      6.4015      6.8728      6.8704      6.3971      5.6614      4.9503      4.4359      4.0386    
  3.6929      3.4418      3.2909      3.2233      3.2242      3.2933      3.4444      3.6929      4.0338      4.4283    
  7.5477      9.4893      11.028      11.610      11.021      9.4794      7.5418      5.8349      4.7333      4.1374    
  3.6964      3.3904      3.2233      3.1723      3.2241      3.3904      3.6940      4.1325      4.7284      5.8343    
  13.837      17.335      19.427      19.425      17.330      13.829      10.015      6.9172      5.0521      4.2047    
  3.7028      3.3751      3.2242      3.2241      3.3742      3.7004      4.2022      5.0521      6.9214      10.023    
  24.764      29.507      31.276      29.511      24.768      18.484      12.389      7.8249      5.2684      4.2285    
  3.7012      3.3907      3.2933      3.3904      3.7004      4.2281      5.2704      7.8295      12.394      18.485    
  39.833      44.763      44.766      39.840      31.496      22.082      13.848      8.1814      5.2686      4.2013    
  3.6937      3.4443      3.4444      3.6940      4.2022      5.2704      8.1836      13.848      22.079      31.488    
  56.817      60.223      56.817      47.679      35.513      23.437      13.850      7.8292      5.0510      4.1322    
  3.6932      3.5491      3.6929      4.1325      5.0521      7.8295      13.848      23.434      35.511      47.678    
  71.940      71.936      63.999      50.615      35.510      22.081      12.395      6.9213      4.7284      4.0346    
  3.7129      3.7123      4.0338      4.7284      6.9214      12.394      22.079      35.511      50.621      64.006    
  80.948      76.335      64.006      47.678      31.488      18.485      10.023      5.8343      4.4283      3.9258    
  3.7576      3.9258      4.4283      5.8343      10.023      18.485      31.488      47.678      64.006      76.335    
  67.832      56.833      42.267      27.863      16.382      9.0283      5.4903      4.3219      3.8479      3.6901    
  3.8483      4.3218      5.4904      9.0312      16.387      27.864      42.259      56.816      67.817      71.940    
  56.833      44.778      31.277      19.420      11.023      6.4003      4.6053      3.9874      3.6873      3.6873    
  3.9868      4.6042      6.4015      11.028      19.427      31.276      44.766      56.817      63.999      64.006    
  42.267      31.277      20.555      12.233      7.1522      4.8849      4.1090      3.7018      3.5701      3.7021    
  4.1080      4.8828      7.1523      12.238      20.563      31.281      42.267      50.618      53.751      50.621    
  27.863      19.420      12.233      7.4438      5.0689      4.1933      3.7255      3.4986      3.4992      3.7261    
  4.1919      5.0653      7.4408      12.235      19.428      27.876      35.522      40.096      40.092      35.511    
  16.382      11.023      7.1522      5.0689      4.2239      3.7443      3.4651      3.3784      3.4656      3.7449    
  4.2232      5.0655      7.1472      11.020      16.387      22.089      26.491      28.146      26.482      22.079    
  9.0283      6.4003      4.8849      4.1933      3.7443      3.4564      3.3253      3.3250      3.4565      3.7461    
  4.1956      4.8846      6.3963      9.0234      12.391      15.582      17.530      17.530      15.581      12.394    
  5.4903      4.6053      4.1090      3.7255      3.4651      3.3253      3.2821      3.3243      3.4652      3.7281    
  4.1135      4.6089      5.4902      6.9173      8.6077      9.9936      10.531      9.9976      8.6135      6.9214    
  4.3219      3.9874      3.7018      3.4986      3.3784      3.3250      3.3243      3.3766      3.4965      3.7017    
  3.9910      4.3281      4.7333      5.3027      5.9165      6.3222      6.3237      5.9189      5.3020      4.7284    
  3.8479      3.6873      3.5701      3.4992      3.4656      3.4565      3.4652      3.4965      3.5651      3.6831    
  3.8482      4.0388      4.2220      4.3836      4.5198      4.5758      4.5184      4.3796      4.2158      4.0338    
  3.6901      3.6873      3.7021      3.7261      3.7449      3.7461      3.7281      3.7017      3.6831      3.6841    
  3.7082      3.7512      3.8037      3.8516      3.8797      3.8782      3.8480      3.8007      3.7514      3.7123    
  3.8483      3.9868      4.1080      4.1919      4.2232      4.1956      4.1135      3.9910      3.8482      3.7082    
  3.5917      3.5116      3.4681      3.4505      3.4456      3.4490      3.4681      3.5153      3.5979      3.7129    
  4.3218      4.6042      4.8828      5.0653      5.0655      4.8846      4.6089      4.3281      4.0388      3.7512    
  3.5116      3.3433      3.2447      3.2010      3.2012      3.2461      3.3466      3.5149      3.7514      4.0346    
  5.4904      6.4015      7.1523      7.4408      7.1472      6.3963      5.4902      4.7333      4.2220      3.8037    
  3.4681      3.2447      3.1246      3.0881      3.1259      3.2463      3.4680      3.8002      4.2158      4.7284    
  9.0312      11.028      12.238      12.235      11.020      9.0234      6.9173      5.3027      4.3836      3.8516    
  3.4505      3.2010      3.0881      3.0884      3.2011      3.4491      3.8483      4.3801      5.3020      6.9213    
  16.387      19.427      20.563      19.428      16.387      12.391      8.6077      5.9165      4.5198      3.8797    
  3.4456      3.2012      3.1259      3.2011      3.4444      3.8779      4.5198      5.9202      8.6135      12.395    
  27.864      31.276      31.281      27.876      22.089      15.582      9.9936      6.3222      4.5758      3.8782    
  3.4490      3.2461      3.2463      3.4491      3.8779      4.5767      6.3260      9.9979      15.581      22.081    
  42.259      44.766      42.267      35.522      26.491      17.530      10.531      6.3237      4.5184      3.8480    
  3.4681      3.3466      3.4680      3.8483      4.5198      6.3260      10.532      17.527      26.482      35.510    
  56.816      56.817      50.618      40.096      28.146      17.530      9.9976      5.9189      4.3796      3.8007    
  3.5153      3.5149      3.8002      4.3801      5.9202      9.9979      17.527      28.142      40.092      50.615    
  67.817      63.999      53.751      40.092      26.482      15.581      8.6135      5.3020      4.2158      3.7514    
  3.5979      3.7514      4.2158      5.3020      8.6135      15.581      26.482      40.092      53.751      63.999    
  71.940      64.006      50.621      35.511      22.079      12.394      6.9214      4.7284      4.0338      3.7123    
  3.7129      4.0346      4.7284      6.9213      12.395      22.081      35.510      50.615      63.999      71.936    
  50.494      39.837      27.863      17.344      9.9501      5.9635      4.4560      3.8837      3.6007      3.6007    
  3.8834      4.4550      5.9629      9.9513      17.347      27.865      39.837      50.491      56.816      56.817    
  39.837      29.506      19.420      11.608      6.8742      4.7901      4.0592      3.6628      3.5352      3.6632    
  4.0586      4.7880      6.8728      11.610      19.425      29.511      39.840      47.679      50.615      47.678    
  27.863      19.420      12.233      7.4438      5.0689      4.1933      3.7255      3.4986      3.4992      3.7261    
  4.1919      5.0653      7.4408      12.235      19.428      27.876      35.522      40.096      40.092      35.511    
  17.344      11.608      7.4438      5.1788      4.2655      3.7741      3.4860      3.3964      3.4864      3.7744    
  4.2641      5.1743      7.4381      11.608      17.354      23.450      28.155      29.924      28.142      23.434    
  9.9501      6.8742      5.0689      4.2655      3.7924      3.4849      3.3447      3.3446      3.4854      3.7937    
  4.2653      5.0644      6.8670      9.9467      13.853      17.536      19.781      19.776      17.527      13.848    
  5.9635      4.7901      4.1933      3.7741      3.4849      3.3296      3.2821      3.3291      3.4857      3.7767    
  4.1953      4.7886      5.9586      7.8243      9.9949      11.756      12.435      11.757      9.9979      7.8295    
  4.4560      4.0592      3.7255      3.4860      3.3447      3.2821      3.2814      3.3436      3.4863      3.7282    
  4.0633      4.4588      5.0513      5.9159      6.8277      7.4198      7.4220      6.8327      5.9202      5.0521    
  3.8837      3.6628      3.4986      3.3964      3.3446      3.3291      3.3436      3.3942      3.4965      3.6627    
  3.8870      4.1374      4.3834      4.6589      4.9072      5.0099      4.9083      4.6586      4.3801      4.1325    
  3.6007      3.5352      3.4992      3.4864      3.4854      3.4857      3.4863      3.4965      3.5304      3.5971    
  3.6932      3.8039      3.9089      3.9896      4.0333      4.0325      3.9869      3.9046      3.8002      3.6929    
  3.6007      3.6632      3.7261      3.7744      3.7937      3.7767      3.7282      3.6627      3.5971      3.5443    
  3.5117      3.5005      3.5055      3.5157      3.5198      3.5138      3.5036      3.5008      3.5149      3.5491    
  3.8834      4.0586      4.1919      4.2641      4.2653      4.1953      4.0633      3.8870      3.6932      3.5117    
  3.3665      3.2678      3.2121      3.1881      3.1876      3.2120      3.2701      3.3709      3.5153      3.6932    
  4.4550      4.7880      5.0653      5.1743      5.0644      4.7886      4.4588      4.1374      3.8039      3.5005    
  3.2678      3.1163      3.0354      3.0104      3.0359      3.1180      3.2699      3.5008      3.8007      4.1322    
  5.9629      6.8728      7.4408      7.4381      6.8670      5.9586      5.0513      4.3834      3.9089      3.5055    
  3.2121      3.0354      2.9560      2.9564      3.0362      3.2120      3.5032      3.9046      4.3796      5.0510    
  9.9513      11.610      12.235      11.608      9.9467      7.8243      5.9159      4.6589      3.9896      3.5157    
  3.1881      3.0104      2.9564      3.0109      3.1876      3.5135      3.9873      4.6586      5.9189      7.8292    
  17.347      19.425      19.428      17.354      13.853      9.9949      6.8277      4.9072      4.0333      3.5198    
  3.1876      3.0359      3.0362      3.1876      3.5188      4.0329      4.9098      6.8327      9.9976      13.850    
  27.865      29.511      27.876      23.450      17.536      11.756      7.4198      5.0099      4.0325      3.5138    
  3.2120      3.1180      3.2120      3.5135      4.0329      5.0125      7.4238      11.757      17.530      23.437    
  39.837      39.840      35.522      28.155      19.781      12.435      7.4220      4.9083      3.9869      3.5036    
  3.2701      3.2699      3.5032      3.9873      4.9098      7.4238      12.434      19.776      28.146      35.513    
  50.491      47.679      40.096      29.924      19.776      11.757      6.8327      4.6586      3.9046      3.5008    
  3.3709      3.5008      3.9046      4.6586      6.8327      11.757      19.776      29.924      40.096      47.679    
  56.816      50.615      40.092      28.142      17.527      9.9979      5.9202      4.3801      3.8002      3.5149    
  3.5153      3.8007      4.3796      5.9189      9.9976      17.530      28.146      40.096      50.618      56.817    
  56.817      47.678      35.511      23.434      13.848      7.8295      5.0521      4.1325      3.6929      3.5491    
  3.6932      4.1322      5.0510      7.8292      13.850      23.437      35.513      47.679      56.817      60.223    
  33.342      24.761      16.382      9.9501      6.1523      4.5443      3.9165      3.5528      3.4372      3.5532    
  3.9165      4.5428      6.1495      9.9477      16.382      24.764      33.348      39.837      42.259      39.833    
  24.761      17.327      11.023      6.8742      4.8658      4.1025      3.6582      3.4456      3.4461      3.6591    
  4.1021      4.8631      6.8704      11.021      17.330      24.768      31.496      35.513      35.510      31.488    
  16.382      11.023      7.1522      5.0689      4.2239      3.7443      3.4651      3.3784      3.4656      3.7449    
  4.2232      5.0655      7.1472      11.020      16.387      22.089      26.491      28.146      26.482      22.079    
  9.9501      6.8742      5.0689      4.2655      3.7924      3.4849      3.3447      3.3446      3.4854      3.7937    
  4.2653      5.0644      6.8670      9.9467      13.853      17.536      19.781      19.776      17.527      13.848    
  6.1523      4.8658      4.2239      3.7924      3.4928      3.3321      3.2834      3.3322      3.4942      3.7947    
  4.2239      4.8612      6.1450      8.1787      10.532      12.436      13.168      12.434      10.532      8.1836    
  4.5443      4.1025      3.7443      3.4849      3.3321      3.2651      3.2648      3.3320      3.4864      3.7471    
  4.1043      4.5429      5.2657      6.3201      7.4193      8.1275      8.1291      7.4238      6.3260      5.2704    
  3.9165      3.6582      3.4651      3.3447      3.2834      3.2648      3.2824      3.3438      3.4657      3.6608    
  3.9200      4.2042      4.5185      4.9061      5.2553      5.3987      5.2585      4.9098      4.5198      4.2022    
  3.5528      3.4456      3.3784      3.3446      3.3322      3.3320      3.3438      3.3766      3.4438      3.5529    
  3.6965      3.8516      3.9893      4.0919      4.1542      4.1544      4.0916      3.9873      3.8483      3.6940    
  3.4372      3.4461      3.4656      3.4854      3.4942      3.4864      3.4657      3.4438      3.4334      3.4417    
  3.4681      3.5055      3.5435      3.5714      3.5812      3.5698      3.5408      3.5032      3.4680      3.4444    
  3.5532      3.6591      3.7449      3.7937      3.7947      3.7471      3.6608      3.5529      3.4417      3.3431    
  3.2676      3.2185      3.1923      3.1817      3.1810      3.1913      3.2187      3.2699      3.3466      3.4443    
  3.9165      4.1021      4.2232      4.2653      4.2239      4.1043      3.9200      3.6965      3.4681      3.2676    
  3.1153      3.0155      2.9612      2.9441      2.9611      3.0166      3.1181      3.2701      3.4681      3.6937    
  4.5428      4.8631      5.0655      5.0644      4.8612      4.5429      4.2042      3.8516      3.5055      3.2185    
  3.0155      2.8935      2.8380      2.8381      2.8941      3.0165      3.2187      3.5036      3.8480      4.2013    
  6.1495      6.8704      7.1472      6.8670      6.1450      5.2657      4.5185      3.9893      3.5435      3.1923    
  2.9612      2.8380      2.8005      2.8385      2.9613      3.1909      3.5408      3.9869      4.5184      5.2686    
  9.9477      11.021      11.020      9.9467      8.1787      6.3201      4.9061      4.0919      3.5714      3.1817    
  2.9441      2.8381      2.8385      2.9444      3.1807      3.5697      4.0916      4.9083      6.3237      8.1814    
  16.382      17.330      16.387      13.853      10.532      7.4193      5.2553      4.1542      3.5812      3.1810    
  2.9611      2.8941      2.9613      3.1807      3.5809      4.1555      5.2585      7.4220      10.531      13.848    
  24.764      24.768      22.089      17.536      12.436      8.1275      5.3987      4.1544      3.5698      3.1913    
  3.0166      3.0165      3.1909      3.5697      4.1555      5.4011      8.1291      12.435      17.530      22.082    
  33.348      31.496      26.491      19.781      13.168      8.1291      5.2585      4.0916      3.5408      3.2187    
  3.1181      3.2187      3.5408      4.0916      5.2585      8.1291      13.168      19.781      26.491      31.496    
  39.837      35.513      28.146      19.776      12.434      7.4238      4.9098      3.9873      3.5032      3.2699    
  3.2701      3.5036      3.9869      4.9083      7.4220      12.435      19.781      28.155      35.522      39.840    
  42.259      35.510      26.482      17.527      10.532      6.3260      4.5198      3.8483      3.4680      3.3466    
  3.4681      3.8480      4.5184      6.3237      10.531      17.530      26.491      35.522      42.267      44.766    
  39.833      31.488      22.079      13.848      8.1836      5.2704      4.2022      3.6940      3.4444      3.4443    
  3.6937      4.2013      5.2686      8.1814      13.848      22.082      31.496      39.840      44.766      44.763    
  19.567      13.833      9.0283      5.9635      4.5443      3.9302      3.5347      3.3490      3.3494      3.5357    
  3.9316      4.5444      5.9608      9.0231      13.828      19.565      24.764      27.865      27.864      24.764    
  13.833      9.4846      6.4003      4.7901      4.1025      3.6596      3.4070      3.3286      3.4072      3.6609    
  4.1044      4.7903      6.3971      9.4794      13.829      18.484      22.082      23.437      22.081      18.485    
  9.0283      6.4003      4.8849      4.1933      3.7443      3.4564      3.3253      3.3250      3.4565      3.7461    
  4.1956      4.8846      6.3963      9.0234      12.391      15.582      17.530      17.530      15.581      12.394    
  5.9635      4.7901      4.1933      3.7741      3.4849      3.3296      3.2821      3.3291      3.4857      3.7767    
  4.1953      4.7886      5.9586      7.8243      9.9949      11.756      12.435      11.757      9.9979      7.8295    
  4.5443      4.1025      3.7443      3.4849      3.3321      3.2651      3.2648      3.3320      3.4864      3.7471    
  4.1043      4.5429      5.2657      6.3201      7.4193      8.1275      8.1291      7.4238      6.3260      5.2704    
  3.9302      3.6596      3.4564      3.3296      3.2651      3.2457      3.2645      3.3294      3.4577      3.6624    
  3.9330      4.2287      4.5738      5.0075      5.3972      5.5568      5.4011      5.0125      4.5767      4.2281    
  3.5347      3.4070      3.3253      3.2821      3.2648      3.2645      3.2814      3.3245      3.4073      3.5369    
  3.7038      3.8800      4.0322      4.1532      4.2315      4.2328      4.1555      4.0329      3.8779      3.7004    
  3.3490      3.3286      3.3250      3.3291      3.3320      3.3294      3.3245      3.3271      3.3477      3.3906    
  3.4509      3.5158      3.5710      3.6070      3.6193      3.6066      3.5697      3.5135      3.4491      3.3904    
  3.3494      3.4072      3.4565      3.4857      3.4864      3.4577      3.4073      3.3477      3.2908      3.2445    
  3.2119      3.1922      3.1822      3.1781      3.1775      3.1807      3.1909      3.2120      3.2463      3.2933    
  3.5357      3.6609      3.7461      3.7767      3.7471      3.6624      3.5369      3.3906      3.2445      3.1158    
  3.0151      2.9457      2.9059      2.8928      2.9054      2.9457      3.0165      3.1180      3.2461      3.3907    
  3.9316      4.1044      4.1956      4.1953      4.1043      3.9330      3.7038      3.4509      3.2119      3.0151    
  2.8728      2.7837      2.7414      2.7414      2.7841      2.8741      3.0166      3.2120      3.4490      3.7012    
  4.5444      4.7903      4.8846      4.7886      4.5429      4.2287      3.8800      3.5158      3.1922      2.9457    
  2.7837      2.6955      2.6679      2.6957      2.7841      2.9457      3.1913      3.5138      3.8782      4.2285    
  5.9608      6.3971      6.3963      5.9586      5.2657      4.5738      4.0322      3.5710      3.1822      2.9059    
  2.7414      2.6679      2.6682      2.7417      2.9053      3.1807      3.5698      4.0325      4.5758      5.2684    
  9.0231      9.4794      9.0234      7.8243      6.3201      5.0075      4.1532      3.6070      3.1781      2.8928    
  2.7414      2.6957      2.7417      2.8927      3.1773      3.6066      4.1544      5.0099      6.3222      7.8249    
  13.828      13.829      12.391      9.9949      7.4193      5.3972      4.2315      3.6193      3.1775      2.9054    
  2.7841      2.7841      2.9053      3.1773      3.6196      4.2328      5.3987      7.4198      9.9936      12.389    
  19.565      18.484      15.582      11.756      8.1275      5.5568      4.2328      3.6066      3.1807      2.9457    
  2.8741      2.9457      3.1807      3.6066      4.2328      5.5568      8.1275      11.756      15.582      18.484    
  24.764      22.082      17.530      12.435      8.1291      5.4011      4.1555      3.5697      3.1909      3.0165    
  3.0166      3.1913      3.5698      4.1544      5.3987      8.1275      12.436      17.536      22.089      24.768    
  27.865      23.437      17.530      11.757      7.4238      5.0125      4.0329      3.5135      3.2120      3.1180    
  3.2120      3.5138      4.0325      5.0099      7.4198      11.756      17.536      23.450      27.876      29.511    
  27.864      22.081      15.581      9.9979      6.3260      4.5767      3.8779      3.4491      3.2463      3.2461    
  3.4490      3.8782      4.5758      6.3222      9.9936      15.582      22.089      27.876      31.281      31.276    
  24.764      18.485      12.394      7.8295      5.2704      4.2281      3.7004      3.3904      3.2933      3.3907    
  3.7012      4.2285      5.2684      7.8249      12.389      18.484      24.768      29.511      31.276      29.507    
  10.557      7.5466      5.4903      4.4560      3.9165      3.5347      3.3220      3.2560      3.3219      3.5362    
  3.9201      4.4596      5.4905      7.5417      10.549      13.828      16.382      17.347      16.387      13.837    
  7.5466      5.6614      4.6053      4.0592      3.6582      3.4070      3.2927      3.2922      3.4067      3.6605    
  4.0638      4.6093      5.6614      7.5418      10.015      12.389      13.848      13.850      12.395      10.023    
  5.4903      4.6053      4.1090      3.7255      3.4651      3.3253      3.2821      3.3243      3.4652      3.7281    