       N       E                     dE             d eps       ncg     rms          rms(c)
DAV:   1     0.330078181284E+01    0.33008E+01   -0.30082E+03 12840   0.763E+02
DAV:   2    -0.108613610481E+02   -0.14162E+02   -0.13510E+02 12616   0.104E+02
DAV:   3    -0.109331424926E+02   -0.71781E-01   -0.71752E-01 17096   0.947E+00
DAV:   4    -0.109333973922E+02   -0.25490E-03   -0.25490E-03 14200   0.419E-01
DAV:   5    -0.109333990819E+02   -0.16897E-05   -0.16905E-05 16584   0.247E-02    0.920E+00
DAV:   6    -0.942924282519E+01    0.15042E+01   -0.16245E+01 12568   0.661E+01    0.178E+00
DAV:   7    -0.930574011696E+01    0.12350E+00   -0.86234E-01 12576   0.149E+01    0.625E-01
DAV:   8    -0.928451957113E+01    0.21221E-01   -0.28166E-02 18064   0.158E+00    0.835E-02
DAV:   9    -0.928418445333E+01    0.33512E-03   -0.10752E-03 13640   0.605E-01    0.266E-02
DAV:  10    -0.928419740356E+01   -0.12950E-04   -0.19859E-05 15840   0.706E-02    0.430E-03
DAV:  11    -0.928419762852E+01   -0.22496E-06   -0.49624E-07  7088   0.111E-02
   1 F= -.92841976E+01 E0= -.92843408E+01  d E =0.429545E-03
