a= 3.25
 running on    1 total cores
 distrk:  each k-point on    1 cores,    1 groups
 distr:  one band on    1 cores,    1 groups
 using from now: INCAR     
 vasp.5.4.4.18Apr17-6-g9f103f2a35 (build May 20 2018 16:52:39) complex          
  
 POSCAR found type information on POSCAR  Fe
 POSCAR found :  1 types and       1 ions
 scaLAPACK will be used
 LDA part: xc-table for Ceperly-Alder, standard interpolation
 POSCAR, INCAR and KPOINTS ok, starting setup
 FFT: planning ...
 WAVECAR not read
 entering main loop
       N       E                     dE             d eps       ncg     rms          rms(c)
DAV:   1     0.225167617246E+01    0.22517E+01   -0.30621E+03 12920   0.800E+02
DAV:   2    -0.105597498940E+02   -0.12811E+02   -0.12218E+02 12808   0.102E+02
DAV:   3    -0.106162138241E+02   -0.56464E-01   -0.56449E-01 16496   0.848E+00
DAV:   4    -0.106164251574E+02   -0.21133E-03   -0.21133E-03 13936   0.383E-01
DAV:   5    -0.106164265929E+02   -0.14355E-05   -0.14352E-05 16272   0.236E-02    0.860E+00
DAV:   6    -0.928503632831E+01    0.13314E+01   -0.98127E+00 12408   0.541E+01    0.472E-01
DAV:   7    -0.922185508772E+01    0.63181E-01   -0.14887E-01 12416   0.693E+00    0.597E-01
DAV:   8    -0.919513633132E+01    0.26719E-01   -0.14437E-02 16752   0.975E-01    0.492E-02
DAV:   9    -0.919513106271E+01    0.52686E-05   -0.23022E-04 13408   0.290E-01    0.273E-02
DAV:  10    -0.919514065224E+01   -0.95895E-05   -0.75842E-06 14912   0.393E-02    0.434E-04
DAV:  11    -0.919514064159E+01    0.10645E-07   -0.31004E-08  6328   0.191E-03
   1 F= -.91951406E+01 E0= -.91952122E+01  d E =0.214728E-03
a= 3.27
 running on    1 total cores
 distrk:  each k-point on    1 cores,    1 groups
 distr:  one band on    1 cores,    1 groups
 using from now: INCAR     
 vasp.5.4.4.18Apr17-6-g9f103f2a35 (build May 20 2018 16:52:39) complex          
  
 POSCAR found type information on POSCAR  Fe
 POSCAR found :  1 types and       1 ions
 scaLAPACK will be used
 LDA part: xc-table for Ceperly-Alder, standard interpolation
 POSCAR, INCAR and KPOINTS ok, starting setup
 FFT: planning ...
 WAVECAR not read
 entering main loop
       N       E                     dE             d eps       ncg     rms          rms(c)
DAV:   1     0.247718707233E+01    0.24772E+01   -0.30658E+03 12992   0.802E+02
DAV:   2    -0.106305475641E+02   -0.13108E+02   -0.12376E+02 12776   0.103E+02
DAV:   3    -0.106875309636E+02   -0.56983E-01   -0.56967E-01 16616   0.853E+00
DAV:   4    -0.106877386434E+02   -0.20768E-03   -0.20768E-03 13928   0.377E-01
DAV:   5    -0.106877401124E+02   -0.14690E-05   -0.14692E-05 16160   0.240E-02    0.867E+00
DAV:   6    -0.932953381572E+01    0.13582E+01   -0.10406E+01 12424   0.554E+01    0.534E-01
DAV:   7    -0.926467948822E+01    0.64854E-01   -0.18730E-01 12448   0.765E+00    0.598E-01
DAV:   8    -0.923864361467E+01    0.26036E-01   -0.15143E-02 17032   0.993E-01    0.511E-02
DAV:   9    -0.923861622486E+01    0.27390E-04   -0.27257E-04 13264   0.316E-01    0.273E-02
DAV:  10    -0.923862706993E+01   -0.10845E-04   -0.91611E-06 15040   0.450E-02    0.358E-04
DAV:  11    -0.923862705005E+01    0.19878E-07   -0.31198E-08  6448   0.207E-03
   1 F= -.92386271E+01 E0= -.92387081E+01  d E =0.243175E-03
a= 3.29
 running on    1 total cores
 distrk:  each k-point on    1 cores,    1 groups
 distr:  one band on    1 cores,    1 groups
 using from now: INCAR     
 vasp.5.4.4.18Apr17-6-g9f103f2a35 (build May 20 2018 16:52:39) complex          
  
 POSCAR found type information on POSCAR  Fe
 POSCAR found :  1 types and       1 ions
 scaLAPACK will be used
 LDA part: xc-table for Ceperly-Alder, standard interpolation
 POSCAR, INCAR and KPOINTS ok, starting setup
 FFT: planning ...
 WAVECAR not read
 entering main loop
       N       E                     dE             d eps       ncg     rms          rms(c)
DAV:   1     0.243729134308E+01    0.24373E+01   -0.30612E+03 13016   0.797E+02
DAV:   2    -0.106903577633E+02   -0.13128E+02   -0.12464E+02 12864   0.102E+02
DAV:   3    -0.107488800186E+02   -0.58522E-01   -0.58505E-01 16528   0.864E+00
DAV:   4    -0.107490987500E+02   -0.21873E-03   -0.21873E-03 14072   0.389E-01
DAV:   5    -0.107491001432E+02   -0.13932E-05   -0.13930E-05 16200   0.235E-02    0.874E+00
DAV:   6    -0.936628124053E+01    0.13828E+01   -0.11015E+01 12424   0.568E+01    0.632E-01
DAV:   7    -0.929871105302E+01    0.67570E-01   -0.23301E-01 12440   0.842E+00    0.599E-01
DAV:   8    -0.927328777787E+01    0.25423E-01   -0.16070E-02 17280   0.102E+00    0.537E-02
DAV:   9    -0.927323213503E+01    0.55643E-04   -0.32978E-04 13248   0.347E-01    0.272E-02
DAV:  10    -0.927324437738E+01   -0.12242E-04   -0.10897E-05 15128   0.503E-02    0.414E-04
DAV:  11    -0.927324436130E+01    0.16072E-07   -0.31122E-08  6504   0.186E-03
   1 F= -.92732444E+01 E0= -.92733337E+01  d E =0.268093E-03
a= 3.31
 running on    1 total cores
 distrk:  each k-point on    1 cores,    1 groups
 distr:  one band on    1 cores,    1 groups
 using from now: INCAR     
 vasp.5.4.4.18Apr17-6-g9f103f2a35 (build May 20 2018 16:52:39) complex          
  
 POSCAR found type information on POSCAR  Fe
 POSCAR found :  1 types and       1 ions
 scaLAPACK will be used
 LDA part: xc-table for Ceperly-Alder, standard interpolation
 POSCAR, INCAR and KPOINTS ok, starting setup
 FFT: planning ...
 WAVECAR not read
 entering main loop
       N       E                     dE             d eps       ncg     rms          rms(c)
DAV:   1     0.297713094292E+01    0.29771E+01   -0.30356E+03 12712   0.791E+02
DAV:   2    -0.107394584894E+02   -0.13717E+02   -0.13143E+02 12800   0.105E+02
DAV:   3    -0.108006393893E+02   -0.61181E-01   -0.61162E-01 16872   0.881E+00
DAV:   4    -0.108008567450E+02   -0.21736E-03   -0.21735E-03 13944   0.383E-01
DAV:   5    -0.108008582809E+02   -0.15359E-05   -0.15374E-05 16216   0.237E-02    0.881E+00
DAV:   6    -0.939530700592E+01    0.14056E+01   -0.11639E+01 12424   0.581E+01    0.749E-01
DAV:   7    -0.932410211310E+01    0.71205E-01   -0.28564E-01 12480   0.921E+00    0.601E-01
DAV:   8    -0.929927638544E+01    0.24826E-01   -0.17152E-02 17504   0.107E+00    0.568E-02
DAV:   9    -0.929919023692E+01    0.86149E-04   -0.39720E-04 13312   0.380E-01    0.271E-02
DAV:  10    -0.929920341908E+01   -0.13182E-04   -0.12450E-05 15368   0.547E-02    0.638E-04
DAV:  11    -0.929920339407E+01    0.25008E-07   -0.36095E-08  6568   0.193E-03
   1 F= -.92992034E+01 E0= -.92993015E+01  d E =0.294191E-03
a= 3.33
 running on    1 total cores
 distrk:  each k-point on    1 cores,    1 groups
 distr:  one band on    1 cores,    1 groups
 using from now: INCAR     
 vasp.5.4.4.18Apr17-6-g9f103f2a35 (build May 20 2018 16:52:39) complex          
  
 POSCAR found type information on POSCAR  Fe
 POSCAR found :  1 types and       1 ions
 scaLAPACK will be used
 LDA part: xc-table for Ceperly-Alder, standard interpolation
 POSCAR, INCAR and KPOINTS ok, starting setup
 FFT: planning ...
 WAVECAR not read
 entering main loop
       N       E                     dE             d eps       ncg     rms          rms(c)
DAV:   1     0.287822125963E+01    0.28782E+01   -0.30566E+03 12840   0.794E+02
DAV:   2    -0.107812489467E+02   -0.13659E+02   -0.13047E+02 12760   0.104E+02
DAV:   3    -0.108432880524E+02   -0.62039E-01   -0.62018E-01 16584   0.888E+00
DAV:   4    -0.108435248488E+02   -0.23680E-03   -0.23680E-03 14176   0.410E-01
DAV:   5    -0.108435263901E+02   -0.15412E-05   -0.15405E-05 16184   0.239E-02    0.888E+00
DAV:   6    -0.941729683611E+01    0.14262E+01   -0.12276E+01 12424   0.593E+01    0.880E-01
DAV:   7    -0.934149569313E+01    0.75801E-01   -0.34561E-01 12440   0.100E+01    0.603E-01
DAV:   8    -0.931724792993E+01    0.24248E-01   -0.18385E-02 17640   0.112E+00    0.601E-02
DAV:   9    -0.931712931501E+01    0.11861E-03   -0.47357E-04 13216   0.413E-01    0.270E-02
DAV:  10    -0.931714302283E+01   -0.13708E-04   -0.14155E-05 15568   0.590E-02    0.915E-04
DAV:  11    -0.931714299108E+01    0.31743E-07   -0.43467E-08  6648   0.237E-03
   1 F= -.93171430E+01 E0= -.93172517E+01  d E =0.326076E-03
a= 3.35
 running on    1 total cores
 distrk:  each k-point on    1 cores,    1 groups
 distr:  one band on    1 cores,    1 groups
 using from now: INCAR     
 vasp.5.4.4.18Apr17-6-g9f103f2a35 (build May 20 2018 16:52:39) complex          
  
 POSCAR found type information on POSCAR  Fe
 POSCAR found :  1 types and       1 ions
 scaLAPACK will be used
 LDA part: xc-table for Ceperly-Alder, standard interpolation
 POSCAR, INCAR and KPOINTS ok, starting setup
 FFT: planning ...
 WAVECAR not read
 entering main loop
       N       E                     dE             d eps       ncg     rms          rms(c)
DAV:   1     0.227796060966E+01    0.22780E+01   -0.30593E+03 13048   0.782E+02
DAV:   2    -0.108154436508E+02   -0.13093E+02   -0.12374E+02 12704   0.101E+02
DAV:   3    -0.108773781909E+02   -0.61935E-01   -0.61907E-01 16688   0.888E+00
DAV:   4    -0.108775994186E+02   -0.22123E-03   -0.22122E-03 14024   0.389E-01
DAV:   5    -0.108776009646E+02   -0.15460E-05   -0.15468E-05 16464   0.247E-02    0.894E+00
DAV:   6    -0.943292116336E+01    0.14447E+01   -0.12923E+01 12432   0.605E+01    0.102E+00
DAV:   7    -0.935153724701E+01    0.81384E-01   -0.41317E-01 12456   0.108E+01    0.606E-01
DAV:   8    -0.932784282917E+01    0.23694E-01   -0.19776E-02 17768   0.118E+00    0.637E-02
DAV:   9    -0.932768980751E+01    0.15302E-03   -0.55729E-04 13336   0.446E-01    0.269E-02
DAV:  10    -0.932770380169E+01   -0.13994E-04   -0.15847E-05 15520   0.630E-02    0.132E-03
DAV:  11    -0.932770376056E+01    0.41132E-07   -0.58260E-08  6640   0.302E-03
   1 F= -.93277038E+01 E0= -.93278169E+01  d E =0.339379E-03
a= 3.37
 running on    1 total cores
 distrk:  each k-point on    1 cores,    1 groups
 distr:  one band on    1 cores,    1 groups
 using from now: INCAR     
 vasp.5.4.4.18Apr17-6-g9f103f2a35 (build May 20 2018 16:52:39) complex          
  
 POSCAR found type information on POSCAR  Fe
 POSCAR found :  1 types and       1 ions
 scaLAPACK will be used
 LDA part: xc-table for Ceperly-Alder, standard interpolation
 POSCAR, INCAR and KPOINTS ok, starting setup
 FFT: planning ...
 WAVECAR not read
 entering main loop
       N       E                     dE             d eps       ncg     rms          rms(c)
DAV:   1     0.284736233392E+01    0.28474E+01   -0.30355E+03 12856   0.784E+02
DAV:   2    -0.108387090012E+02   -0.13686E+02   -0.13037E+02 12696   0.103E+02
DAV:   3    -0.109032702696E+02   -0.64561E-01   -0.64540E-01 17016   0.905E+00
DAV:   4    -0.109035032148E+02   -0.23295E-03   -0.23294E-03 13840   0.398E-01
DAV:   5    -0.109035051131E+02   -0.18984E-05   -0.18977E-05 16608   0.272E-02    0.900E+00
DAV:   6    -0.944253021698E+01    0.14610E+01   -0.13578E+01 12448   0.618E+01    0.116E+00
DAV:   7    -0.935461116161E+01    0.87919E-01   -0.48809E-01 12464   0.116E+01    0.610E-01
DAV:   8    -0.933145035539E+01    0.23161E-01   -0.21278E-02 17840   0.125E+00    0.675E-02
DAV:   9    -0.933126184814E+01    0.18851E-03   -0.64921E-04 13344   0.479E-01    0.269E-02
DAV:  10    -0.933127591474E+01   -0.14067E-04   -0.17241E-05 15504   0.660E-02    0.181E-03
DAV:  11    -0.933127587754E+01    0.37202E-07   -0.85162E-08  6768   0.396E-03
   1 F= -.93312759E+01 E0= -.93313945E+01  d E =0.355972E-03
a= 3.39
 running on    1 total cores
 distrk:  each k-point on    1 cores,    1 groups
 distr:  one band on    1 cores,    1 groups
 using from now: INCAR     
 vasp.5.4.4.18Apr17-6-g9f103f2a35 (build May 20 2018 16:52:39) complex          
  
 POSCAR found type information on POSCAR  Fe
 POSCAR found :  1 types and       1 ions
 scaLAPACK will be used
 LDA part: xc-table for Ceperly-Alder, standard interpolation
 POSCAR, INCAR and KPOINTS ok, starting setup
 FFT: planning ...
 WAVECAR not read
 entering main loop
       N       E                     dE             d eps       ncg     rms          rms(c)
DAV:   1     0.299816993038E+01    0.29982E+01   -0.30195E+03 12848   0.777E+02
DAV:   2    -0.108545363901E+02   -0.13853E+02   -0.13270E+02 12656   0.104E+02
DAV:   3    -0.109213492228E+02   -0.66813E-01   -0.66790E-01 16912   0.918E+00
DAV:   4    -0.109215788152E+02   -0.22959E-03   -0.22959E-03 14152   0.400E-01
DAV:   5    -0.109215803568E+02   -0.15416E-05   -0.15407E-05 16504   0.240E-02    0.906E+00
DAV:   6    -0.944635604443E+01    0.14752E+01   -0.14239E+01 12472   0.629E+01    0.131E+00
DAV:   7    -0.935097819542E+01    0.95378E-01   -0.57024E-01 12496   0.124E+01    0.613E-01
DAV:   8    -0.932833593535E+01    0.22642E-01   -0.22902E-02 17920   0.133E+00    0.715E-02
DAV:   9    -0.932811077647E+01    0.22516E-03   -0.75045E-04 13464   0.512E-01    0.268E-02
DAV:  10    -0.932812469897E+01   -0.13923E-04   -0.18333E-05 15496   0.683E-02    0.238E-03
DAV:  11    -0.932812468708E+01    0.11896E-07   -0.13773E-07  6912   0.537E-03
   1 F= -.93281247E+01 E0= -.93282524E+01  d E =0.383251E-03
a= 3.41
 running on    1 total cores
 distrk:  each k-point on    1 cores,    1 groups
 distr:  one band on    1 cores,    1 groups
 using from now: INCAR     
 vasp.5.4.4.18Apr17-6-g9f103f2a35 (build May 20 2018 16:52:39) complex          
  
 POSCAR found type information on POSCAR  Fe
 POSCAR found :  1 types and       1 ions
 scaLAPACK will be used
 LDA part: xc-table for Ceperly-Alder, standard interpolation
 POSCAR, INCAR and KPOINTS ok, starting setup
 FFT: planning ...
 WAVECAR not read
 entering main loop
       N       E                     dE             d eps       ncg     rms          rms(c)
DAV:   1     0.288238118172E+01    0.28824E+01   -0.30189E+03 12832   0.769E+02
DAV:   2    -0.108641722440E+02   -0.13747E+02   -0.13178E+02 12592   0.103E+02
DAV:   3    -0.109321128752E+02   -0.67941E-01   -0.67919E-01 17072   0.928E+00
DAV:   4    -0.109323589483E+02   -0.24607E-03   -0.24607E-03 13912   0.415E-01
DAV:   5    -0.109323607897E+02   -0.18414E-05   -0.18418E-05 16664   0.269E-02    0.911E+00
DAV:   6    -0.944524121324E+01    0.14871E+01   -0.14903E+01 12488   0.640E+01    0.147E+00
DAV:   7    -0.934145161145E+01    0.10379E+00   -0.65993E-01 12536   0.132E+01    0.617E-01
DAV:   8    -0.931930178681E+01    0.22150E-01   -0.24598E-02 18072   0.141E+00    0.755E-02
DAV:   9    -0.931903978472E+01    0.26200E-03   -0.85539E-04 13640   0.544E-01    0.268E-02
DAV:  10    -0.931905349038E+01   -0.13706E-04   -0.18961E-05 15544   0.694E-02    0.302E-03
DAV:  11    -0.931905352507E+01   -0.34689E-07   -0.22835E-07  6992   0.722E-03
   1 F= -.93190535E+01 E0= -.93191910E+01  d E =0.412531E-03
a= 3.43
 running on    1 total cores
 distrk:  each k-point on    1 cores,    1 groups
 distr:  one band on    1 cores,    1 groups
 using from now: INCAR     
 vasp.5.4.4.18Apr17-6-g9f103f2a35 (build May 20 2018 16:52:39) complex          
  
 POSCAR found type information on POSCAR  Fe
 POSCAR found :  1 types and       1 ions
 scaLAPACK will be used
 LDA part: xc-table for Ceperly-Alder, standard interpolation
 POSCAR, INCAR and KPOINTS ok, starting setup
 FFT: planning ...
 WAVECAR not read
 entering main loop
       N       E                     dE             d eps       ncg     rms          rms(c)
DAV:   1     0.335952786608E+01    0.33595E+01   -0.30294E+03 12824   0.771E+02
DAV:   2    -0.108648418679E+02   -0.14224E+02   -0.13562E+02 12592   0.104E+02
DAV:   3    -0.109359269988E+02   -0.71085E-01   -0.71065E-01 17072   0.946E+00
DAV:   4    -0.109361789949E+02   -0.25200E-03   -0.25199E-03 14024   0.416E-01
DAV:   5    -0.109361808014E+02   -0.18065E-05   -0.18074E-05 16752   0.262E-02    0.916E+00
DAV:   6    -0.943941658945E+01    0.14968E+01   -0.15571E+01 12520   0.651E+01    0.162E+00
DAV:   7    -0.932625852519E+01    0.11316E+00   -0.75725E-01 12552   0.141E+01    0.621E-01
DAV:   8    -0.930458232559E+01    0.21676E-01   -0.26363E-02 18104   0.150E+00    0.795E-02
DAV:   9    -0.930428346614E+01    0.29886E-03   -0.96493E-04 13640   0.575E-01    0.267E-02
DAV:  10    -0.930429683553E+01   -0.13369E-04   -0.19453E-05 15616   0.702E-02    0.366E-03
DAV:  11    -0.930429694907E+01   -0.11355E-06   -0.34901E-07  7096   0.916E-03
   1 F= -.93042969E+01 E0= -.93044405E+01  d E =0.430531E-03
a= 3.45
 running on    1 total cores
 distrk:  each k-point on    1 cores,    1 groups
 distr:  one band on    1 cores,    1 groups
 using from now: INCAR     
 vasp.5.4.4.18Apr17-6-g9f103f2a35 (build May 20 2018 16:52:39) complex          
  
 POSCAR found type information on POSCAR  Fe
 POSCAR found :  1 types and       1 ions
 scaLAPACK will be used
 LDA part: xc-table for Ceperly-Alder, standard interpolation
 POSCAR, INCAR and KPOINTS ok, starting setup
 FFT: planning ...
 WAVECAR not read
 entering main loop
       N       E                     dE             d eps       ncg     rms          rms(c)
DAV:   1     0.330078181284E+01    0.33008E+01   -0.30082E+03 12840   0.763E+02
DAV:   2    -0.108613610481E+02   -0.14162E+02   -0.13510E+02 12616   0.104E+02
DAV:   3    -0.109331424926E+02   -0.71781E-01   -0.71752E-01 17096   0.947E+00
DAV:   4    -0.109333973922E+02   -0.25490E-03   -0.25490E-03 14200   0.419E-01
DAV:   5    -0.109333990819E+02   -0.16897E-05   -0.16905E-05 16584   0.247E-02    0.920E+00
DAV:   6    -0.942924282519E+01    0.15042E+01   -0.16245E+01 12568   0.661E+01    0.178E+00
DAV:   7    -0.930574011696E+01    0.12350E+00   -0.86234E-01 12576   0.149E+01    0.625E-01
DAV:   8    -0.928451957113E+01    0.21221E-01   -0.28166E-02 18064   0.158E+00    0.835E-02
DAV:   9    -0.928418445333E+01    0.33512E-03   -0.10752E-03 13640   0.605E-01    0.266E-02
DAV:  10    -0.928419740356E+01   -0.12950E-04   -0.19859E-05 15840   0.706E-02    0.430E-03
DAV:  11    -0.928419762852E+01   -0.22496E-06   -0.49624E-07  7088   0.111E-02
   1 F= -.92841976E+01 E0= -.92843408E+01  d E =0.429545E-03
