a= 2.90
 running on    1 total cores
 distrk:  each k-point on    1 cores,    1 groups
 distr:  one band on    1 cores,    1 groups
 using from now: INCAR     
 vasp.5.4.4.18Apr17-6-g9f103f2a35 (build May 20 2018 16:52:39) complex          
  
 POSCAR found type information on POSCAR  Fe
 POSCAR found :  1 types and       1 ions
 scaLAPACK will be used
 LDA part: xc-table for Ceperly-Alder, standard interpolation
 POSCAR, INCAR and KPOINTS ok, starting setup
 FFT: planning ...
 WAVECAR not read
 entering main loop
       N       E                     dE             d eps       ncg     rms          rms(c)
DAV:   1     0.299830474549E+01    0.29983E+01   -0.30979E+03 41944   0.868E+02
DAV:   2    -0.709819846629E+01   -0.10097E+02   -0.97031E+01 41680   0.991E+01
DAV:   3    -0.713465788231E+01   -0.36459E-01   -0.36451E-01 47440   0.681E+00
DAV:   4    -0.713480719330E+01   -0.14931E-03   -0.14931E-03 44352   0.354E-01
DAV:   5    -0.713480801825E+01   -0.82495E-06   -0.82672E-06 49480   0.212E-02    0.672E+00
DAV:   6    -0.639983058783E+01    0.73498E+00   -0.18981E+00 39872   0.259E+01    0.195E+00
DAV:   7    -0.625420651684E+01    0.14562E+00   -0.50455E-02 43504   0.246E+00    0.675E-01
DAV:   8    -0.621912513702E+01    0.35081E-01   -0.19350E-02 39848   0.195E+00    0.566E-02
DAV:   9    -0.621905480159E+01    0.70335E-04   -0.75955E-05 44096   0.146E-01    0.407E-02
DAV:  10    -0.621898080938E+01    0.73992E-04   -0.13404E-05 41152   0.451E-02    0.800E-04
DAV:  11    -0.621898092551E+01   -0.11613E-06   -0.44597E-08 24088   0.222E-03
   1 F= -.62189809E+01 E0= -.62189402E+01  d E =-.122291E-03
a= 2.91
 running on    1 total cores
 distrk:  each k-point on    1 cores,    1 groups
 distr:  one band on    1 cores,    1 groups
 using from now: INCAR     
 vasp.5.4.4.18Apr17-6-g9f103f2a35 (build May 20 2018 16:52:39) complex          
  
 POSCAR found type information on POSCAR  Fe
 POSCAR found :  1 types and       1 ions
 scaLAPACK will be used
 LDA part: xc-table for Ceperly-Alder, standard interpolation
 POSCAR, INCAR and KPOINTS ok, starting setup
 FFT: planning ...
 WAVECAR not read
 entering main loop
       N       E                     dE             d eps       ncg     rms          rms(c)
DAV:   1     0.265878018355E+01    0.26588E+01   -0.30974E+03 42056   0.864E+02
DAV:   2    -0.727405602668E+01   -0.99328E+01   -0.95220E+01 41584   0.980E+01
DAV:   3    -0.731022331960E+01   -0.36167E-01   -0.36159E-01 47552   0.677E+00
DAV:   4    -0.731037578538E+01   -0.15247E-03   -0.15247E-03 44632   0.358E-01
DAV:   5    -0.731037660606E+01   -0.82068E-06   -0.82073E-06 49184   0.209E-02    0.679E+00
DAV:   6    -0.656086112781E+01    0.74952E+00   -0.20434E+00 39848   0.268E+01    0.191E+00
DAV:   7    -0.642014192220E+01    0.14072E+00   -0.47804E-02 44024   0.238E+00    0.671E-01
DAV:   8    -0.638500216573E+01    0.35140E-01   -0.19014E-02 39840   0.193E+00    0.540E-02
DAV:   9    -0.638494425751E+01    0.57908E-04   -0.82430E-05 44104   0.154E-01    0.406E-02
DAV:  10    -0.638487446959E+01    0.69788E-04   -0.12672E-05 41504   0.411E-02    0.776E-04
DAV:  11    -0.638487458578E+01   -0.11619E-06   -0.53916E-08 23552   0.251E-03
   1 F= -.63848746E+01 E0= -.63848308E+01  d E =-.131448E-03
a= 2.92
 running on    1 total cores
 distrk:  each k-point on    1 cores,    1 groups
 distr:  one band on    1 cores,    1 groups
 using from now: INCAR     
 vasp.5.4.4.18Apr17-6-g9f103f2a35 (build May 20 2018 16:52:39) complex          
  
 POSCAR found type information on POSCAR  Fe
 POSCAR found :  1 types and       1 ions
 scaLAPACK will be used
 LDA part: xc-table for Ceperly-Alder, standard interpolation
