a= 3.10
 running on    1 total cores
 distrk:  each k-point on    1 cores,    1 groups
 distr:  one band on    1 cores,    1 groups
 using from now: INCAR     
 vasp.5.4.4.18Apr17-6-g9f103f2a35 (build May 20 2018 16:52:39) complex          
  
 POSCAR found type information on POSCAR  Fe
 POSCAR found :  1 types and       1 ions
 scaLAPACK will be used
 LDA part: xc-table for Ceperly-Alder, standard interpolation
 POSCAR, INCAR and KPOINTS ok, starting setup
 FFT: planning ...
 WAVECAR not read
 entering main loop
       N       E                     dE             d eps       ncg     rms          rms(c)
DAV:   1     0.226675139253E+01    0.22668E+01   -0.30872E+03 41704   0.829E+02
DAV:   2    -0.966095912177E+01   -0.11928E+02   -0.11356E+02 41520   0.101E+02
DAV:   3    -0.970854532226E+01   -0.47586E-01   -0.47573E-01 50056   0.779E+00
DAV:   4    -0.970873858777E+01   -0.19327E-03   -0.19326E-03 44920   0.385E-01
DAV:   5    -0.970873977947E+01   -0.11917E-05   -0.11913E-05 51112   0.234E-02    0.792E+00
DAV:   6    -0.862307533426E+01    0.10857E+01   -0.57569E+00 39888   0.431E+01    0.944E-01
DAV:   7    -0.854860301642E+01    0.74472E-01   -0.13517E-02 39872   0.201E+00    0.612E-01
DAV:   8    -0.851697367145E+01    0.31629E-01   -0.12934E-02 42560   0.117E+00    0.426E-02
DAV:   9    -0.851708934651E+01   -0.11568E-03   -0.58642E-05 46072   0.105E-01    0.310E-02
DAV:  10    -0.851705902292E+01    0.30324E-04   -0.57358E-06 45568   0.223E-02    0.416E-04
DAV:  11    -0.851705903316E+01   -0.10245E-07   -0.53668E-08 20136   0.383E-03
   1 F= -.85170590E+01 E0= -.85170337E+01  d E =-.758544E-04
a= 3.12
 running on    1 total cores
 distrk:  each k-point on    1 cores,    1 groups
 distr:  one band on    1 cores,    1 groups
 using from now: INCAR     
 vasp.5.4.4.18Apr17-6-g9f103f2a35 (build May 20 2018 16:52:39) complex          
  
 POSCAR found type information on POSCAR  Fe
 POSCAR found :  1 types and       1 ions
 scaLAPACK will be used
 LDA part: xc-table for Ceperly-Alder, standard interpolation
 POSCAR, INCAR and KPOINTS ok, starting setup
 FFT: planning ...
 WAVECAR not read
 entering main loop
       N       E                     dE             d eps       ncg     rms          rms(c)
DAV:   1     0.230015300542E+01    0.23002E+01   -0.30807E+03 13016   0.826E+02
DAV:   2    -0.982389460838E+01   -0.12124E+02   -0.11471E+02 12928   0.101E+02
DAV:   3    -0.987233007199E+01   -0.48435E-01   -0.48424E-01 15856   0.784E+00
DAV:   4    -0.987252136319E+01   -0.19129E-03   -0.19129E-03 13848   0.380E-01
DAV:   5    -0.987252257711E+01   -0.12139E-05   -0.12140E-05 15728   0.236E-02    0.802E+00
DAV:   6    -0.875046022865E+01    0.11221E+01   -0.62332E+00 12384   0.446E+01    0.841E-01
DAV:   7    -0.867978237527E+01    0.70678E-01   -0.18050E-02 12432   0.250E+00    0.607E-01
DAV:   8    -0.864881190544E+01    0.30970E-01   -0.12678E-02 13424   0.111E+00    0.432E-02
DAV:   9    -0.864892725194E+01   -0.11535E-03   -0.80056E-05 14168   0.141E-01    0.297E-02
DAV:  10    -0.864890101925E+01    0.26233E-04   -0.49498E-06 14400   0.215E-02    0.706E-04
DAV:  11    -0.864890108941E+01   -0.70165E-07   -0.38472E-08  6264   0.322E-03
   1 F= -.86489011E+01 E0= -.86489026E+01  d E =0.457392E-05
a= 3.14
 running on    1 total cores
 distrk:  each k-point on    1 cores,    1 groups
 distr:  one band on    1 cores,    1 groups
 using from now: INCAR     
 vasp.5.4.4.18Apr17-6-g9f103f2a35 (build May 20 2018 16:52:39) complex          
  
 POSCAR found type information on POSCAR  Fe
 POSCAR found :  1 types and       1 ions
 scaLAPACK will be used
 LDA part: xc-table for Ceperly-Alder, standard interpolation
 POSCAR, INCAR and KPOINTS ok, starting setup
 FFT: planning ...
 WAVECAR not read
 entering main loop
       N       E                     dE             d eps       ncg     rms          rms(c)
DAV:   1     0.204655482936E+01    0.20466E+01   -0.30830E+03 13096   0.823E+02
DAV:   2    -0.997344909587E+01   -0.12020E+02   -0.11284E+02 13032   0.998E+01
DAV:   3    -0.100216832189E+02   -0.48234E-01   -0.48220E-01 15752   0.785E+00
DAV:   4    -0.100218699712E+02   -0.18675E-03   -0.18675E-03 13992   0.375E-01
DAV:   5    -0.100218711056E+02   -0.11344E-05   -0.11337E-05 15856   0.226E-02    0.812E+00
DAV:   6    -0.886427750057E+01    0.11576E+01   -0.67394E+00 12392   0.461E+01    0.735E-01
DAV:   7    -0.879683524723E+01    0.67442E-01   -0.26056E-02 12416   0.309E+00    0.604E-01
DAV:   8    -0.876651395220E+01    0.30321E-01   -0.12601E-02 13944   0.106E+00    0.434E-02
DAV:   9    -0.876662141760E+01   -0.10747E-03   -0.98897E-05 14144   0.167E-01    0.290E-02
DAV:  10    -0.876660047961E+01    0.20938E-04   -0.45160E-06 14376   0.201E-02    0.112E-03
DAV:  11    -0.876660057887E+01   -0.99256E-07   -0.31006E-08  6248   0.258E-03
   1 F= -.87666006E+01 E0= -.87666138E+01  d E =0.397242E-04
a= 3.16
 running on    1 total cores
 distrk:  each k-point on    1 cores,    1 groups
 distr:  one band on    1 cores,    1 groups
 using from now: INCAR     
 vasp.5.4.4.18Apr17-6-g9f103f2a35 (build May 20 2018 16:52:39) complex          
  
 POSCAR found type information on POSCAR  Fe
 POSCAR found :  1 types and       1 ions
 scaLAPACK will be used
 LDA part: xc-table for Ceperly-Alder, standard interpolation
 POSCAR, INCAR and KPOINTS ok, starting setup
 FFT: planning ...
 WAVECAR not read
 entering main loop
       N       E                     dE             d eps       ncg     rms          rms(c)
DAV:   1     0.220074393789E+01    0.22007E+01   -0.30557E+03 12920   0.817E+02
DAV:   2    -0.101049965892E+02   -0.12306E+02   -0.11697E+02 12832   0.101E+02
DAV:   3    -0.101574016155E+02   -0.52405E-01   -0.52391E-01 15992   0.822E+00
DAV:   4    -0.101576104693E+02   -0.20885E-03   -0.20885E-03 13832   0.390E-01
DAV:   5    -0.101576118248E+02   -0.13555E-05   -0.13536E-05 16176   0.245E-02    0.821E+00
DAV:   6    -0.896542481836E+01    0.11922E+01   -0.72661E+00 12392   0.476E+01    0.633E-01
DAV:   7    -0.890051162213E+01    0.64913E-01   -0.37908E-02 12416   0.373E+00    0.601E-01
DAV:   8    -0.887084748998E+01    0.29664E-01   -0.12654E-02 14880   0.102E+00    0.438E-02
DAV:   9    -0.887094039010E+01   -0.92900E-04   -0.11193E-04 14008   0.186E-01    0.283E-02
DAV:  10    -0.887092687773E+01    0.13512E-04   -0.35120E-06 14296   0.168E-02    0.536E-04
DAV:  11    -0.887092695949E+01   -0.81766E-07   -0.24144E-08  6216   0.168E-03
   1 F= -.88709270E+01 E0= -.88709531E+01  d E =0.783985E-04
a= 3.18
 running on    1 total cores
 distrk:  each k-point on    1 cores,    1 groups
 distr:  one band on    1 cores,    1 groups
 using from now: INCAR     
 vasp.5.4.4.18Apr17-6-g9f103f2a35 (build May 20 2018 16:52:39) complex          
  
 POSCAR found type information on POSCAR  Fe
 POSCAR found :  1 types and       1 ions
 scaLAPACK will be used
 LDA part: xc-table for Ceperly-Alder, standard interpolation
 POSCAR, INCAR and KPOINTS ok, starting setup
 FFT: planning ...
 WAVECAR not read
 entering main loop
       N       E                     dE             d eps       ncg     rms          rms(c)
DAV:   1     0.223626758568E+01    0.22363E+01   -0.30572E+03 12920   0.813E+02
DAV:   2    -0.102272763692E+02   -0.12464E+02   -0.11805E+02 12728   0.101E+02
DAV:   3    -0.102802603614E+02   -0.52984E-01   -0.52968E-01 16120   0.828E+00
DAV:   4    -0.102804624903E+02   -0.20213E-03   -0.20213E-03 13928   0.392E-01
DAV:   5    -0.102804636877E+02   -0.11974E-05   -0.11976E-05 16008   0.230E-02    0.831E+00
DAV:   6    -0.905491667111E+01    0.12255E+01   -0.78098E+00 12408   0.491E+01    0.543E-01
DAV:   7    -0.899176596574E+01    0.63151E-01   -0.54055E-02 12424   0.441E+00    0.599E-01
DAV:   8    -0.896275907838E+01    0.29007E-01   -0.12835E-02 15488   0.990E-01    0.446E-02
DAV:   9    -0.896283355963E+01   -0.74481E-04   -0.12374E-04 13976   0.204E-01    0.279E-02
DAV:  10    -0.896282753291E+01    0.60267E-05   -0.31691E-06 14184   0.156E-02    0.491E-04
DAV:  11    -0.896282753958E+01   -0.66676E-08   -0.35907E-08  6200   0.178E-03
   1 F= -.89628275E+01 E0= -.89628653E+01  d E =0.113337E-03
a= 3.20
 running on    1 total cores
 distrk:  each k-point on    1 cores,    1 groups
 distr:  one band on    1 cores,    1 groups
 using from now: INCAR     
 vasp.5.4.4.18Apr17-6-g9f103f2a35 (build May 20 2018 16:52:39) complex          
  
 POSCAR found type information on POSCAR  Fe
 POSCAR found :  1 types and       1 ions
 scaLAPACK will be used
 LDA part: xc-table for Ceperly-Alder, standard interpolation
 POSCAR, INCAR and KPOINTS ok, starting setup
 FFT: planning ...
 WAVECAR not read
 entering main loop
       N       E                     dE             d eps       ncg     rms          rms(c)
DAV:   1     0.243284900120E+01    0.24328E+01   -0.30559E+03 12816   0.812E+02
DAV:   2    -0.103375263632E+02   -0.12770E+02   -0.12181E+02 12864   0.103E+02
DAV:   3    -0.103906557192E+02   -0.53129E-01   -0.53115E-01 16208   0.824E+00
DAV:   4    -0.103908574439E+02   -0.20172E-03   -0.20172E-03 13920   0.383E-01
DAV:   5    -0.103908587739E+02   -0.13300E-05   -0.13286E-05 16112   0.232E-02    0.839E+00
DAV:   6    -0.913314672492E+01    0.12577E+01   -0.83684E+00 12408   0.506E+01    0.475E-01
DAV:   7    -0.907099027612E+01    0.62156E-01   -0.74805E-02 12424   0.511E+00    0.598E-01
DAV:   8    -0.904264538692E+01    0.28345E-01   -0.13120E-02 15640   0.972E-01    0.454E-02
DAV:   9    -0.904270025817E+01   -0.54871E-04   -0.14880E-04 13896   0.228E-01    0.277E-02
DAV:  10    -0.904270002597E+01    0.23220E-06   -0.38601E-06 14048   0.205E-02
   1 F= -.90427000E+01 E0= -.90427451E+01  d E =0.135123E-03
a= 3.22
 running on    1 total cores
 distrk:  each k-point on    1 cores,    1 groups
 distr:  one band on    1 cores,    1 groups
 using from now: INCAR     
 vasp.5.4.4.18Apr17-6-g9f103f2a35 (build May 20 2018 16:52:39) complex          
  
 POSCAR found type information on POSCAR  Fe
 POSCAR found :  1 types and       1 ions
 scaLAPACK will be used
 LDA part: xc-table for Ceperly-Alder, standard interpolation
 POSCAR, INCAR and KPOINTS ok, starting setup
 FFT: planning ...
 WAVECAR not read
 entering main loop
       N       E                     dE             d eps       ncg     rms          rms(c)
DAV:   1     0.226346029523E+01    0.22635E+01   -0.30671E+03 12960   0.809E+02
DAV:   2    -0.104366317982E+02   -0.12700E+02   -0.12016E+02 12928   0.102E+02
DAV:   3    -0.104892582360E+02   -0.52626E-01   -0.52614E-01 16128   0.816E+00
DAV:   4    -0.104894659116E+02   -0.20768E-03   -0.20767E-03 14184   0.388E-01
DAV:   5    -0.104894672829E+02   -0.13714E-05   -0.13731E-05 15736   0.234E-02    0.848E+00
DAV:   6    -0.920104844974E+01    0.12884E+01   -0.89383E+00 12400   0.520E+01    0.441E-01
DAV:   7    -0.913909429226E+01    0.61954E-01   -0.10045E-01 12456   0.583E+00    0.597E-01
DAV:   8    -0.911140840301E+01    0.27686E-01   -0.13532E-02 16096   0.964E-01    0.466E-02
DAV:   9    -0.911144090029E+01   -0.32497E-04   -0.17630E-04 13744   0.251E-01    0.275E-02
DAV:  10    -0.911144535212E+01   -0.44518E-05   -0.50167E-06 14256   0.276E-02    0.393E-04
DAV:  11    -0.911144536870E+01   -0.16588E-07   -0.29988E-08  6248   0.167E-03
   1 F= -.91114454E+01 E0= -.91115039E+01  d E =0.175691E-03
a= 3.24
 running on    1 total cores
 distrk:  each k-point on    1 cores,    1 groups
 distr:  one band on    1 cores,    1 groups
 using from now: INCAR     
 vasp.5.4.4.18Apr17-6-g9f103f2a35 (build May 20 2018 16:52:39) complex          
  
 POSCAR found type information on POSCAR  Fe
 POSCAR found :  1 types and       1 ions
 scaLAPACK will be used
 LDA part: xc-table for Ceperly-Alder, standard interpolation
 POSCAR, INCAR and KPOINTS ok, starting setup
 FFT: planning ...
 WAVECAR not read
 entering main loop
       N       E                     dE             d eps       ncg     rms          rms(c)
DAV:   1     0.200184823280E+01    0.20018E+01   -0.30552E+03 12944   0.802E+02
DAV:   2    -0.105223455693E+02   -0.12524E+02   -0.11857E+02 12824   0.101E+02
DAV:   3    -0.105765648907E+02   -0.54219E-01   -0.54201E-01 16384   0.829E+00
DAV:   4    -0.105767723496E+02   -0.20746E-03   -0.20746E-03 14008   0.386E-01
DAV:   5    -0.105767736725E+02   -0.13228E-05   -0.13244E-05 15944   0.231E-02    0.856E+00
DAV:   6    -0.925921024970E+01    0.13176E+01   -0.95190E+00 12408   0.534E+01    0.450E-01
DAV:   7    -0.919665325418E+01    0.62557E-01   -0.13130E-01 12440   0.656E+00    0.597E-01
DAV:   8    -0.916961887549E+01    0.27034E-01   -0.14094E-02 16624   0.968E-01    0.482E-02
DAV:   9    -0.916962656251E+01   -0.76870E-05   -0.20845E-04 13520   0.276E-01    0.274E-02
DAV:  10    -0.916963473844E+01   -0.81759E-05   -0.66749E-06 14704   0.357E-02    0.453E-04
DAV:  11    -0.916963472525E+01    0.13194E-07   -0.32256E-08  6264   0.193E-03
   1 F= -.91696347E+01 E0= -.91697037E+01  d E =0.206909E-03
a= 3.26
 running on    1 total cores
 distrk:  each k-point on    1 cores,    1 groups
 distr:  one band on    1 cores,    1 groups
 using from now: INCAR     
 vasp.5.4.4.18Apr17-6-g9f103f2a35 (build May 20 2018 16:52:39) complex          
  
 POSCAR found type information on POSCAR  Fe
 POSCAR found :  1 types and       1 ions
 scaLAPACK will be used
 LDA part: xc-table for Ceperly-Alder, standard interpolation
 POSCAR, INCAR and KPOINTS ok, starting setup
 FFT: planning ...
 WAVECAR not read
 entering main loop
       N       E                     dE             d eps       ncg     rms          rms(c)
DAV:   1     0.219893168495E+01    0.21989E+01   -0.30669E+03 13104   0.799E+02
DAV:   2    -0.105969134764E+02   -0.12796E+02   -0.12109E+02 12816   0.101E+02
DAV:   3    -0.106531594828E+02   -0.56246E-01   -0.56226E-01 16536   0.844E+00
DAV:   4    -0.106533562104E+02   -0.19673E-03   -0.19673E-03 14056   0.365E-01
DAV:   5    -0.106533574407E+02   -0.12303E-05   -0.12320E-05 16008   0.216E-02    0.864E+00
DAV:   6    -0.930841502611E+01    0.13449E+01   -0.10110E+01 12416   0.548E+01    0.503E-01
DAV:   7    -0.924442154338E+01    0.63993E-01   -0.16780E-01 12440   0.731E+00    0.597E-01
DAV:   8    -0.921802321774E+01    0.26398E-01   -0.14808E-02 16936   0.984E-01    0.503E-02
DAV:   9    -0.921800440805E+01    0.18810E-04   -0.25350E-04 13336   0.305E-01    0.273E-02
DAV:  10    -0.921801508122E+01   -0.10673E-04   -0.85039E-06 15072   0.426E-02    0.419E-04
DAV:  11    -0.921801507329E+01    0.79267E-08   -0.29973E-08  6408   0.186E-03
   1 F= -.92180151E+01 E0= -.92180923E+01  d E =0.231636E-03
a= 3.28
 running on    1 total cores
 distrk:  each k-point on    1 cores,    1 groups
 distr:  one band on    1 cores,    1 groups
 using from now: INCAR     
 vasp.5.4.4.18Apr17-6-g9f103f2a35 (build May 20 2018 16:52:39) complex          
  
 POSCAR found type information on POSCAR  Fe
 POSCAR found :  1 types and       1 ions
 scaLAPACK will be used
 LDA part: xc-table for Ceperly-Alder, standard interpolation
 POSCAR, INCAR and KPOINTS ok, starting setup
 FFT: planning ...
 WAVECAR not read
 entering main loop
       N       E                     dE             d eps       ncg     rms          rms(c)
DAV:   1     0.210165659071E+01    0.21017E+01   -0.30438E+03 12992   0.797E+02
DAV:   2    -0.106637493469E+02   -0.12765E+02   -0.12060E+02 12880   0.101E+02
DAV:   3    -0.107194536203E+02   -0.55704E-01   -0.55686E-01 16504   0.838E+00
DAV:   4    -0.107196585833E+02   -0.20496E-03   -0.20496E-03 14032   0.373E-01
DAV:   5    -0.107196599502E+02   -0.13670E-05   -0.13659E-05 16040   0.232E-02    0.871E+00
DAV:   6    -0.934894214754E+01    0.13707E+01   -0.10708E+01 12424   0.561E+01    0.580E-01
DAV:   7    -0.928283953471E+01    0.66103E-01   -0.20933E-01 12448   0.804E+00    0.598E-01
DAV:   8    -0.925711060150E+01    0.25729E-01   -0.15588E-02 17168   0.101E+00    0.524E-02
DAV:   9    -0.925706937048E+01    0.41231E-04   -0.29980E-04 13280   0.331E-01    0.273E-02
DAV:  10    -0.925708099674E+01   -0.11626E-04   -0.10050E-05 15064   0.478E-02    0.365E-04
DAV:  11    -0.925708097958E+01    0.17161E-07   -0.30624E-08  6472   0.194E-03
   1 F= -.92570810E+01 E0= -.92571690E+01  d E =0.263992E-03
a= 3.30
 running on    1 total cores
 distrk:  each k-point on    1 cores,    1 groups
 distr:  one band on    1 cores,    1 groups
 using from now: INCAR     
 vasp.5.4.4.18Apr17-6-g9f103f2a35 (build May 20 2018 16:52:39) complex          
  
 POSCAR found type information on POSCAR  Fe
 POSCAR found :  1 types and       1 ions
 scaLAPACK will be used
 LDA part: xc-table for Ceperly-Alder, standard interpolation
 POSCAR, INCAR and KPOINTS ok, starting setup
 FFT: planning ...
 WAVECAR not read
 entering main loop
       N       E                     dE             d eps       ncg     rms          rms(c)
DAV:   1     0.256470522143E+01    0.25647E+01   -0.30566E+03 12864   0.790E+02
DAV:   2    -0.107165227517E+02   -0.13281E+02   -0.12637E+02 12808   0.103E+02
DAV:   3    -0.107759092733E+02   -0.59387E-01   -0.59371E-01 16656   0.870E+00
DAV:   4    -0.107761333173E+02   -0.22404E-03   -0.22404E-03 13944   0.392E-01
DAV:   5    -0.107761349471E+02   -0.16298E-05   -0.16307E-05 16312   0.255E-02    0.878E+00
DAV:   6    -0.938169558804E+01    0.13944E+01   -0.11325E+01 12424   0.574E+01    0.689E-01
DAV:   7    -0.931242733664E+01    0.69268E-01   -0.25843E-01 12488   0.881E+00    0.600E-01
DAV:   8    -0.928730541573E+01    0.25122E-01   -0.16591E-02 17336   0.104E+00    0.552E-02
DAV:   9    -0.928723489357E+01    0.70522E-04   -0.36276E-04 13216   0.363E-01    0.271E-02
DAV:  10    -0.928724762857E+01   -0.12735E-04   -0.11755E-05 15360   0.527E-02    0.473E-04
DAV:  11    -0.928724761155E+01    0.17026E-07   -0.31503E-08  6552   0.180E-03
   1 F= -.92872476E+01 E0= -.92873398E+01  d E =0.276663E-03
