bcc Fe                                  
   2.80000000000000     
    -0.500000    0.500000    0.500000
     0.500000   -0.500000    0.500000
     0.500000    0.500000   -0.500000
   Fe
     1
Direct
  0.000000  0.000000  0.000000
 
   20   20   20
  92.457      87.223      73.299      54.961      36.755      21.890      11.857      6.6134      4.7584      4.1593    
  3.9621      4.1593      4.7584      6.6134      11.857      21.890      36.755      54.961      73.299      87.223    
  87.223      85.522      74.641      58.075      40.299      24.904      13.856      7.5570      5.0213      4.2503    
  3.9302      3.9938      4.4423      5.5620      9.1701      17.018      29.648      46.154      64.003      79.157    
  73.299      74.641      67.580      54.461      39.099      25.007      14.385      7.9669      5.1442      4.2478    
  3.8391      3.7835      4.0792      4.7477      6.7251      11.864      21.185      34.395      49.734      64.003    
  54.961      58.075      54.461      45.370      33.618      22.204      13.250      7.6345      5.0366      4.1485    
  3.7013      3.5607      3.7174      4.1851      5.1051      7.7826      13.570      22.773      34.395      46.154    
  36.755      40.299      39.099      33.618      25.677      17.524      10.921      6.7041      4.7148      3.9657    
  3.5325      3.3514      3.4062      3.7074      4.2669      5.3652      8.2059      13.570      21.185      29.648    
  21.890      24.904      25.007      22.204      17.524      12.449      8.2477      5.5640      4.2979      3.7266    
  3.3497      3.1705      3.1682      3.3399      3.7160      4.2980      5.3652      7.7826      11.864      17.018    
  11.857      13.856      14.385      13.250      10.921      8.2477      6.0089      4.5985      3.9042      3.4669    
  3.1700      3.0229      3.0022      3.0956      3.3234      3.7160      4.2669      5.1051      6.7251      9.1701    
  6.6134      7.5570      7.9669      7.6345      6.7041      5.5640      4.5985      3.9717      3.5509      3.2226    
  3.0104      2.9089      2.8954      2.9554      3.0956      3.3399      3.7074      4.1851      4.7477      5.5620    
  4.7584      5.0213      5.1442      5.0366      4.7148      4.2979      3.9042      3.5509      3.2472      3.0223    
  2.8861      2.8303      2.8378      2.8954      3.0022      3.1682      3.4062      3.7174      4.0792      4.4423    
  4.1593      4.2503      4.2478      4.1485      3.9657      3.7266      3.4669      3.2226      3.0223      2.8826    
  2.8079      2.7936      2.8303      2.9089      3.0229      3.1705      3.3514      3.5607      3.7835      3.9938    
  3.9621      3.9302      3.8391      3.7013      3.5325      3.3497      3.1700      3.0104      2.8861      2.8079    
  2.7813      2.8079      2.8861      3.0104      3.1700      3.3497      3.5325      3.7013      3.8391      3.9302    
  4.1593      3.9938      3.7835      3.5607      3.3514      3.1705      3.0229      2.9089      2.8303      2.7936    
  2.8079      2.8826      3.0223      3.2226      3.4669      3.7266      3.9657      4.1485      4.2478      4.2503    
  4.7584      4.4423      4.0792      3.7174      3.4062      3.1682      3.0022      2.8954      2.8378      2.8303    
  2.8861      3.0223      3.2472      3.5509      3.9042      4.2979      4.7148      5.0366      5.1442      5.0213    
  6.6134      5.5620      4.7477      4.1851      3.7074      3.3399      3.0956      2.9554      2.8954      2.9089    
  3.0104      3.2226      3.5509      3.9717      4.5985      5.5640      6.7041      7.6345      7.9669      7.5570    
  11.857      9.1701      6.7251      5.1051      4.2669      3.7160      3.3234      3.0956      3.0022      3.0229    
  3.1700      3.4669      3.9042      4.5985      6.0089      8.2477      10.921      13.250      14.385      13.856    
  21.890      17.018      11.864      7.7826      5.3652      4.2980      3.7160      3.3399      3.1682      3.1705    
  3.3497      3.7266      4.2979      5.5640      8.2477      12.449      17.524      22.204      25.007      24.904    
  36.755      29.648      21.185      13.570      8.2059      5.3652      4.2669      3.7074      3.4062      3.3514    
  3.5325      3.9657      4.7148      6.7041      10.921      17.524      25.677      33.618      39.099      40.299    
  54.961      46.154      34.395      22.773      13.570      7.7826      5.1051      4.1851      3.7174      3.5607    
  3.7013      4.1485      5.0366      7.6345      13.250      22.204      33.618      45.370      54.461      58.075    
  73.299      64.003      49.734      34.395      21.185      11.864      6.7251      4.7477      4.0792      3.7835    
  3.8391      4.2478      5.1442      7.9669      14.385      25.007      39.099      54.461      67.580      74.641    
  87.223      79.157      64.003      46.154      29.648      17.018      9.1701      5.5620      4.4423      3.9938    
  3.9302      4.2503      5.0213      7.5570      13.856      24.904      40.299      58.075      74.641      85.522    
  87.223      85.522      74.641      58.075      40.299      24.904      13.856      7.5570      5.0213      4.2503    
  3.9302      3.9938      4.4423      5.5620      9.1701      17.018      29.648      46.154      64.003      79.157    
  85.522      87.217      79.149      63.996      46.150      29.647      17.017      9.1703      5.5625      4.4429    
  3.9940      3.9297      4.2498      5.0213      7.5574      13.857      24.906      40.303      58.080      74.646    
  74.641      79.149      74.637      62.633      46.824      31.176      18.525      10.170      5.9675      4.5326    
  3.9899      3.8097      3.9899      4.5326      5.9674      10.170      18.526      31.178      46.829      62.639    
  58.075      63.996      62.633      54.462      42.114      28.982      17.823      10.119      6.0210      4.5038    
  3.9161      3.6526      3.7084      4.0887      4.8464      7.0746      12.374      21.409      33.560      46.826    
  40.299      46.150      46.824      42.114      33.620      23.875      15.213      9.0441      5.6668      4.3501    
  3.7798      3.4789      3.4455      3.6750      4.1843      5.1543      7.8180      13.229      21.409      31.176    
  24.904      29.647      31.176      28.982      23.875      17.525      11.653      7.3965      5.0546      4.1018    
  3.5972      3.3056      3.2259      3.3424      3.6780      4.2408      5.2859      7.8182      12.374      18.524    
  13.856      17.017      18.525      17.823      15.213      11.653      8.2481      5.7729      4.4254      3.8074    
  3.3911      3.1442      3.0569      3.1073      3.3057      3.6842      4.2411      5.1547      7.0746      10.169    
  7.5570      9.1703      10.170      10.119      9.0441      7.3965      5.7729      4.5982      3.9358      3.5052    
  3.1883      3.0036      2.9345      2.9585      3.0746      3.3059      3.6783      4.1844      4.8461      5.9668    
  5.0213      5.5625      5.9675      6.0210      5.6668      5.0546      4.4254      3.9358      3.5508      3.2340    
  3.0133      2.8917      2.8526      2.8771      2.9586      3.1074      3.3424      3.6747      4.0882      4.5322    
  4.2503      4.4429      4.5326      4.5038      4.3501      4.1018      3.8074      3.5052      3.2340      3.0224    
  2.8837      2.8168      2.8107      2.8525      2.9344      3.0567      3.2256      3.4452      3.7083      3.9901    
  3.9302      3.9940      3.9899      3.9161      3.7798      3.5972      3.3911      3.1883      3.0133      2.8837    
  2.8079      2.7868      2.8167      2.8916      3.0034      3.1441      3.3055      3.4791      3.6530      3.8102    
  3.9938      3.9297      3.8097      3.6526      3.4789      3.3056      3.1442      3.0036      2.8917      2.8168    
  2.7868      2.8078      2.8836      3.0132      3.1882      3.3912      3.5974      3.7802      3.9165      3.9901    
  4.4423      4.2498      3.9899      3.7084      3.4455      3.2259      3.0569      2.9345      2.8526      2.8107    
  2.8167      2.8836      3.0223      3.2341      3.5054      3.8078      4.1022      4.3503      4.5038      4.5322    
  5.5620      5.0213      4.5326      4.0887      3.6750      3.3424      3.1073      2.9585      2.8771      2.8525    
  2.8916      3.0132      3.2341      3.5511      3.9362      4.4257      5.0545      5.6663      6.0203      5.9668    
  9.1701      7.5574      5.9674      4.8464      4.1843      3.6780      3.3057      3.0746      2.9586      2.9344    
  3.0034      3.1882      3.5054      3.9362      4.5984      5.7727      7.3957      9.0429      10.118      10.169    
  17.018      13.857      10.170      7.0746      5.1543      4.2408      3.6842      3.3059      3.1074      3.0567    
  3.1441      3.3912      3.8078      4.4257      5.7727      8.2471      11.651      15.211      17.822      18.524    
  29.648      24.906      18.526      12.374      7.8180      5.2859      4.2411      3.6783      3.3424      3.2256    
  3.3055      3.5974      4.1022      5.0545      7.3957      11.651      17.523      23.873      28.981      31.176    
  46.154      40.303      31.178      21.409      13.229      7.8182      5.1547      4.1844      3.6747      3.4452    
  3.4791      3.7802      4.3503      5.6663      9.0429      15.211      23.873      33.618      42.114      46.826    
  64.003      58.080      46.829      33.560      21.409      12.374      7.0746      4.8461      4.0882      3.7083    
  3.6530      3.9165      4.5038      6.0203      10.118      17.822      28.981      42.114      54.464      62.639    
  79.157      74.646      62.639      46.826      31.176      18.524      10.169      5.9668      4.5322      3.9901    
  3.8102      3.9901      4.5322      5.9668      10.169      18.524      31.176      46.826      62.639      74.646    
  73.299      74.641      67.580      54.461      39.099      25.007      14.385      7.9669      5.1442      4.2478    
  3.8391      3.7835      4.0792      4.7477      6.7251      11.864      21.185      34.395      49.734      64.003    
  74.641      79.149      74.637      62.633      46.824      31.176      18.525      10.170      5.9675      4.5326    
  3.9899      3.8097      3.9899      4.5326      5.9674      10.170      18.526      31.178      46.829      62.639    
  67.580      74.637      73.292      63.996      49.730      34.394      21.185      11.865      6.7255      4.7478    
  4.0792      3.7835      3.8391      4.2478      5.1442      7.9670      14.386      25.009      39.102      54.464    
  54.461      62.633      63.996      58.075      46.827      33.560      21.411      12.375      7.0751      4.8462    
  4.0882      3.7083      3.6530      3.9165      4.5038      6.0204      10.118      17.823      28.982      42.114    
  39.099      46.824      49.730      46.827      39.104      28.985      19.139      11.496      6.8325      4.7638    
  4.0107      3.5930      3.4588      3.5930      4.0107      4.7637      6.8322      11.495      19.136      28.981    
  25.007      31.176      34.394      33.560      28.985      22.208      15.214      9.5981      6.1015      4.5107    
  3.8556      3.4494      3.2776      3.3188      3.5816      4.0837      4.9510      7.1605      11.495      17.822    
  14.385      18.525      21.185      21.411      19.139      15.214      10.922      7.3958      5.1952      4.1742    
  3.6460      3.2914      3.1216      3.1117      3.2577      3.5880      4.1104      4.9510      6.8321      10.118    
  7.9669      10.170      11.865      12.375      11.496      9.5981      7.3958      5.5631      4.4249      3.8334    
  3.4143      3.1344      2.9943      2.9689      3.0458      3.2424      3.5880      4.0837      4.7638      6.0203    
  5.1442      5.9675      6.7255      7.0751      6.8325      6.1015      5.1952      4.4249      3.9037      3.5052    
  3.1945      2.9944      2.8965      2.8786      2.9266      3.0458      3.2577      3.5816      4.0107      4.5038    
  4.2478      4.5326      4.7478      4.8462      4.7638      4.5107      4.1742      3.8334      3.5052      3.2228    
  3.0133      2.8853      2.8301      2.8319      2.8786      2.9689      3.1117      3.3188      3.5930      3.9165    
  3.8391      3.9899      4.0792      4.0882      4.0107      3.8556      3.6460      3.4143      3.1945      3.0133    
  2.8862      2.8168      2.8008      2.8301      2.8965      2.9943      3.1216      3.2776      3.4588      3.6530    
  3.7835      3.8097      3.7835      3.7083      3.5930      3.4494      3.2914      3.1344      2.9944      2.8853    
  2.8168      2.7935      2.8167      2.8853      2.9944      3.1344      3.2914      3.4494      3.5930      3.7083    
  4.0792      3.9899      3.8391      3.6530      3.4588      3.2776      3.1216      2.9943      2.8965      2.8301    
  2.8008      2.8167      2.8862      3.0133      3.1945      3.4144      3.6460      3.8557      4.0107      4.0882    
  4.7477      4.5326      4.2478      3.9165      3.5930      3.3188      3.1117      2.9689      2.8786      2.8319    
  2.8301      2.8853      3.0133      3.2228      3.5054      3.8337      4.1745      4.5109      4.7638      4.8461    
  6.7251      5.9674      5.1442      4.5038      4.0107      3.5816      3.2577      3.0458      2.9266      2.8786    
  2.8965      2.9944      3.1945      3.5054      3.9041      4.4254      5.1955      6.1014      6.8321      7.0746    
  11.864      10.170      7.9670      6.0204      4.7637      4.0837      3.5880      3.2424      3.0458      2.9689    
  2.9943      3.1344      3.4144      3.8337      4.4254      5.5634      7.3956      9.5971      11.495      12.374    
  21.185      18.526      14.386      10.118      6.8322      4.9510      4.1104      3.5880      3.2577      3.1117    
  3.1216      3.2914      3.6460      4.1745      5.1955      7.3956      10.921      15.211      19.136      21.409    
  34.395      31.178      25.009      17.823      11.495      7.1605      4.9510      4.0837      3.5816      3.3188    
  3.2776      3.4494      3.8557      4.5109      6.1014      9.5971      15.211      22.204      28.982      33.560    
  49.734      46.829      39.102      28.982      19.136      11.495      6.8321      4.7638      4.0107      3.5930    
  3.4588      3.5930      4.0107      4.7638      6.8321      11.495      19.136      28.982      39.102      46.829    
  64.003      62.639      54.464      42.114      28.981      17.822      10.118      6.0203      4.5038      3.9165    
  3.6530      3.7083      4.0882      4.8461      7.0746      12.374      21.409      33.560      46.829      58.080    
  54.961      58.075      54.461      45.370      33.618      22.204      13.250      7.6345      5.0366      4.1485    
  3.7013      3.5607      3.7174      4.1851      5.1051      7.7826      13.570      22.773      34.395      46.154    
  58.075      63.996      62.633      54.462      42.114      28.982      17.823      10.119      6.0210      4.5038    
  3.9161      3.6526      3.7084      4.0887      4.8464      7.0746      12.374      21.409      33.560      46.826    
  54.461      62.633      63.996      58.075      46.827      33.560      21.411      12.375      7.0751      4.8462    
  4.0882      3.7083      3.6530      3.9165      4.5038      6.0204      10.118      17.823      28.982      42.114    
  45.370      54.462      58.075      54.962      46.156      34.397      22.775      13.571      7.7828      5.1046    
  4.1847      3.7176      3.5611      3.7014      4.1482      5.0361      7.6342      13.250      22.204      33.618    
  33.618      42.114      46.827      46.156      40.305      31.181      21.412      13.230      7.8180      5.1540    
  4.1842      3.6750      3.4455      3.4789      3.7798      4.3500      5.6665      9.0432      15.211      23.873    
  22.204      28.982      33.560      34.397      31.181      25.011      17.824      11.495      7.1595      4.9501    
  4.0836      3.5819      3.3189      3.2774      3.4491      3.8558      4.5113      6.1017      9.5971      15.211    
  13.250      17.823      21.411      22.775      21.412      17.824      13.250      9.0420      6.1003      4.5769    
  3.8993      3.4478      3.1917      3.1125      3.1917      3.4478      3.8997      4.5777      6.1014      9.0429    
  7.6345      10.119      12.375      13.571      13.230      11.495      9.0420      6.7021      5.0531      4.1741    
  3.6633      3.2903      3.0721      2.9878      3.0148      3.1595      3.4504      3.8993      4.5109      5.6663    
  5.0366      6.0210      7.0751      7.7828      7.8180      7.1595      6.1003      5.0531      4.2969      3.8074    
  3.4144      3.1321      2.9672      2.8991      2.9067      2.9872      3.1593      3.4475      3.8557      4.3503    
  4.1485      4.5038      4.8462      5.1046      5.1540      4.9501      4.5769      4.1741      3.8074      3.4671    
  3.1884      2.9943      2.8842      2.8421      2.8516      2.9066      3.0147      3.1917      3.4494      3.7802    
  3.7013      3.9161      4.0882      4.1847      4.1842      4.0836      3.8993      3.6633      3.4144      3.1884    
  3.0105      2.8916      2.8301      2.8170      2.8422      2.8992      2.9879      3.1128      3.2776      3.4791    
  3.5607      3.6526      3.7083      3.7176      3.6750      3.5819      3.4478      3.2903      3.1321      2.9943    
  2.8916      2.8303      2.8107      2.8302      2.8843      2.9673      3.0722      3.1917      3.3188      3.4452    
  3.7174      3.7084      3.6530      3.5611      3.4455      3.3189      3.1917      3.0721      2.9672      2.8842    
  2.8301      2.8107      2.8303      2.8917      2.9944      3.1320      3.2902      3.4475      3.5816      3.6747    
  4.1851      4.0887      3.9165      3.7014      3.4789      3.2774      3.1125      2.9878      2.8991      2.8421    
  2.8170      2.8302      2.8917      3.0105      3.1882      3.4142      3.6632      3.8993      4.0837      4.1844    
  5.1051      4.8464      4.5038      4.1482      3.7798      3.4491      3.1917      3.0148      2.9067      2.8516    
  2.8422      2.8843      2.9944      3.1882      3.4669      3.8074      4.1745      4.5777      4.9510      5.1547    
  7.7826      7.0746      6.0204      5.0361      4.3500      3.8558      3.4478      3.1595      2.9872      2.9066    
  2.8992      2.9673      3.1320      3.4142      3.8074      4.2976      5.0545      6.1017      7.1605      7.8182    
  13.570      12.374      10.118      7.6342      5.6665      4.5113      3.8997      3.4504      3.1593      3.0147    
  2.9879      3.0722      3.2902      3.6632      4.1745      5.0545      6.7038      9.0432      11.495      13.229    
  22.773      21.409      17.823      13.250      9.0432      6.1017      4.5777      3.8993      3.4475      3.1917    
  3.1128      3.1917      3.4475      3.8993      4.5777      6.1017      9.0432      13.250      17.823      21.409    
  34.395      33.560      28.982      22.204      15.211      9.5971      6.1014      4.5109      3.8557      3.4494    
  3.2776      3.3188      3.5816      4.0837      4.9510      7.1605      11.495      17.823      25.009      31.178    
  46.154      46.826      42.114      33.618      23.873      15.211      9.0429      5.6663      4.3503      3.7802    
  3.4791      3.4452      3.6747      4.1844      5.1547      7.8182      13.229      21.409      31.178      40.303    
  36.755      40.299      39.099      33.618      25.677      17.524      10.921      6.7041      4.7148      3.9657    
  3.5325      3.3514      3.4062      3.7074      4.2669      5.3652      8.2059      13.570      21.185      29.648    
  40.299      46.150      46.824      42.114      33.620      23.875      15.213      9.0441      5.6668      4.3501    
  3.7798      3.4789      3.4455      3.6750      4.1843      5.1543      7.8180      13.229      21.409      31.176    
  39.099      46.824      49.730      46.827      39.104      28.985      19.139      11.496      6.8325      4.7638    
  4.0107      3.5930      3.4588      3.5930      4.0107      4.7637      6.8322      11.495      19.136      28.981    
  33.618      42.114      46.827      46.156      40.305      31.181      21.412      13.230      7.8180      5.1540    
  4.1842      3.6750      3.4455      3.4789      3.7798      4.3500      5.6665      9.0432      15.211      23.873    
  25.677      33.620      39.104      40.305      36.761      29.652      21.186      13.570      8.2049      5.3644    
  4.2666      3.7073      3.4062      3.3514      3.5325      3.9656      4.7147      6.7038      10.921      17.523    
  17.524      23.875      28.985      31.181      29.652      24.908      18.525      12.372      7.8160      5.2846    
  4.2406      3.6782      3.3424      3.2256      3.3055      3.5974      4.1022      5.0545      7.3956      11.651    
  10.921      15.213      19.139      21.412      21.186      18.525      14.384      10.115      6.8298      4.9497    
  4.1100      3.5880      3.2577      3.1116      3.1215      3.2914      3.6461      4.1745      5.1955      7.3957    
  6.7041      9.0441      11.496      13.230      13.570      12.372      10.115      7.6313      5.6645      4.5105    
  3.8996      3.4506      3.1594      3.0147      2.9879      3.0722      3.2902      3.6632      4.1745      5.0545    
  4.7148      5.6668      6.8325      7.8180      8.2049      7.8160      6.8298      5.6645      4.7137      4.1021    
  3.6464      3.2905      3.0584      2.9366      2.8999      2.9366      3.0583      3.2902      3.6460      4.1022    
  3.9657      4.3501      4.7638      5.1540      5.3644      5.2846      4.9497      4.5105      4.1021      3.7272    
  3.3917      3.1345      2.9672      2.8783      2.8488      2.8673      2.9366      3.0722      3.2914      3.5974    
  3.5325      3.7798      4.0107      4.1842      4.2666      4.2406      4.1100      3.8996      3.6464      3.3917    
  3.1704      3.0036      2.8965      2.8421      2.8291      2.8488      2.8999      2.9879      3.1216      3.3055    
  3.3514      3.4789      3.5930      3.6750      3.7073      3.6782      3.5880      3.4506      3.2905      3.1345    
  3.0036      2.9088      2.8526      2.8319      2.8421      2.8783      2.9366      3.0147      3.1117      3.2256    
  3.4062      3.4455      3.4588      3.4455      3.4062      3.3424      3.2577      3.1594      3.0584      2.9672    
  2.8965      2.8526      2.8378      2.8526      2.8965      2.9671      3.0583      3.1593      3.2577      3.3424    
  3.7074      3.6750      3.5930      3.4789      3.3514      3.2256      3.1116      3.0147      2.9366      2.8783    
  2.8421      2.8319      2.8526      2.9088      3.0034      3.1342      3.2902      3.4504      3.5880      3.6783    
  4.2669      4.1843      4.0107      3.7798      3.5325      3.3055      3.1215      2.9879      2.8999      2.8488    
  2.8291      2.8421      2.8965      3.0034      3.1699      3.3911      3.6461      3.8997      4.1104      4.2411    
  5.3652      5.1543      4.7637      4.3500      3.9656      3.5974      3.2914      3.0722      2.9366      2.8673    
  2.8488      2.8783      2.9671      3.1342      3.3911      3.7267      4.1022      4.5113      4.9510      5.2859    
  8.2059      7.8180      6.8322      5.6665      4.7147      4.1022      3.6461      3.2902      3.0583      2.9366    
  2.8999      2.9366      3.0583      3.2902      3.6461      4.1022      4.7147      5.6665      6.8322      7.8180    
  13.570      13.229      11.495      9.0432      6.7038      5.0545      4.1745      3.6632      3.2902      3.0722    
  2.9879      3.0147      3.1593      3.4504      3.8997      4.5113      5.6665      7.6342      10.118      12.374    
  21.185      21.409      19.136      15.211      10.921      7.3956      5.1955      4.1745      3.6460      3.2914    
  3.1216      3.1117      3.2577      3.5880      4.1104      4.9510      6.8322      10.118      14.386      18.526    
  29.648      31.176      28.981      23.873      17.523      11.651      7.3957      5.0545      4.1022      3.5974    
  3.3055      3.2256      3.3424      3.6783      4.2411      5.2859      7.8180      12.374      18.526      24.906    
  21.890      24.904      25.007      22.204      17.524      12.449      8.2477      5.5640      4.2979      3.7266    
  3.3497      3.1705      3.1682      3.3399      3.7160      4.2980      5.3652      7.7826      11.864      17.018    
  24.904      29.647      31.176      28.982      23.875      17.525      11.653      7.3965      5.0546      4.1018    
  3.5972      3.3056      3.2259      3.3424      3.6780      4.2408      5.2859      7.8182      12.374      18.524    
  25.007      31.176      34.394      33.560      28.985      22.208      15.214      9.5981      6.1015      4.5107    
  3.8556      3.4494      3.2776      3.3188      3.5816      4.0837      4.9510      7.1605      11.495      17.822    
  22.204      28.982      33.560      34.397      31.181      25.011      17.824      11.495      7.1595      4.9501    
  4.0836      3.5819      3.3189      3.2774      3.4491      3.8558      4.5113      6.1017      9.5971      15.211    
  17.524      23.875      28.985      31.181      29.652      24.908      18.525      12.372      7.8160      5.2846    
  4.2406      3.6782      3.3424      3.2256      3.3055      3.5974      4.1022      5.0545      7.3956      11.651    
  12.449      17.525      22.208      25.011      24.908      21.891      17.015      11.860      7.7795      5.3638    
  4.2979      3.7162      3.3398      3.1680      3.1706      3.3500      3.7267      4.2976      5.5634      8.2471    
  8.2477      11.653      15.214      17.824      18.525      17.015      13.852      10.165      7.0717      5.1535    
  4.2411      3.6845      3.3058      3.1073      3.0568      3.1442      3.3911      3.8074      4.4254      5.7727    
  5.5640      7.3965      9.5981      11.495      12.372      11.860      10.165      7.9634      6.0190      4.7641    
  4.0846      3.5885      3.2424      3.0458      2.9690      2.9943      3.1342      3.4142      3.8337      4.4257    
  4.2979      5.0546      6.1015      7.1595      7.8160      7.7795      7.0717      6.0190      5.0365      4.3514    
  3.8570      3.4483      3.1596      2.9873      2.9067      2.8991      2.9671      3.1320      3.4144      3.8078    
  3.7266      4.1018      4.5107      4.9501      5.2846      5.3638      5.1535      4.7641      4.3514      3.9672    
  3.5985      3.2918      3.0723      2.9366      2.8673      2.8488      2.8783      2.9673      3.1344      3.3912    
  3.3497      3.5972      3.8556      4.0836      4.2406      4.2979      4.2411      4.0846      3.8570      3.5985    
  3.3506      3.1444      2.9943      2.8991      2.8488      2.8334      2.8488      2.8992      2.9943      3.1441    
  3.1705      3.3056      3.4494      3.5819      3.6782      3.7162      3.6845      3.5885      3.4483      3.2918    
  3.1444      3.0229      2.9343      2.8786      2.8516      2.8488      2.8673      2.9066      2.9689      3.0567    
  3.1682      3.2259      3.2776      3.3189      3.3424      3.3398      3.3058      3.2424      3.1596      3.0723    
  2.9943      2.9343      2.8953      2.8770      2.8786      2.8991      2.9366      2.9872      3.0458      3.1074    
  3.3399      3.3424      3.3188      3.2774      3.2256      3.1680      3.1073      3.0458      2.9873      2.9366    
  2.8991      2.8786      2.8770      2.8954      2.9344      2.9943      3.0722      3.1595      3.2424      3.3059    
  3.7160      3.6780      3.5816      3.4491      3.3055      3.1706      3.0568      2.9690      2.9067      2.8673    
  2.8488      2.8516      2.8786      2.9344      3.0229      3.1442      3.2914      3.4478      3.5880      3.6842    
  4.2980      4.2408      4.0837      3.8558      3.5974      3.3500      3.1442      2.9943      2.8991      2.8488    
  2.8334      2.8488      2.8991      2.9943      3.1442      3.3500      3.5974      3.8558      4.0837      4.2408    
  5.3652      5.2859      4.9510      4.5113      4.1022      3.7267      3.3911      3.1342      2.9671      2.8783    
  2.8488      2.8673      2.9366      3.0722      3.2914      3.5974      3.9656      4.3500      4.7637      5.1543    
  7.7826      7.8182      7.1605      6.1017      5.0545      4.2976      3.8074      3.4142      3.1320      2.9673    
  2.8992      2.9066      2.9872      3.1595      3.4478      3.8558      4.3500      5.0361      6.0204      7.0746    
  11.864      12.374      11.495      9.5971      7.3956      5.5634      4.4254      3.8337      3.4144      3.1344    
  2.9943      2.9689      3.0458      3.2424      3.5880      4.0837      4.7637      6.0204      7.9670      10.170    
  17.018      18.524      17.822      15.211      11.651      8.2471      5.7727      4.4257      3.8078      3.3912    
  3.1441      3.0567      3.1074      3.3059      3.6842      4.2408      5.1543      7.0746      10.170      13.857    
  11.857      13.856      14.385      13.250      10.921      8.2477      6.0089      4.5985      3.9042      3.4669    
  3.1700      3.0229      3.0022      3.0956      3.3234      3.7160      4.2669      5.1051      6.7251      9.1701    
  13.856      17.017      18.525      17.823      15.213      11.653      8.2481      5.7729      4.4254      3.8074    
  3.3911      3.1442      3.0569      3.1073      3.3057      3.6842      4.2411      5.1547      7.0746      10.169    
  14.385      18.525      21.185      21.411      19.139      15.214      10.922      7.3958      5.1952      4.1742    