bcc Fe                                  
   2.80000000000000     
    -0.500000    0.500000    0.500000
     0.500000   -0.500000    0.500000
     0.500000    0.500000   -0.500000
   Fe
     1
Direct
  0.000000  0.000000  0.000000
 
   20   20   20
 0.92457223718E+02 0.87222619868E+02 0.73299319617E+02 0.54961327785E+02 0.36755306833E+02
 0.21889659107E+02 0.11857351683E+02 0.66134476909E+01 0.47584174267E+01 0.41593372003E+01
 0.39621187703E+01 0.41593372003E+01 0.47584174267E+01 0.66134476909E+01 0.11857351683E+02
 0.21889659107E+02 0.36755306833E+02 0.54961327785E+02 0.73299319617E+02 0.87222619868E+02
 0.87222619868E+02 0.85521951404E+02 0.74641092680E+02 0.58074616595E+02 0.40298806492E+02
 0.24903929726E+02 0.13855798244E+02 0.75570435893E+01 0.50213011826E+01 0.42503139020E+01
 0.39301711862E+01 0.39938267633E+01 0.44423398830E+01 0.55619864768E+01 0.91701360970E+01
 0.17017525274E+02 0.29648220519E+02 0.46154465671E+02 0.64003359915E+02 0.79157366392E+02
 0.73299319617E+02 0.74641092680E+02 0.67579854588E+02 0.54461407428E+02 0.39099249593E+02
 0.25006697286E+02 0.14385343312E+02 0.79669480650E+01 0.51441602045E+01 0.42478086074E+01
 0.38391046099E+01 0.37835104312E+01 0.40792162106E+01 0.47477416544E+01 0.67250875637E+01
 0.11864072131E+02 0.21184509359E+02 0.34395460116E+02 0.49734431548E+02 0.64003359915E+02
 0.54961327785E+02 0.58074616595E+02 0.54461407428E+02 0.45369706869E+02 0.33617677176E+02
 0.22204326340E+02 0.13249573194E+02 0.76345349088E+01 0.50365945777E+01 0.41485024403E+01
 0.37012615792E+01 0.35606705263E+01 0.37174287145E+01 0.41850986786E+01 0.51050783947E+01
 0.77825692974E+01 0.13569715826E+02 0.22772834708E+02 0.34395460116E+02 0.46154465671E+02
 0.36755306833E+02 0.40298806492E+02 0.39099249593E+02 0.33617677176E+02 0.25677132527E+02
 0.17524011701E+02 0.10921483906E+02 0.67041206712E+01 0.47148131045E+01 0.39656573682E+01
 0.35325349992E+01 0.33513925503E+01 0.34062256492E+01 0.37073577486E+01 0.42669314638E+01
 0.53651919913E+01 0.82058819666E+01 0.13569715826E+02 0.21184509359E+02 0.29648220519E+02
 0.21889659107E+02 0.24903929726E+02 0.25006697286E+02 0.22204326340E+02 0.17524011701E+02
 0.12448649683E+02 0.82477270970E+01 0.55640234954E+01 0.42978756657E+01 0.37265773184E+01
 0.33497074564E+01 0.31705408097E+01 0.31682080506E+01 0.33398927456E+01 0.37160051747E+01
 0.42979711184E+01 0.53651919913E+01 0.77825692974E+01 0.11864072131E+02 0.17017525274E+02
 0.11857351683E+02 0.13855798244E+02 0.14385343312E+02 0.13249573194E+02 0.10921483906E+02
 0.82477270970E+01 0.60088880468E+01 0.45984763576E+01 0.39041707376E+01 0.34668888680E+01
 0.31699523404E+01 0.30228980620E+01 0.30021518118E+01 0.30956452690E+01 0.33233794530E+01
 0.37160051747E+01 0.42669314638E+01 0.51050783947E+01 0.67250875637E+01 0.91701360970E+01
 0.66134476909E+01 0.75570435893E+01 0.79669480650E+01 0.76345349088E+01 0.67041206712E+01
 0.55640234954E+01 0.45984763576E+01 0.39717146269E+01 0.35508853182E+01 0.32225875665E+01
 0.30103972328E+01 0.29088561761E+01 0.28954220997E+01 0.29553849336E+01 0.30956452690E+01
 0.33398927456E+01 0.37073577486E+01 0.41850986786E+01 0.47477416544E+01 0.55619864768E+01
 0.47584174267E+01 0.50213011826E+01 0.51441602045E+01 0.50365945777E+01 0.47148131045E+01
 0.42978756657E+01 0.39041707376E+01 0.35508853182E+01 0.32472164435E+01 0.30222864197E+01
 0.28861462715E+01 0.28303476230E+01 0.28377924257E+01 0.28954220997E+01 0.30021518118E+01
 0.31682080506E+01 0.34062256492E+01 0.37174287145E+01 0.40792162106E+01 0.44423398830E+01
 0.41593372003E+01 0.42503139020E+01 0.42478086074E+01 0.41485024403E+01 0.39656573682E+01
 0.37265773184E+01 0.34668888680E+01 0.32225875665E+01 0.30222864197E+01 0.28825913186E+01
 0.28079006524E+01 0.27935609613E+01 0.28303476230E+01 0.29088561761E+01 0.30228980620E+01
 0.31705408097E+01 0.33513925503E+01 0.35606705263E+01 0.37835104312E+01 0.39938267633E+01
 0.39621187703E+01 0.39301711862E+01 0.38391046099E+01 0.37012615792E+01 0.35325349992E+01
 0.33497074564E+01 0.31699523404E+01 0.30103972328E+01 0.28861462715E+01 0.28079006524E+01
 0.27812810015E+01 0.28079006524E+01 0.28861462715E+01 0.30103972328E+01 0.31699523404E+01
 0.33497074564E+01 0.35325349992E+01 0.37012615792E+01 0.38391046099E+01 0.39301711862E+01
 0.41593372003E+01 0.39938267633E+01 0.37835104312E+01 0.35606705263E+01 0.33513925503E+01
 0.31705408097E+01 0.30228980620E+01 0.29088561761E+01 0.28303476230E+01 0.27935609613E+01
 0.28079006524E+01 0.28825913186E+01 0.30222864197E+01 0.32225875665E+01 0.34668888680E+01
 0.37265773184E+01 0.39656573682E+01 0.41485024403E+01 0.42478086074E+01 0.42503139020E+01
 0.47584174267E+01 0.44423398830E+01 0.40792162106E+01 0.37174287145E+01 0.34062256492E+01
 0.31682080506E+01 0.30021518118E+01 0.28954220997E+01 0.28377924257E+01 0.28303476230E+01
 0.28861462715E+01 0.30222864197E+01 0.32472164435E+01 0.35508853182E+01 0.39041707376E+01
 0.42978756657E+01 0.47148131045E+01 0.50365945777E+01 0.51441602045E+01 0.50213011826E+01
 0.66134476909E+01 0.55619864768E+01 0.47477416544E+01 0.41850986786E+01 0.37073577486E+01
 0.33398927456E+01 0.30956452690E+01 0.29553849336E+01 0.28954220997E+01 0.29088561761E+01
 0.30103972328E+01 0.32225875665E+01 0.35508853182E+01 0.39717146269E+01 0.45984763576E+01
 0.55640234954E+01 0.67041206712E+01 0.76345349088E+01 0.79669480650E+01 0.75570435893E+01
 0.11857351683E+02 0.91701360970E+01 0.67250875637E+01 0.51050783947E+01 0.42669314638E+01
 0.37160051747E+01 0.33233794530E+01 0.30956452690E+01 0.30021518118E+01 0.30228980620E+01
 0.31699523404E+01 0.34668888680E+01 0.39041707376E+01 0.45984763576E+01 0.60088880468E+01
 0.82477270970E+01 0.10921483906E+02 0.13249573194E+02 0.14385343312E+02 0.13855798244E+02
 0.21889659107E+02 0.17017525274E+02 0.11864072131E+02 0.77825692974E+01 0.53651919913E+01
 0.42979711184E+01 0.37160051747E+01 0.33398927456E+01 0.31682080506E+01 0.31705408097E+01
 0.33497074564E+01 0.37265773184E+01 0.42978756657E+01 0.55640234954E+01 0.82477270970E+01
 0.12448649683E+02 0.17524011701E+02 0.22204326340E+02 0.25006697286E+02 0.24903929726E+02
 0.36755306833E+02 0.29648220519E+02 0.21184509359E+02 0.13569715826E+02 0.82058819666E+01
 0.53651919913E+01 0.42669314638E+01 0.37073577486E+01 0.34062256492E+01 0.33513925503E+01
 0.35325349992E+01 0.39656573682E+01 0.47148131045E+01 0.67041206712E+01 0.10921483906E+02
 0.17524011701E+02 0.25677132527E+02 0.33617677176E+02 0.39099249593E+02 0.40298806492E+02
 0.54961327785E+02 0.46154465671E+02 0.34395460116E+02 0.22772834708E+02 0.13569715826E+02
 0.77825692974E+01 0.51050783947E+01 0.41850986786E+01 0.37174287145E+01 0.35606705263E+01
 0.37012615792E+01 0.41485024403E+01 0.50365945777E+01 0.76345349088E+01 0.13249573194E+02
 0.22204326340E+02 0.33617677176E+02 0.45369706869E+02 0.54461407428E+02 0.58074616595E+02
 0.73299319617E+02 0.64003359915E+02 0.49734431548E+02 0.34395460116E+02 0.21184509359E+02
 0.11864072131E+02 0.67250875637E+01 0.47477416544E+01 0.40792162106E+01 0.37835104312E+01
 0.38391046099E+01 0.42478086074E+01 0.51441602045E+01 0.79669480650E+01 0.14385343312E+02
 0.25006697286E+02 0.39099249593E+02 0.54461407428E+02 0.67579854588E+02 0.74641092680E+02
 0.87222619868E+02 0.79157366392E+02 0.64003359915E+02 0.46154465671E+02 0.29648220519E+02
 0.17017525274E+02 0.91701360970E+01 0.55619864768E+01 0.44423398830E+01 0.39938267633E+01
 0.39301711862E+01 0.42503139020E+01 0.50213011826E+01 0.75570435893E+01 0.13855798244E+02
 0.24903929726E+02 0.40298806492E+02 0.58074616595E+02 0.74641092680E+02 0.85521951404E+02
 0.87222619868E+02 0.85521951404E+02 0.74641092680E+02 0.58074616595E+02 0.40298806492E+02
 0.24903929726E+02 0.13855798244E+02 0.75570435893E+01 0.50213011826E+01 0.42503139020E+01
 0.39301711862E+01 0.39938267633E+01 0.44423398830E+01 0.55619864768E+01 0.91701360970E+01
 0.17017525274E+02 0.29648220519E+02 0.46154465671E+02 0.64003359915E+02 0.79157366392E+02
 0.85521951404E+02 0.87217153403E+02 0.79149060976E+02 0.63996145173E+02 0.46150469374E+02
 0.29646901752E+02 0.17017334366E+02 0.91702800297E+01 0.55624525114E+01 0.44429320024E+01
 0.39939795410E+01 0.39297123175E+01 0.42497937474E+01 0.50212730869E+01 0.75574456384E+01
 0.13856526046E+02 0.24905738780E+02 0.40302786337E+02 0.58080316728E+02 0.74645653193E+02
 0.74641092680E+02 0.79149060976E+02 0.74636961661E+02 0.62632979664E+02 0.46823814978E+02
 0.31176013582E+02 0.18525124905E+02 0.10169820543E+02 0.59675115411E+01 0.45325858814E+01
 0.39899477442E+01 0.38096867562E+01 0.39899318112E+01 0.45325521562E+01 0.59673744122E+01
 0.10169648884E+02 0.18525609472E+02 0.31178346709E+02 0.46828551761E+02 0.62638834764E+02
 0.58074616595E+02 0.63996145173E+02 0.62632979664E+02 0.54461583354E+02 0.42114060517E+02
 0.28982035075E+02 0.17823251113E+02 0.10119094363E+02 0.60209966219E+01 0.45038419497E+01
 0.39160503020E+01 0.36526117946E+01 0.37084442901E+01 0.40887056801E+01 0.48464364825E+01
 0.70745967687E+01 0.12374220939E+02 0.21409493416E+02 0.33559556819E+02 0.46826024879E+02
 0.40298806492E+02 0.46150469374E+02 0.46823814978E+02 0.42114060517E+02 0.33619529884E+02
 0.23875379308E+02 0.15212877439E+02 0.90440517570E+01 0.56667666430E+01 0.43501083234E+01
 0.37797892373E+01 0.34789308217E+01 0.34455168507E+01 0.36750161690E+01 0.41843264766E+01
 0.51542903302E+01 0.78179971504E+01 0.13228537852E+02 0.21408804015E+02 0.31175942404E+02
 0.24903929726E+02 0.29646901752E+02 0.31176013582E+02 0.28982035075E+02 0.23875379308E+02
 0.17525459188E+02 0.11652816240E+02 0.73965103578E+01 0.50545838406E+01 0.41018323469E+01
 0.35971601781E+01 0.33055511220E+01 0.32258569770E+01 0.33424107970E+01 0.36779987104E+01
 0.42407719958E+01 0.52858855203E+01 0.78182193855E+01 0.12373967812E+02 0.18524387175E+02
 0.13855798244E+02 0.17017334366E+02 0.18525124905E+02 0.17823251113E+02 0.15212877439E+02
 0.11652816240E+02 0.82480858449E+01 0.57729017419E+01 0.44254285745E+01 0.38074071135E+01
 0.33911345899E+01 0.31442412105E+01 0.30568523153E+01 0.31072580863E+01 0.33056881264E+01
 0.36842474543E+01 0.42411489026E+01 0.51547201785E+01 0.70745842217E+01 0.10169060382E+02
 0.75570435893E+01 0.91702800297E+01 0.10169820543E+02 0.10119094363E+02 0.90440517570E+01
 0.73965103578E+01 0.57729017419E+01 0.45981529953E+01 0.39357696745E+01 0.35051951620E+01
 0.31882943890E+01 0.30035980263E+01 0.29344592110E+01 0.29585432546E+01 0.30745883279E+01
 0.33059282294E+01 0.36783468110E+01 0.41844449746E+01 0.48461233358E+01 0.59667994247E+01
 0.50213011826E+01 0.55624525114E+01 0.59675115411E+01 0.60209966219E+01 0.56667666430E+01
 0.50545838406E+01 0.44254285745E+01 0.39357696745E+01 0.35507928447E+01 0.32340376523E+01
 0.30133166492E+01 0.28916767495E+01 0.28525709740E+01 0.28770603198E+01 0.29586236870E+01
 0.31073774705E+01 0.33423777268E+01 0.36746951336E+01 0.40882052326E+01 0.45321804670E+01
 0.42503139020E+01 0.44429320024E+01 0.45325858814E+01 0.45038419497E+01 0.43501083234E+01
 0.41018323469E+01 0.38074071135E+01 0.35051951620E+01 0.32340376523E+01 0.30223923544E+01
 0.28837247476E+01 0.28168110176E+01 0.28107253962E+01 0.28525449341E+01 0.29344104987E+01
 0.30567143596E+01 0.32255874220E+01 0.34452117276E+01 0.37083177806E+01 0.39901486413E+01
 0.39301711862E+01 0.39939795410E+01 0.39899477442E+01 0.39160503020E+01 0.37797892373E+01
 0.35971601781E+01 0.33911345899E+01 0.31882943890E+01 0.30133166492E+01 0.28837247476E+01
 0.28079087255E+01 0.27867893768E+01 0.28167412244E+01 0.28915537880E+01 0.30034344771E+01
 0.31440719827E+01 0.33054689530E+01 0.34790598945E+01 0.36530045599E+01 0.38102331469E+01
 0.39938267633E+01 0.39297123175E+01 0.38096867562E+01 0.36526117946E+01 0.34789308217E+01
 0.33055511220E+01 0.31442412105E+01 0.30035980263E+01 0.28916767495E+01 0.28168110176E+01
 0.27867893768E+01 0.28078316205E+01 0.28835951424E+01 0.30131907465E+01 0.31882432731E+01
 0.33912272074E+01 0.35974358658E+01 0.37802092397E+01 0.39164657743E+01 0.39901486413E+01
 0.44423398830E+01 0.42497937474E+01 0.39899318112E+01 0.37084442901E+01 0.34455168507E+01
 0.32258569770E+01 0.30568523153E+01 0.29344592110E+01 0.28525709740E+01 0.28107253962E+01
 0.28167412244E+01 0.28835951424E+01 0.30222971067E+01 0.32340861002E+01 0.35054246661E+01
 0.38077582544E+01 0.41021798940E+01 0.43503018184E+01 0.45037524563E+01 0.45321804670E+01
 0.55619864768E+01 0.50212730869E+01 0.45325521562E+01 0.40887056801E+01 0.36750161690E+01
 0.33424107970E+01 0.31072580863E+01 0.29585432546E+01 0.28770603198E+01 0.28525449341E+01
 0.28915537880E+01 0.30131907465E+01 0.32340861002E+01 0.35510825682E+01 0.39361673490E+01
 0.44256931287E+01 0.50545269420E+01 0.56663445350E+01 0.60203161540E+01 0.59667994247E+01
 0.91701360970E+01 0.75574456384E+01 0.59673744122E+01 0.48464364825E+01 0.41843264766E+01
 0.36779987104E+01 0.33056881264E+01 0.30745883279E+01 0.29586236870E+01 0.29344104987E+01
 0.30034344771E+01 0.31882432731E+01 0.35054246661E+01 0.39361673490E+01 0.45983830560E+01
 0.57726582054E+01 0.73957211859E+01 0.90429071806E+01 0.10117951301E+02 0.10169060382E+02
 0.17017525274E+02 0.13856526046E+02 0.10169648884E+02 0.70745967687E+01 0.51542903302E+01
 0.42407719958E+01 0.36842474543E+01 0.33059282294E+01 0.31073774705E+01 0.30567143596E+01
 0.31440719827E+01 0.33912272074E+01 0.38077582544E+01 0.44256931287E+01 0.57726582054E+01
 0.82471194918E+01 0.11651225840E+02 0.15211041129E+02 0.17821716560E+02 0.18524387175E+02
 0.29648220519E+02 0.24905738780E+02 0.18525609472E+02 0.12374220939E+02 0.78179971504E+01
 0.52858855203E+01 0.42411489026E+01 0.36783468110E+01 0.33423777268E+01 0.32255874220E+01
 0.33054689530E+01 0.35974358658E+01 0.41021798940E+01 0.50545269420E+01 0.73957211859E+01
 0.11651225840E+02 0.17523263516E+02 0.23873112046E+02 0.28980522550E+02 0.31175942404E+02
 0.46154465671E+02 0.40302786337E+02 0.31178346709E+02 0.21409493416E+02 0.13228537852E+02
 0.78182193855E+01 0.51547201785E+01 0.41844449746E+01 0.36746951336E+01 0.34452117276E+01
 0.34790598945E+01 0.37802092397E+01 0.43503018184E+01 0.56663445350E+01 0.90429071806E+01
 0.15211041129E+02 0.23873112046E+02 0.33617656530E+02 0.42113843362E+02 0.46826024879E+02
 0.64003359915E+02 0.58080316728E+02 0.46828551761E+02 0.33559556819E+02 0.21408804015E+02
 0.12373967812E+02 0.70745842217E+01 0.48461233358E+01 0.40882052326E+01 0.37083177806E+01
 0.36530045599E+01 0.39164657743E+01 0.45037524563E+01 0.60203161540E+01 0.10117951301E+02
 0.17821716560E+02 0.28980522550E+02 0.42113843362E+02 0.54464242190E+02 0.62638834764E+02
 0.79157366392E+02 0.74645653193E+02 0.62638834764E+02 0.46826024879E+02 0.31175942404E+02
 0.18524387175E+02 0.10169060382E+02 0.59667994247E+01 0.45321804670E+01 0.39901486413E+01
 0.38102331469E+01 0.39901486413E+01 0.45321804670E+01 0.59667994247E+01 0.10169060382E+02
 0.18524387175E+02 0.31175942404E+02 0.46826024879E+02 0.62638834764E+02 0.74645653193E+02
 0.73299319617E+02 0.74641092680E+02 0.67579854588E+02 0.54461407428E+02 0.39099249593E+02
 0.25006697286E+02 0.14385343312E+02 0.79669480650E+01 0.51441602045E+01 0.42478086074E+01
 0.38391046099E+01 0.37835104312E+01 0.40792162106E+01 0.47477416544E+01 0.67250875637E+01
 0.11864072131E+02 0.21184509359E+02 0.34395460116E+02 0.49734431548E+02 0.64003359915E+02
 0.74641092680E+02 0.79149060976E+02 0.74636961661E+02 0.62632979664E+02 0.46823814978E+02
 0.31176013582E+02 0.18525124905E+02 0.10169820543E+02 0.59675115411E+01 0.45325858814E+01
 0.39899477442E+01 0.38096867562E+01 0.39899318112E+01 0.45325521562E+01 0.59673744122E+01
 0.10169648884E+02 0.18525609472E+02 0.31178346709E+02 0.46828551761E+02 0.62638834764E+02
 0.67579854588E+02 0.74636961661E+02 0.73292266387E+02 0.63996383026E+02 0.49730084732E+02
 0.34394207458E+02 0.21185037159E+02 0.11864849822E+02 0.67254644324E+01 0.47478253743E+01
 0.40792248199E+01 0.37834970405E+01 0.38390829848E+01 0.42478077604E+01 0.51441612275E+01
 0.79670491186E+01 0.14386058112E+02 0.25008721318E+02 0.39102488618E+02 0.54464242190E+02
 0.54461407428E+02 0.62632979664E+02 0.63996383026E+02 0.58075026992E+02 0.46826605015E+02
 0.33560438551E+02 0.21410684493E+02 0.12375351423E+02 0.70751291071E+01 0.48462178531E+01
 0.40882048521E+01 0.37083060298E+01 0.36529873542E+01 0.39164717264E+01 0.45037720707E+01
 0.60203931790E+01 0.10118364279E+02 0.17822748609E+02 0.28981758876E+02 0.42113843362E+02
 0.39099249593E+02 0.46823814978E+02 0.49730084732E+02 0.46826605015E+02 0.39103514943E+02
 0.28984544477E+02 0.19139128253E+02 0.11496245078E+02 0.68325305703E+01 0.47637652161E+01
 0.40107155103E+01 0.35929515653E+01 0.34587551453E+01 0.35929574344E+01 0.40107387811E+01
 0.47637411240E+01 0.68321675624E+01 0.11494983227E+02 0.19136439840E+02 0.28980522550E+02
 0.25006697286E+02 0.31176013582E+02 0.34394207458E+02 0.33560438551E+02 0.28984544477E+02
 0.22207691690E+02 0.15213602233E+02 0.95981037669E+01 0.61015282911E+01 0.45107445927E+01
 0.38556063314E+01 0.34493962534E+01 0.32776464938E+01 0.33187924589E+01 0.35815695369E+01
 0.40836819693E+01 0.49509552824E+01 0.71605070367E+01 0.11494729000E+02 0.17821716560E+02
 0.14385343312E+02 0.18525124905E+02 0.21185037159E+02 0.21410684493E+02 0.19139128253E+02
 0.15213602233E+02 0.10922121603E+02 0.73958036086E+01 0.51951889591E+01 0.41742352290E+01
 0.36459673628E+01 0.32914241767E+01 0.31215525064E+01 0.31116644420E+01 0.32576668232E+01
 0.35880172062E+01 0.41103528977E+01 0.49509738995E+01 0.68320796896E+01 0.10117951301E+02
 0.79669480650E+01 0.10169820543E+02 0.11864849822E+02 0.12375351423E+02 0.11496245078E+02
 0.95981037669E+01 0.73958036086E+01 0.55630703650E+01 0.44249268754E+01 0.38334025326E+01
 0.34143091455E+01 0.31344185862E+01 0.29943098676E+01 0.29688650300E+01 0.30458265057E+01
 0.32424142877E+01 0.35880215708E+01 0.40837095533E+01 0.47637522437E+01 0.60203161540E+01
 0.51441602045E+01 0.59675115411E+01 0.67254644324E+01 0.70751291071E+01 0.68325305703E+01
 0.61015282911E+01 0.51951889591E+01 0.44249268754E+01 0.39037494358E+01 0.35052383543E+01
 0.31944616737E+01 0.29943666830E+01 0.28964759297E+01 0.28785836591E+01 0.29265560065E+01
 0.30458231959E+01 0.32576570860E+01 0.35815662084E+01 0.40107365119E+01 0.45037524563E+01
 0.42478086074E+01 0.45325858814E+01 0.47478253743E+01 0.48462178531E+01 0.47637652161E+01
 0.45107445927E+01 0.41742352290E+01 0.38334025326E+01 0.35052383543E+01 0.32227522173E+01
 0.30133296356E+01 0.28852893314E+01 0.28300969808E+01 0.28318806677E+01 0.28785958560E+01
 0.29688741716E+01 0.31116607895E+01 0.33187832175E+01 0.35929505874E+01 0.39164657743E+01
 0.38391046099E+01 0.39899477442E+01 0.40792248199E+01 0.40882048521E+01 0.40107155103E+01
 0.38556063314E+01 0.36459673628E+01 0.34143091455E+01 0.31944616737E+01 0.30133296356E+01
 0.28861715538E+01 0.28167527335E+01 0.28007739123E+01 0.28301048787E+01 0.28964937862E+01
 0.29943242092E+01 0.31215530321E+01 0.32776405052E+01 0.34587583342E+01 0.36530045599E+01
 0.37835104312E+01 0.38096867562E+01 0.37834970405E+01 0.37083060298E+01 0.35929515653E+01
 0.34493962534E+01 0.32914241767E+01 0.31344185862E+01 0.29943666830E+01 0.28852893314E+01
 0.28167527335E+01 0.27934795811E+01 0.28167470689E+01 0.28852878054E+01 0.29943741277E+01
 0.31344267978E+01 0.32914229175E+01 0.34493884098E+01 0.35929505874E+01 0.37083177806E+01
 0.40792162106E+01 0.39899318112E+01 0.38390829848E+01 0.36529873542E+01 0.34587551453E+01
 0.32776464938E+01 0.31215525064E+01 0.29943098676E+01 0.28964759297E+01 0.28300969808E+01
 0.28007739123E+01 0.28167470689E+01 0.28861584416E+01 0.30133299075E+01 0.31944992079E+01
 0.34143823618E+01 0.36460465147E+01 0.38556602866E+01 0.40107365119E+01 0.40882052326E+01
 0.47477416544E+01 0.45325521562E+01 0.42478077604E+01 0.39164717264E+01 0.35929574344E+01
 0.33187924589E+01 0.31116644420E+01 0.29688650300E+01 0.28785836591E+01 0.28318806677E+01
 0.28301048787E+01 0.28852878054E+01 0.30133299075E+01 0.32228126677E+01 0.35054156719E+01
 0.38336768139E+01 0.41744990756E+01 0.45108836748E+01 0.47637522437E+01 0.48461233358E+01
 0.67250875637E+01 0.59673744122E+01 0.51441612275E+01 0.45037720707E+01 0.40107387811E+01
 0.35815695369E+01 0.32576668232E+01 0.30458265057E+01 0.29265560065E+01 0.28785958560E+01
 0.28964937862E+01 0.29943741277E+01 0.31944992079E+01 0.35054156719E+01 0.39041326281E+01
 0.44254023203E+01 0.51954869528E+01 0.61014335053E+01 0.68320796896E+01 0.70745842217E+01
 0.11864072131E+02 0.10169648884E+02 0.79670491186E+01 0.60203931790E+01 0.47637411240E+01
 0.40836819693E+01 0.35880172062E+01 0.32424142877E+01 0.30458231959E+01 0.29688741716E+01
 0.29943242092E+01 0.31344267978E+01 0.34143823618E+01 0.38336768139E+01 0.44254023203E+01
 0.55634391362E+01 0.73955929097E+01 0.95970899835E+01 0.11494729000E+02 0.12373967812E+02
 0.21184509359E+02 0.18525609472E+02 0.14386058112E+02 0.10118364279E+02 0.68321675624E+01
 0.49509552824E+01 0.41103528977E+01 0.35880215708E+01 0.32576570860E+01 0.31116607895E+01
 0.31215530321E+01 0.32914229175E+01 0.36460465147E+01 0.41744990756E+01 0.51954869528E+01
 0.73955929097E+01 0.10920817022E+02 0.15211200994E+02 0.19136439840E+02 0.21408804015E+02
 0.34395460116E+02 0.31178346709E+02 0.25008721318E+02 0.17822748609E+02 0.11494983227E+02
 0.71605070367E+01 0.49509738995E+01 0.40837095533E+01 0.35815662084E+01 0.33187832175E+01
 0.32776405052E+01 0.34493884098E+01 0.38556602866E+01 0.45108836748E+01 0.61014335053E+01
 0.95970899835E+01 0.15211200994E+02 0.22204384995E+02 0.28981758876E+02 0.33559556819E+02
 0.49734431548E+02 0.46828551761E+02 0.39102488618E+02 0.28981758876E+02 0.19136439840E+02
 0.11494729000E+02 0.68320796896E+01 0.47637522437E+01 0.40107365119E+01 0.35929505874E+01
 0.34587583342E+01 0.35929505874E+01 0.40107365119E+01 0.47637522437E+01 0.68320796896E+01
 0.11494729000E+02 0.19136439840E+02 0.28981758876E+02 0.39102488618E+02 0.46828551761E+02
 0.64003359915E+02 0.62638834764E+02 0.54464242190E+02 0.42113843362E+02 0.28980522550E+02
 0.17821716560E+02 0.10117951301E+02 0.60203161540E+01 0.45037524563E+01 0.39164657743E+01
 0.36530045599E+01 0.37083177806E+01 0.40882052326E+01 0.48461233358E+01 0.70745842217E+01
 0.12373967812E+02 0.21408804015E+02 0.33559556819E+02 0.46828551761E+02 0.58080316728E+02
 0.54961327785E+02 0.58074616595E+02 0.54461407428E+02 0.45369706869E+02 0.33617677176E+02
 0.22204326340E+02 0.13249573194E+02 0.76345349088E+01 0.50365945777E+01 0.41485024403E+01
 0.37012615792E+01 0.35606705263E+01 0.37174287145E+01 0.41850986786E+01 0.51050783947E+01
 0.77825692974E+01 0.13569715826E+02 0.22772834708E+02 0.34395460116E+02 0.46154465671E+02
 0.58074616595E+02 0.63996145173E+02 0.62632979664E+02 0.54461583354E+02 0.42114060517E+02
 0.28982035075E+02 0.17823251113E+02 0.10119094363E+02 0.60209966219E+01 0.45038419497E+01
 0.39160503020E+01 0.36526117946E+01 0.37084442901E+01 0.40887056801E+01 0.48464364825E+01
 0.70745967687E+01 0.12374220939E+02 0.21409493416E+02 0.33559556819E+02 0.46826024879E+02
 0.54461407428E+02 0.62632979664E+02 0.63996383026E+02 0.58075026992E+02 0.46826605015E+02
 0.33560438551E+02 0.21410684493E+02 0.12375351423E+02 0.70751291071E+01 0.48462178531E+01
 0.40882048521E+01 0.37083060298E+01 0.36529873542E+01 0.39164717264E+01 0.45037720707E+01
 0.60203931790E+01 0.10118364279E+02 0.17822748609E+02 0.28981758876E+02 0.42113843362E+02
 0.45369706869E+02 0.54461583354E+02 0.58075026992E+02 0.54962044637E+02 0.46155671430E+02
 0.34397215819E+02 0.22774745501E+02 0.13571041288E+02 0.77828484660E+01 0.51046150468E+01
 0.41846872778E+01 0.37175632980E+01 0.35611133938E+01 0.37014300363E+01 0.41481670273E+01
 0.50360713553E+01 0.76342401429E+01 0.13249569485E+02 0.22204384995E+02 0.33617656530E+02
 0.33617677176E+02 0.42114060517E+02 0.46826605015E+02 0.46155671430E+02 0.40304805299E+02
 0.31180878763E+02 0.21411671415E+02 0.13229523880E+02 0.78179662963E+01 0.51540301810E+01
 0.41841825397E+01 0.36749961471E+01 0.34455384636E+01 0.34789493015E+01 0.37797914776E+01
 0.43500468196E+01 0.56664690823E+01 0.90431963647E+01 0.15211200994E+02 0.23873112046E+02
 0.22204326340E+02 0.28982035075E+02 0.33560438551E+02 0.34397215819E+02 0.31180878763E+02
 0.25011276372E+02 0.17824273307E+02 0.11494986051E+02 0.71595387457E+01 0.49501194644E+01
 0.40835832504E+01 0.35818859123E+01 0.33189160298E+01 0.32773933500E+01 0.34491303187E+01
 0.38557639569E+01 0.45112677904E+01 0.61017258791E+01 0.95970899835E+01 0.15211041129E+02
 0.13249573194E+02 0.17823251113E+02 0.21410684493E+02 0.22774745501E+02 0.21411671415E+02
 0.17824273307E+02 0.13249686825E+02 0.90420348831E+01 0.61002617264E+01 0.45769047181E+01
 0.38993470053E+01 0.34477583007E+01 0.31917215231E+01 0.31125384596E+01 0.31917300193E+01
 0.34478145408E+01 0.38996539890E+01 0.45777080604E+01 0.61014335053E+01 0.90429071806E+01
 0.76345349088E+01 0.10119094363E+02 0.12375351423E+02 0.13571041288E+02 0.13229523880E+02
 0.11494986051E+02 0.90420348831E+01 0.67020578921E+01 0.50531320596E+01 0.41740507753E+01
 0.36633317379E+01 0.32903264089E+01 0.30720856790E+01 0.29877523633E+01 0.30148151721E+01
 0.31595152516E+01 0.34504335509E+01 0.38993396593E+01 0.45108836748E+01 0.56663445350E+01
 0.50365945777E+01 0.60209966219E+01 0.70751291071E+01 0.77828484660E+01 0.78179662963E+01
 0.71595387457E+01 0.61002617264E+01 0.50531320596E+01 0.42969455493E+01 0.38074276676E+01
 0.34143773798E+01 0.31321050623E+01 0.29671616360E+01 0.28990817257E+01 0.29066502288E+01
 0.29872181934E+01 0.31593046330E+01 0.34475114786E+01 0.38556602866E+01 0.43503018184E+01
 0.41485024403E+01 0.45038419497E+01 0.48462178531E+01 0.51046150468E+01 0.51540301810E+01
 0.49501194644E+01 0.45769047181E+01 0.41740507753E+01 0.38074276676E+01 0.34671180481E+01
 0.31884054259E+01 0.29943332791E+01 0.28841757125E+01 0.28420962438E+01 0.28515818919E+01
 0.29065985558E+01 0.30147147438E+01 0.31917433973E+01 0.34493884098E+01 0.37802092397E+01
 0.37012615792E+01 0.39160503020E+01 0.40882048521E+01 0.41846872778E+01 0.41841825397E+01
 0.40835832504E+01 0.38993470053E+01 0.36633317379E+01 0.34143773798E+01 0.31884054259E+01
 0.30105054768E+01 0.28915969729E+01 0.28300968623E+01 0.28170188866E+01 0.28421512755E+01
 0.28991569471E+01 0.29878755279E+01 0.31127523089E+01 0.32776405052E+01 0.34790598945E+01
 0.35606705263E+01 0.36526117946E+01 0.37083060298E+01 0.37175632980E+01 0.36749961471E+01
 0.35818859123E+01 0.34477583007E+01 0.32903264089E+01 0.31321050623E+01 0.29943332791E+01
 0.28915969729E+01 0.28302824663E+01 0.28107214709E+01 0.28301719286E+01 0.28842928165E+01
 0.29672844332E+01 0.30721841020E+01 0.31917433973E+01 0.33187832175E+01 0.34452117276E+01
 0.37174287145E+01 0.37084442901E+01 0.36529873542E+01 0.35611133938E+01 0.34455384636E+01
 0.33189160298E+01 0.31917215231E+01 0.30720856790E+01 0.29671616360E+01 0.28841757125E+01
 0.28300968623E+01 0.28107214709E+01 0.28303494940E+01 0.28916752226E+01 0.29943597602E+01
 0.31320470274E+01 0.32901754220E+01 0.34475114786E+01 0.35815662084E+01 0.36746951336E+01
 0.41850986786E+01 0.40887056801E+01 0.39164717264E+01 0.37014300363E+01 0.34789493015E+01
 0.32773933500E+01 0.31125384596E+01 0.29877523633E+01 0.28990817257E+01 0.28420962438E+01
 0.28170188866E+01 0.28301719286E+01 0.28916752226E+01 0.30104726108E+01 0.31882299769E+01
 0.34141530153E+01 0.36631863309E+01 0.38993396593E+01 0.40837095533E+01 0.41844449746E+01
 0.51050783947E+01 0.48464364825E+01 0.45037720707E+01 0.41481670273E+01 0.37797914776E+01
 0.34491303187E+01 0.31917300193E+01 0.30148151721E+01 0.29066502288E+01 0.28515818919E+01
 0.28421512755E+01 0.28842928165E+01 0.29943597602E+01 0.31882299769E+01 0.34668802699E+01
 0.38074439824E+01 0.41745154669E+01 0.45777080604E+01 0.49509738995E+01 0.51547201785E+01
 0.77825692974E+01 0.70745967687E+01 0.60203931790E+01 0.50360713553E+01 0.43500468196E+01
 0.38557639569E+01 0.34478145408E+01 0.31595152516E+01 0.29872181934E+01 0.29065985558E+01
 0.28991569471E+01 0.29672844332E+01 0.31320470274E+01 0.34141530153E+01 0.38074439824E+01
 0.42976417134E+01 0.50544837089E+01 0.61017258791E+01 0.71605070367E+01 0.78182193855E+01
 0.13569715826E+02 0.12374220939E+02 0.10118364279E+02 0.76342401429E+01 0.56664690823E+01
 0.45112677904E+01 0.38996539890E+01 0.34504335509E+01 0.31593046330E+01 0.30147147438E+01
 0.29878755279E+01 0.30721841020E+01 0.32901754220E+01 0.36631863309E+01 0.41745154669E+01
 0.50544837089E+01 0.67037896905E+01 0.90431963647E+01 0.11494983227E+02 0.13228537852E+02
 0.22772834708E+02 0.21409493416E+02 0.17822748609E+02 0.13249569485E+02 0.90431963647E+01
 0.61017258791E+01 0.45777080604E+01 0.38993396593E+01 0.34475114786E+01 0.31917433973E+01
 0.31127523089E+01 0.31917433973E+01 0.34475114786E+01 0.38993396593E+01 0.45777080604E+01
 0.61017258791E+01 0.90431963647E+01 0.13249569485E+02 0.17822748609E+02 0.21409493416E+02
 0.34395460116E+02 0.33559556819E+02 0.28981758876E+02 0.22204384995E+02 0.15211200994E+02
 0.95970899835E+01 0.61014335053E+01 0.45108836748E+01 0.38556602866E+01 0.34493884098E+01
 0.32776405052E+01 0.33187832175E+01 0.35815662084E+01 0.40837095533E+01 0.49509738995E+01
 0.71605070367E+01 0.11494983227E+02 0.17822748609E+02 0.25008721318E+02 0.31178346709E+02
 0.46154465671E+02 0.46826024879E+02 0.42113843362E+02 0.33617656530E+02 0.23873112046E+02
 0.15211041129E+02 0.90429071806E+01 0.56663445350E+01 0.43503018184E+01 0.37802092397E+01
 0.34790598945E+01 0.34452117276E+01 0.36746951336E+01 0.41844449746E+01 0.51547201785E+01
 0.78182193855E+01 0.13228537852E+02 0.21409493416E+02 0.31178346709E+02 0.40302786337E+02
 0.36755306833E+02 0.40298806492E+02 0.39099249593E+02 0.33617677176E+02 0.25677132527E+02
 0.17524011701E+02 0.10921483906E+02 0.67041206712E+01 0.47148131045E+01 0.39656573682E+01
 0.35325349992E+01 0.33513925503E+01 0.34062256492E+01 0.37073577486E+01 0.42669314638E+01
 0.53651919913E+01 0.82058819666E+01 0.13569715826E+02 0.21184509359E+02 0.29648220519E+02
 0.40298806492E+02 0.46150469374E+02 0.46823814978E+02 0.42114060517E+02 0.33619529884E+02
 0.23875379308E+02 0.15212877439E+02 0.90440517570E+01 0.56667666430E+01 0.43501083234E+01