   1   1   1   0
  0.1097600E+02  0.2424871E-09  0.2424871E-09  0.2424871E-09  0.5000000E-15
  1.000000000000000E-004
  CAR 
 bcc Fe                                  
     48.15976358     -5.07106867  301      6.08131216      1.00000000
     -5.071  0.0000E+00  0.0000E+00  0.0000E+00  0.0000E+00
     -4.894  0.0000E+00  0.0000E+00  0.0000E+00  0.0000E+00
     -4.716  0.0000E+00  0.0000E+00  0.0000E+00  0.0000E+00
     -4.539  0.0000E+00  0.0000E+00  0.0000E+00  0.0000E+00
     -4.361 -0.5593E-34  0.0000E+00 -0.9924E-35  0.0000E+00
     -4.184 -0.8957E-28  0.0000E+00 -0.1589E-28  0.0000E+00
     -4.006 -0.2952E-22 -0.8886E-35 -0.5237E-23 -0.1577E-35
     -3.829 -0.1936E-17 -0.1755E-28 -0.3435E-18 -0.3114E-29
     -3.652 -0.2708E-13 -0.6987E-23 -0.4805E-14 -0.1240E-23
     -3.474 -0.7771E-10 -0.5733E-18 -0.1379E-10 -0.1017E-18
     -3.297 -0.4615E-07 -0.9359E-14 -0.8203E-08 -0.1661E-14
     -3.119 -0.5623E-05 -0.3241E-10 -0.1006E-05 -0.5753E-11
     -2.942 -0.1296E-03 -0.2323E-07 -0.2400E-04 -0.4128E-08
     -2.764 -0.1891E-03 -0.3423E-05 -0.5755E-04 -0.6116E-06
     -2.587  0.3946E-02 -0.9733E-04  0.6426E-03 -0.1788E-04
     -2.410  0.1281E-01 -0.2711E-03  0.2916E-02 -0.6599E-04
     -2.232  0.1957E-01  0.3051E-02  0.6388E-02  0.4754E-03
     -2.055  0.2429E-01  0.1168E-01  0.1070E-01  0.2548E-02
     -1.877  0.2876E-01  0.1870E-01  0.1580E-01  0.5866E-02
     -1.700  0.3278E-01  0.2338E-01  0.2162E-01  0.1001E-01
     -1.522  0.3682E-01  0.2790E-01  0.2815E-01  0.1497E-01
     -1.345  0.4052E-01  0.3141E-01  0.3534E-01  0.2054E-01
     -1.167  0.4551E-01  0.3577E-01  0.4342E-01  0.2688E-01
     -0.990  0.4758E-01  0.3845E-01  0.5186E-01  0.3371E-01
     -0.813  0.5555E-01  0.4380E-01  0.6172E-01  0.4148E-01
     -0.635  0.5567E-01  0.4492E-01  0.7159E-01  0.4945E-01
     -0.458  0.6524E-01  0.5156E-01  0.8317E-01  0.5860E-01
     -0.280  0.6926E-01  0.5357E-01  0.9546E-01  0.6810E-01
     -0.103  0.7306E-01  0.5659E-01  0.1084E+00  0.7814E-01
      0.075  0.8925E-01  0.6601E-01  0.1243E+00  0.8985E-01
      0.252  0.8755E-01  0.6211E-01  0.1398E+00  0.1009E+00
      0.429  0.1108E+00  0.7548E-01  0.1595E+00  0.1143E+00
      0.607  0.1214E+00  0.7772E-01  0.1810E+00  0.1281E+00
      0.784  0.1491E+00  0.7886E-01  0.2075E+00  0.1421E+00
      0.962  0.2695E+00  0.9716E-01  0.2553E+00  0.1593E+00
      1.139  0.4252E+00  0.9529E-01  0.3307E+00  0.1762E+00
      1.317  0.5399E+00  0.1067E+00  0.4265E+00  0.1951E+00
      1.494  0.6124E+00  0.1282E+00  0.5352E+00  0.2179E+00
      1.672  0.7802E+00  0.1312E+00  0.6736E+00  0.2412E+00
      1.849  0.9006E+00  0.1619E+00  0.8334E+00  0.2699E+00
      2.026  0.7093E+00  0.2169E+00  0.9593E+00  0.3084E+00
      2.204  0.5073E+00  0.2979E+00  0.1049E+01  0.3612E+00
      2.381  0.3793E+00  0.3718E+00  0.1117E+01  0.4272E+00
      2.559  0.8588E+00  0.3650E+00  0.1269E+01  0.4920E+00
      2.736  0.1435E+01  0.4327E+00  0.1524E+01  0.5687E+00
      2.914  0.1164E+01  0.5295E+00  0.1730E+01  0.6627E+00
      3.091  0.9698E+00  0.6677E+00  0.1902E+01  0.7811E+00
      3.268  0.1055E+01  0.6682E+00  0.2089E+01  0.8997E+00
      3.446  0.1317E+01  0.5044E+00  0.2323E+01  0.9892E+00
      3.623  0.1305E+01  0.3695E+00  0.2555E+01  0.1055E+01
      3.801  0.8136E+00  0.2824E+00  0.2699E+01  0.1105E+01
      3.978  0.4531E+00  0.6461E+00  0.2780E+01  0.1220E+01
      4.156  0.3760E+00  0.1223E+01  0.2846E+01  0.1436E+01
      4.333  0.4103E+00  0.1217E+01  0.2919E+01  0.1652E+01
      4.510  0.4725E+00  0.1093E+01  0.3003E+01  0.1846E+01
      4.688  0.7360E+00  0.1052E+01  0.3133E+01  0.2033E+01
      4.865  0.1154E+01  0.1118E+01  0.3338E+01  0.2231E+01
      5.043  0.1593E+01  0.1201E+01  0.3621E+01  0.2445E+01
      5.220  0.2023E+01  0.1030E+01  0.3980E+01  0.2627E+01
      5.398  0.2200E+01  0.7272E+00  0.4370E+01  0.2756E+01
      5.575  0.1478E+01  0.4115E+00  0.4632E+01  0.2829E+01
      5.753  0.8651E+00  0.2599E+00  0.4786E+01  0.2876E+01
      5.930  0.7732E+00  0.2814E+00  0.4923E+01  0.2925E+01
      6.107  0.7204E+00  0.2783E+00  0.5051E+01  0.2975E+01
      6.285  0.7136E+00  0.3454E+00  0.5178E+01  0.3036E+01
      6.462  0.5011E+00  0.4829E+00  0.5267E+01  0.3122E+01
      6.640  0.2086E+00  0.6876E+00  0.5304E+01  0.3244E+01
      6.817  0.1618E+00  0.8671E+00  0.5332E+01  0.3398E+01
      6.995  0.1562E+00  0.1101E+01  0.5360E+01  0.3593E+01
      7.172  0.1180E+00  0.1346E+01  0.5381E+01  0.3832E+01
      7.349  0.1658E+00  0.1363E+01  0.5410E+01  0.4074E+01
      7.527  0.1608E+00  0.1722E+01  0.5439E+01  0.4379E+01
      7.704  0.1105E+00  0.2072E+01  0.5458E+01  0.4747E+01
      7.882  0.1419E+00  0.1201E+01  0.5484E+01  0.4960E+01
      8.059  0.1730E+00  0.7859E+00  0.5514E+01  0.5099E+01
      8.237  0.1190E+00  0.6776E+00  0.5535E+01  0.5220E+01
      8.414  0.1081E+00  0.4426E+00  0.5555E+01  0.5298E+01
      8.592  0.1515E+00  0.2743E+00  0.5581E+01  0.5347E+01
      8.769  0.1549E+00  0.1796E+00  0.5609E+01  0.5379E+01
      8.946  0.1027E+00  0.1864E+00  0.5627E+01  0.5412E+01
      9.124  0.1019E+00  0.1894E+00  0.5645E+01  0.5445E+01
      9.301  0.1421E+00  0.1571E+00  0.5670E+01  0.5473E+01
      9.479  0.1375E+00  0.1719E+00  0.5695E+01  0.5504E+01
      9.656  0.9979E-01  0.1675E+00  0.5713E+01  0.5533E+01
      9.834  0.9426E-01  0.1511E+00  0.5729E+01  0.5560E+01
     10.011  0.1102E+00  0.1436E+00  0.5749E+01  0.5586E+01
     10.188  0.1258E+00  0.1624E+00  0.5771E+01  0.5615E+01
     10.366  0.9655E-01  0.1374E+00  0.5788E+01  0.5639E+01
     10.543  0.8875E-01  0.1316E+00  0.5804E+01  0.5662E+01
     10.721  0.9486E-01  0.1331E+00  0.5821E+01  0.5686E+01
     10.898  0.7337E-01  0.1364E+00  0.5834E+01  0.5710E+01
     11.076  0.1022E+00  0.1285E+00  0.5852E+01  0.5733E+01
     11.253  0.9627E-01  0.1026E+00  0.5869E+01  0.5751E+01
     11.430  0.6364E-01  0.1159E+00  0.5880E+01  0.5772E+01
     11.608  0.6189E-01  0.1203E+00  0.5891E+01  0.5793E+01
     11.785  0.6228E-01  0.1133E+00  0.5902E+01  0.5813E+01
     11.963  0.7828E-01  0.8342E-01  0.5916E+01  0.5828E+01
     12.140  0.7769E-01  0.7912E-01  0.5930E+01  0.5842E+01
     12.318  0.3832E-01  0.1182E+00  0.5937E+01  0.5863E+01
     12.495  0.3579E-01  0.9252E-01  0.5943E+01  0.5879E+01
     12.673  0.4863E-01  0.5919E-01  0.5952E+01  0.5890E+01
     12.850  0.5159E-01  0.6955E-01  0.5961E+01  0.5902E+01
     13.027  0.3864E-01  0.7328E-01  0.5968E+01  0.5915E+01
     13.205  0.1892E-01  0.8324E-01  0.5971E+01  0.5930E+01
     13.382  0.2388E-01  0.5320E-01  0.5976E+01  0.5939E+01
     13.560  0.2779E-01  0.3977E-01  0.5980E+01  0.5946E+01
     13.737  0.6143E-01  0.4988E-01  0.5991E+01  0.5955E+01
     13.915  0.1874E+00  0.4709E-01  0.6025E+01  0.5964E+01
     14.092  0.2743E+00  0.3843E-01  0.6073E+01  0.5970E+01
     14.269  0.2522E+00  0.3194E-01  0.6118E+01  0.5976E+01
     14.447  0.2369E+00  0.2368E-01  0.6160E+01  0.5980E+01
     14.624  0.1851E+00  0.2299E-01  0.6193E+01  0.5984E+01
     14.802  0.1756E+00  0.2275E-01  0.6224E+01  0.5988E+01
     14.979  0.2030E+00  0.8920E-01  0.6260E+01  0.6004E+01
     15.157  0.1599E+00  0.2797E+00  0.6288E+01  0.6054E+01
     15.334  0.1533E+00  0.3230E+00  0.6316E+01  0.6111E+01
     15.512  0.1575E+00  0.2640E+00  0.6344E+01  0.6158E+01
     15.689  0.1428E+00  0.2234E+00  0.6369E+01  0.6198E+01
     15.866  0.1527E+00  0.1999E+00  0.6396E+01  0.6233E+01
     16.044  0.1989E+00  0.2095E+00  0.6431E+01  0.6270E+01
     16.221  0.1791E+00  0.1678E+00  0.6463E+01  0.6300E+01
     16.399  0.1945E+00  0.1619E+00  0.6498E+01  0.6329E+01
     16.576  0.2040E+00  0.1817E+00  0.6534E+01  0.6361E+01
     16.754  0.1968E+00  0.1630E+00  0.6569E+01  0.6390E+01
     16.931  0.1774E+00  0.2089E+00  0.6600E+01  0.6427E+01
     17.108  0.1780E+00  0.2163E+00  0.6632E+01  0.6465E+01
     17.286  0.2135E+00  0.1983E+00  0.6670E+01  0.6501E+01
     17.463  0.1729E+00  0.1959E+00  0.6700E+01  0.6535E+01
     17.641  0.1745E+00  0.2091E+00  0.6731E+01  0.6573E+01
     17.818  0.1960E+00  0.1892E+00  0.6766E+01  0.6606E+01
     17.996  0.1833E+00  0.1880E+00  0.6799E+01  0.6639E+01
     18.173  0.1725E+00  0.2066E+00  0.6829E+01  0.6676E+01
     18.350  0.1744E+00  0.1885E+00  0.6860E+01  0.6710E+01
     18.528  0.1890E+00  0.1860E+00  0.6894E+01  0.6743E+01
     18.705  0.1972E+00  0.1889E+00  0.6929E+01  0.6776E+01
     18.883  0.1751E+00  0.1863E+00  0.6960E+01  0.6809E+01
     19.060  0.1520E+00  0.1875E+00  0.6987E+01  0.6842E+01
     19.238  0.1774E+00  0.1812E+00  0.7018E+01  0.6875E+01
     19.415  0.1849E+00  0.2017E+00  0.7051E+01  0.6910E+01
     19.593  0.1777E+00  0.1905E+00  0.7083E+01  0.6944E+01
     19.770  0.1799E+00  0.1605E+00  0.7114E+01  0.6973E+01
     19.947  0.1743E+00  0.1698E+00  0.7145E+01  0.7003E+01
     20.125  0.1647E+00  0.1984E+00  0.7175E+01  0.7038E+01
     20.302  0.1672E+00  0.1799E+00  0.7204E+01  0.7070E+01
     20.480  0.1766E+00  0.1900E+00  0.7236E+01  0.7104E+01
     20.657  0.1512E+00  0.1771E+00  0.7262E+01  0.7135E+01
     20.835  0.1717E+00  0.1694E+00  0.7293E+01  0.7165E+01
     21.012  0.1821E+00  0.1687E+00  0.7325E+01  0.7195E+01
     21.189  0.1868E+00  0.1862E+00  0.7358E+01  0.7228E+01
     21.367  0.1486E+00  0.1652E+00  0.7385E+01  0.7257E+01
     21.544  0.1454E+00  0.1653E+00  0.7411E+01  0.7287E+01
     21.722  0.1767E+00  0.1822E+00  0.7442E+01  0.7319E+01
     21.899  0.1629E+00  0.2084E+00  0.7471E+01  0.7356E+01
     22.077  0.1439E+00  0.1565E+00  0.7496E+01  0.7384E+01
     22.254  0.1720E+00  0.1350E+00  0.7527E+01  0.7408E+01
     22.432  0.2082E+00  0.1760E+00  0.7564E+01  0.7439E+01
     22.609  0.1974E+00  0.1828E+00  0.7599E+01  0.7471E+01
     22.786  0.1556E+00  0.1606E+00  0.7626E+01  0.7500E+01
     22.964  0.1838E+00  0.1578E+00  0.7659E+01  0.7528E+01
     23.141  0.2099E+00  0.1910E+00  0.7696E+01  0.7562E+01
     23.319  0.2106E+00  0.1904E+00  0.7734E+01  0.7596E+01
     23.496  0.1956E+00  0.1497E+00  0.7768E+01  0.7622E+01
     23.674  0.2270E+00  0.1848E+00  0.7809E+01  0.7655E+01
     23.851  0.2474E+00  0.2011E+00  0.7853E+01  0.7691E+01
     24.028  0.2658E+00  0.2221E+00  0.7900E+01  0.7730E+01
     24.206  0.2299E+00  0.2133E+00  0.7940E+01  0.7768E+01
     24.383  0.2150E+00  0.2326E+00  0.7979E+01  0.7809E+01
     24.561  0.2540E+00  0.2803E+00  0.8024E+01  0.7859E+01
     24.738  0.2671E+00  0.2876E+00  0.8071E+01  0.7910E+01
     24.916  0.2472E+00  0.2633E+00  0.8115E+01  0.7957E+01
     25.093  0.2449E+00  0.2306E+00  0.8158E+01  0.7998E+01
     25.271  0.2510E+00  0.2575E+00  0.8203E+01  0.8043E+01
     25.448  0.2650E+00  0.2583E+00  0.8250E+01  0.8089E+01
     25.625  0.2211E+00  0.2575E+00  0.8289E+01  0.8135E+01
     25.803  0.2146E+00  0.2473E+00  0.8327E+01  0.8179E+01
     25.980  0.2203E+00  0.2743E+00  0.8366E+01  0.8227E+01
     26.158  0.3041E+00  0.2504E+00  0.8420E+01  0.8272E+01
     26.335  0.2994E+00  0.2224E+00  0.8473E+01  0.8311E+01
     26.513  0.2566E+00  0.2060E+00  0.8519E+01  0.8348E+01
     26.690  0.2618E+00  0.2916E+00  0.8565E+01  0.8399E+01
     26.867  0.2445E+00  0.3266E+00  0.8609E+01  0.8457E+01
     27.045  0.2252E+00  0.2680E+00  0.8649E+01  0.8505E+01
     27.222  0.2228E+00  0.2646E+00  0.8688E+01  0.8552E+01
     27.400  0.2118E+00  0.2470E+00  0.8726E+01  0.8596E+01
     27.577  0.2173E+00  0.2255E+00  0.8764E+01  0.8636E+01
     27.755  0.2021E+00  0.2315E+00  0.8800E+01  0.8677E+01
     27.932  0.2113E+00  0.2300E+00  0.8838E+01  0.8718E+01
     28.109  0.2167E+00  0.2172E+00  0.8876E+01  0.8756E+01
     28.287  0.1662E+00  0.1895E+00  0.8906E+01  0.8790E+01
     28.464  0.1413E+00  0.2061E+00  0.8931E+01  0.8826E+01
     28.642  0.1757E+00  0.2430E+00  0.8962E+01  0.8869E+01
     28.819  0.1694E+00  0.1859E+00  0.8992E+01  0.8902E+01
     28.997  0.1454E+00  0.1273E+00  0.9018E+01  0.8925E+01
     29.174  0.1412E+00  0.1632E+00  0.9043E+01  0.8954E+01
     29.352  0.1502E+00  0.1869E+00  0.9070E+01  0.8987E+01
     29.529  0.1409E+00  0.1511E+00  0.9095E+01  0.9014E+01
     29.706  0.1106E+00  0.1525E+00  0.9114E+01  0.9041E+01
     29.884  0.1086E+00  0.1438E+00  0.9133E+01  0.9067E+01
     30.061  0.1367E+00  0.1459E+00  0.9158E+01  0.9092E+01
     30.239  0.1419E+00  0.1147E+00  0.9183E+01  0.9113E+01
     30.416  0.1552E+00  0.1082E+00  0.9210E+01  0.9132E+01
     30.594  0.1691E+00  0.1447E+00  0.9240E+01  0.9158E+01
     30.771  0.1653E+00  0.1278E+00  0.9270E+01  0.9180E+01
     30.948  0.2095E+00  0.1506E+00  0.9307E+01  0.9207E+01
     31.126  0.2177E+00  0.1837E+00  0.9346E+01  0.9240E+01
     31.303  0.2925E+00  0.1693E+00  0.9397E+01  0.9270E+01
     31.481  0.3840E+00  0.2138E+00  0.9466E+01  0.9308E+01
     31.658  0.2935E+00  0.2164E+00  0.9518E+01  0.9346E+01
     31.836  0.2028E+00  0.2457E+00  0.9554E+01  0.9390E+01
     32.013  0.2152E+00  0.3499E+00  0.9592E+01  0.9452E+01
     32.191  0.1856E+00  0.3394E+00  0.9625E+01  0.9512E+01
     32.368  0.1904E+00  0.2452E+00  0.9658E+01  0.9555E+01
     32.545  0.1834E+00  0.2072E+00  0.9691E+01  0.9592E+01
     32.723  0.1240E+00  0.1818E+00  0.9713E+01  0.9624E+01
     32.900  0.9080E-01  0.1838E+00  0.9729E+01  0.9657E+01
     33.078  0.1263E+00  0.2151E+00  0.9752E+01  0.9695E+01
     33.255  0.1276E+00  0.1188E+00  0.9774E+01  0.9716E+01
     33.433  0.9226E-01  0.9020E-01  0.9791E+01  0.9732E+01
     33.610  0.7105E-01  0.1406E+00  0.9803E+01  0.9757E+01
     33.787  0.8152E-01  0.1193E+00  0.9818E+01  0.9778E+01
     33.965  0.5305E-01  0.8984E-01  0.9827E+01  0.9794E+01
     34.142  0.5757E-01  0.9009E-01  0.9837E+01  0.9810E+01
     34.320  0.8641E-01  0.6921E-01  0.9853E+01  0.9823E+01
     34.497  0.6204E-01  0.4719E-01  0.9864E+01  0.9831E+01
     34.675  0.1720E-01  0.8357E-01  0.9867E+01  0.9846E+01
     34.852  0.2009E-01  0.8016E-01  0.9870E+01  0.9860E+01
     35.029  0.6131E-01  0.3859E-01  0.9881E+01  0.9867E+01
     35.207  0.7211E-01  0.2311E-01  0.9894E+01  0.9871E+01
     35.384  0.3844E-01  0.4261E-01  0.9901E+01  0.9879E+01
     35.562  0.2475E-01  0.6640E-01  0.9905E+01  0.9890E+01
     35.739  0.2960E-01  0.4751E-01  0.9910E+01  0.9899E+01
     35.917  0.3772E-01  0.3216E-01  0.9917E+01  0.9904E+01
     36.094  0.2300E-01  0.3195E-01  0.9921E+01  0.9910E+01
     36.272  0.2788E-01  0.4073E-01  0.9926E+01  0.9917E+01
     36.449  0.4947E-01  0.2374E-01  0.9935E+01  0.9922E+01
     36.626  0.2677E-01  0.3070E-01  0.9940E+01  0.9927E+01
     36.804  0.1253E-01  0.4736E-01  0.9942E+01  0.9935E+01
     36.981  0.8280E-02  0.2417E-01  0.9943E+01  0.9940E+01
     37.159  0.2026E-01  0.1430E-01  0.9947E+01  0.9942E+01
     37.336  0.3261E-01  0.1338E-01  0.9953E+01  0.9945E+01
     37.514  0.2474E-01  0.1899E-01  0.9957E+01  0.9948E+01
     37.691  0.1657E-01  0.3288E-01  0.9960E+01  0.9954E+01
     37.868  0.1051E-01  0.2432E-01  0.9962E+01  0.9958E+01
     38.046  0.1479E-01  0.1505E-01  0.9965E+01  0.9961E+01
     38.223  0.1498E-01  0.1091E-01  0.9967E+01  0.9963E+01
     38.401  0.1068E-01  0.1285E-01  0.9969E+01  0.9965E+01
     38.578  0.1106E-01  0.1724E-01  0.9971E+01  0.9968E+01
     38.756  0.2010E-01  0.1120E-01  0.9975E+01  0.9970E+01
     38.933  0.1878E-01  0.1229E-01  0.9978E+01  0.9972E+01
     39.111  0.8107E-02  0.2070E-01  0.9979E+01  0.9976E+01
     39.288  0.2042E-02  0.1533E-01  0.9980E+01  0.9979E+01
     39.465  0.4166E-02  0.5943E-02  0.9980E+01  0.9980E+01
     39.643  0.1378E-01  0.5632E-03  0.9983E+01  0.9980E+01
     39.820  0.1422E-01  0.9915E-02  0.9985E+01  0.9982E+01
     39.998  0.6930E-02  0.1529E-01  0.9987E+01  0.9984E+01
     40.175  0.8735E-02  0.1036E-01  0.9988E+01  0.9986E+01
     40.353  0.4743E-02  0.7441E-02  0.9989E+01  0.9987E+01
     40.530  0.3148E-02  0.7547E-02  0.9990E+01  0.9989E+01
     40.707  0.9680E-02  0.2256E-02  0.9991E+01  0.9989E+01
     40.885  0.2657E-02  0.7813E-02  0.9992E+01  0.9991E+01
     41.062  0.7555E-03  0.6857E-02  0.9992E+01  0.9992E+01
     41.240  0.8615E-02  0.1183E-03  0.9993E+01  0.9992E+01
     41.417  0.1033E-01  0.5532E-02  0.9995E+01  0.9993E+01
     41.595  0.2299E-02  0.1018E-01  0.9996E+01  0.9995E+01
     41.772 -0.5967E-03  0.5973E-02  0.9996E+01  0.9996E+01
     41.949  0.1928E-02 -0.1303E-03  0.9996E+01  0.9996E+01
     42.127  0.4236E-02  0.8036E-03  0.9997E+01  0.9996E+01
     42.304  0.2487E-02  0.4174E-02  0.9997E+01  0.9997E+01
     42.482  0.2795E-02  0.2232E-02  0.9998E+01  0.9997E+01
     42.659  0.2145E-02  0.2876E-02  0.9998E+01  0.9997E+01
     42.837  0.4274E-02  0.2720E-02  0.9999E+01  0.9998E+01
     43.014  0.1663E-02  0.3960E-02  0.9999E+01  0.9999E+01
     43.192 -0.9376E-04  0.2382E-02  0.9999E+01  0.9999E+01
     43.369 -0.5694E-04  0.1399E-03  0.9999E+01  0.9999E+01
     43.546 -0.1379E-03 -0.8544E-04  0.9999E+01  0.9999E+01
     43.724  0.6157E-03 -0.1025E-03  0.9999E+01  0.9999E+01
     43.901  0.3306E-02  0.1885E-03  0.1000E+02  0.9999E+01
     44.079  0.1413E-02  0.2901E-02  0.1000E+02  0.1000E+02
     44.256 -0.1477E-03  0.2149E-02  0.1000E+02  0.1000E+02
     44.434 -0.2903E-04 -0.7044E-04  0.1000E+02  0.1000E+02
     44.611 -0.5279E-06 -0.5483E-04  0.1000E+02  0.1000E+02
     44.788 -0.1788E-08 -0.1541E-05  0.1000E+02  0.1000E+02
     44.966 -0.4095E-07 -0.7260E-08  0.1000E+02  0.1000E+02
     45.143 -0.2314E-05 -0.4246E-07  0.1000E+02  0.1000E+02
     45.321 -0.1244E-04 -0.2367E-05  0.1000E+02  0.1000E+02
     45.498  0.1139E-03 -0.1238E-04  0.1000E+02  0.1000E+02
     45.676  0.2767E-03  0.1159E-03  0.1000E+02  0.1000E+02
     45.853  0.5414E-04  0.2761E-03  0.1000E+02  0.1000E+02
     46.031 -0.1154E-04  0.5271E-04  0.1000E+02  0.1000E+02
     46.208 -0.9780E-06 -0.1145E-04  0.1000E+02  0.1000E+02
     46.385 -0.1081E-07 -0.9525E-06  0.1000E+02  0.1000E+02
     46.563 -0.2157E-10 -0.1040E-07  0.1000E+02  0.1000E+02
     46.740 -0.8332E-14 -0.2048E-10  0.1000E+02  0.1000E+02
     46.918 -0.6489E-18 -0.7820E-14  0.1000E+02  0.1000E+02
     47.095  0.0000E+00 -0.6489E-18  0.1000E+02  0.1000E+02
     47.273  0.0000E+00  0.0000E+00  0.1000E+02  0.1000E+02
     47.450  0.0000E+00  0.0000E+00  0.1000E+02  0.1000E+02
     47.627  0.0000E+00  0.0000E+00  0.1000E+02  0.1000E+02
     47.805  0.0000E+00  0.0000E+00  0.1000E+02  0.1000E+02
     47.982  0.0000E+00  0.0000E+00  0.1000E+02  0.1000E+02
     48.160  0.0000E+00  0.0000E+00  0.1000E+02  0.1000E+02
     48.15976358     -5.07106867  301      6.08131216      1.00000000
     -5.071  0.0000E+00  0.0000E+00  0.0000E+00  0.0000E+00  0.0000E+00  0.0000E+00
     -4.894  0.0000E+00  0.0000E+00  0.0000E+00  0.0000E+00  0.0000E+00  0.0000E+00
     -4.716  0.0000E+00  0.0000E+00  0.0000E+00  0.0000E+00  0.0000E+00  0.0000E+00
     -4.539  0.0000E+00  0.0000E+00  0.0000E+00  0.0000E+00  0.0000E+00  0.0000E+00
     -4.361 -0.3577E-34  0.0000E+00 -0.6979E-37  0.0000E+00 -0.2034E-39  0.0000E+00
     -4.184 -0.5728E-28  0.0000E+00 -0.1162E-30  0.0000E+00 -0.3751E-33  0.0000E+00
     -4.006 -0.1887E-22 -0.5637E-35 -0.4035E-25 -0.1049E-37 -0.1466E-27 -0.2036E-40
     -3.829 -0.1237E-17 -0.1113E-28 -0.2892E-20 -0.2264E-31 -0.1243E-22 -0.5614E-34
     -3.652 -0.1731E-13 -0.4431E-23 -0.4550E-16 -0.9466E-26 -0.2347E-18 -0.2628E-28
     -3.474 -0.4964E-10 -0.3635E-18 -0.1566E-12 -0.8384E-21 -0.1004E-14 -0.2707E-23
     -3.297 -0.2946E-07 -0.5933E-14 -0.1196E-09 -0.1540E-16 -0.9649E-12 -0.6008E-19
     -3.119 -0.3584E-05 -0.2054E-10 -0.2029E-07 -0.6343E-13 -0.2112E-09 -0.3068E-15
     -2.942 -0.8233E-04 -0.1471E-07 -0.7459E-06 -0.5790E-10 -0.1102E-07 -0.3520E-12
     -2.764 -0.1164E-03 -0.2165E-05 -0.4867E-05 -0.1175E-07 -0.1382E-06 -0.9161E-10
     -2.587  0.2514E-02 -0.6137E-04  0.1604E-04 -0.5201E-06 -0.1684E-06 -0.5632E-08
     -2.410  0.8065E-02 -0.1681E-03  0.1515E-03 -0.4325E-05  0.3217E-05 -0.8379E-07
     -2.232  0.1212E-01  0.1931E-02  0.4207E-03  0.9145E-05  0.1724E-04 -0.1691E-06
     -2.055  0.1478E-01  0.7305E-02  0.7781E-03  0.1258E-03  0.4968E-04  0.1838E-05
     -1.877  0.1719E-01  0.1151E-01  0.1210E-02  0.3778E-03  0.1066E-03  0.1115E-04
     -1.700  0.1920E-01  0.1415E-01  0.1723E-02  0.7152E-03  0.2024E-03  0.3284E-04
     -1.522  0.2114E-01  0.1658E-01  0.2279E-02  0.1137E-02  0.3359E-03  0.7215E-04
     -1.345  0.2275E-01  0.1831E-01  0.2919E-02  0.1606E-02  0.5386E-03  0.1344E-03
     -1.167  0.2499E-01  0.2047E-01  0.3681E-02  0.2169E-02  0.8208E-03  0.2260E-03
     -0.990  0.2547E-01  0.2154E-01  0.4290E-02  0.2719E-02  0.1162E-02  0.3484E-03
     -0.813  0.2898E-01  0.2404E-01  0.5487E-02  0.3502E-02  0.1767E-02  0.5378E-03
     -0.635  0.2825E-01  0.2412E-01  0.5919E-02  0.4001E-02  0.2282E-02  0.7262E-03
     -0.458  0.3202E-01  0.2703E-01  0.7498E-02  0.5078E-02  0.3423E-02  0.1086E-02
     -0.280  0.3296E-01  0.2747E-01  0.8336E-02  0.5689E-02  0.4536E-02  0.1404E-02
     -0.103  0.3329E-01  0.2819E-01  0.9319E-02  0.6539E-02  0.6112E-02  0.1896E-02
      0.075  0.3913E-01  0.3209E-01  0.1177E-01  0.8095E-02  0.9066E-02  0.2656E-02
      0.252  0.3632E-01  0.2930E-01  0.1176E-01  0.8054E-02  0.1146E-01  0.3126E-02
      0.429  0.4344E-01  0.3445E-01  0.1526E-01  0.1041E-01  0.1755E-01  0.4539E-02
      0.607  0.4464E-01  0.3445E-01  0.1643E-01  0.1104E-01  0.2375E-01  0.5620E-02
      0.784  0.4911E-01  0.3349E-01  0.1921E-01  0.1172E-01  0.3851E-01  0.6991E-02
      0.962  0.6831E-01  0.3982E-01  0.2443E-01  0.1490E-01  0.1127E+00  0.9958E-02
      1.139  0.7849E-01  0.3729E-01  0.2663E-01  0.1471E-01  0.2346E+00  0.1204E-01
      1.317  0.7942E-01  0.3954E-01  0.3221E-01  0.1688E-01  0.3268E+00  0.1591E-01
      1.494  0.6918E-01  0.4517E-01  0.3552E-01  0.2017E-01  0.4001E+00  0.2255E-01
      1.672  0.6691E-01  0.4289E-01  0.4752E-01  0.2003E-01  0.5352E+00  0.2846E-01
      1.849  0.5857E-01  0.4884E-01  0.5607E-01  0.2402E-01  0.6424E+00  0.4180E-01
      2.026  0.3771E-01  0.5755E-01  0.4138E-01  0.2745E-01  0.5259E+00  0.7345E-01
      2.204  0.1989E-01  0.6427E-01  0.2625E-01  0.2766E-01  0.3942E+00  0.1354E+00
      2.381  0.7824E-02  0.7279E-01  0.2074E-01  0.3354E-01  0.3033E+00  0.1809E+00
      2.559  0.2469E-02  0.6194E-01  0.3912E-01  0.3203E-01  0.7348E+00  0.1917E+00
      2.736  0.2669E-02  0.5863E-01  0.5834E-01  0.3675E-01  0.1248E+01  0.2476E+00
      2.914  0.5028E-02  0.5244E-01  0.4465E-01  0.4203E-01  0.1014E+01  0.3308E+00
      3.091  0.7403E-02  0.4784E-01  0.4658E-01  0.5236E-01  0.8296E+00  0.4414E+00
      3.268  0.1085E-01  0.3730E-01  0.6792E-01  0.4891E-01  0.8765E+00  0.4620E+00
      3.446  0.1496E-01  0.2292E-01  0.8814E-01  0.3394E-01  0.1091E+01  0.3640E+00
      3.623  0.1569E-01  0.1231E-01  0.8122E-01  0.2432E-01  0.1094E+01  0.2750E+00
      3.801  0.1038E-01  0.4217E-02  0.5514E-01  0.2082E-01  0.6767E+00  0.2131E+00
      3.978  0.7408E-02  0.1110E-02  0.4148E-01  0.4505E-01  0.3579E+00  0.5185E+00
      4.156  0.5838E-02  0.1927E-02  0.3474E-01  0.7421E-01  0.2978E+00  0.1009E+01
      4.333  0.4254E-02  0.3843E-02  0.2822E-01  0.7125E-01  0.3441E+00  0.1010E+01
      4.510  0.3414E-02  0.5159E-02  0.2631E-01  0.7655E-01  0.4090E+00  0.8891E+00
      4.688  0.4471E-02  0.6208E-02  0.2445E-01  0.8506E-01  0.6661E+00  0.8399E+00
      4.865  0.6721E-02  0.7859E-02  0.2300E-01  0.9563E-01  0.1072E+01  0.8860E+00
      5.043  0.7126E-02  0.9986E-02  0.2177E-01  0.1013E+00  0.1506E+01  0.9556E+00
      5.220  0.6183E-02  0.8479E-02  0.1692E-01  0.8055E-01  0.1943E+01  0.8355E+00
      5.398  0.6579E-02  0.5175E-02  0.1499E-01  0.5711E-01  0.2127E+01  0.5950E+00
      5.575  0.1032E-01  0.4150E-02  0.1847E-01  0.4470E-01  0.1411E+01  0.3159E+00
      5.753  0.1124E-01  0.2566E-02  0.2324E-01  0.3500E-01  0.8010E+00  0.1892E+00
      5.930  0.1098E-01  0.2519E-02  0.2361E-01  0.3039E-01  0.7107E+00  0.2176E+00
      6.107  0.8941E-02  0.1401E-02  0.2111E-01  0.2445E-01  0.6658E+00  0.2259E+00
      6.285  0.9198E-02  0.1148E-02  0.2138E-01  0.2174E-01  0.6590E+00  0.2951E+00
      6.462  0.8916E-02  0.2166E-02  0.1705E-01  0.1983E-01  0.4568E+00  0.4286E+00
      6.640  0.8452E-02  0.4144E-02  0.1479E-01  0.1801E-01  0.1721E+00  0.6257E+00
      6.817  0.1050E-01  0.4518E-02  0.2018E-01  0.1524E-01  0.1144E+00  0.8037E+00
      6.995  0.1071E-01  0.3809E-02  0.2288E-01  0.1154E-01  0.1044E+00  0.1039E+01
      7.172  0.8663E-02  0.3847E-02  0.2023E-01  0.1074E-01  0.7352E-01  0.1283E+01
      7.349  0.1196E-01  0.3151E-02  0.2882E-01  0.8891E-02  0.1030E+00  0.1309E+01
      7.527  0.1189E-01  0.2981E-02  0.3043E-01  0.7141E-02  0.9563E-01  0.1668E+01
      7.704  0.8368E-02  0.8424E-02  0.2428E-01  0.1381E-01  0.6025E-01  0.2002E+01
      7.882  0.1107E-01  0.9969E-02  0.3098E-01  0.1756E-01  0.7730E-01  0.1141E+01
      8.059  0.1333E-01  0.8777E-02  0.3816E-01  0.1809E-01  0.9380E-01  0.7351E+00
      8.237  0.8989E-02  0.7895E-02  0.2940E-01  0.1605E-01  0.5991E-01  0.6335E+00
      8.414  0.8588E-02  0.7613E-02  0.2817E-01  0.1340E-01  0.5170E-01  0.4068E+00
      8.592  0.1149E-01  0.8654E-02  0.3954E-01  0.1577E-01  0.7281E-01  0.2355E+00
      8.769  0.1241E-01  0.8098E-02  0.3959E-01  0.1699E-01  0.7492E-01  0.1408E+00
      8.946  0.7429E-02  0.8801E-02  0.2919E-01  0.2109E-01  0.4618E-01  0.1403E+00
      9.124  0.7576E-02  0.9351E-02  0.3077E-01  0.2279E-01  0.4296E-01  0.1398E+00
      9.301  0.1075E-01  0.8176E-02  0.4213E-01  0.2407E-01  0.6057E-01  0.1077E+00
      9.479  0.1009E-01  0.9416E-02  0.3922E-01  0.2746E-01  0.6094E-01  0.1154E+00
      9.656  0.7683E-02  0.9065E-02  0.3014E-01  0.2657E-01  0.4155E-01  0.1127E+00
      9.834  0.6091E-02  0.8556E-02  0.3171E-01  0.2965E-01  0.3594E-01  0.9271E-01
     10.011  0.7090E-02  0.8385E-02  0.3739E-01  0.2938E-01  0.4141E-01  0.8580E-01
     10.188  0.9390E-02  0.9344E-02  0.3882E-01  0.3147E-01  0.5082E-01  0.9958E-01
     10.366  0.6762E-02  0.7870E-02  0.3064E-01  0.3044E-01  0.3828E-01  0.7869E-01
     10.543  0.5136E-02  0.7980E-02  0.3166E-01  0.3276E-01  0.3177E-01  0.6959E-01
     10.721  0.5314E-02  0.7514E-02  0.3489E-01  0.3114E-01  0.3264E-01  0.7334E-01
     10.898  0.4813E-02  0.8155E-02  0.2559E-01  0.3199E-01  0.2595E-01  0.7453E-01
     11.076  0.6688E-02  0.7316E-02  0.3441E-01  0.3510E-01  0.3766E-01  0.6358E-01
     11.253  0.5066E-02  0.5727E-02  0.3466E-01  0.2919E-01  0.3397E-01  0.4899E-01
     11.430  0.2993E-02  0.6755E-02  0.2508E-01  0.3097E-01  0.2015E-01  0.5750E-01
     11.608  0.3298E-02  0.6637E-02  0.2353E-01  0.3286E-01  0.2004E-01  0.5893E-01
     11.785  0.3428E-02  0.5936E-02  0.2359E-01  0.3495E-01  0.1992E-01  0.5039E-01
     11.963  0.3788E-02  0.4598E-02  0.2937E-01  0.2603E-01  0.2581E-01  0.3627E-01
     12.140  0.3203E-02  0.4138E-02  0.3004E-01  0.2444E-01  0.2523E-01  0.3466E-01
     12.318  0.1591E-02  0.5755E-02  0.1546E-01  0.3640E-01  0.1158E-01  0.5231E-01
     12.495  0.1862E-02  0.4410E-02  0.1463E-01  0.3040E-01  0.1003E-01  0.3843E-01
     12.673  0.1987E-02  0.3147E-02  0.2063E-01  0.2038E-01  0.1342E-01  0.2289E-01
     12.850  0.1835E-02  0.3049E-02  0.2127E-01  0.2411E-01  0.1498E-01  0.2726E-01
     13.027  0.1231E-02  0.2897E-02  0.1534E-01  0.2579E-01  0.1194E-01  0.2832E-01
     13.205  0.8457E-03  0.3278E-02  0.8000E-02  0.2854E-01  0.5043E-02  0.3298E-01
     13.382  0.1019E-02  0.2578E-02  0.1150E-01  0.1904E-01  0.4720E-02  0.1939E-01
     13.560 -0.7252E-03  0.1679E-02  0.1471E-01  0.1569E-01  0.5771E-02  0.1285E-01
     13.737  0.1096E-01  0.1485E-02  0.1508E-01  0.1998E-01  0.2145E-01  0.1661E-01
     13.915  0.5625E-01  0.1327E-02  0.2010E-01  0.1795E-01  0.7361E-01  0.1649E-01
     14.092  0.7826E-01  0.1636E-02  0.3618E-01  0.1404E-01  0.1022E+00  0.1323E-01
     14.269  0.6313E-01  0.1338E-02  0.4501E-01  0.1369E-01  0.8786E-01  0.8723E-02
     14.447  0.5384E-01  0.7668E-03  0.4715E-01  0.1095E-01  0.8141E-01  0.5824E-02
     14.624  0.4288E-01  0.8799E-04  0.3586E-01  0.1018E-01  0.6338E-01  0.6788E-02
     14.802  0.3809E-01 -0.1954E-02  0.3767E-01  0.1169E-01  0.5780E-01  0.6489E-02
     14.979  0.3829E-01  0.1662E-01  0.5043E-01  0.1922E-01  0.6409E-01  0.3444E-01
     15.157  0.2780E-01  0.7780E-01  0.4226E-01  0.3101E-01  0.4953E-01  0.1182E+00
     15.334  0.2941E-01  0.8581E-01  0.3708E-01  0.4183E-01  0.4852E-01  0.1322E+00
     15.512  0.2725E-01  0.6135E-01  0.4138E-01  0.4501E-01  0.4841E-01  0.1019E+00
     15.689  0.2181E-01  0.5056E-01  0.4159E-01  0.4109E-01  0.4166E-01  0.8328E-01
     15.866  0.2715E-01  0.4047E-01  0.4147E-01  0.4213E-01  0.4380E-01  0.7220E-01
     16.044  0.4266E-01  0.3945E-01  0.4839E-01  0.4749E-01  0.5498E-01  0.7430E-01
     16.221  0.4008E-01  0.3102E-01  0.4571E-01  0.3960E-01  0.4450E-01  0.5757E-01
     16.399  0.3997E-01  0.2840E-01  0.5315E-01  0.4013E-01  0.4726E-01  0.5439E-01
     16.576  0.4038E-01  0.2950E-01  0.5506E-01  0.4731E-01  0.5209E-01  0.6015E-01
     16.754  0.3698E-01  0.2993E-01  0.5553E-01  0.4282E-01  0.4888E-01  0.4881E-01
     16.931  0.3249E-01  0.4527E-01  0.5139E-01  0.4984E-01  0.4283E-01  0.6014E-01
     17.108  0.3160E-01  0.4712E-01  0.5052E-01  0.5048E-01  0.4486E-01  0.6302E-01
     17.286  0.3626E-01  0.4053E-01  0.6204E-01  0.5104E-01  0.5332E-01  0.5380E-01
     17.463  0.2905E-01  0.3898E-01  0.5219E-01  0.5043E-01  0.4132E-01  0.5408E-01
     17.641  0.3188E-01  0.3990E-01  0.5013E-01  0.5302E-01  0.4130E-01  0.6016E-01
     17.818  0.3178E-01  0.3375E-01  0.5744E-01  0.5152E-01  0.4866E-01  0.5199E-01
     17.996  0.2627E-01  0.3262E-01  0.5706E-01  0.5334E-01  0.4514E-01  0.4950E-01
     18.173  0.2662E-01  0.3607E-01  0.5253E-01  0.5508E-01  0.4133E-01  0.5773E-01
     18.350  0.2742E-01  0.3417E-01  0.5213E-01  0.5046E-01  0.4164E-01  0.5098E-01
     18.528  0.2789E-01  0.3212E-01  0.5691E-01  0.5316E-01  0.4616E-01  0.4744E-01
     18.705  0.2859E-01  0.2633E-01  0.6113E-01  0.5670E-01  0.4665E-01  0.5098E-01
     18.883  0.2528E-01  0.2817E-01  0.5398E-01  0.5239E-01  0.4129E-01  0.5153E-01
     19.060  0.1893E-01  0.3088E-01  0.4751E-01  0.5195E-01  0.3758E-01  0.4945E-01
     19.238  0.2207E-01  0.2651E-01  0.5422E-01  0.5467E-01  0.4419E-01  0.4580E-01