    1    1    1    2
  0.1097600E+02  0.2424871E-09  0.2424871E-09  0.2424871E-09  0.5000000E-15
  1.000000000000000E-004
  CAR 
 bcc Fe                                  
      8    744     10
 
  0.1666667E-01  0.1666667E-01  0.1666667E-01  0.2962963E-03
    1       -2.604000     -2.227599   1.000000   1.000000
    2        3.699093      5.380201   1.000000   1.000004
    3        3.699093      5.380201   1.000000   1.000004
    4        3.759298      5.446657   1.000000   1.000034
    5        5.125786      7.307732   1.000000  -0.000000
    6        5.125786      7.307732   1.000000  -0.000000
    7       30.937375     31.143849   0.000000   0.000000
    8       30.937375     31.143849   0.000000   0.000000
    9       31.324551     31.486616   0.000000   0.000000
   10       36.666949     37.133171   0.000000   0.000000
 
  0.5000000E-01  0.1666667E-01  0.1666667E-01  0.8888889E-03
    1       -2.462693     -2.085409   1.000000   1.000000
    2        3.653426      5.329474   1.000000   1.000001
    3        3.683918      5.362018   1.000000   1.000002
    4        3.838312      5.532497   1.000000   1.000363
    5        5.082764      7.256555   1.000000  -0.000000
    6        5.127016      7.310163   1.000000  -0.000000
    7       30.109907     30.405278   0.000000   0.000000
    8       30.630961     30.884975   0.000000   0.000000
    9       31.375849     31.550540   0.000000   0.000000
   10       36.206100     36.680499   0.000000   0.000000
 
  0.8333333E-01  0.1666667E-01  0.1666667E-01  0.8888889E-03
    1       -2.230701     -1.851531   1.000000   1.000000
    2        3.588936      5.254923   1.000000   1.000000
    3        3.668602      5.339949   1.000000   1.000001
    4        3.968905      5.672473   1.000000   1.006913
    5        5.027712      7.187533   1.000000  -0.000000
    6        5.134153      7.318288   1.000000  -0.000000
    7       28.956099     29.354858   0.000000   0.000000
    8       30.208467     30.513935   0.000000   0.000000
    9       31.355172     31.566838   0.000000   0.000000
   10       35.066943     35.873744   0.000000   0.000000
 
  0.1166667E+00  0.1666667E-01  0.1666667E-01  0.8888889E-03
    1       -1.914112     -1.531205   1.000000   1.000000
    2        3.500811      5.154369   1.000000   1.000000
    3        3.642620      5.303262   1.000000   1.000000
    4        4.145277      5.861768   1.000000   1.032522
    5        4.970173      7.112455   1.000000  -0.000000
    6        5.144313      7.330182   1.000000  -0.000000
    7       27.596563     28.096274   0.000000   0.000000
    8       29.667182     30.016461   0.000000   0.000000
    9       31.258573     31.529320   0.000000   0.000000
   10       33.937077     34.731785   0.000000   0.000000
 
  0.1500000E+00  0.1666667E-01  0.1666667E-01  0.8888889E-03
    1       -1.522531     -1.132302   1.000000   1.000000
    2        3.393765      5.033325   1.000000   1.000000
    3        3.603086      5.247023   1.000000   1.000000
    4        4.363270      6.096092   1.000000   0.437650
    5        4.925442      7.048151   1.000000  -0.000000
    6        5.157686      7.346174   1.000000  -0.000000
    7       26.110678     26.701225   0.000000   0.000000
    8       29.027345     29.406320   0.000000   0.000000
    9       31.109180     31.451001   0.000000   0.000000
   10       32.865907     33.649402   0.000000   0.000000
 
  0.1833333E+00  0.1666667E-01  0.1666667E-01  0.8888889E-03
    1       -1.071314     -0.666697   1.000000   1.000000
    2        3.278184      4.901784   1.000000   1.000000
    3        3.557833      5.174134   1.000000   1.000000
    4        4.617161      6.369477   1.000000  -0.030189
    5        4.906543      7.009370   1.000000  -0.000000
    6        5.174803      7.366796   1.000000  -0.000000
    7       24.562721     25.231651   0.000000   0.000000
    8       28.338748     28.731419   0.000000   0.000000
    9       30.946836     31.360115   0.000000   0.000000
   10       31.842615     32.613904   0.000000   0.000000
 
  0.2166667E+00  0.1666667E-01  0.1666667E-01  0.8888889E-03
    1       -0.584969     -0.152110   1.000000   1.000000
    2        3.156894      4.764032   1.000000   1.000000
    3        3.529379      5.098808   1.000000   1.000000
    4        4.891761      6.674206   1.000000  -0.000114
    5        4.924005      7.000840   1.000000  -0.000000
    6        5.195292      7.391815   1.000000  -0.000000
    7       22.991720     23.729151   0.000000   0.000000
    8       27.640184     28.035150   0.000000   0.000000
    9       30.789071     31.268619   0.000000   0.000000
   10       30.872550     31.628352   0.000000   0.000000
 
  0.2500000E+00  0.1666667E-01  0.1666667E-01  0.8888889E-03
    1       -0.101734      0.385191   1.000000   1.000000
    2        3.035294      4.626243   1.000000   1.000000
    3        3.558234      5.048584   1.000000   1.000000
    4        4.945996      6.991007   1.000000  -0.000000
    5        5.203297      7.027145   1.000000  -0.000000
    6        5.218718      7.420743   1.000000  -0.000000
    7       21.427538     22.227416   0.000000   0.000000
    8       26.966355     27.356082   0.000000   0.000000
    9       29.957294     30.694264   0.000000   0.000000
   10       30.646128     31.184243   0.000000   0.000000
 
  0.2833333E+00  0.1666667E-01  0.1666667E-01  0.8888889E-03
    1        0.324618      0.906944   1.000000   1.000000
    2        2.918520      4.494226   1.000000   1.000000
    3        3.697945      5.062370   1.000000   1.000000
    4        4.994547      7.054914   1.000000  -0.000000
    5        5.239041      7.332065   1.000000  -0.000000
    6        5.510428      7.448479   1.000206  -0.000000
    7       19.892917     20.753548   0.000000   0.000000
    8       26.339632     26.720026   0.000000   0.000000
    9       29.110427     29.825861   0.000000   0.000000
   10       30.521902     31.110208   0.000000   0.000000
 
  0.3166667E+00  0.1666667E-01  0.1666667E-01  0.8888889E-03
    1        0.640696      1.364209   1.000000   1.000000
    2        2.811281      4.373252   1.000000   1.000000
    3        3.995791      5.185811   1.000000   1.000000
    4        5.055611      7.104065   1.000000  -0.000000
    5        5.264169      7.480477   1.000000  -0.000000
    6        5.814181      7.657482   1.033835  -0.000000
    7       18.417583     19.341027   0.000000   0.000000
    8       25.786000     26.154424   0.000000   0.000000
    9       28.352360     29.044241   0.000000   0.000000
   10       30.418299     31.048231   0.000000   0.000000
 
  0.3500000E+00  0.1666667E-01  0.1666667E-01  0.8888889E-03
    1        0.828244      1.712026   1.000000   1.000000
    2        2.717707      4.267894   1.000000   1.000000
    3        4.441511      5.447823   1.000000   1.000036
    4        5.130366      7.154610   1.000000  -0.000000
    5        5.288567      7.511664   1.000000  -0.000000
    6        6.103904      7.961955   0.405077  -0.000000
    7       17.027803     18.020600   0.000000   0.000000
    8       25.315736     25.671811   0.000000   0.000000
    9       27.699534     28.367557   0.000000   0.000000
   10       30.334965     30.998316   0.000000   0.000000
 
  0.3833333E+00  0.1666667E-01  0.1666667E-01  0.8888889E-03
    1        0.915472      1.935865   1.000000   1.000000
    2        2.641276      4.181970   1.000000   1.000000
    3        4.904237      5.832863   1.000000   1.035412
    4        5.277796      7.198538   1.000000  -0.000000
    5        5.310646      7.539846   1.000000  -0.000000
    6        6.374047      8.229278  -0.029237  -0.000000
    7       15.775049     16.845951   0.000000   0.000000
    8       24.939421     25.284245   0.000000   0.000000
    9       27.169149     27.815006   0.000000   0.000000
   10       30.271401     30.960294   0.000000   0.000000
 
  0.4166667E+00  0.1666667E-01  0.1666667E-01  0.8888889E-03
    1        0.945462      2.058113   1.000000   1.000000
    2        2.584745      4.118483   1.000000   1.000000
    3        5.096365      6.260902   1.000000  -0.011040
    4        5.328832      7.227993   1.000001  -0.000000
    5        5.656977      7.562825   1.005291  -0.000000
    6        6.628094      8.443116  -0.000382  -0.000000
    7       14.726684     15.883338   0.000000   0.000000
    8       24.664970     25.000842   0.000000   0.000000
    9       26.776789     27.404467   0.000000   0.000000
   10       30.227005     30.933865   0.000000   0.000000
 
  0.4500000E+00  0.1666667E-01  0.1666667E-01  0.8888889E-03
    1        0.951511      2.114260   1.000000   1.000000
    2        2.549661      4.079281   1.000000   1.000000
    3        5.147276      6.610353   1.000000  -0.000591
    4        5.334737      7.236346   1.000001  -0.000000
    5        5.990721      7.573095   0.843175  -0.000000
    6        6.854129      8.584010  -0.000000  -0.000000
    7       13.999154     15.232951   0.000000   0.000000
    8       24.497481     24.827759   0.000000   0.000000
    9       26.535414     27.151051   0.000000   0.000000
   10       30.194093     30.912259   0.000000   0.000000
 
  0.4833333E+00  0.1666667E-01  0.1666667E-01  0.4444444E-03
    1        0.951394      2.129865   1.000000   1.000000
    2        2.537934      4.066137   1.000000   1.000000
    3        5.160877      6.751250   1.000000  -0.000012
    4        5.338124      7.232612   1.000001  -0.000000
    5        6.104982      7.577655   0.400618  -0.000000
    6        6.958547      8.634937  -0.000000  -0.000000
    7       13.730017     14.997697   0.000000   0.000000
    8       24.441536     24.769812   0.000000   0.000000
    9       26.454016     27.065456   0.000000   0.000000
   10       30.185102     30.906828   0.000000   0.000000
 
 -0.1666667E-01  0.1666667E-01  0.1666667E-01  0.2222222E-03
    1       -2.651485     -2.275341   1.000000   1.000000
    2        3.710047      5.394012   1.000000   1.000007
    3        3.710120      5.394087   1.000000   1.000007
    4        3.717993      5.403057   1.000000   1.000009
    5        5.122135      7.304452   1.000000  -0.000000
    6        5.138043      7.323562   1.000000  -0.000000
    7       31.095216     31.274066   0.000000   0.000000
    8       31.247548     31.416335   0.000000   0.000000
    9       31.247549     31.416336   0.000000   0.000000
   10       36.444084     36.921805   0.000000   0.000000
 
  0.5000000E-01  0.5000000E-01  0.1666667E-01  0.8888889E-03
    1       -2.276696     -1.897969   1.000000   1.000000
    2        3.613656      5.282990   1.000000   1.000000
    3        3.641874      5.313100   1.000000   1.000000
    4        3.957796      5.659994   1.000000   1.005581
    5        5.048969      7.214870   1.000000  -0.000000
    6        5.121574      7.302809   1.000000  -0.000000
    7       29.365565     29.727964   0.000000   0.000000
    8       29.902816     30.240497   0.000000   0.000000
    9       31.551489     31.725469   0.000000   0.000000
   10       34.947423     35.762899   0.000000   0.000000
 
  0.8333333E-01  0.5000000E-01  0.1666667E-01  0.1777778E-02
    1       -2.003223     -1.621658   1.000000   1.000000
    2        3.539270      5.197685   1.000000   1.000000
    3        3.606626      5.269300   1.000000   1.000000
    4        4.121059      5.833978   1.000000   1.035436
    5        4.994702      7.146046   1.000000  -0.000000
    6        5.132317      7.314593   1.000000  -0.000000
    7       28.216756     28.668824   0.000000   0.000000
    8       29.250269     29.647308   0.000000   0.000000
    9       31.646422     31.845119   0.000000   0.000000
   10       33.712880     34.512812   0.000000   0.000000
 
  0.1166667E+00  0.5000000E-01  0.1666667E-01  0.1777778E-02
    1       -1.649692     -1.262717   1.000000   1.000000
    2        3.442944      5.087190   1.000000   1.000000
    3        3.566713      5.216869   1.000000   1.000000
    4        4.327165      6.053398   1.000000   0.616848
    5        4.944928      7.077792   1.000000  -0.000000
    6        5.149458      7.334124   1.000000  -0.000000
    7       26.846610     27.390391   0.000000   0.000000
    8       28.605838     29.041027   0.000000   0.000000
    9       31.640250     31.890381   0.000000   0.000000
   10       32.596274     33.373743   0.000000   0.000000
 
  0.1500000E+00  0.5000000E-01  0.1666667E-01  0.1777778E-02
    1       -1.228176     -0.830816   1.000000   1.000000
    2        3.331217      4.959787   1.000000   1.000000
    3        3.517202      5.147800   1.000000   1.000000
    4        4.571056      6.313341   1.000000  -0.034757
    5        4.911784      7.025235   1.000000  -0.000000
    6        5.170141      7.358241   1.000000  -0.000000
    7       25.358096     25.985177   0.000000   0.000000
    8       27.945439     28.402693   0.000000   0.000000
    9       31.388182     31.819575   0.000000   0.000000
   10       31.729564     32.372486   0.000000   0.000000
 
  0.1833333E+00  0.5000000E-01  0.1666667E-01  0.1777778E-02
    1       -0.757640     -0.340141   1.000000   1.000000
    2        3.211029      4.823165   1.000000   1.000000
    3        3.470126      5.068173   1.000000   1.000000
    4        4.844287      6.609020   1.000000  -0.000610
    5        4.908338      6.999018   1.000000  -0.000000
    6        5.194207      7.386418   1.000000  -0.000000
    7       23.810682     24.510752   0.000000   0.000000
    8       27.282957     27.749347   0.000000   0.000000
    9       30.532979     31.243054   0.000000   0.000000
   10       31.496720     31.913061   0.000000   0.000000
 
  0.2166667E+00  0.5000000E-01  0.1666667E-01  0.1777778E-02
    1       -0.268452      0.188022   1.000000   1.000000
    2        3.088944      4.684419   1.000000   1.000000
    3        3.455065      4.997592   1.000000   1.000000
    4        4.917668      6.923975   1.000000  -0.000000
    5        5.154081      7.008412   1.000000  -0.000000
    6        5.222118      7.417517   1.000000  -0.000000
    7       22.246179     23.011280   0.000000   0.000000
    8       26.642319     27.107622   0.000000   0.000000
    9       29.649369     30.369065   0.000000   0.000000
   10       31.335337     31.790712   0.000000   0.000000
 
  0.2500000E+00  0.5000000E-01  0.1666667E-01  0.1777778E-02
    1        0.192971      0.721915   1.000000   1.000000
    2        2.969842      4.549276   1.000000   1.000000
    3        3.517866      4.967872   1.000000   1.000000
    4        4.958006      7.026448   1.000000  -0.000000
    5        5.242847      7.270619   1.000000  -0.000000
    6        5.478515      7.449664   1.000086  -0.000000
    7       20.699184     21.524629   0.000000   0.000000
    8       26.038969     26.496797   0.000000   0.000000
    9       28.829490     29.537207   0.000000   0.000000
   10       31.184288     31.691112   0.000000   0.000000
 
  0.2833333E+00  0.5000000E-01  0.1666667E-01  0.1777778E-02
    1        0.568690      1.217271   1.000000   1.000000
    2        2.858518      4.423167   1.000000   1.000000
    3        3.709051      5.019776   1.000000   1.000000
    4        5.010786      7.071092   1.000000  -0.000000
    5        5.269824      7.475802   1.000000  -0.000000
    6        5.809048      7.618040   1.033088  -0.000000
    7       19.191142     20.077081   0.000000   0.000000
    8       25.490331     25.937156   0.000000   0.000000
    9       28.082770     28.773151   0.000000   0.000000
   10       31.049070     31.602186   0.000000   0.000000
 
  0.3166667E+00  0.5000000E-01  0.1666667E-01  0.1777778E-02
    1        0.817475      1.623462   1.000000   1.000000
    2        2.759182      4.310830   1.000000   1.000000
    3        4.051366      5.193644   1.000000   1.000000
    4        5.072502      7.122727   1.000000  -0.000000
    5        5.301262      7.511714   1.000000  -0.000000
    6        6.144924      7.950590   0.245336  -0.000000
    7       17.754176     18.704514   0.000000   0.000000
    8       25.012690     25.446902   0.000000   0.000000
    9       27.425371     28.095783   0.000000   0.000000
   10       30.935554     31.527149   0.000000   0.000000
 
  0.3500000E+00  0.5000000E-01  0.1666667E-01  0.1777778E-02
    1        0.945806      1.906646   1.000000   1.000000
    2        2.675376      4.216215   1.000000   1.000000
    3        4.489118      5.496490   1.000000   1.000142
    4        5.136861      7.172055   1.000000  -0.000000
    5        5.345957      7.545940   1.000001  -0.000000
    6        6.485227      8.264410  -0.007501  -0.000000
    7       16.419525     17.442547   0.000000   0.000000
    8       24.616005     25.038009   0.000000   0.000000
    9       26.872225     27.522257   0.000000   0.000000
   10       30.844724     31.466834   0.000000   0.000000
 
  0.3833333E+00  0.5000000E-01  0.1666667E-01  0.1777778E-02
    1        0.995861      2.072736   1.000000   1.000000
    2        2.609909      4.142439   1.000000   1.000000
    3        4.881642      5.878654   1.000000   1.026452
    4        5.194369      7.210377   1.000000  -0.000000
    5        5.444898      7.578901   1.000033  -0.000000
    6        6.833034      8.543308  -0.000001  -0.000000
    7       15.249624     16.354548   0.000000   0.000000
    8       24.309343     24.721026   0.000000   0.000000
    9       26.440067     27.071592   0.000000   0.000000
   10       30.776104     31.420935   0.000000   0.000000
 
  0.4166667E+00  0.5000000E-01  0.1666667E-01  0.1777778E-02
    1        1.008321      2.155386   1.000000   1.000000
    2        2.564909      4.091841   1.000000   1.000000
    3        5.084036      6.235929   1.000000   0.017163
    4        5.225838      7.231096   1.000000  -0.000000
    5        5.636615      7.609112   1.003638  -0.000000
    6        7.170189      8.767151  -0.000000  -0.000000
    7       14.334183     15.523872   0.000000   0.000000
    8       24.100411     24.504707   0.000000   0.000000
    9       26.142582     26.759942   0.000000   0.000000
   10       30.729161     31.389059   0.000000   0.000000
 
  0.4500000E+00  0.5000000E-01  0.1666667E-01  0.1777778E-02
    1        1.008650      2.187640   1.000000   1.000000
    2        2.542036      4.066139   1.000000   1.000000
    3        5.153997      6.453716   1.000000  -0.012164
    4        5.230782      7.235763   1.000000  -0.000000
    5        5.785837      7.630574   1.028648  -0.000000
    6        7.402765      8.899300  -0.000000  -0.000000
    7       13.810415     15.061448   0.000000   0.000000
    8       23.995124     24.395439   0.000000   0.000000
    9       25.991161     26.600788   0.000000   0.000000
   10       30.704162     31.371794   0.000000   0.000000
 
 -0.5000000E-01  0.5000000E-01  0.1666667E-01  0.8888889E-03
    1       -2.556687     -2.180012   1.000000   1.000000
    2        3.686874      5.366528   1.000000   1.000003
    3        3.706713      5.388300   1.000000   1.000005
    4        3.766800      5.455695   1.000000   1.000045
    5        5.088529      7.263815   1.000000  -0.000000
    6        5.144907      7.331503   1.000000  -0.000000
    7       30.528399     30.769668   0.000000   0.000000
    8       31.136673     31.327217   0.000000   0.000000
    9       31.197063     31.391431   0.000000   0.000000
   10       35.942109     36.442453   0.000000   0.000000
 
  0.8333333E-01  0.8333333E-01  0.1666667E-01  0.8888889E-03
    1       -1.692423     -1.306479   1.000000   1.000000
    2        3.474318      5.120841   1.000000   1.000000
    3        3.533803      5.185874   1.000000   1.000000
    4        4.318112      6.042255   1.000000   0.661823
    5        4.946610      7.083858   1.000000  -0.000000
    6        5.148639      7.331878   1.000000  -0.000000
    7       27.278736     27.787280   0.000000   0.000000
    8       28.253695     28.728739   0.000000   0.000000
    9       31.859941     32.069909   0.000000   0.000000
   10       32.468931     33.250455   0.000000   0.000000
 
  0.1166667E+00  0.8333333E-01  0.1666667E-01  0.1777778E-02
    1       -1.307639     -0.913723   1.000000   1.000000
    2        3.380615      5.011757   1.000000   1.000000
    3        3.466459      5.104525   1.000000   1.000000
    4        4.556657      6.293462   1.000000  -0.030337
    5        4.905266      7.024996   1.000000  -0.000000
    6        5.174962      7.360807   1.000000  -0.000000
    7       26.046132     26.629128   0.000000   0.000000
    8       27.401792     27.919130   0.000000   0.000000
    9       31.349004     32.071373   0.000000   0.000000
   10       31.982515     32.262390   0.000000   0.000000
 
  0.1500000E+00  0.8333333E-01  0.1666667E-01  0.1777778E-02
    1       -0.863393     -0.454658   1.000000   1.000000
    2        3.265703      4.880923   1.000000   1.000000
    3        3.403383      5.019221   1.000000   1.000000
    4        4.828885      6.582052   1.000000  -0.001139
    5        4.885220      6.984638   1.000000  -0.000000
    6        5.204321      7.393960   1.000000  -0.000000
    7       24.611143     25.270259   0.000000   0.000000
    8       26.668487     27.206126   0.000000   0.000000
    9       30.346966     31.073759   0.000000   0.000000
   10       31.991604     32.298433   0.000000   0.000000
 
  0.1833333E+00  0.8333333E-01  0.1666667E-01  0.1777778E-02
    1       -0.383085      0.053711   1.000000   1.000000
    2        3.144410      4.743090   1.000000   1.000000
    3        3.356035      4.934834   1.000000   1.000000
    4        4.884143      6.895292   1.000000  -0.000000
    5        5.135058      6.978450   1.000000  -0.000000
    6        5.241569      7.430744   1.000000  -0.000000
    7       23.089803     23.817000   0.000000   0.000000
    8       26.002690     26.549591   0.000000   0.000000
    9       29.433029     30.140125   0.000000   0.000000
   10       31.930842     32.297283   0.000000   0.000000
 
  0.2166667E+00  0.8333333E-01  0.1666667E-01  0.1777778E-02
    1        0.096074      0.585933   1.000000   1.000000
    2        3.023399      4.605603   1.000000   1.000000
    3        3.355066      4.871496   1.000000   1.000000
    4        4.911603      6.984157   1.000000  -0.000000
    5        5.256872      7.242218   1.000000  -0.000000
    6        5.481298      7.470160   1.000093  -0.000000
    7       21.545438     22.334170   0.000000   0.000000
    8       25.390659     25.939359   0.000000   0.000000
    9       28.600652     29.288597   0.000000   0.000000
   10       31.827396     32.252554   0.000000   0.000000
 
  0.2500000E+00  0.8333333E-01  0.1666667E-01  0.1777778E-02
    1        0.520163      1.104618   1.000000   1.000000
    2        2.909805      4.475873   1.000000   1.000000
    3        3.447327      4.862812   1.000000   1.000000
    4        4.958624      7.022832   1.000000  -0.000000
    5        5.291046      7.476264   1.000000  -0.000000
    6        5.836485      7.630805   1.035458  -0.000000
    7       20.023076     20.870054   0.000000   0.000000
    8       24.837157     25.382241   0.000000   0.000000
    9       27.852918     28.520868   0.000000   0.000000
   10       31.719765     32.196014   0.000000   0.000000
 
  0.2833333E+00  0.8333333E-01  0.1666667E-01  0.1777778E-02
    1        0.832296      1.560001   1.000000   1.000000
    2        2.806378      4.358013   1.000000   1.000000
    3        3.670845      4.947463   1.000000   1.000000
    4        5.016276      7.073421   1.000000  -0.000000
    5        5.324644      7.522332   1.000001  -0.000000
    6        6.211902      7.983219   0.057639  -0.000000
    7       18.545882     19.453117   0.000000   0.000000
    8       24.345129     24.883696   0.000000   0.000000
    9       27.188904     27.836371   0.000000   0.000000
   10       31.608784     32.129101   0.000000   0.000000
 
  0.3166667E+00  0.8333333E-01  0.1666667E-01  0.1777778E-02
    1        1.011567      1.904608   1.000000   1.000000
    2        2.716584      4.256194   1.000000   1.000000
    3        4.012334      5.152051   1.000000   1.000000
    4        5.078479      7.128887   1.000000  -0.000000
    5        5.369363      7.560000   1.000003  -0.000000
    6        6.608949      8.342341  -0.000611  -0.000000
    7       17.145914     18.119699   0.000000   0.000000
    8       23.924626     24.455477   0.000000   0.000000
    9       26.619500     27.246661   0.000000   0.000000
   10       31.504698     32.061115   0.000000   0.000000
 
  0.3500000E+00  0.8333333E-01  0.1666667E-01  0.1777778E-02
    1        1.088887      2.122358   1.000000   1.000000
    2        2.644620      4.174517   1.000000   1.000000
    3        4.388082      5.458299   1.000000   1.000048
    4        5.130983      7.178597   1.000000  -0.000000
    5        5.439550      7.598760   1.000028  -0.000000
    6        7.030072      8.688255  -0.000000  -0.000000
    7       15.875880     16.924877   0.000000   0.000000
    8       23.587232     24.109982   0.000000   0.000000
    9       26.159954     26.767857   0.000000   0.000000
   10       31.426792     32.010368   0.000000   0.000000
 
  0.3833333E+00  0.8333333E-01  0.1666667E-01  0.1777778E-02
    1        1.111140      2.237611   1.000000   1.000000
    2        2.591781      4.114611   1.000000   1.000000
    3        4.689820      5.786667   1.000000   1.028827
    4        5.159273      7.213048   1.000000  -0.000000
    5        5.549901      7.643262   1.000558  -0.000000
    6        7.461563      9.003402  -0.000000  -0.000000
    7       14.804027     15.936882   0.000000   0.000000
    8       23.339846     23.855700   0.000000   0.000000
    9       25.821667     26.413497   0.000000   0.000000
   10       31.371229     31.973820   0.000000   0.000000
 
  0.4166667E+00  0.8333333E-01  0.1666667E-01  0.1777778E-02
    1        1.112045      2.288326   1.000000   1.000000
    2        2.559247      4.077864   1.000000   1.000000
    3        4.866056      6.035851   1.000000   0.686962
    4        5.163185      7.229236   1.000000  -0.000000
    5        5.657125      7.679120   1.005305  -0.000000
    6        7.825821      9.244113  -0.000000  -0.000000
    7       14.044455     15.255829   0.000000   0.000000
    8       23.187335     23.698874   0.000000   0.000000
    9       25.613812     26.194929   0.000000   0.000000
   10       31.336588     31.950478   0.000000   0.000000
 
  0.4500000E+00  0.8333333E-01  0.1666667E-01  0.8888889E-03
    1        1.110223      2.302005   1.000000   1.000000
    2        2.548296      4.065503   1.000000   1.000000
    3        4.921881      6.127862   1.000000   0.308824
    4        5.159793      7.233004   1.000000  -0.000000
    5        5.703309      7.694560   1.011219  -0.000000
    6        7.976820      9.338363  -0.000000  -0.000000
    7       13.759146     15.006068   0.000000   0.000000
    8       23.136265     23.646207   0.000000   0.000000
    9       25.543591     26.120989   0.000000   0.000000
   10       31.322209     31.940267   0.000000   0.000000
 
 -0.8333333E-01  0.8333333E-01  0.1666667E-01  0.8888889E-03
    1       -2.369302     -1.991330   1.000000   1.000000
    2        3.630933      5.303320   1.000000   1.000000
    3        3.700592      5.376688   1.000000   1.000004
    4        3.868626      5.565480   1.000000   1.000807
    5        5.036724      7.199863   1.000000  -0.000000
    6        5.149990      7.337695   1.000000  -0.000000
    7       29.548004     29.889250   0.000000   0.000000
    8       30.846590     31.076849   0.000000   0.000000
    9       31.095828     31.338336   0.000000   0.000000
   10       35.554846     36.043004   0.000000   0.000000
 
 -0.5000000E-01  0.8333333E-01  0.1666667E-01  0.8888889E-03
    1       -2.415834     -2.038226   1.000000   1.000000
    2        3.663480      5.339471   1.000000   1.000001
    3        3.689139      5.366584   1.000000   1.000003
    4        3.835729      5.529722   1.000000   1.000339
    5        5.035101      7.199517   1.000000  -0.000000
    6        5.158317      7.347719   1.000000  -0.000000
    7       29.844170     30.146376   0.000000   0.000000
    8       30.749705     31.015227   0.000000   0.000000
    9       31.256246     31.460681   0.000000   0.000000
   10       35.365703     35.870459   0.000000   0.000000
 
  0.1166667E+00  0.1166667E+00  0.1666667E-01  0.8888889E-03
    1       -0.899001     -0.493109   1.000000   1.000000
    2        3.305091      4.918233   1.000000   1.000000
    3        3.357684      4.982696   1.000000   1.000000
    4        4.828018      6.575414   1.000000  -0.001320
    5        4.871779      6.976257   1.000000  -0.000000
    6        5.209614      7.398564   1.000000  -0.000000
    7       25.096971     25.725484   0.000000   0.000000
    8       26.224207     26.804038   0.000000   0.000000
    9       30.290291     31.019618   0.000000   0.000000
   10       32.177474     32.444506   0.000000   0.000000
 
  0.1500000E+00  0.1166667E+00  0.1666667E-01  0.1777778E-02
    1       -0.441434     -0.014279   1.000000   1.000000
    2        3.202616      4.799917   1.000000   1.000000
    3        3.273561      4.873270   1.000000   1.000000
    4        4.860335      6.890567   1.000000  -0.000000
    5        5.128556      6.950825   1.000000  -0.000000
    6        5.257658      7.443126   1.000000  -0.000000
    7       23.850395     24.540310   0.000000   0.000000
    8       25.296951     25.904980   0.000000   0.000000
    9       29.348566     30.050685   0.000000   0.000000
   10       32.285325     32.591186   0.000000   0.000000
 
  0.1833333E+00  0.1166667E+00  0.1666667E-01  0.1777778E-02
    1        0.036805      0.502845   1.000000   1.000000
    2        3.078600      4.661940   1.000000   1.000000