a= 2.68
 running on    1 total cores
 distrk:  each k-point on    1 cores,    1 groups
 distr:  one band on    1 cores,    1 groups
 using from now: INCAR     
 vasp.5.4.4.18Apr17-6-g9f103f2a35 (build May 20 2018 16:52:39) complex          
  
 POSCAR found type information on POSCAR  Fe
 POSCAR found :  1 types and       1 ions
 scaLAPACK will be used
 LDA part: xc-table for Ceperly-Alder, standard interpolation
 POSCAR, INCAR and KPOINTS ok, starting setup
 FFT: planning ...
 WAVECAR not read
 entering main loop
       N       E                     dE             d eps       ncg     rms          rms(c)
DAV:   1     0.840189028620E+01    0.84019E+01   -0.27817E+03  1914   0.593E+02
DAV:   2    -0.990890180804E+01   -0.18311E+02   -0.17011E+02  1804   0.102E+02
DAV:   3    -0.101066422646E+02   -0.19774E+00   -0.19716E+00  1920   0.129E+01
DAV:   4    -0.101072086749E+02   -0.56641E-03   -0.56636E-03  1892   0.672E-01
DAV:   5    -0.101072121129E+02   -0.34380E-05   -0.34376E-05  1912   0.510E-02    0.890E+00
DAV:   6    -0.923359977199E+01    0.87361E+00   -0.81965E+00  1880   0.415E+01    0.161E+00
DAV:   7    -0.920244035278E+01    0.31159E-01   -0.17428E-01  1928   0.616E+00    0.641E-01
DAV:   8    -0.918278854239E+01    0.19652E-01   -0.14339E-02  2160   0.982E-01    0.310E-01
DAV:   9    -0.918193849345E+01    0.85005E-03   -0.93865E-04  1978   0.271E-01    0.152E-01
DAV:  10    -0.918177932279E+01    0.15917E-03   -0.65313E-04  2284   0.316E-01    0.121E-01
DAV:  11    -0.918178439766E+01   -0.50749E-05   -0.19681E-04  2000   0.126E-01    0.116E-02
DAV:  12    -0.918178595638E+01   -0.15587E-05   -0.17394E-06  1182   0.169E-02    0.163E-02
DAV:  13    -0.918178563585E+01    0.32053E-06   -0.19075E-07   916   0.388E-03
   1 F= -.91817856E+01 E0= -.91820813E+01  d E =0.887134E-03  mag=     1.8649
a= 2.69
 running on    1 total cores
 distrk:  each k-point on    1 cores,    1 groups
 distr:  one band on    1 cores,    1 groups
 using from now: INCAR     
 vasp.5.4.4.18Apr17-6-g9f103f2a35 (build May 20 2018 16:52:39) complex          
  
 POSCAR found type information on POSCAR  Fe
 POSCAR found :  1 types and       1 ions
 scaLAPACK will be used
 LDA part: xc-table for Ceperly-Alder, standard interpolation
 POSCAR, INCAR and KPOINTS ok, starting setup
 FFT: planning ...
 WAVECAR not read
 entering main loop
       N       E                     dE             d eps       ncg     rms          rms(c)
DAV:   1     0.723771401467E+01    0.72377E+01   -0.27010E+03  1912   0.589E+02
DAV:   2    -0.994253365477E+01   -0.17180E+02   -0.16015E+02  1794   0.102E+02
DAV:   3    -0.101344858220E+02   -0.19195E+00   -0.19116E+00  1928   0.128E+01
DAV:   4    -0.101351486697E+02   -0.66285E-03   -0.66281E-03  1890   0.704E-01
DAV:   5    -0.101351532714E+02   -0.46017E-05   -0.46003E-05  1916   0.556E-02    0.890E+00
DAV:   6    -0.924858840341E+01    0.88656E+00   -0.84449E+00  1886   0.420E+01    0.174E+00
DAV:   7    -0.921715755812E+01    0.31431E-01   -0.19788E-01  1928   0.654E+00    0.613E-01
DAV:   8    -0.919823827610E+01    0.18919E-01   -0.11004E-02  2118   0.819E-01    0.285E-01
DAV:   9    -0.919628538138E+01    0.19529E-02   -0.10516E-03  1958   0.253E-01    0.143E-01
DAV:  10    -0.919600057808E+01    0.28480E-03   -0.55201E-04  2312   0.298E-01    0.126E-01
DAV:  11    -0.919605030058E+01   -0.49723E-04   -0.18860E-04  1910   0.138E-01    0.110E-02
DAV:  12    -0.919605315125E+01   -0.28507E-05   -0.21193E-06  1104   0.171E-02    0.143E-02
DAV:  13    -0.919605203968E+01    0.11116E-05   -0.17572E-07   944   0.358E-03    0.154E-03
DAV:  14    -0.919605199412E+01    0.45554E-07   -0.60727E-08   880   0.294E-03
   1 F= -.91960520E+01 E0= -.91962608E+01  d E =0.626341E-03  mag=     1.8732
a= 2.7
 running on    1 total cores
 distrk:  each k-point on    1 cores,    1 groups
 distr:  one band on    1 cores,    1 groups
 using from now: INCAR     
 vasp.5.4.4.18Apr17-6-g9f103f2a35 (build May 20 2018 16:52:39) complex          
  
 POSCAR found type information on POSCAR  Fe
 POSCAR found :  1 types and       1 ions
 scaLAPACK will be used
 LDA part: xc-table for Ceperly-Alder, standard interpolation
 POSCAR, INCAR and KPOINTS ok, starting setup
 FFT: planning ...
 WAVECAR not read
 entering main loop
       N       E                     dE             d eps       ncg     rms          rms(c)
DAV:   1     0.777399005395E+01    0.77740E+01   -0.27268E+03  1932   0.582E+02
DAV:   2    -0.993874108076E+01   -0.17713E+02   -0.16507E+02  1816   0.100E+02
DAV:   3    -0.101589448671E+02   -0.22020E+00   -0.21966E+00  1930   0.137E+01
DAV:   4    -0.101596295531E+02   -0.68469E-03   -0.68465E-03  1884   0.718E-01
DAV:   5    -0.101596337601E+02   -0.42070E-05   -0.42062E-05  1906   0.555E-02    0.889E+00
DAV:   6    -0.926033015504E+01    0.89930E+00   -0.86969E+00  1886   0.424E+01    0.187E+00
DAV:   7    -0.922777540670E+01    0.32555E-01   -0.22307E-01  1930   0.688E+00    0.610E-01
DAV:   8    -0.921003598828E+01    0.17739E-01   -0.80011E-03  2098   0.662E-01    0.285E-01
DAV:   9    -0.920663791771E+01    0.33981E-02   -0.15165E-03  1954   0.261E-01    0.147E-01
DAV:  10    -0.920648948973E+01    0.14843E-03   -0.29786E-04  2110   0.233E-01    0.802E-02
DAV:  11    -0.920649109217E+01   -0.16024E-05   -0.87096E-05  1882   0.100E-01    0.106E-02
DAV:  12    -0.920649497846E+01   -0.38863E-05   -0.18878E-06  1040   0.134E-02    0.130E-02
DAV:  13    -0.920649306334E+01    0.19151E-05   -0.26351E-07   890   0.587E-03    0.185E-03
DAV:  14    -0.920649306553E+01   -0.21905E-08   -0.16815E-08   880   0.159E-03
   1 F= -.92064931E+01 E0= -.92065545E+01  d E =0.184299E-03  mag=     1.8820
a= 2.71
 running on    1 total cores
 distrk:  each k-point on    1 cores,    1 groups
 distr:  one band on    1 cores,    1 groups
 using from now: INCAR     
 vasp.5.4.4.18Apr17-6-g9f103f2a35 (build May 20 2018 16:52:39) complex          
  
 POSCAR found type information on POSCAR  Fe
 POSCAR found :  1 types and       1 ions
 scaLAPACK will be used
 LDA part: xc-table for Ceperly-Alder, standard interpolation
 POSCAR, INCAR and KPOINTS ok, starting setup
 FFT: planning ...
 WAVECAR not read
 entering main loop
       N       E                     dE             d eps       ncg     rms          rms(c)
DAV:   1     0.709087466324E+01    0.70909E+01   -0.27173E+03  1936   0.592E+02
DAV:   2    -0.996974168707E+01   -0.17061E+02   -0.15754E+02  1804   0.964E+01
DAV:   3    -0.101814971794E+02   -0.21176E+00   -0.21160E+00  1938   0.135E+01
DAV:   4    -0.101821764782E+02   -0.67930E-03   -0.67928E-03  1880   0.696E-01
DAV:   5    -0.101821810410E+02   -0.45628E-05   -0.45616E-05  1906   0.575E-02    0.888E+00
DAV:   6    -0.927258467395E+01    0.90960E+00   -0.89473E+00  1884   0.430E+01    0.199E+00
DAV:   7    -0.923783112220E+01    0.34754E-01   -0.25172E-01  1922   0.727E+00    0.636E-01
DAV:   8    -0.922109176426E+01    0.16739E-01   -0.62730E-03  2038   0.568E-01    0.302E-01
DAV:   9    -0.921664537450E+01    0.44464E-02   -0.22191E-03  2036   0.298E-01    0.146E-01
DAV:  10    -0.921655624407E+01    0.89130E-04   -0.21110E-04  1914   0.220E-01    0.489E-02
DAV:  11    -0.921654418000E+01    0.12064E-04   -0.37930E-05  1902   0.780E-02    0.110E-02
DAV:  12    -0.921654805022E+01   -0.38702E-05   -0.11147E-06  1036   0.108E-02    0.124E-02
DAV:  13    -0.921654630614E+01    0.17441E-05   -0.24680E-07   888   0.615E-03    0.116E-03
DAV:  14    -0.921654634639E+01   -0.40241E-07   -0.10606E-08   882   0.115E-03
   1 F= -.92165463E+01 E0= -.92164295E+01  d E =-.350434E-03  mag=     1.8923
a= 2.72
 running on    1 total cores
 distrk:  each k-point on    1 cores,    1 groups
 distr:  one band on    1 cores,    1 groups
 using from now: INCAR     
 vasp.5.4.4.18Apr17-6-g9f103f2a35 (build May 20 2018 16:52:39) complex          
  
 POSCAR found type information on POSCAR  Fe
 POSCAR found :  1 types and       1 ions
 scaLAPACK will be used
 LDA part: xc-table for Ceperly-Alder, standard interpolation
 POSCAR, INCAR and KPOINTS ok, starting setup
 FFT: planning ...
 WAVECAR not read
 entering main loop
       N       E                     dE             d eps       ncg     rms          rms(c)
DAV:   1     0.756615531692E+01    0.75662E+01   -0.28051E+03  1910   0.588E+02
DAV:   2    -0.999193293485E+01   -0.17558E+02   -0.16194E+02  1786   0.991E+01
DAV:   3    -0.102006760842E+02   -0.20874E+00   -0.20846E+00  1946   0.134E+01
DAV:   4    -0.102013737529E+02   -0.69767E-03   -0.69763E-03  1872   0.716E-01
DAV:   5    -0.102013783052E+02   -0.45522E-05   -0.45530E-05  1920   0.558E-02    0.887E+00
DAV:   6    -0.928150872493E+01    0.91987E+00   -0.92019E+00  1888   0.434E+01    0.209E+00
DAV:   7    -0.924393039012E+01    0.37578E-01   -0.28234E-01  1930   0.764E+00    0.670E-01
DAV:   8    -0.922801765034E+01    0.15913E-01   -0.53814E-03  2012   0.522E-01    0.314E-01
DAV:   9    -0.922293893990E+01    0.50787E-02   -0.28785E-03  2160   0.328E-01    0.140E-01
DAV:  10    -0.922285192434E+01    0.87016E-04   -0.20075E-04  1894   0.225E-01    0.363E-02
DAV:  11    -0.922284124407E+01    0.10680E-04   -0.19443E-05  1900   0.591E-02    0.124E-02
DAV:  12    -0.922284422293E+01   -0.29789E-05   -0.11587E-06  1406   0.104E-02    0.111E-02
DAV:  13    -0.922284312780E+01    0.10951E-05   -0.78699E-08   892   0.290E-03    0.718E-04
DAV:  14    -0.922284316792E+01   -0.40121E-07   -0.29831E-08   880   0.245E-03
   1 F= -.92228432E+01 E0= -.92225810E+01  d E =-.786521E-03  mag=     1.9047
a= 2.73
 running on    1 total cores
 distrk:  each k-point on    1 cores,    1 groups
 distr:  one band on    1 cores,    1 groups
 using from now: INCAR     
 vasp.5.4.4.18Apr17-6-g9f103f2a35 (build May 20 2018 16:52:39) complex          
  
 POSCAR found type information on POSCAR  Fe
 POSCAR found :  1 types and       1 ions
 scaLAPACK will be used
 LDA part: xc-table for Ceperly-Alder, standard interpolation
 POSCAR, INCAR and KPOINTS ok, starting setup
 FFT: planning ...
 WAVECAR not read
 entering main loop
       N       E                     dE             d eps       ncg     rms          rms(c)
DAV:   1     0.669407262195E+01    0.66941E+01   -0.27711E+03  1984   0.585E+02
DAV:   2    -0.100181255221E+02   -0.16712E+02   -0.15624E+02  1800   0.993E+01
DAV:   3    -0.102173520250E+02   -0.19923E+00   -0.19908E+00  1916   0.130E+01
DAV:   4    -0.102180576766E+02   -0.70565E-03   -0.70560E-03  1874   0.728E-01
DAV:   5    -0.102180618422E+02   -0.41656E-05   -0.41660E-05  1912   0.555E-02    0.886E+00
DAV:   6    -0.928889862107E+01    0.92916E+00   -0.94567E+00  1878   0.438E+01    0.217E+00
DAV:   7    -0.924792889683E+01    0.40970E-01   -0.31515E-01  1928   0.800E+00    0.697E-01
DAV:   8    -0.923256368570E+01    0.15365E-01   -0.50707E-03  1992   0.510E-01    0.320E-01
DAV:   9    -0.922719767702E+01    0.53660E-02   -0.33015E-03  2176   0.350E-01    0.136E-01
DAV:  10    -0.922710340262E+01    0.94274E-04   -0.22101E-04  1882   0.233E-01    0.334E-02
DAV:  11    -0.922709501046E+01    0.83922E-05   -0.15303E-05  1906   0.523E-02    0.137E-02
DAV:  12    -0.922709761610E+01   -0.26056E-05   -0.15321E-06  1434   0.147E-02    0.929E-03
DAV:  13    -0.922709691171E+01    0.70439E-06   -0.62233E-08   894   0.234E-03
   1 F= -.92270969E+01 E0= -.92267162E+01  d E =-.114216E-02  mag=     1.9189
a= 2.74
 running on    1 total cores
 distrk:  each k-point on    1 cores,    1 groups
 distr:  one band on    1 cores,    1 groups
 using from now: INCAR     
 vasp.5.4.4.18Apr17-6-g9f103f2a35 (build May 20 2018 16:52:39) complex          
  
 POSCAR found type information on POSCAR  Fe
 POSCAR found :  1 types and       1 ions
 scaLAPACK will be used
 LDA part: xc-table for Ceperly-Alder, standard interpolation
 POSCAR, INCAR and KPOINTS ok, starting setup
 FFT: planning ...
 WAVECAR not read
 entering main loop
       N       E                     dE             d eps       ncg     rms          rms(c)
DAV:   1     0.822116790778E+01    0.82212E+01   -0.27816E+03  1906   0.584E+02
DAV:   2    -0.100143158215E+02   -0.18235E+02   -0.16920E+02  1788   0.102E+02
DAV:   3    -0.102314442194E+02   -0.21713E+00   -0.21690E+00  1920   0.136E+01
DAV:   4    -0.102322252854E+02   -0.78107E-03   -0.78104E-03  1878   0.772E-01
DAV:   5    -0.102322303848E+02   -0.50994E-05   -0.50985E-05  1904   0.610E-02    0.885E+00
DAV:   6    -0.929506176067E+01    0.93717E+00   -0.97132E+00  1888   0.443E+01    0.223E+00
DAV:   7    -0.925019230431E+01    0.44869E-01   -0.35143E-01  1928   0.840E+00    0.713E-01
DAV:   8    -0.923511084737E+01    0.15081E-01   -0.51402E-03  2028   0.515E-01    0.322E-01
DAV:   9    -0.922969963075E+01    0.54112E-02   -0.35098E-03  2222   0.361E-01    0.134E-01
DAV:  10    -0.922960504325E+01    0.94588E-04   -0.25219E-04  1884   0.245E-01    0.328E-02
DAV:  11    -0.922959791668E+01    0.71266E-05   -0.16596E-05  1906   0.539E-02    0.152E-02
DAV:  12    -0.922959922427E+01   -0.13076E-05   -0.22221E-06  1456   0.182E-02    0.760E-03
DAV:  13    -0.922959875288E+01    0.47139E-06   -0.55437E-08   886   0.224E-03
   1 F= -.92295988E+01 E0= -.92291737E+01  d E =-.127512E-02  mag=     1.9347
a= 2.75
 running on    1 total cores
 distrk:  each k-point on    1 cores,    1 groups
 distr:  one band on    1 cores,    1 groups
 using from now: INCAR     
 vasp.5.4.4.18Apr17-6-g9f103f2a35 (build May 20 2018 16:52:39) complex          
  
 POSCAR found type information on POSCAR  Fe
 POSCAR found :  1 types and       1 ions
 scaLAPACK will be used
 LDA part: xc-table for Ceperly-Alder, standard interpolation
 POSCAR, INCAR and KPOINTS ok, starting setup
 FFT: planning ...
 WAVECAR not read
 entering main loop
       N       E                     dE             d eps       ncg     rms          rms(c)
DAV:   1     0.761967638159E+01    0.76197E+01   -0.27693E+03  1938   0.586E+02
DAV:   2    -0.100306655110E+02   -0.17650E+02   -0.16131E+02  1800   0.985E+01
DAV:   3    -0.102429249637E+02   -0.21226E+00   -0.20251E+00  1930   0.128E+01
DAV:   4    -0.102436827744E+02   -0.75781E-03   -0.75778E-03  1876   0.747E-01
DAV:   5    -0.102436879736E+02   -0.51992E-05   -0.51988E-05  1908   0.606E-02    0.884E+00
DAV:   6    -0.929882261248E+01    0.94487E+00   -0.99720E+00  1884   0.447E+01    0.229E+00
DAV:   7    -0.924978373003E+01    0.49039E-01   -0.38984E-01  1928   0.878E+00    0.724E-01
DAV:   8    -0.923491354737E+01    0.14870E-01   -0.53451E-03  2026   0.529E-01    0.324E-01
DAV:   9    -0.922954104349E+01    0.53725E-02   -0.36344E-03  2274   0.367E-01    0.133E-01
DAV:  10    -0.922944759583E+01    0.93448E-04   -0.28559E-04  1862   0.257E-01    0.322E-02
DAV:  11    -0.922944155753E+01    0.60383E-05   -0.19877E-05  1916   0.584E-02    0.165E-02
DAV:  12    -0.922944167374E+01   -0.11621E-06   -0.26826E-06  1540   0.199E-02
   1 F= -.92294417E+01 E0= -.92290437E+01  d E =-.119397E-02  mag=     1.9513
a= 2.76
 running on    1 total cores
 distrk:  each k-point on    1 cores,    1 groups
 distr:  one band on    1 cores,    1 groups
 using from now: INCAR     
 vasp.5.4.4.18Apr17-6-g9f103f2a35 (build May 20 2018 16:52:39) complex          
  
 POSCAR found type information on POSCAR  Fe
 POSCAR found :  1 types and       1 ions
 scaLAPACK will be used
 LDA part: xc-table for Ceperly-Alder, standard interpolation
 POSCAR, INCAR and KPOINTS ok, starting setup
 FFT: planning ...
 WAVECAR not read
 entering main loop
       N       E                     dE             d eps       ncg     rms          rms(c)
DAV:   1     0.681851108302E+01    0.68185E+01   -0.28212E+03  1940   0.578E+02
DAV:   2    -0.100432077521E+02   -0.16862E+02   -0.15439E+02  1776   0.981E+01
DAV:   3    -0.102523270043E+02   -0.20912E+00   -0.20806E+00  1932   0.132E+01
DAV:   4    -0.102530439595E+02   -0.71696E-03   -0.71692E-03  1882   0.727E-01
DAV:   5    -0.102530490978E+02   -0.51383E-05   -0.51371E-05  1912   0.604E-02    0.883E+00
DAV:   6    -0.930177544178E+01    0.95127E+00   -0.10238E+01  1898   0.451E+01    0.235E+00
DAV:   7    -0.924820751141E+01    0.53568E-01   -0.43075E-01  1930   0.918E+00    0.730E-01
DAV:   8    -0.923341998819E+01    0.14788E-01   -0.57085E-03  2060   0.550E-01    0.325E-01
DAV:   9    -0.922816964130E+01    0.52503E-02   -0.36649E-03  2280   0.368E-01    0.134E-01
DAV:  10    -0.922807905646E+01    0.90585E-04   -0.32473E-04  1870   0.271E-01    0.311E-02
DAV:  11    -0.922807378866E+01    0.52678E-05   -0.26104E-05  1916   0.664E-02    0.178E-02
DAV:  12    -0.922807270029E+01    0.10884E-05   -0.28605E-06  1542   0.203E-02    0.576E-03
DAV:  13    -0.922807252989E+01    0.17040E-06   -0.78225E-08   886   0.336E-03
   1 F= -.92280725E+01 E0= -.92277747E+01  d E =-.893414E-03  mag=     1.9684
a= 2.77
 running on    1 total cores
 distrk:  each k-point on    1 cores,    1 groups
 distr:  one band on    1 cores,    1 groups
 using from now: INCAR     
 vasp.5.4.4.18Apr17-6-g9f103f2a35 (build May 20 2018 16:52:39) complex          
  
 POSCAR found type information on POSCAR  Fe
 POSCAR found :  1 types and       1 ions
 scaLAPACK will be used
 LDA part: xc-table for Ceperly-Alder, standard interpolation
 POSCAR, INCAR and KPOINTS ok, starting setup
 FFT: planning ...
 WAVECAR not read
 entering main loop
       N       E                     dE             d eps       ncg     rms          rms(c)
DAV:   1     0.743350552228E+01    0.74335E+01   -0.27711E+03  1948   0.579E+02
DAV:   2    -0.100535256680E+02   -0.17487E+02   -0.16304E+02  1786   0.996E+01
DAV:   3    -0.102590919161E+02   -0.20557E+00   -0.20506E+00  1930   0.132E+01
DAV:   4    -0.102598413715E+02   -0.74946E-03   -0.74940E-03  1898   0.744E-01
DAV:   5    -0.102598467981E+02   -0.54266E-05   -0.54267E-05  1908   0.615E-02    0.882E+00
DAV:   6    -0.930231074604E+01    0.95754E+00   -0.10498E+01  1902   0.455E+01    0.240E+00
DAV:   7    -0.924404407930E+01    0.58267E-01   -0.47295E-01  1930   0.956E+00    0.733E-01
DAV:   8    -0.922935889527E+01    0.14685E-01   -0.60407E-03  2076   0.570E-01    0.325E-01
DAV:   9    -0.922424267216E+01    0.51162E-02   -0.36612E-03  2296   0.367E-01    0.134E-01
DAV:  10    -0.922415524491E+01    0.87427E-04   -0.35320E-04  1878   0.279E-01    0.302E-02
DAV:  11    -0.922415046468E+01    0.47802E-05   -0.31740E-05  1924   0.726E-02    0.186E-02
DAV:  12    -0.922414852747E+01    0.19372E-05   -0.29863E-06  1576   0.203E-02    0.587E-03
DAV:  13    -0.922414839018E+01    0.13729E-06   -0.12973E-07   894   0.462E-03
   1 F= -.92241484E+01 E0= -.92239802E+01  d E =-.504671E-03  mag=     1.9857
a= 2.78
 running on    1 total cores
 distrk:  each k-point on    1 cores,    1 groups
 distr:  one band on    1 cores,    1 groups
 using from now: INCAR     
 vasp.5.4.4.18Apr17-6-g9f103f2a35 (build May 20 2018 16:52:39) complex          
  
 POSCAR found type information on POSCAR  Fe
 POSCAR found :  1 types and       1 ions
 scaLAPACK will be used
 LDA part: xc-table for Ceperly-Alder, standard interpolation
 POSCAR, INCAR and KPOINTS ok, starting setup
 FFT: planning ...
 WAVECAR not read
 entering main loop
       N       E                     dE             d eps       ncg     rms          rms(c)
DAV:   1     0.718987508490E+01    0.71899E+01   -0.26974E+03  1896   0.574E+02
DAV:   2    -0.100668373046E+02   -0.17257E+02   -0.15925E+02  1782   0.985E+01
DAV:   3    -0.102633599379E+02   -0.19652E+00   -0.19524E+00  1920   0.126E+01
DAV:   4    -0.102640366911E+02   -0.67675E-03   -0.67671E-03  1870   0.723E-01
DAV:   5    -0.102640415594E+02   -0.48683E-05   -0.48681E-05  1898   0.598E-02    0.881E+00
DAV:   6    -0.930036342095E+01    0.96368E+00   -0.10760E+01  1892   0.458E+01    0.246E+00
DAV:   7    -0.923721047389E+01    0.63153E-01   -0.51566E-01  1926   0.990E+00    0.733E-01
DAV:   8    -0.922265965708E+01    0.14551E-01   -0.63023E-03  2086   0.587E-01    0.325E-01
DAV:   9    -0.921768304046E+01    0.49766E-02   -0.36238E-03  2278   0.364E-01    0.136E-01
DAV:  10    -0.921759943545E+01    0.83605E-04   -0.36608E-04  1900   0.282E-01    0.295E-02
DAV:  11    -0.921759470608E+01    0.47294E-05   -0.35918E-05  1938   0.765E-02    0.188E-02
DAV:  12    -0.921759240712E+01    0.22990E-05   -0.30294E-06  1546   0.199E-02    0.645E-03
DAV:  13    -0.921759225778E+01    0.14935E-06   -0.16706E-07   890   0.527E-03
   1 F= -.92175923E+01 E0= -.92175578E+01  d E =-.103228E-03  mag=     2.0027
a= 2.79
 running on    1 total cores
 distrk:  each k-point on    1 cores,    1 groups
 distr:  one band on    1 cores,    1 groups
 using from now: INCAR     
 vasp.5.4.4.18Apr17-6-g9f103f2a35 (build May 20 2018 16:52:39) complex          
  
 POSCAR found type information on POSCAR  Fe
 POSCAR found :  1 types and       1 ions
 scaLAPACK will be used
 LDA part: xc-table for Ceperly-Alder, standard interpolation
 POSCAR, INCAR and KPOINTS ok, starting setup
 FFT: planning ...
 WAVECAR not read
 entering main loop
       N       E                     dE             d eps       ncg     rms          rms(c)
DAV:   1     0.603098529892E+01    0.60310E+01   -0.28130E+03  1968   0.591E+02
DAV:   2    -0.100627994804E+02   -0.16094E+02   -0.14592E+02  1782   0.927E+01
DAV:   3    -0.102662914147E+02   -0.20349E+00   -0.20189E+00  1944   0.131E+01
DAV:   4    -0.102669814516E+02   -0.69004E-03   -0.68999E-03  1894   0.694E-01
DAV:   5    -0.102669865048E+02   -0.50532E-05   -0.50525E-05  1918   0.590E-02    0.880E+00
DAV:   6    -0.929979594320E+01    0.96719E+00   -0.11019E+01  1894   0.463E+01    0.251E+00
DAV:   7    -0.923113550211E+01    0.68660E-01   -0.56144E-01  1928   0.103E+01    0.729E-01
DAV:   8    -0.921662037274E+01    0.14515E-01   -0.65666E-03  2112   0.603E-01    0.324E-01
DAV:   9    -0.921181143510E+01    0.48089E-02   -0.35373E-03  2260   0.361E-01    0.139E-01
DAV:  10    -0.921173361784E+01    0.77817E-04   -0.36463E-04  1886   0.281E-01    0.289E-02
DAV:  11    -0.921172849175E+01    0.51261E-05   -0.39578E-05  1916   0.797E-02    0.185E-02
DAV:  12    -0.921172638725E+01    0.21045E-05   -0.28634E-06  1470   0.190E-02    0.767E-03
DAV:  13    -0.921172617770E+01    0.20955E-06   -0.18415E-07   894   0.548E-03
   1 F= -.92117262E+01 E0= -.92117944E+01  d E =0.204610E-03  mag=     2.0200
a= 2.8
 running on    1 total cores
 distrk:  each k-point on    1 cores,    1 groups
 distr:  one band on    1 cores,    1 groups
 using from now: INCAR     
 vasp.5.4.4.18Apr17-6-g9f103f2a35 (build May 20 2018 16:52:39) complex          
  
 POSCAR found type information on POSCAR  Fe
 POSCAR found :  1 types and       1 ions
 scaLAPACK will be used
 LDA part: xc-table for Ceperly-Alder, standard interpolation
 POSCAR, INCAR and KPOINTS ok, starting setup
 FFT: planning ...
 WAVECAR not read
 entering main loop
       N       E                     dE             d eps       ncg     rms          rms(c)
DAV:   1     0.714614790368E+01    0.71461E+01   -0.27310E+03  1936   0.575E+02
DAV:   2    -0.100578080640E+02   -0.17204E+02   -0.15780E+02  1782   0.974E+01
DAV:   3    -0.102662864611E+02   -0.20848E+00   -0.20823E+00  1942   0.134E+01
DAV:   4    -0.102670017774E+02   -0.71532E-03   -0.71528E-03  1896   0.730E-01
DAV:   5    -0.102670066556E+02   -0.48781E-05   -0.48774E-05  1902   0.593E-02    0.879E+00
DAV:   6    -0.929532681480E+01    0.97168E+00   -0.11282E+01  1898   0.466E+01    0.257E+00
DAV:   7    -0.922118381925E+01    0.74143E-01   -0.60631E-01  1924   0.106E+01    0.718E-01
DAV:   8    -0.920678565426E+01    0.14398E-01   -0.66678E-03  2112   0.609E-01    0.323E-01
DAV:   9    -0.920216144001E+01    0.46242E-02   -0.33829E-03  2280   0.354E-01    0.144E-01
DAV:  10    -0.920209128525E+01    0.70155E-04   -0.34387E-04  1890   0.272E-01    0.281E-02
DAV:  11    -0.920208529853E+01    0.59867E-05   -0.41343E-05  1938   0.804E-02    0.177E-02
DAV:  12    -0.920208396350E+01    0.13350E-05   -0.21938E-06  1462   0.159E-02    0.966E-03
DAV:  13    -0.920208362981E+01    0.33369E-06   -0.17726E-07   904   0.523E-03
   1 F= -.92020836E+01 E0= -.92021827E+01  d E =0.297171E-03  mag=     2.0393
a= 2.81
 running on    1 total cores
 distrk:  each k-point on    1 cores,    1 groups
 distr:  one band on    1 cores,    1 groups
 using from now: INCAR     
 vasp.5.4.4.18Apr17-6-g9f103f2a35 (build May 20 2018 16:52:39) complex          
  
 POSCAR found type information on POSCAR  Fe
 POSCAR found :  1 types and       1 ions
 scaLAPACK will be used
 LDA part: xc-table for Ceperly-Alder, standard interpolation
 POSCAR, INCAR and KPOINTS ok, starting setup
 FFT: planning ...
 WAVECAR not read
 entering main loop
       N       E                     dE             d eps       ncg     rms          rms(c)
DAV:   1     0.875962906688E+01    0.87596E+01   -0.27753E+03  1874   0.580E+02
DAV:   2    -0.100429582064E+02   -0.18803E+02   -0.17469E+02  1778   0.101E+02
DAV:   3    -0.102646779623E+02   -0.22172E+00   -0.22108E+00  1950   0.135E+01
DAV:   4    -0.102653887262E+02   -0.71076E-03   -0.71072E-03  1874   0.744E-01
DAV:   5    -0.102653934238E+02   -0.46976E-05   -0.46968E-05  1910   0.579E-02    0.877E+00
DAV:   6    -0.929067586327E+01    0.97472E+00   -0.11542E+01  1896   0.470E+01    0.262E+00
DAV:   7    -0.921073566681E+01    0.79940E-01   -0.65228E-01  1930   0.109E+01    0.702E-01
DAV:   8    -0.919640849715E+01    0.14327E-01   -0.67241E-03  2108   0.610E-01    0.323E-01
DAV:   9    -0.919201559623E+01    0.43929E-02   -0.31562E-03  2288   0.345E-01    0.149E-01
DAV:  10    -0.919195440814E+01    0.61188E-04   -0.31501E-04  1908   0.261E-01    0.260E-02
DAV:  11    -0.919194814718E+01    0.62610E-05   -0.42593E-05  1920   0.797E-02    0.170E-02
DAV:  12    -0.919194776257E+01    0.38461E-06   -0.13326E-06  1448   0.114E-02
   1 F= -.91919478E+01 E0= -.91919923E+01  d E =0.133505E-03  mag=     2.0607
a= 2.82
 running on    1 total cores
 distrk:  each k-point on    1 cores,    1 groups
 distr:  one band on    1 cores,    1 groups
 using from now: INCAR     
 vasp.5.4.4.18Apr17-6-g9f103f2a35 (build May 20 2018 16:52:39) complex          
  
 POSCAR found type information on POSCAR  Fe
 POSCAR found :  1 types and       1 ions
 scaLAPACK will be used
 LDA part: xc-table for Ceperly-Alder, standard interpolation
 POSCAR, INCAR and KPOINTS ok, starting setup
 FFT: planning ...
 WAVECAR not read
 entering main loop
       N       E                     dE             d eps       ncg     rms          rms(c)
DAV:   1     0.836633434508E+01    0.83663E+01   -0.27613E+03  1896   0.572E+02
DAV:   2    -0.100336436763E+02   -0.18400E+02   -0.17011E+02  1784   0.100E+02
DAV:   3    -0.102606263856E+02   -0.22698E+00   -0.22654E+00  1982   0.139E+01
DAV:   4    -0.102613539811E+02   -0.72760E-03   -0.72754E-03  1870   0.732E-01
DAV:   5    -0.102613587627E+02   -0.47816E-05   -0.47813E-05  1908   0.581E-02    0.876E+00
DAV:   6    -0.928343980426E+01    0.97792E+00   -0.11804E+01  1898   0.473E+01    0.267E+00
DAV:   7    -0.919763782263E+01    0.85802E-01   -0.69830E-01  1930   0.112E+01    0.679E-01
DAV:   8    -0.918341185432E+01    0.14226E-01   -0.67550E-03  2072   0.607E-01    0.324E-01
DAV:   9    -0.917931888046E+01    0.40930E-02   -0.28570E-03  2254   0.338E-01    0.151E-01
DAV:  10    -0.917926723986E+01    0.51641E-04   -0.28100E-04  1932   0.247E-01    0.223E-02
DAV:  11    -0.917926246044E+01    0.47794E-05   -0.43094E-05  1926   0.765E-02    0.169E-02
DAV:  12    -0.917926283335E+01   -0.37291E-06   -0.95377E-07  1432   0.750E-03
   1 F= -.91792628E+01 E0= -.91791684E+01  d E =-.283180E-03  mag=     2.0872
a= 2.83
 running on    1 total cores
 distrk:  each k-point on    1 cores,    1 groups
 distr:  one band on    1 cores,    1 groups
 using from now: INCAR     
 vasp.5.4.4.18Apr17-6-g9f103f2a35 (build May 20 2018 16:52:39) complex          
  
 POSCAR found type information on POSCAR  Fe
 POSCAR found :  1 types and       1 ions
 scaLAPACK will be used
 LDA part: xc-table for Ceperly-Alder, standard interpolation
 POSCAR, INCAR and KPOINTS ok, starting setup
 FFT: planning ...
 WAVECAR not read
 entering main loop
       N       E                     dE             d eps       ncg     rms          rms(c)
DAV:   1     0.673049389256E+01    0.67305E+01   -0.27753E+03  1938   0.574E+02
DAV:   2    -0.100656031608E+02   -0.16796E+02   -0.15636E+02  1806   0.970E+01
DAV:   3    -0.102553051318E+02   -0.18970E+00   -0.18945E+00  1968   0.126E+01
DAV:   4    -0.102559957530E+02   -0.69062E-03   -0.69058E-03  1894   0.723E-01
DAV:   5    -0.102560008711E+02   -0.51181E-05   -0.51172E-05  1916   0.592E-02    0.875E+00
DAV:   6    -0.927656602863E+01    0.97943E+00   -0.12063E+01  1904   0.477E+01    0.272E+00
DAV:   7    -0.918462721757E+01    0.91939E-01   -0.74628E-01  1922   0.116E+01    0.656E-01
DAV:   8    -0.917049611724E+01    0.14131E-01   -0.68582E-03  2088   0.605E-01    0.330E-01
DAV:   9    -0.916676695392E+01    0.37292E-02   -0.25630E-03  2162   0.341E-01    0.148E-01
DAV:  10    -0.916672260215E+01    0.44352E-04   -0.24718E-04  1952   0.233E-01    0.188E-02
DAV:  11    -0.916672167801E+01    0.92414E-06   -0.41372E-05  1910   0.695E-02    0.174E-02
DAV:  12    -0.916672237639E+01   -0.69838E-06   -0.12447E-06  1420   0.929E-03
   1 F= -.91667224E+01 E0= -.91664530E+01  d E =-.808273E-03  mag=     2.1192
