a= 2.65
 running on    1 total cores
 distrk:  each k-point on    1 cores,    1 groups
 distr:  one band on    1 cores,    1 groups
 using from now: INCAR     
 vasp.5.4.4.18Apr17-6-g9f103f2a35 (build May 20 2018 16:52:39) complex          
  
 POSCAR found type information on POSCAR  Fe
 POSCAR found :  1 types and       1 ions
 scaLAPACK will be used
 LDA part: xc-table for Ceperly-Alder, standard interpolation
 POSCAR, INCAR and KPOINTS ok, starting setup
 FFT: planning ...
 WAVECAR not read
 entering main loop
       N       E                     dE             d eps       ncg     rms          rms(c)
DAV:   1     0.626337598737E+01    0.62634E+01   -0.27330E+03  1950   0.587E+02
DAV:   2    -0.981718882038E+01   -0.16081E+02   -0.15037E+02  1790   0.980E+01
DAV:   3    -0.100039459834E+02   -0.18676E+00   -0.18659E+00  1940   0.128E+01
DAV:   4    -0.100044768956E+02   -0.53091E-03   -0.53088E-03  1872   0.636E-01
DAV:   5    -0.100044800197E+02   -0.31241E-05   -0.31237E-05  1918   0.483E-02    0.890E+00
DAV:   6    -0.917649546156E+01    0.82798E+00   -0.74670E+00  1876   0.400E+01    0.117E+00
DAV:   7    -0.914183518104E+01    0.34660E-01   -0.11799E-01  1924   0.507E+00    0.658E-01
DAV:   8    -0.912366871856E+01    0.18166E-01   -0.13641E-02  2196   0.990E-01    0.396E-01
DAV:   9    -0.912198007447E+01    0.16886E-02   -0.19895E-03  1986   0.453E-01    0.181E-01
DAV:  10    -0.912202099852E+01   -0.40924E-04   -0.24606E-04  1916   0.159E-01    0.498E-02
DAV:  11    -0.912205402774E+01   -0.33029E-04   -0.50188E-05  1808   0.874E-02    0.249E-02
DAV:  12    -0.912205102783E+01    0.29999E-05   -0.13215E-06  1044   0.125E-02    0.152E-02
DAV:  13    -0.912205074357E+01    0.28426E-06   -0.17453E-07   888   0.487E-03
   1 F= -.91220507E+01 E0= -.91218171E+01  d E =-.700791E-03  mag=     1.8241
a= 2.75
 running on    1 total cores
 distrk:  each k-point on    1 cores,    1 groups
 distr:  one band on    1 cores,    1 groups
 using from now: INCAR     
 vasp.5.4.4.18Apr17-6-g9f103f2a35 (build May 20 2018 16:52:39) complex          
  
 POSCAR found type information on POSCAR  Fe
 POSCAR found :  1 types and       1 ions
 scaLAPACK will be used
 LDA part: xc-table for Ceperly-Alder, standard interpolation
 POSCAR, INCAR and KPOINTS ok, starting setup
 FFT: planning ...
 WAVECAR not read
 entering main loop
       N       E                     dE             d eps       ncg     rms          rms(c)
DAV:   1     0.761967638159E+01    0.76197E+01   -0.27693E+03  1938   0.586E+02
DAV:   2    -0.100306655110E+02   -0.17650E+02   -0.16131E+02  1800   0.985E+01
DAV:   3    -0.102429249637E+02   -0.21226E+00   -0.20251E+00  1930   0.128E+01
DAV:   4    -0.102436827744E+02   -0.75781E-03   -0.75778E-03  1876   0.747E-01
DAV:   5    -0.102436879736E+02   -0.51992E-05   -0.51988E-05  1908   0.606E-02    0.884E+00
DAV:   6    -0.929882261248E+01    0.94487E+00   -0.99720E+00  1884   0.447E+01    0.229E+00
DAV:   7    -0.924978373003E+01    0.49039E-01   -0.38984E-01  1928   0.878E+00    0.724E-01
DAV:   8    -0.923491354737E+01    0.14870E-01   -0.53451E-03  2026   0.529E-01    0.324E-01
DAV:   9    -0.922954104349E+01    0.53725E-02   -0.36344E-03  2274   0.367E-01    0.133E-01
DAV:  10    -0.922944759583E+01    0.93448E-04   -0.28559E-04  1862   0.257E-01    0.322E-02
DAV:  11    -0.922944155753E+01    0.60383E-05   -0.19877E-05  1916   0.584E-02    0.165E-02
DAV:  12    -0.922944167374E+01   -0.11621E-06   -0.26826E-06  1540   0.199E-02
   1 F= -.92294417E+01 E0= -.92290437E+01  d E =-.119397E-02  mag=     1.9513
