a= 2.70
 running on    1 total cores
 distrk:  each k-point on    1 cores,    1 groups
 distr:  one band on    1 cores,    1 groups
 using from now: INCAR     
 vasp.5.4.4.18Apr17-6-g9f103f2a35 (build May 20 2018 16:52:39) complex          
  
 POSCAR found type information on POSCAR  Fe
 POSCAR found :  1 types and       1 ions
 scaLAPACK will be used
 LDA part: xc-table for Ceperly-Alder, standard interpolation
 POSCAR, INCAR and KPOINTS ok, starting setup
 FFT: planning ...
 WAVECAR not read
 entering main loop
       N       E                     dE             d eps       ncg     rms          rms(c)
DAV:   1     0.709730802385E+01    0.70973E+01   -0.27661E+03 32796   0.591E+02
DAV:   2    -0.996229732082E+01   -0.17060E+02   -0.15800E+02 30350   0.983E+01
DAV:   3    -0.101623438333E+02   -0.20005E+00   -0.19961E+00 32522   0.130E+01
DAV:   4    -0.101629838671E+02   -0.64003E-03   -0.64000E-03 31930   0.696E-01
DAV:   5    -0.101629879349E+02   -0.40678E-05   -0.40678E-05 32284   0.537E-02    0.877E+00
DAV:   6    -0.926935403389E+01    0.89363E+00   -0.86537E+00 32026   0.423E+01    0.150E+00
DAV:   7    -0.922854884608E+01    0.40805E-01   -0.22050E-01 32718   0.682E+00    0.635E-01
DAV:   8    -0.920993089375E+01    0.18618E-01   -0.90025E-03 35206   0.642E-01    0.313E-01
DAV:   9    -0.920724117459E+01    0.26897E-02   -0.16582E-03 33438   0.292E-01    0.988E-02
DAV:  10    -0.920724719590E+01   -0.60213E-05   -0.37351E-04 32860   0.257E-01    0.336E-02
DAV:  11    -0.920724739352E+01   -0.19762E-06   -0.58061E-05 34694   0.848E-02    0.111E-02
DAV:  12    -0.920724825877E+01   -0.86526E-06   -0.67941E-07 16974   0.114E-02
   1 F= -.92072483E+01 E0= -.92073304E+01  d E =0.246526E-03  mag=     1.8573
a= 2.80
 running on    1 total cores
 distrk:  each k-point on    1 cores,    1 groups
 distr:  one band on    1 cores,    1 groups
 using from now: INCAR     
 vasp.5.4.4.18Apr17-6-g9f103f2a35 (build May 20 2018 16:52:39) complex          
  
 POSCAR found type information on POSCAR  Fe
 POSCAR found :  1 types and       1 ions
 scaLAPACK will be used
 LDA part: xc-table for Ceperly-Alder, standard interpolation
 POSCAR, INCAR and KPOINTS ok, starting setup
 FFT: planning ...
 WAVECAR not read
 entering main loop
       N       E                     dE             d eps       ncg     rms          rms(c)
DAV:   1     0.723230974698E+01    0.72323E+01   -0.27585E+03 32638   0.572E+02
DAV:   2    -0.100696699181E+02   -0.17302E+02   -0.15952E+02 30306   0.974E+01
DAV:   3    -0.102719385949E+02   -0.20227E+00   -0.20194E+00 32912   0.131E+01
DAV:   4    -0.102726529534E+02   -0.71436E-03   -0.71432E-03 31874   0.735E-01
DAV:   5    -0.102726581066E+02   -0.51532E-05   -0.51533E-05 32402   0.604E-02    0.877E+00
DAV:   6    -0.929389974062E+01    0.97876E+00   -0.11256E+01 32264   0.466E+01    0.251E+00
DAV:   7    -0.922425265836E+01    0.69647E-01   -0.59135E-01 32650   0.104E+01    0.668E-01
DAV:   8    -0.920842160760E+01    0.15831E-01   -0.92235E-03 36316   0.669E-01    0.302E-01
DAV:   9    -0.920487961341E+01    0.35420E-02   -0.21932E-03 36134   0.316E-01    0.164E-01
DAV:  10    -0.920485390051E+01    0.25713E-04   -0.46407E-04 32552   0.315E-01    0.538E-02
DAV:  11    -0.920482568837E+01    0.28212E-04   -0.14098E-04 32752   0.150E-01    0.143E-02
DAV:  12    -0.920482682011E+01   -0.11317E-05   -0.64390E-07 18280   0.955E-03    0.143E-02
DAV:  13    -0.920482573081E+01    0.10893E-05   -0.53422E-07 15194   0.962E-03    0.260E-03
DAV:  14    -0.920482571505E+01    0.15764E-07   -0.49922E-07 15108   0.921E-03
   1 F= -.92048257E+01 E0= -.92050651E+01  d E =0.718161E-03  mag=     2.0650
