a= 2.60
 running on    1 total cores
 distrk:  each k-point on    1 cores,    1 groups
 distr:  one band on    1 cores,    1 groups
 using from now: INCAR     
 vasp.5.4.4.18Apr17-6-g9f103f2a35 (build May 20 2018 16:52:39) complex          
  
 POSCAR found type information on POSCAR  Fe
 POSCAR found :  1 types and       1 ions
 scaLAPACK will be used
 LDA part: xc-table for Ceperly-Alder, standard interpolation
 POSCAR, INCAR and KPOINTS ok, starting setup
 FFT: planning ...
 WAVECAR not read
 entering main loop
       N       E                     dE             d eps       ncg     rms          rms(c)
DAV:   1     0.654373979118E+01    0.65437E+01   -0.27830E+03 33472   0.610E+02
DAV:   2    -0.958876567066E+01   -0.16133E+02   -0.14888E+02 30380   0.976E+01
DAV:   3    -0.976187298576E+01   -0.17311E+00   -0.17271E+00 32290   0.121E+01
DAV:   4    -0.976237848466E+01   -0.50550E-03   -0.50547E-03 31828   0.618E-01
DAV:   5    -0.976238131802E+01   -0.28334E-05   -0.28334E-05 32266   0.451E-02    0.883E+00
DAV:   6    -0.903680559353E+01    0.72558E+00   -0.62830E+00 31794   0.372E+01    0.985E-01
DAV:   7    -0.899881113384E+01    0.37994E-01   -0.67036E-02 31998   0.350E+00    0.638E-01
DAV:   8    -0.898015568627E+01    0.18655E-01   -0.71664E-03 35534   0.688E-01    0.312E-01
DAV:   9    -0.897591248584E+01    0.42432E-02   -0.18638E-03 34502   0.328E-01    0.651E-02
DAV:  10    -0.897592049399E+01   -0.80081E-05   -0.66161E-05 33430   0.113E-01    0.182E-02
DAV:  11    -0.897593677010E+01   -0.16276E-04   -0.73331E-06 32076   0.353E-02    0.128E-02
DAV:  12    -0.897593618915E+01    0.58095E-06   -0.20318E-07 16940   0.385E-03
   1 F= -.89759362E+01 E0= -.89759711E+01  d E =0.104629E-03  mag=     1.5653
a= 2.61
 running on    1 total cores
 distrk:  each k-point on    1 cores,    1 groups
 distr:  one band on    1 cores,    1 groups
 using from now: INCAR     
 vasp.5.4.4.18Apr17-6-g9f103f2a35 (build May 20 2018 16:52:39) complex          
  
 POSCAR found type information on POSCAR  Fe
 POSCAR found :  1 types and       1 ions
 scaLAPACK will be used
 LDA part: xc-table for Ceperly-Alder, standard interpolation
 POSCAR, INCAR and KPOINTS ok, starting setup
 FFT: planning ...
 WAVECAR not read
 entering main loop
       N       E                     dE             d eps       ncg     rms          rms(c)
DAV:   1     0.649629188912E+01    0.64963E+01   -0.27674E+03 33438   0.604E+02
DAV:   2    -0.964394525605E+01   -0.16140E+02   -0.14944E+02 30450   0.977E+01
DAV:   3    -0.981773477708E+01   -0.17379E+00   -0.17343E+00 32416   0.122E+01
DAV:   4    -0.981824433132E+01   -0.50955E-03   -0.50952E-03 31874   0.618E-01
DAV:   5    -0.981824727437E+01   -0.29430E-05   -0.29428E-05 32190   0.454E-02    0.882E+00
DAV:   6    -0.907226145513E+01    0.74599E+00   -0.65082E+00 31828   0.378E+01    0.991E-01
DAV:   7    -0.903491809776E+01    0.37343E-01   -0.74037E-02 32392   0.379E+00    0.634E-01
DAV:   8    -0.901603087514E+01    0.18887E-01   -0.74578E-03 35408   0.683E-01    0.313E-01
DAV:   9    -0.901212270246E+01    0.39082E-02   -0.18047E-03 34364   0.320E-01    0.661E-02
DAV:  10    -0.901213355018E+01   -0.10848E-04   -0.69032E-05 33456   0.114E-01    0.191E-02
DAV:  11    -0.901215025941E+01   -0.16709E-04   -0.95161E-06 32112   0.396E-02    0.130E-02
DAV:  12    -0.901214974958E+01    0.50983E-06   -0.17975E-07 17052   0.375E-03
   1 F= -.90121497E+01 E0= -.90121506E+01  d E =0.244252E-05  mag=     1.5984
a= 2.62
 running on    1 total cores
 distrk:  each k-point on    1 cores,    1 groups
 distr:  one band on    1 cores,    1 groups
 using from now: INCAR     
 vasp.5.4.4.18Apr17-6-g9f103f2a35 (build May 20 2018 16:52:39) complex          
  
 POSCAR found type information on POSCAR  Fe
 POSCAR found :  1 types and       1 ions
 scaLAPACK will be used
 LDA part: xc-table for Ceperly-Alder, standard interpolation
 POSCAR, INCAR and KPOINTS ok, starting setup
 FFT: planning ...
 WAVECAR not read
 entering main loop
       N       E                     dE             d eps       ncg     rms          rms(c)
DAV:   1     0.668582222087E+01    0.66858E+01   -0.27585E+03 33144   0.602E+02
DAV:   2    -0.968925443328E+01   -0.16375E+02   -0.15175E+02 30350   0.979E+01
DAV:   3    -0.986983765260E+01   -0.18058E+00   -0.18020E+00 32290   0.124E+01
DAV:   4    -0.987038244393E+01   -0.54479E-03   -0.54476E-03 31794   0.639E-01
DAV:   5    -0.987038558813E+01   -0.31442E-05   -0.31442E-05 32290   0.474E-02    0.881E+00
DAV:   6    -0.910488320768E+01    0.76550E+00   -0.67367E+00 31832   0.383E+01    0.101E+00
DAV:   7    -0.906802311694E+01    0.36860E-01   -0.82935E-02 32520   0.411E+00    0.631E-01
DAV:   8    -0.904893890194E+01    0.19084E-01   -0.77698E-03 35356   0.680E-01    0.314E-01
DAV:   9    -0.904534538513E+01    0.35935E-02   -0.17498E-03 33854   0.313E-01    0.681E-02
DAV:  10    -0.904535752530E+01   -0.12140E-04   -0.73123E-05 33412   0.115E-01    0.211E-02
DAV:  11    -0.904537476635E+01   -0.17241E-04   -0.12342E-05 32148   0.446E-02    0.132E-02
DAV:  12    -0.904537433445E+01    0.43190E-06   -0.18807E-07 17150   0.429E-03
   1 F= -.90453743E+01 E0= -.90453699E+01  d E =-.132841E-04  mag=     1.6315
a= 2.63
 running on    1 total cores
 distrk:  each k-point on    1 cores,    1 groups
 distr:  one band on    1 cores,    1 groups
 using from now: INCAR     
 vasp.5.4.4.18Apr17-6-g9f103f2a35 (build May 20 2018 16:52:39) complex          
  
 POSCAR found type information on POSCAR  Fe
 POSCAR found :  1 types and       1 ions
 scaLAPACK will be used
 LDA part: xc-table for Ceperly-Alder, standard interpolation
 POSCAR, INCAR and KPOINTS ok, starting setup
 FFT: planning ...
 WAVECAR not read
 entering main loop
       N       E                     dE             d eps       ncg     rms          rms(c)
DAV:   1     0.658253999453E+01    0.65825E+01   -0.27682E+03 33036   0.601E+02
DAV:   2    -0.973927207988E+01   -0.16322E+02   -0.15136E+02 30448   0.981E+01
DAV:   3    -0.991816908876E+01   -0.17890E+00   -0.17858E+00 32336   0.124E+01
DAV:   4    -0.991872080686E+01   -0.55172E-03   -0.55169E-03 31782   0.646E-01
DAV:   5    -0.991872402956E+01   -0.32227E-05   -0.32230E-05 32388   0.481E-02    0.881E+00
DAV:   6    -0.913426435150E+01    0.78446E+00   -0.69682E+00 31862   0.388E+01    0.104E+00
DAV:   7    -0.909773496751E+01    0.36529E-01   -0.93645E-02 32550   0.443E+00    0.629E-01
DAV:   8    -0.907852753315E+01    0.19207E-01   -0.80750E-03 35162   0.678E-01    0.316E-01
DAV:   9    -0.907521365783E+01    0.33139E-02   -0.16995E-03 33604   0.307E-01    0.709E-02
DAV:  10    -0.907522570658E+01   -0.12049E-04   -0.77226E-05 33172   0.116E-01    0.241E-02
DAV:  11    -0.907524358028E+01   -0.17874E-04   -0.15838E-05 32288   0.503E-02    0.133E-02
DAV:  12    -0.907524322791E+01    0.35237E-06   -0.21837E-07 17238   0.535E-03
   1 F= -.90752432E+01 E0= -.90752561E+01  d E =0.385378E-04  mag=     1.6641
a= 2.64
 running on    1 total cores
 distrk:  each k-point on    1 cores,    1 groups
 distr:  one band on    1 cores,    1 groups
 using from now: INCAR     
 vasp.5.4.4.18Apr17-6-g9f103f2a35 (build May 20 2018 16:52:39) complex          
  
 POSCAR found type information on POSCAR  Fe
 POSCAR found :  1 types and       1 ions
 scaLAPACK will be used
 LDA part: xc-table for Ceperly-Alder, standard interpolation
 POSCAR, INCAR and KPOINTS ok, starting setup
 FFT: planning ...
 WAVECAR not read
 entering main loop
       N       E                     dE             d eps       ncg     rms          rms(c)
DAV:   1     0.640750196000E+01    0.64075E+01   -0.27610E+03 33324   0.598E+02
DAV:   2    -0.978457709432E+01   -0.16192E+02   -0.15002E+02 30352   0.976E+01
DAV:   3    -0.996303247648E+01   -0.17846E+00   -0.17735E+00 32452   0.123E+01
DAV:   4    -0.996357650154E+01   -0.54403E-03   -0.54398E-03 31746   0.639E-01
DAV:   5    -0.996357971907E+01   -0.32175E-05   -0.32168E-05 32362   0.481E-02    0.880E+00
DAV:   6    -0.916114363400E+01    0.80244E+00   -0.72019E+00 31886   0.394E+01    0.108E+00
DAV:   7    -0.912472979125E+01    0.36414E-01   -0.10587E-01 32604   0.476E+00    0.628E-01
DAV:   8    -0.910540955002E+01    0.19320E-01   -0.83299E-03 35162   0.674E-01    0.318E-01
DAV:   9    -0.910233118065E+01    0.30784E-02   -0.16628E-03 33368   0.301E-01    0.746E-02
DAV:  10    -0.910234201322E+01   -0.10833E-04   -0.80039E-05 33098   0.116E-01    0.280E-02
DAV:  11    -0.910236055653E+01   -0.18543E-04   -0.19927E-05 32414   0.563E-02    0.132E-02
DAV:  12    -0.910236031454E+01    0.24199E-06   -0.26372E-07 17300   0.643E-03
   1 F= -.91023603E+01 E0= -.91024103E+01  d E =0.149826E-03  mag=     1.6955
a= 2.65
 running on    1 total cores
 distrk:  each k-point on    1 cores,    1 groups
 distr:  one band on    1 cores,    1 groups
 using from now: INCAR     
 vasp.5.4.4.18Apr17-6-g9f103f2a35 (build May 20 2018 16:52:39) complex          
  
 POSCAR found type information on POSCAR  Fe
 POSCAR found :  1 types and       1 ions
 scaLAPACK will be used
 LDA part: xc-table for Ceperly-Alder, standard interpolation
 POSCAR, INCAR and KPOINTS ok, starting setup
 FFT: planning ...
 WAVECAR not read
 entering main loop
       N       E                     dE             d eps       ncg     rms          rms(c)
DAV:   1     0.687152136550E+01    0.68715E+01   -0.27628E+03 32890   0.596E+02
DAV:   2    -0.981751612407E+01   -0.16689E+02   -0.15442E+02 30362   0.985E+01
DAV:   3    -0.100043300432E+02   -0.18681E+00   -0.18654E+00 32392   0.126E+01
DAV:   4    -0.100049114261E+02   -0.58138E-03   -0.58135E-03 31838   0.662E-01
DAV:   5    -0.100049149205E+02   -0.34945E-05   -0.34937E-05 32212   0.500E-02    0.879E+00
DAV:   6    -0.918526335947E+01    0.81965E+00   -0.74375E+00 31884   0.399E+01    0.113E+00
DAV:   7    -0.914870725473E+01    0.36556E-01   -0.12004E-01 32670   0.509E+00    0.628E-01
DAV:   8    -0.912938997753E+01    0.19317E-01   -0.85776E-03 35018   0.670E-01    0.318E-01
DAV:   9    -0.912649340878E+01    0.28966E-02   -0.16318E-03 33158   0.297E-01    0.786E-02
DAV:  10    -0.912650225252E+01   -0.88437E-05   -0.82429E-05 32944   0.117E-01    0.320E-02
DAV:  11    -0.912652123542E+01   -0.18983E-04   -0.23727E-05 32678   0.617E-02    0.130E-02
DAV:  12    -0.912652118694E+01    0.48475E-07   -0.30752E-07 17360   0.730E-03
   1 F= -.91265212E+01 E0= -.91266157E+01  d E =0.283512E-03  mag=     1.7252
a= 2.66
 running on    1 total cores
 distrk:  each k-point on    1 cores,    1 groups
 distr:  one band on    1 cores,    1 groups
 using from now: INCAR     
 vasp.5.4.4.18Apr17-6-g9f103f2a35 (build May 20 2018 16:52:39) complex          
  
 POSCAR found type information on POSCAR  Fe
 POSCAR found :  1 types and       1 ions
 scaLAPACK will be used
 LDA part: xc-table for Ceperly-Alder, standard interpolation
 POSCAR, INCAR and KPOINTS ok, starting setup
 FFT: planning ...
 WAVECAR not read
 entering main loop
       N       E                     dE             d eps       ncg     rms          rms(c)
DAV:   1     0.674040040496E+01    0.67404E+01   -0.27708E+03 33118   0.599E+02
DAV:   2    -0.985885492234E+01   -0.16599E+02   -0.15361E+02 30404   0.980E+01
DAV:   3    -0.100422857177E+02   -0.18343E+00   -0.18312E+00 32420   0.124E+01
DAV:   4    -0.100428730863E+02   -0.58737E-03   -0.58733E-03 31780   0.661E-01
DAV:   5    -0.100428766756E+02   -0.35893E-05   -0.35901E-05 32282   0.505E-02    0.879E+00
DAV:   6    -0.920679788775E+01    0.83608E+00   -0.76766E+00 31936   0.404E+01    0.119E+00
DAV:   7    -0.916989295232E+01    0.36905E-01   -0.13612E-01 32674   0.543E+00    0.629E-01
DAV:   8    -0.915062635724E+01    0.19267E-01   -0.87348E-03 34920   0.663E-01    0.318E-01
DAV:   9    -0.914784964618E+01    0.27767E-02   -0.16199E-03 33008   0.294E-01    0.826E-02
DAV:  10    -0.914785588305E+01   -0.62369E-05   -0.86575E-05 32834   0.119E-01    0.351E-02
DAV:  11    -0.914787478903E+01   -0.18906E-04   -0.25382E-05 33152   0.643E-02    0.126E-02
DAV:  12    -0.914787498996E+01   -0.20093E-06   -0.33989E-07 17382   0.789E-03
   1 F= -.91478750E+01 E0= -.91480068E+01  d E =0.395461E-03  mag=     1.7532
a= 2.67
 running on    1 total cores
 distrk:  each k-point on    1 cores,    1 groups
 distr:  one band on    1 cores,    1 groups
 using from now: INCAR     
 vasp.5.4.4.18Apr17-6-g9f103f2a35 (build May 20 2018 16:52:39) complex          
  
 POSCAR found type information on POSCAR  Fe
 POSCAR found :  1 types and       1 ions
 scaLAPACK will be used
 LDA part: xc-table for Ceperly-Alder, standard interpolation
 POSCAR, INCAR and KPOINTS ok, starting setup
 FFT: planning ...
 WAVECAR not read
 entering main loop
       N       E                     dE             d eps       ncg     rms          rms(c)
DAV:   1     0.686805881026E+01    0.68681E+01   -0.27718E+03 32802   0.595E+02
DAV:   2    -0.988698055452E+01   -0.16755E+02   -0.15517E+02 30412   0.986E+01
DAV:   3    -0.100769896479E+02   -0.19001E+00   -0.18901E+00 32492   0.126E+01
DAV:   4    -0.100775916041E+02   -0.60196E-03   -0.60193E-03 31760   0.673E-01
DAV:   5    -0.100775952967E+02   -0.36926E-05   -0.36927E-05 32364   0.513E-02    0.878E+00
DAV:   6    -0.922593834079E+01    0.85166E+00   -0.79170E+00 31942   0.409E+01    0.126E+00
DAV:   7    -0.918844250121E+01    0.37496E-01   -0.15426E-01 32684   0.578E+00    0.630E-01
DAV:   8    -0.916928278582E+01    0.19160E-01   -0.88310E-03 34902   0.657E-01    0.318E-01
DAV:   9    -0.916657433350E+01    0.27085E-02   -0.16297E-03 32986   0.293E-01    0.864E-02
DAV:  10    -0.916657770912E+01   -0.33756E-05   -0.99195E-05 32816   0.128E-01    0.355E-02
DAV:  11    -0.916659582682E+01   -0.18118E-04   -0.22482E-05 34342   0.613E-02    0.122E-02
DAV:  12    -0.916659629765E+01   -0.47083E-06   -0.35621E-07 17482   0.827E-03
   1 F= -.91665963E+01 E0= -.91667443E+01  d E =0.443895E-03  mag=     1.7801
a= 2.68
 running on    1 total cores
 distrk:  each k-point on    1 cores,    1 groups
 distr:  one band on    1 cores,    1 groups
 using from now: INCAR     
 vasp.5.4.4.18Apr17-6-g9f103f2a35 (build May 20 2018 16:52:39) complex          
  
 POSCAR found type information on POSCAR  Fe
 POSCAR found :  1 types and       1 ions
 scaLAPACK will be used
 LDA part: xc-table for Ceperly-Alder, standard interpolation
 POSCAR, INCAR and KPOINTS ok, starting setup
 FFT: planning ...
 WAVECAR not read
 entering main loop
       N       E                     dE             d eps       ncg     rms          rms(c)
DAV:   1     0.650541301015E+01    0.65054E+01   -0.27723E+03 33196   0.592E+02
DAV:   2    -0.992503341027E+01   -0.16430E+02   -0.15177E+02 30382   0.967E+01
DAV:   3    -0.101085465092E+02   -0.18351E+00   -0.18298E+00 32412   0.125E+01
DAV:   4    -0.101091350827E+02   -0.58857E-03   -0.58854E-03 31906   0.664E-01
DAV:   5    -0.101091387897E+02   -0.37070E-05   -0.37075E-05 32154   0.516E-02    0.878E+00
DAV:   6    -0.924270028995E+01    0.86644E+00   -0.81601E+00 31976   0.414E+01    0.134E+00
DAV:   7    -0.920435412850E+01    0.38346E-01   -0.17422E-01 32700   0.612E+00    0.632E-01
DAV:   8    -0.918534489373E+01    0.19009E-01   -0.88904E-03 34974   0.650E-01    0.316E-01
DAV:   9    -0.918266452302E+01    0.26804E-02   -0.16492E-03 33080   0.294E-01    0.902E-02
DAV:  10    -0.918266522750E+01   -0.70448E-06   -0.13495E-04 32908   0.150E-01    0.314E-02
DAV:  11    -0.918268151018E+01   -0.16283E-04   -0.15787E-05 36294   0.498E-02    0.118E-02
DAV:  12    -0.918268221762E+01   -0.70743E-06   -0.37404E-07 17488   0.861E-03
   1 F= -.91826822E+01 E0= -.91828211E+01  d E =0.416677E-03  mag=     1.8064
a= 2.69
 running on    1 total cores
 distrk:  each k-point on    1 cores,    1 groups
 distr:  one band on    1 cores,    1 groups
 using from now: INCAR     
 vasp.5.4.4.18Apr17-6-g9f103f2a35 (build May 20 2018 16:52:39) complex          
  
 POSCAR found type information on POSCAR  Fe
 POSCAR found :  1 types and       1 ions
 scaLAPACK will be used
 LDA part: xc-table for Ceperly-Alder, standard interpolation
 POSCAR, INCAR and KPOINTS ok, starting setup
 FFT: planning ...
 WAVECAR not read
 entering main loop
       N       E                     dE             d eps       ncg     rms          rms(c)
DAV:   1     0.681876123358E+01    0.68188E+01   -0.27823E+03 32998   0.594E+02
DAV:   2    -0.994582076701E+01   -0.16765E+02   -0.15451E+02 30370   0.981E+01
DAV:   3    -0.101369192650E+02   -0.19110E+00   -0.19023E+00 32460   0.127E+01
DAV:   4    -0.101375396481E+02   -0.62038E-03   -0.62035E-03 31870   0.680E-01
DAV:   5    -0.101375435697E+02   -0.39217E-05   -0.39215E-05 32284   0.529E-02    0.877E+00
DAV:   6    -0.925708135102E+01    0.88046E+00   -0.84057E+00 32030   0.418E+01    0.141E+00
DAV:   7    -0.921763188893E+01    0.39449E-01   -0.19625E-01 32708   0.647E+00    0.633E-01
DAV:   8    -0.919882047037E+01    0.18811E-01   -0.89698E-03 35012   0.646E-01    0.315E-01
DAV:   9    -0.919613032260E+01    0.26901E-02   -0.16358E-03 33250   0.291E-01    0.942E-02
DAV:  10    -0.919613036787E+01   -0.45266E-07   -0.21794E-04 32910   0.194E-01    0.255E-02
DAV:  11    -0.919614211333E+01   -0.11745E-04   -0.18821E-05 34960   0.385E-02    0.114E-02
DAV:  12    -0.919614294700E+01   -0.83367E-06   -0.45228E-07 16090   0.949E-03
   1 F= -.91961429E+01 E0= -.91962561E+01  d E =0.339320E-03  mag=     1.8320
a= 2.70
 running on    1 total cores
 distrk:  each k-point on    1 cores,    1 groups
 distr:  one band on    1 cores,    1 groups
 using from now: INCAR     
 vasp.5.4.4.18Apr17-6-g9f103f2a35 (build May 20 2018 16:52:39) complex          
  
 POSCAR found type information on POSCAR  Fe
 POSCAR found :  1 types and       1 ions
 scaLAPACK will be used
 LDA part: xc-table for Ceperly-Alder, standard interpolation
 POSCAR, INCAR and KPOINTS ok, starting setup
 FFT: planning ...
 WAVECAR not read
 entering main loop
       N       E                     dE             d eps       ncg     rms          rms(c)
DAV:   1     0.709730802385E+01    0.70973E+01   -0.27661E+03 32796   0.591E+02
DAV:   2    -0.996229732082E+01   -0.17060E+02   -0.15800E+02 30350   0.983E+01
DAV:   3    -0.101623438333E+02   -0.20005E+00   -0.19961E+00 32522   0.130E+01
DAV:   4    -0.101629838671E+02   -0.64003E-03   -0.64000E-03 31930   0.696E-01
DAV:   5    -0.101629879349E+02   -0.40678E-05   -0.40678E-05 32284   0.537E-02    0.877E+00
DAV:   6    -0.926935403389E+01    0.89363E+00   -0.86537E+00 32026   0.423E+01    0.150E+00
DAV:   7    -0.922854884608E+01    0.40805E-01   -0.22050E-01 32718   0.682E+00    0.635E-01
DAV:   8    -0.920993089375E+01    0.18618E-01   -0.90025E-03 35206   0.642E-01    0.313E-01
DAV:   9    -0.920724117459E+01    0.26897E-02   -0.16582E-03 33438   0.292E-01    0.988E-02
DAV:  10    -0.920724719590E+01   -0.60213E-05   -0.37351E-04 32860   0.257E-01    0.336E-02
DAV:  11    -0.920724739352E+01   -0.19762E-06   -0.58061E-05 34694   0.848E-02    0.111E-02
DAV:  12    -0.920724825877E+01   -0.86526E-06   -0.67941E-07 16974   0.114E-02
   1 F= -.92072483E+01 E0= -.92073304E+01  d E =0.246526E-03  mag=     1.8573
a= 2.71
 running on    1 total cores
 distrk:  each k-point on    1 cores,    1 groups
 distr:  one band on    1 cores,    1 groups
 using from now: INCAR     
 vasp.5.4.4.18Apr17-6-g9f103f2a35 (build May 20 2018 16:52:39) complex          
  
 POSCAR found type information on POSCAR  Fe
 POSCAR found :  1 types and       1 ions
 scaLAPACK will be used
 LDA part: xc-table for Ceperly-Alder, standard interpolation
 POSCAR, INCAR and KPOINTS ok, starting setup
 FFT: planning ...
 WAVECAR not read
 entering main loop
       N       E                     dE             d eps       ncg     rms          rms(c)
DAV:   1     0.673514691249E+01    0.67351E+01   -0.27635E+03 33014   0.589E+02
DAV:   2    -0.998854404925E+01   -0.16724E+02   -0.15454E+02 30318   0.978E+01
DAV:   3    -0.101849337801E+02   -0.19639E+00   -0.19520E+00 32590   0.128E+01
DAV:   4    -0.101855904350E+02   -0.65665E-03   -0.65662E-03 31834   0.696E-01
DAV:   5    -0.101855947292E+02   -0.42942E-05   -0.42936E-05 32418   0.549E-02    0.877E+00
DAV:   6    -0.927969602036E+01    0.90590E+00   -0.89045E+00 32062   0.428E+01    0.158E+00
DAV:   7    -0.923727806429E+01    0.42418E-01   -0.24710E-01 32706   0.718E+00    0.636E-01
DAV:   8    -0.921887762618E+01    0.18400E-01   -0.90809E-03 35336   0.641E-01    0.312E-01
DAV:   9    -0.921616559810E+01    0.27120E-02   -0.16648E-03 33618   0.293E-01    0.104E-01
DAV:  10    -0.921618724671E+01   -0.21649E-04   -0.55389E-04 32974   0.318E-01    0.527E-02
DAV:  11    -0.921616774947E+01    0.19497E-04   -0.13453E-04 32936   0.143E-01    0.111E-02
DAV:  12    -0.921616855121E+01   -0.80175E-06   -0.98901E-07 17854   0.136E-02
   1 F= -.92161686E+01 E0= -.92162270E+01  d E =0.175392E-03  mag=     1.8822
a= 2.72
 running on    1 total cores
 distrk:  each k-point on    1 cores,    1 groups
 distr:  one band on    1 cores,    1 groups
 using from now: INCAR     
 vasp.5.4.4.18Apr17-6-g9f103f2a35 (build May 20 2018 16:52:39) complex          
  
 POSCAR found type information on POSCAR  Fe
 POSCAR found :  1 types and       1 ions
 scaLAPACK will be used
 LDA part: xc-table for Ceperly-Alder, standard interpolation
 POSCAR, INCAR and KPOINTS ok, starting setup
 FFT: planning ...
 WAVECAR not read
 entering main loop
       N       E                     dE             d eps       ncg     rms          rms(c)
DAV:   1     0.698960281562E+01    0.69896E+01   -0.27565E+03 32756   0.583E+02
DAV:   2    -0.100062177788E+02   -0.16996E+02   -0.15687E+02 30344   0.982E+01
DAV:   3    -0.102047284201E+02   -0.19851E+00   -0.19791E+00 32736   0.129E+01
DAV:   4    -0.102053719534E+02   -0.64353E-03   -0.64350E-03 31910   0.693E-01
DAV:   5    -0.102053761731E+02   -0.42197E-05   -0.42197E-05 32318   0.545E-02    0.877E+00
DAV:   6    -0.928804158468E+01    0.91733E+00   -0.91570E+00 32076   0.432E+01    0.167E+00
DAV:   7    -0.924370521776E+01    0.44336E-01   -0.27555E-01 32726   0.753E+00    0.638E-01
DAV:   8    -0.922553293071E+01    0.18172E-01   -0.91827E-03 35522   0.642E-01    0.311E-01
DAV:   9    -0.922279762643E+01    0.27353E-02   -0.16824E-03 33838   0.296E-01    0.110E-01
DAV:  10    -0.922283463018E+01   -0.37004E-04   -0.69633E-04 32878   0.361E-01    0.680E-02
DAV:  11    -0.922279496427E+01    0.39666E-04   -0.21028E-04 32726   0.185E-01    0.116E-02
DAV:  12    -0.922279546597E+01   -0.50169E-06   -0.13023E-06 18268   0.158E-02
   1 F= -.92227955E+01 E0= -.92228482E+01  d E =0.158317E-03  mag=     1.9068
a= 2.73
 running on    1 total cores
 distrk:  each k-point on    1 cores,    1 groups
 distr:  one band on    1 cores,    1 groups
 using from now: INCAR     
 vasp.5.4.4.18Apr17-6-g9f103f2a35 (build May 20 2018 16:52:39) complex          
  
 POSCAR found type information on POSCAR  Fe
 POSCAR found :  1 types and       1 ions
 scaLAPACK will be used
 LDA part: xc-table for Ceperly-Alder, standard interpolation
 POSCAR, INCAR and KPOINTS ok, starting setup
 FFT: planning ...
 WAVECAR not read
 entering main loop
       N       E                     dE             d eps       ncg     rms          rms(c)
DAV:   1     0.678712576889E+01    0.67871E+01   -0.27633E+03 32932   0.582E+02
DAV:   2    -0.100276376852E+02   -0.16815E+02   -0.15589E+02 30332   0.978E+01
DAV:   3    -0.102217930736E+02   -0.19416E+00   -0.19273E+00 32618   0.128E+01
DAV:   4    -0.102224358064E+02   -0.64273E-03   -0.64269E-03 31738   0.693E-01
DAV:   5    -0.102224401018E+02   -0.42955E-05   -0.42955E-05 32342   0.553E-02    0.876E+00
DAV:   6    -0.929439623975E+01    0.92804E+00   -0.94133E+00 32074   0.437E+01    0.177E+00
DAV:   7    -0.924798689009E+01    0.46409E-01   -0.30695E-01 32720   0.789E+00    0.639E-01
DAV:   8    -0.923006253260E+01    0.17924E-01   -0.92698E-03 35740   0.643E-01    0.309E-01
DAV:   9    -0.922729269987E+01    0.27698E-02   -0.16986E-03 34190   0.298E-01    0.116E-01
DAV:  10    -0.922733639622E+01   -0.43696E-04   -0.76069E-04 32908   0.379E-01    0.758E-02
DAV:  11    -0.922728439105E+01    0.52005E-04   -0.25401E-04 32750   0.206E-01    0.122E-02
DAV:  12    -0.922728507725E+01   -0.68620E-06   -0.17335E-06 18378   0.179E-02
   1 F= -.92272851E+01 E0= -.92273546E+01  d E =0.208649E-03  mag=     1.9307
a= 2.74
 running on    1 total cores
 distrk:  each k-point on    1 cores,    1 groups
 distr:  one band on    1 cores,    1 groups
 using from now: INCAR     
 vasp.5.4.4.18Apr17-6-g9f103f2a35 (build May 20 2018 16:52:39) complex          
  
 POSCAR found type information on POSCAR  Fe
 POSCAR found :  1 types and       1 ions
 scaLAPACK will be used
 LDA part: xc-table for Ceperly-Alder, standard interpolation
 POSCAR, INCAR and KPOINTS ok, starting setup
 FFT: planning ...
 WAVECAR not read
 entering main loop
       N       E                     dE             d eps       ncg     rms          rms(c)
DAV:   1     0.690542441007E+01    0.69054E+01   -0.27405E+03 32948   0.581E+02
DAV:   2    -0.100379225939E+02   -0.16943E+02   -0.15582E+02 30364   0.975E+01
DAV:   3    -0.102362109827E+02   -0.19829E+00   -0.19763E+00 32648   0.129E+01
DAV:   4    -0.102368793812E+02   -0.66840E-03   -0.66835E-03 31886   0.707E-01
DAV:   5    -0.102368839048E+02   -0.45236E-05   -0.45245E-05 32306   0.565E-02    0.876E+00
DAV:   6    -0.929909194316E+01    0.93779E+00   -0.96707E+00 32126   0.441E+01    0.186E+00
DAV:   7    -0.925023921791E+01    0.48853E-01   -0.34017E-01 32708   0.825E+00    0.641E-01
DAV:   8    -0.923257135980E+01    0.17668E-01   -0.93812E-03 35884   0.647E-01    0.307E-01
DAV:   9    -0.922975621732E+01    0.28151E-02   -0.17172E-03 34406   0.300E-01    0.124E-01
DAV:  10    -0.922979862513E+01   -0.42408E-04   -0.75935E-04 32828   0.382E-01    0.776E-02
DAV:  11    -0.922974336551E+01    0.55260E-04   -0.26410E-04 32686   0.211E-01    0.129E-02
DAV:  12    -0.922974399015E+01   -0.62464E-06   -0.18520E-06 18414   0.183E-02
   1 F= -.92297440E+01 E0= -.92298538E+01  d E =0.329298E-03  mag=     1.9536
a= 2.75
 running on    1 total cores
 distrk:  each k-point on    1 cores,    1 groups
 distr:  one band on    1 cores,    1 groups
 using from now: INCAR     
 vasp.5.4.4.18Apr17-6-g9f103f2a35 (build May 20 2018 16:52:39) complex          
  
 POSCAR found type information on POSCAR  Fe
 POSCAR found :  1 types and       1 ions
 scaLAPACK will be used
 LDA part: xc-table for Ceperly-Alder, standard interpolation
 POSCAR, INCAR and KPOINTS ok, starting setup
 FFT: planning ...
 WAVECAR not read
 entering main loop
       N       E                     dE             d eps       ncg     rms          rms(c)
DAV:   1     0.697570166083E+01    0.69757E+01   -0.27561E+03 32916   0.583E+02
DAV:   2    -0.100506859615E+02   -0.17026E+02   -0.15638E+02 30312   0.976E+01
DAV:   3    -0.102480744249E+02   -0.19739E+00   -0.19700E+00 32800   0.129E+01
DAV:   4    -0.102487413423E+02   -0.66692E-03   -0.66688E-03 31876   0.707E-01
DAV:   5    -0.102487458554E+02   -0.45131E-05   -0.45130E-05 32364   0.564E-02    0.876E+00
DAV:   6    -0.930194712693E+01    0.94680E+00   -0.99312E+00 32152   0.445E+01    0.196E+00
DAV:   7    -0.925043341592E+01    0.51514E-01   -0.37603E-01 32712   0.862E+00    0.644E-01
DAV:   8    -0.923304630101E+01    0.17387E-01   -0.94445E-03 35956   0.650E-01    0.305E-01
DAV:   9    -0.923016221740E+01    0.28841E-02   -0.17459E-03 34622   0.303E-01    0.132E-01
DAV:  10    -0.923019693202E+01   -0.34715E-04   -0.71776E-04 32892   0.374E-01    0.763E-02
DAV:  11    -0.923014406558E+01    0.52866E-04   -0.25230E-04 32728   0.206E-01    0.133E-02
DAV:  12    -0.923014475841E+01   -0.69282E-06   -0.17788E-06 18152   0.178E-02
   1 F= -.92301448E+01 E0= -.92303075E+01  d E =0.488305E-03  mag=     1.9753
a= 2.76
 running on    1 total cores
 distrk:  each k-point on    1 cores,    1 groups
 distr:  one band on    1 cores,    1 groups
 using from now: INCAR     
 vasp.5.4.4.18Apr17-6-g9f103f2a35 (build May 20 2018 16:52:39) complex          
  
 POSCAR found type information on POSCAR  Fe
 POSCAR found :  1 types and       1 ions
 scaLAPACK will be used
 LDA part: xc-table for Ceperly-Alder, standard interpolation
 POSCAR, INCAR and KPOINTS ok, starting setup
 FFT: planning ...
 WAVECAR not read
 entering main loop
       N       E                     dE             d eps       ncg     rms          rms(c)
DAV:   1     0.712012409600E+01    0.71201E+01   -0.27622E+03 32800   0.583E+02
DAV:   2    -0.100584135225E+02   -0.17179E+02   -0.15832E+02 30294   0.981E+01
DAV:   3    -0.102574966786E+02   -0.19908E+00   -0.19868E+00 32800   0.129E+01
DAV:   4    -0.102581688763E+02   -0.67220E-03   -0.67216E-03 31864   0.710E-01
DAV:   5    -0.102581734857E+02   -0.46094E-05   -0.46098E-05 32410   0.568E-02    0.876E+00
DAV:   6    -0.930330445854E+01    0.95487E+00   -0.10193E+01 32148   0.450E+01    0.207E+00
DAV:   7    -0.924880901239E+01    0.54495E-01   -0.41417E-01 32694   0.898E+00    0.647E-01
DAV:   8    -0.923171282605E+01    0.17096E-01   -0.94754E-03 36128   0.653E-01    0.303E-01
DAV:   9    -0.922873640432E+01    0.29764E-02   -0.17888E-03 34796   0.305E-01    0.140E-01
DAV:  10    -0.922875965579E+01   -0.23251E-04   -0.65923E-04 32852   0.362E-01    0.734E-02
DAV:  11    -0.922871174106E+01    0.47915E-04   -0.23056E-04 32708   0.196E-01    0.135E-02
DAV:  12    -0.922871255148E+01   -0.81042E-06   -0.15754E-06 17944   0.165E-02
   1 F= -.92287126E+01 E0= -.92289304E+01  d E =0.653609E-03  mag=     1.9955
a= 2.77
 running on    1 total cores
 distrk:  each k-point on    1 cores,    1 groups
 distr:  one band on    1 cores,    1 groups
 using from now: INCAR     
 vasp.5.4.4.18Apr17-6-g9f103f2a35 (build May 20 2018 16:52:39) complex          
  
 POSCAR found type information on POSCAR  Fe
 POSCAR found :  1 types and       1 ions
 scaLAPACK will be used
 LDA part: xc-table for Ceperly-Alder, standard interpolation
 POSCAR, INCAR and KPOINTS ok, starting setup
 FFT: planning ...
 WAVECAR not read
 entering main loop
       N       E                     dE             d eps       ncg     rms          rms(c)
DAV:   1     0.721325922409E+01    0.72133E+01   -0.27422E+03 32578   0.578E+02
DAV:   2    -0.100605301982E+02   -0.17274E+02   -0.15972E+02 30338   0.984E+01
DAV:   3    -0.102644892044E+02   -0.20396E+00   -0.20355E+00 32896   0.129E+01
DAV:   4    -0.102651730832E+02   -0.68388E-03   -0.68384E-03 31810   0.713E-01
DAV:   5    -0.102651778051E+02   -0.47218E-05   -0.47212E-05 32374   0.575E-02    0.877E+00
DAV:   6    -0.930297192771E+01    0.96221E+00   -0.10457E+01 32206   0.454E+01    0.218E+00
DAV:   7    -0.924526637964E+01    0.57706E-01   -0.45504E-01 32694   0.934E+00    0.650E-01
DAV:   8    -0.922848013669E+01    0.16786E-01   -0.94464E-03 36110   0.656E-01    0.301E-01
DAV:   9    -0.922538821289E+01    0.30919E-02   -0.18467E-03 35062   0.306E-01    0.147E-01
DAV:  10    -0.922539832549E+01   -0.10113E-04   -0.59647E-04 32744   0.347E-01    0.695E-02
DAV:  11    -0.922535610927E+01    0.42216E-04   -0.20506E-04 32702   0.184E-01    0.136E-02
DAV:  12    -0.922535705133E+01   -0.94207E-06   -0.13222E-06 17938   0.148E-02
   1 F= -.92253571E+01 E0= -.92256194E+01  d E =0.786980E-03  mag=     2.0144
a= 2.78
 running on    1 total cores
 distrk:  each k-point on    1 cores,    1 groups
 distr:  one band on    1 cores,    1 groups
 using from now: INCAR     
 vasp.5.4.4.18Apr17-6-g9f103f2a35 (build May 20 2018 16:52:39) complex          
  
 POSCAR found type information on POSCAR  Fe
 POSCAR found :  1 types and       1 ions
 scaLAPACK will be used
 LDA part: xc-table for Ceperly-Alder, standard interpolation
 POSCAR, INCAR and KPOINTS ok, starting setup
 FFT: planning ...
 WAVECAR not read
 entering main loop
       N       E                     dE             d eps       ncg     rms          rms(c)
DAV:   1     0.717275761865E+01    0.71728E+01   -0.27666E+03 32788   0.576E+02
DAV:   2    -0.100661490922E+02   -0.17239E+02   -0.15892E+02 30352   0.975E+01
DAV:   3    -0.102691607501E+02   -0.20301E+00   -0.20265E+00 32802   0.130E+01
DAV:   4    -0.102698681300E+02   -0.70738E-03   -0.70734E-03 31906   0.726E-01
DAV:   5    -0.102698730642E+02   -0.49342E-05   -0.49336E-05 32440   0.590E-02    0.877E+00
DAV:   6    -0.930126486130E+01    0.96861E+00   -0.10722E+01 32214   0.458E+01    0.229E+00
DAV:   7    -0.923992892216E+01    0.61336E-01   -0.49790E-01 32668   0.971E+00    0.655E-01
DAV:   8    -0.922346401389E+01    0.16465E-01   -0.93777E-03 36206   0.659E-01    0.300E-01
DAV:   9    -0.922022632566E+01    0.32377E-02   -0.19350E-03 35338   0.307E-01    0.154E-01
DAV:  10    -0.922022271564E+01    0.36100E-05   -0.53871E-04 32686   0.334E-01    0.644E-02
DAV:  11    -0.922018598860E+01    0.36727E-04   -0.17941E-04 32720   0.171E-01    0.138E-02
DAV:  12    -0.922018703957E+01   -0.10510E-05   -0.10452E-06 17924   0.129E-02    0.136E-02
DAV:  13    -0.922018607557E+01    0.96400E-06   -0.76123E-07 15234   0.121E-02
   1 F= -.92201861E+01 E0= -.92204714E+01  d E =0.855973E-03  mag=     2.0318
a= 2.79
 running on    1 total cores
 distrk:  each k-point on    1 cores,    1 groups
 distr:  one band on    1 cores,    1 groups
 using from now: INCAR     
 vasp.5.4.4.18Apr17-6-g9f103f2a35 (build May 20 2018 16:52:39) complex          
  
 POSCAR found type information on POSCAR  Fe
 POSCAR found :  1 types and       1 ions
 scaLAPACK will be used
 LDA part: xc-table for Ceperly-Alder, standard interpolation
 POSCAR, INCAR and KPOINTS ok, starting setup
 FFT: planning ...
 WAVECAR not read
 entering main loop
       N       E                     dE             d eps       ncg     rms          rms(c)
DAV:   1     0.715486709802E+01    0.71549E+01   -0.27601E+03 32690   0.575E+02
DAV:   2    -0.100661203041E+02   -0.17221E+02   -0.15813E+02 30286   0.973E+01
DAV:   3    -0.102716053013E+02   -0.20548E+00   -0.20493E+00 32814   0.131E+01
DAV:   4    -0.102723077771E+02   -0.70248E-03   -0.70244E-03 31870   0.726E-01
DAV:   5    -0.102723126332E+02   -0.48561E-05   -0.48566E-05 32406   0.590E-02    0.877E+00
DAV:   6    -0.929814593443E+01    0.97417E+00   -0.10989E+01 32240   0.462E+01    0.240E+00
DAV:   7    -0.923284357792E+01    0.65302E-01   -0.54338E-01 32652   0.101E+01    0.661E-01
DAV:   8    -0.921669744133E+01    0.16146E-01   -0.93071E-03 36236   0.664E-01    0.301E-01
DAV:   9    -0.921331176126E+01    0.33857E-02   -0.20492E-03 35626   0.311E-01    0.159E-01
DAV:  10    -0.921329634933E+01    0.15412E-04   -0.49523E-04 32588   0.323E-01    0.592E-02
DAV:  11    -0.921326421552E+01    0.32134E-04   -0.15839E-04 32718   0.160E-01    0.140E-02
DAV:  12    -0.921326533083E+01   -0.11153E-05   -0.81761E-07 17884   0.111E-02    0.139E-02
DAV:  13    -0.921326430009E+01    0.10307E-05   -0.64784E-07 15198   0.110E-02    0.292E-03
DAV:  14    -0.921326427806E+01    0.22022E-07   -0.53656E-07 15098   0.953E-03
   1 F= -.92132643E+01 E0= -.92135429E+01  d E =0.835804E-03  mag=     2.0486
a= 2.80
 running on    1 total cores
 distrk:  each k-point on    1 cores,    1 groups
 distr:  one band on    1 cores,    1 groups
 using from now: INCAR     
 vasp.5.4.4.18Apr17-6-g9f103f2a35 (build May 20 2018 16:52:39) complex          
  
 POSCAR found type information on POSCAR  Fe
 POSCAR found :  1 types and       1 ions
 scaLAPACK will be used
 LDA part: xc-table for Ceperly-Alder, standard interpolation
 POSCAR, INCAR and KPOINTS ok, starting setup
 FFT: planning ...
 WAVECAR not read
 entering main loop
       N       E                     dE             d eps       ncg     rms          rms(c)
DAV:   1     0.723230974698E+01    0.72323E+01   -0.27585E+03 32638   0.572E+02
DAV:   2    -0.100696699181E+02   -0.17302E+02   -0.15952E+02 30306   0.974E+01
DAV:   3    -0.102719385949E+02   -0.20227E+00   -0.20194E+00 32912   0.131E+01
DAV:   4    -0.102726529534E+02   -0.71436E-03   -0.71432E-03 31874   0.735E-01
DAV:   5    -0.102726581066E+02   -0.51532E-05   -0.51533E-05 32402   0.604E-02    0.877E+00
DAV:   6    -0.929389974062E+01    0.97876E+00   -0.11256E+01 32264   0.466E+01    0.251E+00
DAV:   7    -0.922425265836E+01    0.69647E-01   -0.59135E-01 32650   0.104E+01    0.668E-01
DAV:   8    -0.920842160760E+01    0.15831E-01   -0.92235E-03 36316   0.669E-01    0.302E-01
DAV:   9    -0.920487961341E+01    0.35420E-02   -0.21932E-03 36134   0.316E-01    0.164E-01
DAV:  10    -0.920485390051E+01    0.25713E-04   -0.46407E-04 32552   0.315E-01    0.538E-02
DAV:  11    -0.920482568837E+01    0.28212E-04   -0.14098E-04 32752   0.150E-01    0.143E-02
DAV:  12    -0.920482682011E+01   -0.11317E-05   -0.64390E-07 18280   0.955E-03    0.143E-02
DAV:  13    -0.920482573081E+01    0.10893E-05   -0.53422E-07 15194   0.962E-03    0.260E-03
DAV:  14    -0.920482571505E+01    0.15764E-07   -0.49922E-07 15108   0.921E-03
   1 F= -.92048257E+01 E0= -.92050651E+01  d E =0.718161E-03  mag=     2.0650
