fcc Al                                  
   4.05000000000000     
     0.500000    0.500000    0.000000
     0.000000    0.500000    0.500000
     0.500000    0.000000    0.500000
   Al
     1
Direct
  0.000000  0.000000  0.000000
 
   32   32   32
 -.20368     -.11587     0.13880     0.53431      1.0296      1.5741      2.1156      2.6069      3.0103      3.3012    
  3.4724      3.5363      3.5230      3.4677      3.4016      3.3508      3.3319      3.3508      3.4016      3.4677    
  3.5230      3.5363      3.4724      3.3012      3.0103      2.6069      2.1156      1.5741      1.0296     0.53431    
 0.13880     -.11587     -.11587     0.55374E-01 0.38038     0.82536      1.3441      1.8849      2.3980      2.8410    
  3.1826      3.4069      3.5166      3.5339      3.4936      3.4283      3.3668      3.3304      3.3304      3.3668    
  3.4283      3.4936      3.5339      3.5166      3.4069      3.1826      2.8410      2.3980      1.8849      1.3441    
 0.82536     0.38037     0.55355E-01 -.11588     0.13880     0.38038     0.75458      1.2218      1.7339      2.2412    
  2.6988      3.0707      3.3337      3.4821      3.5297      3.5064      3.4457      3.3775      3.3261      3.3072    
  3.3261      3.3775      3.4457      3.5064      3.5297      3.4821      3.3337      3.0707      2.6988      2.2412    
  1.7339      1.2218     0.75458     0.38037     0.13879     0.55355E-01 0.53431     0.82536      1.2218      1.6813    
  2.1572      2.6043      2.9839      3.2677      3.4431      3.5155      3.5084      3.4542      3.3825      3.3190    
  3.2826      3.2826      3.3190      3.3825      3.4542      3.5084      3.5155      3.4431      3.2677      2.9839    
  2.6043      2.1572      1.6813      1.2218     0.82536     0.53432     0.38037     0.38037      1.0296      1.3441    
  1.7339      2.1572      2.5712      2.9365      3.2221      3.4098      3.4981      3.5038      3.4558      3.3825    
  3.3098      3.2580      3.2394      3.2580      3.3098      3.3825      3.4558      3.5038      3.4981      3.4098    
  3.2221      2.9365      2.5712      2.1572      1.7339      1.3441      1.0296     0.82536     0.75458     0.82536    
  1.5741      1.8849      2.2412      2.6043      2.9365      3.2059      3.3908      3.4845      3.4973      3.4534    
  3.3793      3.2997      3.2352      3.1997      3.1997      3.2352      3.2997      3.3793      3.4534      3.4973    
  3.4845      3.3908      3.2059      2.9365      2.6043      2.2412      1.8849      1.5741      1.3441      1.2218    
  1.2218      1.3441      2.1156      2.3980      2.6988      2.9839      3.2221      3.3908      3.4793      3.4928    
  3.4503      3.3752      3.2903      3.2159      3.1660      3.1486      3.1660      3.2159      3.2903      3.3752    
  3.4503      3.4928      3.4793      3.3908      3.2221      2.9839      2.6988      2.3980      2.1156      1.8849    
  1.7339      1.6813      1.7339      1.8849      2.6069      2.8410      3.0707      3.2677      3.4098      3.4845    
  3.4928      3.4490      3.3724      3.2837      3.2017      3.1405      3.1081      3.1081      3.1405      3.2017    
  3.2837      3.3724      3.4490      3.4928      3.4845      3.4098      3.2677      3.0707      2.8410      2.6069    
  2.3980      2.2412      2.1572      2.1572      2.2412      2.3980      3.0103      3.1826      3.3337      3.4431    
  3.4981      3.4973      3.4503      3.3724      3.2813      3.1943      3.1246      3.0803      3.0652      3.0803    
  3.1246      3.1943      3.2813      3.3724      3.4503      3.4973      3.4981      3.4431      3.3337      3.1826    
  3.0103      2.8410      2.6988      2.6043      2.5712      2.6043      2.6988      2.8410      3.3012      3.4069    
  3.4821      3.5155      3.5038      3.4534      3.3752      3.2837      3.1943      3.1192      3.0662      3.0391    
  3.0391      3.0662      3.1192      3.1943      3.2837      3.3752      3.4534      3.5038      3.5155      3.4821    
  3.4069      3.3012      3.1826      3.0707      2.9839      2.9365      2.9365      2.9839      3.0707      3.1826    
  3.4724      3.5166      3.5297      3.5084      3.4558      3.3793      3.2903      3.2017      3.1246      3.0662    
  3.0304      3.0183      3.0304      3.0662      3.1246      3.2017      3.2903      3.3793      3.4558      3.5084    
  3.5297      3.5166      3.4724      3.4069      3.3337      3.2677      3.2221      3.2059      3.2221      3.2677    
  3.3337      3.4069      3.5363      3.5339      3.5064      3.4542      3.3825      3.2997      3.2159      3.1405    
  3.0803      3.0391      3.0183      3.0183      3.0391      3.0803      3.1405      3.2159      3.2997      3.3825    
  3.4542      3.5064      3.5339      3.5363      3.5166      3.4821      3.4431      3.4098      3.3908      3.3908    
  3.4098      3.4431      3.4821      3.5166      3.5230      3.4936      3.4457      3.3825      3.3098      3.2352    
  3.1660      3.1081      3.0652      3.0391      3.0304      3.0391      3.0652      3.1081      3.1660      3.2352    
  3.3098      3.3825      3.4457      3.4936      3.5230      3.5339      3.5297      3.5155      3.4981      3.4845    
  3.4793      3.4845      3.4981      3.5155      3.5297      3.5339      3.4677      3.4283      3.3775      3.3190    
  3.2580      3.1997      3.1486      3.1081      3.0803      3.0662      3.0662      3.0803      3.1081      3.1486    
  3.1997      3.2580      3.3190      3.3775      3.4283      3.4677      3.4936      3.5064      3.5084      3.5038    
  3.4973      3.4928      3.4928      3.4973      3.5038      3.5084      3.5064      3.4936      3.4016      3.3668    
  3.3261      3.2826      3.2394      3.1997      3.1660      3.1405      3.1246      3.1192      3.1246      3.1405    
  3.1660      3.1997      3.2394      3.2826      3.3261      3.3668      3.4016      3.4283      3.4457      3.4542    
  3.4558      3.4534      3.4503      3.4490      3.4503      3.4534      3.4558      3.4542      3.4457      3.4283    
  3.3508      3.3304      3.3072      3.2826      3.2580      3.2352      3.2159      3.2017      3.1943      3.1943    
  3.2017      3.2159      3.2352      3.2580      3.2826      3.3072      3.3304      3.3508      3.3668      3.3775    
  3.3825      3.3825      3.3793      3.3752      3.3724      3.3724      3.3752      3.3793      3.3825      3.3825    
  3.3775      3.3668      3.3319      3.3304      3.3261      3.3190      3.3098      3.2997      3.2903      3.2837    
  3.2813      3.2837      3.2903      3.2997      3.3098      3.3190      3.3261      3.3304      3.3319      3.3304    
  3.3261      3.3190      3.3098      3.2997      3.2903      3.2837      3.2813      3.2837      3.2903      3.2997    
  3.3098      3.3190      3.3261      3.3304      3.3508      3.3668      3.3775      3.3825      3.3825      3.3793    
  3.3752      3.3724      3.3724      3.3752      3.3793      3.3825      3.3825      3.3775      3.3668      3.3508    
  3.3304      3.3072      3.2826      3.2580      3.2352      3.2159      3.2017      3.1943      3.1943      3.2017    
  3.2159      3.2352      3.2580      3.2826      3.3072      3.3304      3.4016      3.4283      3.4457      3.4542    
  3.4558      3.4534      3.4503      3.4490      3.4503      3.4534      3.4558      3.4542      3.4457      3.4283    
  3.4016      3.3668      3.3261      3.2826      3.2394      3.1997      3.1660      3.1405      3.1246      3.1192    
  3.1246      3.1405      3.1660      3.1997      3.2394      3.2826      3.3261      3.3668      3.4677      3.4936    
  3.5064      3.5084      3.5038      3.4973      3.4928      3.4928      3.4973      3.5038      3.5084      3.5064    
  3.4936      3.4677      3.4283      3.3775      3.3190      3.2580      3.1997      3.1486      3.1081      3.0803    
  3.0662      3.0662      3.0803      3.1081      3.1486      3.1997      3.2580      3.3190      3.3775      3.4283    
  3.5230      3.5339      3.5297      3.5155      3.4981      3.4845      3.4793      3.4845      3.4981      3.5155    
  3.5297      3.5339      3.5230      3.4936      3.4457      3.3825      3.3098      3.2352      3.1660      3.1081    
  3.0652      3.0391      3.0304      3.0391      3.0652      3.1081      3.1660      3.2352      3.3098      3.3825    
  3.4457      3.4936      3.5363      3.5166      3.4821      3.4431      3.4098      3.3908      3.3908      3.4098    
  3.4431      3.4821      3.5166      3.5363      3.5339      3.5064      3.4542      3.3825      3.2997      3.2159    
  3.1405      3.0803      3.0391      3.0183      3.0183      3.0391      3.0803      3.1405      3.2159      3.2997    
  3.3825      3.4542      3.5064      3.5339      3.4724      3.4069      3.3337      3.2677      3.2221      3.2059    
  3.2221      3.2677      3.3337      3.4069      3.4724      3.5166      3.5297      3.5084      3.4558      3.3793    
  3.2903      3.2017      3.1246      3.0662      3.0304      3.0183      3.0304      3.0662      3.1246      3.2017    
  3.2903      3.3793      3.4558      3.5084      3.5297      3.5166      3.3012      3.1826      3.0707      2.9839    
  2.9365      2.9365      2.9839      3.0707      3.1826      3.3012      3.4069      3.4821      3.5155      3.5038    
  3.4534      3.3752      3.2837      3.1943      3.1192      3.0662      3.0391      3.0391      3.0662      3.1192    
  3.1943      3.2837      3.3752      3.4534      3.5038      3.5155      3.4821      3.4069      3.0103      2.8410    
  2.6988      2.6043      2.5712      2.6043      2.6988      2.8410      3.0103      3.1826      3.3337      3.4431    
  3.4981      3.4973      3.4503      3.3724      3.2813      3.1943      3.1246      3.0803      3.0652      3.0803    
  3.1246      3.1943      3.2813      3.3724      3.4503      3.4973      3.4981      3.4431      3.3337      3.1826    
  2.6069      2.3980      2.2412      2.1572      2.1572      2.2412      2.3980      2.6069      2.8410      3.0707    
  3.2677      3.4098      3.4845      3.4928      3.4490      3.3724      3.2837      3.2017      3.1405      3.1081    
  3.1081      3.1405      3.2017      3.2837      3.3724      3.4490      3.4928      3.4845      3.4098      3.2677    
  3.0707      2.8410      2.1156      1.8849      1.7339      1.6813      1.7339      1.8849      2.1156      2.3980    
  2.6988      2.9839      3.2221      3.3908      3.4793      3.4928      3.4503      3.3752      3.2903      3.2159    
  3.1660      3.1486      3.1660      3.2159      3.2903      3.3752      3.4503      3.4928      3.4793      3.3908    
  3.2221      2.9839      2.6988      2.3980      1.5741      1.3441      1.2218      1.2218      1.3441      1.5741    
  1.8849      2.2412      2.6043      2.9365      3.2059      3.3908      3.4845      3.4973      3.4534      3.3793    
  3.2997      3.2352      3.1997      3.1997      3.2352      3.2997      3.3793      3.4534      3.4973      3.4845    
  3.3908      3.2059      2.9365      2.6043      2.2412      1.8849      1.0296     0.82536     0.75458     0.82536    
  1.0296      1.3441      1.7339      2.1572      2.5712      2.9365      3.2221      3.4098      3.4981      3.5038    
  3.4558      3.3825      3.3098      3.2580      3.2394      3.2580      3.3098      3.3825      3.4558      3.5038    
  3.4981      3.4098      3.2221      2.9365      2.5712      2.1572      1.7339      1.3441     0.53431     0.38037    
 0.38037     0.53432     0.82536      1.2218      1.6813      2.1572      2.6043      2.9839      3.2677      3.4431    
  3.5155      3.5084      3.4542      3.3825      3.3190      3.2826      3.2826      3.3190      3.3825      3.4542    
  3.5084      3.5155      3.4431      3.2677      2.9839      2.6043      2.1572      1.6813      1.2218     0.82536    
 0.13880     0.55355E-01 0.13879     0.38037     0.75458      1.2218      1.7339      2.2412      2.6988      3.0707    
  3.3337      3.4821      3.5297      3.5064      3.4457      3.3775      3.3261      3.3072      3.3261      3.3775    
  3.4457      3.5064      3.5297      3.4821      3.3337      3.0707      2.6988      2.2412      1.7339      1.2218    
 0.75458     0.38038     -.11587     -.11588     0.55355E-01 0.38037     0.82536      1.3441      1.8849      2.3980    
  2.8410      3.1826      3.4069      3.5166      3.5339      3.4936      3.4283      3.3668      3.3304      3.3304    
  3.3668      3.4283      3.4936      3.5339      3.5166      3.4069      3.1826      2.8410      2.3980      1.8849    
  1.3441     0.82536     0.38038     0.55374E-01 -.11587     0.55374E-01 0.38038     0.82536      1.3441      1.8849    
  2.3980      2.8410      3.1826      3.4069      3.5166      3.5339      3.4936      3.4283      3.3668      3.3304    
  3.3304      3.3668      3.4283      3.4936      3.5339      3.5166      3.4069      3.1826      2.8410      2.3980    
  1.8849      1.3441     0.82536     0.38037     0.55355E-01 -.11588     0.55374E-01 0.30246     0.68520      1.1631    
  1.6870      2.2064      2.6757      3.0583      3.3309      3.4870      3.5401      3.5202      3.4613      3.3938    
  3.3426      3.3237      3.3426      3.3938      3.4613      3.5202      3.5401      3.4870      3.3309      3.0583    
  2.6757      2.2064      1.6870      1.1631     0.68519     0.30244     0.55353E-01 -.29971E-01 0.38038     0.68520    
  1.1004      1.5817      2.0807      2.5507      2.9519      3.2554      3.4471      3.5319      3.5329      3.4833    
  3.4137      3.3508      3.3144      3.3144      3.3508      3.4137      3.4833      3.5329      3.5319      3.4471    
  3.2554      2.9519      2.5507      2.0807      1.5817      1.1004     0.68519     0.38037     0.21915     0.21915    
 0.82536      1.1631      1.5817      2.0369      2.4835      2.8804      3.1952      3.4080      3.5162      3.5355    
  3.4955      3.4262      3.3549      3.3032      3.2845      3.3032      3.3549      3.4262      3.4955      3.5355    
  3.5162      3.4080      3.1952      2.8804      2.4835      2.0369      1.5817      1.1631     0.82537     0.60601    
 0.52997     0.60600      1.3441      1.6870      2.0807      2.4835      2.8552      3.1619      3.3798      3.5003    
  3.5323      3.5002      3.4324      3.3552      3.2911      3.2553      3.2553      3.2911      3.3552      3.4324    
  3.5002      3.5323      3.5003      3.3798      3.1619      2.8552      2.4834      2.0807      1.6870      1.3441    
  1.0904     0.95545     0.95545      1.0904      1.8849      2.2064      2.5507      2.8804      3.1619      3.3696    
  3.4906      3.5281      3.5008      3.4343      3.3531      3.2792      3.2288      3.2111      3.2288      3.2792    
  3.3531      3.4343      3.5008      3.5281      3.4906      3.3696      3.1619      2.8804      2.5507      2.2064    
  1.8849      1.6228      1.4513      1.3916      1.4513      1.6228      2.3980      2.6757      2.9519      3.1952    
  3.3798      3.4906      3.5263      3.5002      3.4342      3.3501      3.2691      3.2071      3.1739      3.1739    
  3.2071      3.2691      3.3501      3.4342      3.5002      3.5263      3.4906      3.3798      3.1952      2.9519    
  2.6757      2.3980      2.1519      1.9678      1.8693      1.8693      1.9678      2.1519      2.8410      3.0583    
  3.2554      3.4080      3.5003      3.5281      3.5002      3.4339      3.3481      3.2623      3.1917      3.1461    
  3.1305      3.1461      3.1917      3.2623      3.3481      3.4339      3.5002      3.5281      3.5003      3.4080    
  3.2554      3.0583      2.8410      2.6312      2.4568      2.3415      2.3011      2.3415      2.4568      2.6312    
  3.1826      3.3309      3.4471      3.5162      3.5323      3.5008      3.4342      3.3481      3.2599      3.1836    
  3.1290      3.1008      3.1008      3.1290      3.1836      3.2599      3.3481      3.4342      3.5008      3.5323    
  3.5162      3.4471      3.3309      3.1826      3.0235      2.8770      2.7649      2.7042      2.7042      2.7649    
  2.8770      3.0235      3.4069      3.4870      3.5319      3.5355      3.5002      3.4343      3.3501      3.2623    
  3.1836      3.1233      3.0859      3.0733      3.0859      3.1233      3.1836      3.2623      3.3501      3.4343    
  3.5002      3.5355      3.5319      3.4870      3.4069      3.3047      3.1980      3.1050      3.0419      3.0196    
  3.0419      3.1050      3.1980      3.3047      3.5166      3.5401      3.5329      3.4955      3.4324      3.3531    
  3.2691      3.1917      3.1290      3.0859      3.0641      3.0641      3.0859      3.1290      3.1917      3.2691    
  3.3531      3.4324      3.4955      3.5329      3.5401      3.5166      3.4679      3.4046      3.3403      3.2883    
  3.2593      3.2593      3.2883      3.3403      3.4046      3.4679      3.5339      3.5202      3.4833      3.4262    
  3.3552      3.2792      3.2071      3.1461      3.1008      3.0733      3.0641      3.0733      3.1008      3.1461    
  3.2071      3.2792      3.3552      3.4262      3.4833      3.5202      3.5339      3.5260      3.5008      3.4664    
  3.4323      3.4076      3.3985      3.4076      3.4323      3.4664      3.5008      3.5260      3.4936      3.4613    
  3.4137      3.3549      3.2911      3.2288      3.1739      3.1305      3.1008      3.0859      3.0859      3.1008    
  3.1305      3.1739      3.2288      3.2911      3.3549      3.4137      3.4613      3.4936      3.5091      3.5092    
  3.4981      3.4813      3.4654      3.4559      3.4559      3.4654      3.4813      3.4981      3.5092      3.5091    
  3.4283      3.3938      3.3508      3.3032      3.2553      3.2111      3.1739      3.1461      3.1290      3.1233    
  3.1290      3.1461      3.1739      3.2111      3.2553      3.3032      3.3508      3.3938      3.4283      3.4519    
  3.4637      3.4652      3.4594      3.4507      3.4433      3.4405      3.4433      3.4507      3.4594      3.4652    
  3.4637      3.4519      3.3668      3.3426      3.3144      3.2845      3.2553      3.2288      3.2071      3.1917    
  3.1836      3.1836      3.1917      3.2071      3.2288      3.2553      3.2845      3.3144      3.3426      3.3668    
  3.3850      3.3959      3.3994      3.3968      3.3906      3.3840      3.3798      3.3798      3.3840      3.3906    
  3.3968      3.3994      3.3959      3.3850      3.3304      3.3237      3.3144      3.3032      3.2911      3.2792    
  3.2691      3.2623      3.2599      3.2623      3.2691      3.2792      3.2911      3.3032      3.3144      3.3237    
  3.3304      3.3339      3.3335      3.3291      3.3213      3.3114      3.3017      3.2947      3.2921      3.2947    
  3.3017      3.3114      3.3213      3.3291      3.3335      3.3339      3.3304      3.3426      3.3508      3.3549    
  3.3552      3.3531      3.3501      3.3481      3.3481      3.3501      3.3531      3.3552      3.3549      3.3508    
  3.3426      3.3304      3.3150      3.2971      3.2774      3.2569      3.2369      3.2193      3.2060      3.1988    
  3.1988      3.2060      3.2193      3.2370      3.2569      3.2774      3.2971      3.3150      3.3668      3.3938    
  3.4137      3.4262      3.4324      3.4343      3.4342      3.4339      3.4342      3.4343      3.4324      3.4262    
  3.4137      3.3938      3.3668      3.3339      3.2971      3.2585      3.2205      3.1852      3.1548      3.1313    
  3.1163      3.1112      3.1163      3.1313      3.1548      3.1852      3.2205      3.2585      3.2971      3.3339    
  3.4283      3.4613      3.4833      3.4955      3.5002      3.5008      3.5002      3.5002      3.5008      3.5002    
  3.4955      3.4833      3.4613      3.4283      3.3850      3.3335      3.2774      3.2205      3.1668      3.1198    
  3.0823      3.0563      3.0430      3.0430      3.0563      3.0823      3.1198      3.1668      3.2205      3.2774    
  3.3335      3.3850      3.4936      3.5202      3.5329      3.5355      3.5323      3.5281      3.5263      3.5281    
  3.5323      3.5355      3.5329      3.5202      3.4936      3.4519      3.3959      3.3291      3.2569      3.1852    
  3.1198      3.0654      3.0250      3.0003      2.9920      3.0003      3.0250      3.0654      3.1198      3.1852    
  3.2569      3.3291      3.3959      3.4519      3.5339      3.5401      3.5319      3.5162      3.5003      3.4906    
  3.4906      3.5003      3.5162      3.5319      3.5401      3.5339      3.5091      3.4637      3.3994      3.3213    
  3.2369      3.1548      3.0823      3.0250      2.9859      2.9662      2.9662      2.9859      3.0250      3.0823    
  3.1548      3.2370      3.3213      3.3994      3.4637      3.5091      3.5166      3.4870      3.4471      3.4080    
  3.3798      3.3696      3.3798      3.4080      3.4471      3.4870      3.5166      3.5260      3.5092      3.4652    
  3.3968      3.3114      3.2193      3.1313      3.0563      3.0003      2.9662      2.9547      2.9662      3.0003    
  3.0563      3.1313      3.2193      3.3114      3.3968      3.4652      3.5092      3.5260      3.4069      3.3309    
  3.2554      3.1952      3.1619      3.1619      3.1952      3.2554      3.3309      3.4069      3.4679      3.5008    
  3.4981      3.4594      3.3906      3.3017      3.2060      3.1163      3.0430      2.9920      2.9662      2.9662    
  2.9920      3.0430      3.1163      3.2060      3.3017      3.3906      3.4594      3.4981      3.5008      3.4679    
  3.1826      3.0583      2.9519      2.8804      2.8552      2.8804      2.9519      3.0583      3.1826      3.3047    
  3.4046      3.4664      3.4813      3.4507      3.3840      3.2947      3.1988      3.1112      3.0430      3.0003    
  2.9859      3.0003      3.0430      3.1112      3.1988      3.2947      3.3840      3.4507      3.4813      3.4664    
  3.4046      3.3047      2.8410      2.6757      2.5507      2.4835      2.4834      2.5507      2.6757      2.8410    
  3.0235      3.1980      3.3403      3.4323      3.4654      3.4433      3.3798      3.2921      3.1988      3.1163    
  3.0563      3.0250      3.0250      3.0563      3.1163      3.1988      3.2921      3.3798      3.4433      3.4654    
  3.4323      3.3403      3.1980      3.0235      2.3980      2.2064      2.0807      2.0369      2.0807      2.2064    
  2.3980      2.6312      2.8770      3.1050      3.2883      3.4076      3.4559      3.4405      3.3798      3.2947    
  3.2060      3.1313      3.0823      3.0654      3.0823      3.1313      3.2060      3.2947      3.3798      3.4405    
  3.4559      3.4076      3.2883      3.1050      2.8770      2.6312      1.8849      1.6870      1.5817      1.5817    
  1.6870      1.8849      2.1519      2.4568      2.7649      3.0419      3.2593      3.3985      3.4559      3.4433    
  3.3840      3.3017      3.2193      3.1548      3.1198      3.1198      3.1548      3.2193      3.3017      3.3840    
  3.4433      3.4559      3.3985      3.2593      3.0419      2.7649      2.4568      2.1519      1.3441      1.1631    
  1.1004      1.1631      1.3441      1.6228      1.9678      2.3415      2.7042      3.0196      3.2593      3.4076    
  3.4654      3.4507      3.3906      3.3114      3.2370      3.1852      3.1668      3.1852      3.2370      3.3114    
  3.3906      3.4507      3.4654      3.4076      3.2593      3.0196      2.7042      2.3415      1.9678      1.6228    
 0.82536     0.68519     0.68519     0.82537      1.0904      1.4513      1.8693      2.3011      2.7042      3.0419    
  3.2883      3.4323      3.4813      3.4594      3.3968      3.3213      3.2569      3.2205      3.2205      3.2569    
  3.3213      3.3968      3.4594      3.4813      3.4323      3.2883      3.0419      2.7042      2.3011      1.8693    
  1.4513      1.0904     0.38037     0.30244     0.38037     0.60601     0.95545      1.3916      1.8693      2.3415    
  2.7649      3.1050      3.3403      3.4664      3.4981      3.4652      3.3994      3.3291      3.2774      3.2585    
  3.2774      3.3291      3.3994      3.4652      3.4981      3.4664      3.3403      3.1050      2.7649      2.3415    
  1.8693      1.3916     0.95545     0.60600     0.55355E-01 0.55353E-01 0.21915     0.52997     0.95545      1.4513    
  1.9678      2.4568      2.8770      3.1980      3.4046      3.5008      3.5092      3.4637      3.3959      3.3335    
  3.2971      3.2971      3.3335      3.3959      3.4637      3.5092      3.5008      3.4046      3.1980      2.8770    
  2.4568      1.9678      1.4513     0.95545     0.52997     0.21915     -.11588     -.29971E-01 0.21915     0.60600    
  1.0904      1.6228      2.1519      2.6312      3.0235      3.3047      3.4679      3.5260      3.5091      3.4519    
  3.3850      3.3339      3.3150      3.3339      3.3850      3.4519      3.5091      3.5260      3.4679      3.3047    
  3.0235      2.6312      2.1519      1.6228      1.0904     0.60600     0.21915     -.29971E-01 0.13880     0.38038    
 0.75458      1.2218      1.7339      2.2412      2.6988      3.0707      3.3337      3.4821      3.5297      3.5064    
  3.4457      3.3775      3.3261      3.3072      3.3261      3.3775      3.4457      3.5064      3.5297      3.4821    
  3.3337      3.0707      2.6988      2.2412      1.7339      1.2218     0.75458     0.38037     0.13879     0.55355E-01
 0.38038     0.68520      1.1004      1.5817      2.0807      2.5507      2.9519      3.2554      3.4471      3.5319    
  3.5329      3.4833      3.4137      3.3508      3.3144      3.3144      3.3508      3.4137      3.4833      3.5329    
  3.5319      3.4471      3.2554      2.9519      2.5507      2.0807      1.5817      1.1004     0.68519     0.38037    
 0.21915     0.21915     0.75458      1.1004      1.5290      1.9951      2.4528      2.8606      3.1854      3.4069    
  3.5219      3.5460      3.5087      3.4409      3.3702      3.3185      3.2998      3.3185      3.3702      3.4409    
  3.5087      3.5460      3.5219      3.4069      3.1854      2.8606      2.4528      1.9951      1.5290      1.1004    
 0.75459     0.52997     0.45212     0.52997      1.2218      1.5817      1.9951      2.4187      2.8111      3.1373    
  3.3725      3.5072      3.5495      3.5237      3.4594      3.3836      3.3197      3.2838      3.2838      3.3197    
  3.3836      3.4594      3.5237      3.5495      3.5072      3.3725      3.1373      2.8111      2.4187      1.9951    
  1.5817      1.2218     0.95546     0.81378     0.81377     0.95545      1.7339      2.0807      2.4528      2.8111    
  3.1202      3.3529      3.4949      3.5482      3.5310      3.4703      3.3917      3.3184      3.2677      3.2497    
  3.2677      3.3184      3.3917      3.4703      3.5310      3.5482      3.4949      3.3529      3.1202      2.8111    
  2.4528      2.0807      1.7339      1.4513      1.2664      1.2021      1.2664      1.4513      2.2412      2.5507    
  2.8606      3.1373      3.3529      3.4902      3.5463      3.5338      3.4758      3.3956      3.3156      3.2531    
  3.2194      3.2194      3.2531      3.3156      3.3956      3.4758      3.5338      3.5463      3.4902      3.3529    
  3.1373      2.8606      2.5507      2.2412      1.9678      1.7636      1.6543      1.6543      1.7636      1.9678    
  2.6988      2.9519      3.1854      3.3725      3.4949      3.5463      3.5345      3.4779      3.3971      3.3126    
  3.2415      3.1950      3.1789      3.1950      3.2415      3.3126      3.3971      3.4779      3.5345      3.5463    
  3.4949      3.3725      3.1854      2.9519      2.6988      2.4568      2.2566      2.1243      2.0781      2.1243    
  2.2566      2.4568      3.0707      3.2554      3.4069      3.5072      3.5482      3.5338      3.4779      3.3974    
  3.3107      3.2339      3.1780      3.1489      3.1489      3.1780      3.2339      3.3107      3.3974      3.4779    
  3.5338      3.5482      3.5072      3.4069      3.2554      3.0707      2.8770      2.7008      2.5669      2.4947    
  2.4947      2.5669      2.7008      2.8770      3.3337      3.4471      3.5219      3.5495      3.5310      3.4758    
  3.3971      3.3107      3.2313      3.1693      3.1306      3.1176      3.1306      3.1693      3.2313      3.3107    
  3.3971      3.4758      3.5310      3.5495      3.5219      3.4471      3.3337      3.1980      3.0606      2.9430    
  2.8639      2.8360      2.8639      2.9430      3.0606      3.1980      3.4821      3.5319      3.5460      3.5237    
  3.4703      3.3956      3.3126      3.2339      3.1693      3.1245      3.1019      3.1019      3.1245      3.1693    
  3.2339      3.3126      3.3956      3.4703      3.5237      3.5460      3.5319      3.4821      3.4046      3.3131    
  3.2241      3.1539      3.1152      3.1152      3.1539      3.2241      3.3131      3.4046      3.5297      3.5329    
  3.5087      3.4594      3.3917      3.3156      3.2415      3.1780      3.1306      3.1019      3.0923      3.1019    
  3.1306      3.1780      3.2415      3.3156      3.3917      3.4594      3.5087      3.5329      3.5297      3.5008    
  3.4531      3.3972      3.3455      3.3092      3.2961      3.3092      3.3455      3.3972      3.4531      3.5008    
  3.5064      3.4833      3.4409      3.3836      3.3184      3.2531      3.1950      3.1489      3.1176      3.1019    
  3.1019      3.1176      3.1489      3.1950      3.2531      3.3184      3.3836      3.4409      3.4833      3.5064    
  3.5092      3.4945      3.4679      3.4369      3.4102      3.3948      3.3948      3.4102      3.4369      3.4679    
  3.4945      3.5092      3.4457      3.4137      3.3702      3.3197      3.2677      3.2194      3.1789      3.1489    
  3.1306      3.1245      3.1306      3.1489      3.1789      3.2194      3.2677      3.3197      3.3702      3.4137    