   1   1   0   0
  0.1660753E+02  0.2863783E-09  0.2863783E-09  0.2863783E-09  0.5000000E-15
  1.000000000000000E-004
  CAR 
 fcc Al                                  
     24.96492733     -5.16473689  301      7.91855705      1.00000000
     -5.165  0.0000E+00  0.0000E+00
     -5.064  0.0000E+00  0.0000E+00
     -4.964  0.0000E+00  0.0000E+00
     -4.863  0.0000E+00  0.0000E+00
     -4.763  0.0000E+00  0.0000E+00
     -4.663  0.0000E+00  0.0000E+00
     -4.562  0.0000E+00  0.0000E+00
     -4.462  0.0000E+00  0.0000E+00
     -4.361  0.0000E+00  0.0000E+00
     -4.261  0.0000E+00  0.0000E+00
     -4.160  0.0000E+00  0.0000E+00
     -4.060  0.0000E+00  0.0000E+00
     -3.960  0.0000E+00  0.0000E+00
     -3.859  0.0000E+00  0.0000E+00
     -3.759  0.0000E+00  0.0000E+00
     -3.658  0.0000E+00  0.0000E+00
     -3.558  0.0000E+00  0.0000E+00
     -3.457  0.0000E+00  0.0000E+00
     -3.357  0.0000E+00  0.0000E+00
     -3.257  0.0000E+00  0.0000E+00
     -3.156  0.1171E-01  0.1488E-03
     -3.056  0.3901E-01  0.2988E-02
     -2.955  0.5320E-01  0.7718E-02
     -2.855  0.6519E-01  0.1375E-01
     -2.754  0.7506E-01  0.2078E-01
     -2.654  0.8355E-01  0.2880E-01
     -2.553  0.9143E-01  0.3758E-01
     -2.453  0.9906E-01  0.4719E-01
     -2.353  0.1053E+00  0.5744E-01
     -2.252  0.1124E+00  0.6837E-01
     -2.152  0.1181E+00  0.7996E-01
     -2.051  0.1236E+00  0.9210E-01
     -1.951  0.1297E+00  0.1048E+00
     -1.850  0.1349E+00  0.1181E+00
     -1.750  0.1397E+00  0.1319E+00
     -1.650  0.1449E+00  0.1462E+00
     -1.549  0.1503E+00  0.1610E+00
     -1.449  0.1545E+00  0.1763E+00
     -1.348  0.1589E+00  0.1921E+00
     -1.248  0.1636E+00  0.2083E+00
     -1.147  0.1684E+00  0.2249E+00
     -1.047  0.1722E+00  0.2420E+00
     -0.947  0.1762E+00  0.2595E+00
     -0.846  0.1804E+00  0.2774E+00
     -0.746  0.1848E+00  0.2958E+00
     -0.645  0.1886E+00  0.3145E+00
     -0.545  0.1923E+00  0.3337E+00
     -0.444  0.1960E+00  0.3532E+00
     -0.344  0.2000E+00  0.3731E+00
     -0.244  0.2040E+00  0.3933E+00
     -0.143  0.2074E+00  0.4140E+00
     -0.043  0.2108E+00  0.4350E+00
      0.058  0.2143E+00  0.4564E+00
      0.158  0.2180E+00  0.4781E+00
      0.259  0.2217E+00  0.5001E+00
      0.359  0.2251E+00  0.5226E+00
      0.459  0.2282E+00  0.5453E+00
      0.560  0.2315E+00  0.5684E+00
      0.660  0.2349E+00  0.5919E+00
      0.761  0.2383E+00  0.6156E+00
      0.861  0.2418E+00  0.6397E+00
      0.962  0.2449E+00  0.6642E+00
      1.062  0.2479E+00  0.6889E+00
      1.162  0.2510E+00  0.7140E+00
      1.263  0.2542E+00  0.7393E+00
      1.363  0.2574E+00  0.7650E+00
      1.464  0.2608E+00  0.7910E+00
      1.564  0.2637E+00  0.8174E+00
      1.665  0.2666E+00  0.8440E+00
      1.765  0.2696E+00  0.8710E+00
      1.866  0.2727E+00  0.8982E+00
      1.966  0.2758E+00  0.9257E+00
      2.066  0.2789E+00  0.9536E+00
      2.167  0.2820E+00  0.9817E+00
      2.267  0.2848E+00  0.1010E+01
      2.368  0.2877E+00  0.1039E+01
      2.468  0.2907E+00  0.1068E+01
      2.569  0.2938E+00  0.1097E+01
      2.669  0.2971E+00  0.1127E+01
      2.769  0.3008E+00  0.1157E+01
      2.870  0.3051E+00  0.1187E+01
      2.970  0.3110E+00  0.1218E+01
      3.071  0.3183E+00  0.1250E+01
      3.171  0.3267E+00  0.1282E+01
      3.272  0.3323E+00  0.1316E+01
      3.372  0.3251E+00  0.1349E+01
      3.472  0.3161E+00  0.1381E+01
      3.573  0.3120E+00  0.1412E+01
      3.673  0.3036E+00  0.1443E+01
      3.774  0.3179E+00  0.1475E+01
      3.874  0.3221E+00  0.1507E+01
      3.975  0.3296E+00  0.1540E+01
      4.075  0.3352E+00  0.1573E+01
      4.175  0.3424E+00  0.1607E+01
      4.276  0.3414E+00  0.1642E+01
      4.376  0.3464E+00  0.1676E+01
      4.477  0.3572E+00  0.1711E+01
      4.577  0.3571E+00  0.1747E+01
      4.678  0.3628E+00  0.1783E+01
      4.778  0.3639E+00  0.1820E+01
      4.878  0.3928E+00  0.1857E+01
      4.979  0.3943E+00  0.1897E+01
      5.079  0.3912E+00  0.1937E+01
      5.180  0.3863E+00  0.1976E+01
      5.280  0.3799E+00  0.2014E+01
      5.381  0.3765E+00  0.2052E+01
      5.481  0.3771E+00  0.2090E+01
      5.582  0.3713E+00  0.2128E+01
      5.682  0.3629E+00  0.2165E+01
      5.782  0.3565E+00  0.2201E+01
      5.883  0.3548E+00  0.2237E+01
      5.983  0.3475E+00  0.2272E+01
      6.084  0.3367E+00  0.2306E+01
      6.184  0.3358E+00  0.2340E+01
      6.285  0.3391E+00  0.2374E+01
      6.385  0.3466E+00  0.2408E+01
      6.485  0.3752E+00  0.2444E+01
      6.586  0.3750E+00  0.2481E+01
      6.686  0.3829E+00  0.2519E+01
      6.787  0.3774E+00  0.2558E+01
      6.887  0.3928E+00  0.2597E+01
      6.988  0.3998E+00  0.2636E+01
      7.088  0.4291E+00  0.2677E+01
      7.188  0.4156E+00  0.2720E+01
      7.289  0.3893E+00  0.2760E+01
      7.389  0.3842E+00  0.2799E+01
      7.490  0.3684E+00  0.2836E+01
      7.590  0.3810E+00  0.2874E+01
      7.691  0.3773E+00  0.2912E+01
      7.791  0.3811E+00  0.2951E+01
      7.891  0.3913E+00  0.2989E+01
      7.992  0.4077E+00  0.3029E+01
      8.092  0.4283E+00  0.3071E+01
      8.193  0.4211E+00  0.3114E+01
      8.293  0.4251E+00  0.3157E+01
      8.394  0.4236E+00  0.3199E+01
      8.494  0.4251E+00  0.3242E+01
      8.594  0.4242E+00  0.3285E+01
      8.695  0.4240E+00  0.3327E+01
      8.795  0.4274E+00  0.3370E+01
      8.896  0.4245E+00  0.3413E+01
      8.996  0.4209E+00  0.3455E+01
      9.097  0.4193E+00  0.3498E+01
      9.197  0.4286E+00  0.3541E+01
      9.298  0.4328E+00  0.3584E+01
      9.398  0.4366E+00  0.3628E+01
      9.498  0.4396E+00  0.3672E+01
      9.599  0.4463E+00  0.3716E+01
      9.699  0.4424E+00  0.3761E+01
      9.800  0.4436E+00  0.3805E+01
      9.900  0.4484E+00  0.3850E+01
     10.001  0.4506E+00  0.3895E+01
     10.101  0.4509E+00  0.3940E+01
     10.201  0.4545E+00  0.3986E+01
     10.302  0.4591E+00  0.4032E+01
     10.402  0.4657E+00  0.4078E+01
     10.503  0.4612E+00  0.4125E+01
     10.603  0.4644E+00  0.4171E+01
     10.704  0.4664E+00  0.4218E+01
     10.804  0.4675E+00  0.4265E+01
     10.904  0.4693E+00  0.4312E+01
     11.005  0.4723E+00  0.4359E+01
     11.105  0.4782E+00  0.4407E+01
     11.206  0.4830E+00  0.4455E+01
     11.306  0.4866E+00  0.4504E+01
     11.407  0.4839E+00  0.4553E+01
     11.507  0.4856E+00  0.4601E+01
     11.607  0.4876E+00  0.4650E+01
     11.708  0.4898E+00  0.4699E+01
     11.808  0.4928E+00  0.4749E+01
     11.909  0.4966E+00  0.4798E+01
     12.009  0.5012E+00  0.4849E+01
     12.110  0.5079E+00  0.4899E+01
     12.210  0.5097E+00  0.4950E+01
     12.310  0.5103E+00  0.5001E+01
     12.411  0.5131E+00  0.5053E+01
     12.511  0.5163E+00  0.5105E+01
     12.612  0.5199E+00  0.5157E+01
     12.712  0.5298E+00  0.5209E+01
     12.813  0.5276E+00  0.5262E+01
     12.913  0.5329E+00  0.5316E+01
     13.013  0.5386E+00  0.5369E+01
     13.114  0.5465E+00  0.5424E+01
     13.214  0.5637E+00  0.5479E+01
     13.315  0.5904E+00  0.5537E+01
     13.415  0.6038E+00  0.5597E+01
     13.516  0.6081E+00  0.5659E+01
     13.616  0.5959E+00  0.5719E+01
     13.717  0.5828E+00  0.5778E+01
     13.817  0.5805E+00  0.5837E+01
     13.917  0.5748E+00  0.5895E+01
     14.018  0.5650E+00  0.5953E+01
     14.118  0.5654E+00  0.6009E+01
     14.219  0.5603E+00  0.6066E+01
     14.319  0.5524E+00  0.6122E+01
     14.420  0.5474E+00  0.6177E+01
     14.520  0.5447E+00  0.6232E+01
     14.620  0.5541E+00  0.6287E+01
     14.721  0.5383E+00  0.6342E+01
     14.821  0.5292E+00  0.6396E+01
     14.922  0.5244E+00  0.6449E+01
     15.022  0.5222E+00  0.6501E+01
     15.123  0.5313E+00  0.6554E+01
     15.223  0.5309E+00  0.6608E+01
     15.323  0.5285E+00  0.6661E+01
     15.424  0.5272E+00  0.6714E+01
     15.524  0.5318E+00  0.6767E+01
     15.625  0.5642E+00  0.6821E+01
     15.725  0.5341E+00  0.6875E+01
     15.826  0.5295E+00  0.6929E+01
     15.926  0.5325E+00  0.6982E+01
     16.026  0.5296E+00  0.7035E+01
     16.127  0.5283E+00  0.7089E+01
     16.227  0.5271E+00  0.7142E+01
     16.328  0.5327E+00  0.7195E+01
     16.428  0.5354E+00  0.7249E+01
     16.529  0.5293E+00  0.7302E+01
     16.629  0.5289E+00  0.7355E+01
     16.729  0.5281E+00  0.7408E+01
     16.830  0.5275E+00  0.7461E+01
     16.930  0.5340E+00  0.7515E+01
     17.031  0.5372E+00  0.7569E+01
     17.131  0.5288E+00  0.7622E+01
     17.232  0.5258E+00  0.7675E+01
     17.332  0.5230E+00  0.7728E+01
     17.433  0.5207E+00  0.7780E+01
     17.533  0.5237E+00  0.7833E+01
     17.633  0.5203E+00  0.7885E+01
     17.734  0.5183E+00  0.7938E+01
     17.834  0.5236E+00  0.7990E+01
     17.935  0.5207E+00  0.8042E+01
     18.035  0.5220E+00  0.8095E+01
     18.136  0.5284E+00  0.8147E+01
     18.236  0.5175E+00  0.8200E+01
     18.336  0.5158E+00  0.8251E+01
     18.437  0.5103E+00  0.8303E+01
     18.537  0.5073E+00  0.8354E+01
     18.638  0.5107E+00  0.8405E+01
     18.738  0.5212E+00  0.8457E+01
     18.839  0.5415E+00  0.8510E+01
     18.939  0.5579E+00  0.8565E+01
     19.039  0.5853E+00  0.8622E+01
     19.140  0.5926E+00  0.8682E+01
     19.240  0.5834E+00  0.8741E+01
     19.341  0.5706E+00  0.8799E+01
     19.441  0.5792E+00  0.8857E+01
     19.542  0.5844E+00  0.8915E+01
     19.642  0.6028E+00  0.8974E+01
     19.742  0.6252E+00  0.9037E+01
     19.843  0.5717E+00  0.9096E+01
     19.943  0.5635E+00  0.9153E+01
     20.044  0.5692E+00  0.9210E+01
     20.144  0.5504E+00  0.9266E+01
     20.245  0.5260E+00  0.9320E+01
     20.345  0.5160E+00  0.9373E+01
     20.445  0.4862E+00  0.9423E+01
     20.546  0.4699E+00  0.9470E+01
     20.646  0.4484E+00  0.9517E+01
     20.747  0.4169E+00  0.9560E+01
     20.847  0.3953E+00  0.9601E+01
     20.948  0.3732E+00  0.9639E+01
     21.048  0.3454E+00  0.9675E+01
     21.149  0.3305E+00  0.9709E+01
     21.249  0.3188E+00  0.9742E+01
     21.349  0.3133E+00  0.9774E+01
     21.450  0.2857E+00  0.9804E+01
     21.550  0.2566E+00  0.9831E+01
     21.651  0.2294E+00  0.9855E+01
     21.751  0.2096E+00  0.9878E+01
     21.852  0.1873E+00  0.9898E+01
     21.952  0.1797E+00  0.9916E+01
     22.052  0.1540E+00  0.9933E+01
     22.153  0.1372E+00  0.9948E+01
     22.253  0.9327E-01  0.9959E+01
     22.354  0.7852E-01  0.9968E+01
     22.454  0.8310E-01  0.9976E+01
     22.555  0.8654E-01  0.9984E+01
     22.655  0.6835E-01  0.9993E+01
     22.755  0.1988E-01  0.9997E+01
     22.856  0.1304E-01  0.9998E+01
     22.956  0.1318E-01  0.1000E+02
     23.057  0.0000E+00  0.1000E+02
     23.157  0.0000E+00  0.1000E+02
     23.258  0.0000E+00  0.1000E+02
     23.358  0.0000E+00  0.1000E+02
     23.458  0.0000E+00  0.1000E+02
     23.559  0.0000E+00  0.1000E+02
     23.659  0.0000E+00  0.1000E+02
     23.760  0.0000E+00  0.1000E+02
     23.860  0.0000E+00  0.1000E+02
     23.961  0.0000E+00  0.1000E+02
     24.061  0.0000E+00  0.1000E+02
     24.161  0.0000E+00  0.1000E+02
     24.262  0.0000E+00  0.1000E+02
     24.362  0.0000E+00  0.1000E+02
     24.463  0.0000E+00  0.1000E+02
     24.563  0.0000E+00  0.1000E+02
     24.664  0.0000E+00  0.1000E+02
     24.764  0.0000E+00  0.1000E+02
     24.864  0.0000E+00  0.1000E+02
     24.965  0.0000E+00  0.1000E+02
