    1    1    1    1
  0.1660753E+02  0.2863782E-09  0.2863782E-09  0.2863782E-09  0.5000000E-15
  1.000000000000000E-004
  CAR 
 fcc Al                                  
      3    770      5
 
  0.2500000E-01  0.2500000E-01  0.2500000E-01  0.2500000E-03
    1       -3.164737   1.000000
    2       20.015384   0.000000
    3       20.382234   0.000000
    4       20.382234   0.000000
    5       21.980368   0.000000
 
  0.7500000E-01  0.2500000E-01  0.2500000E-01  0.7500000E-03
    1       -3.074586   1.000000
    2       18.809710   0.000000
    3       19.552988   0.000000
    4       20.468479   0.000000
    5       22.037376   0.000000
 
  0.1250000E+00  0.2500000E-01  0.2500000E-01  0.7500000E-03
    1       -2.849484   1.000000
    2       16.842394   0.000000
    3       19.031754   0.000000
    4       20.122815   0.000000
    5       22.690593   0.000000
 
  0.1750000E+00  0.2500000E-01  0.2500000E-01  0.7500000E-03
    1       -2.490039   1.000000
    2       14.841977   0.000000
    3       18.602859   0.000000
    4       19.741511   0.000000
    5       22.572810   0.000000
 
  0.2250000E+00  0.2500000E-01  0.2500000E-01  0.7500000E-03
    1       -1.997293   1.000000
    2       12.893249   0.000000
    3       18.277069   0.000000
    4       19.434921   0.000000
    5       22.427306   0.000000
 
  0.2750000E+00  0.2500000E-01  0.2500000E-01  0.7500000E-03
    1       -1.372615   1.000000
    2       11.024920   0.000000
    3       18.060381   0.000000
    4       19.227753   0.000000
    5       21.927339   0.000000
 
  0.3250000E+00  0.2500000E-01  0.2500000E-01  0.7500000E-03
    1       -0.617668   1.000000
    2        9.251066  -0.006428
    3       17.955642   0.000000
    4       19.127674   0.000000
    5       21.075051   0.000000
 
  0.3750000E+00  0.2500000E-01  0.2500000E-01  0.7500000E-03
    1        0.265535   1.000000
    2        7.580140   0.887805
    3       17.964329   0.000000
    4       19.136992   0.000000
    5       20.318101   0.000000
 
  0.4250000E+00  0.2500000E-01  0.2500000E-01  0.7500000E-03
    1        1.274633   1.000000
    2        6.017953   1.000000
    3       18.087223   0.000000
    4       19.249538   0.000000
    5       19.677148   0.000000
 
  0.4750000E+00  0.2500000E-01  0.2500000E-01  0.7500000E-03
    1        2.406245   1.000000
    2        4.569746   1.000000
    3       18.324593   0.000000
    4       19.100629   0.000000
    5       19.522371   0.000000
 
 -0.4750000E+00  0.2500000E-01  0.2500000E-01  0.7500000E-03
    1        3.216623   1.000000
    2        3.680169   1.000000
    3       18.675699   0.000000
    4       18.685206   0.000000
    5       19.548275   0.000000
 
 -0.4250000E+00  0.2500000E-01  0.2500000E-01  0.7500000E-03
    1        2.015793   1.000000
    2        5.039397   1.000000
    3       18.374790   0.000000
    4       19.117651   0.000000
    5       19.257912   0.000000
 
 -0.3750000E+00  0.2500000E-01  0.2500000E-01  0.7500000E-03
    1        0.924443   1.000000
    2        6.526321   1.002765
    3       18.177339   0.000000
    4       19.022322   0.000000
    5       19.732055   0.000000
 
 -0.3250000E+00  0.2500000E-01  0.2500000E-01  0.7500000E-03
    1       -0.042990   1.000000
    2        8.125359   0.224503
    3       18.093493   0.000000
    4       18.936455   0.000000
    5       20.420659   0.000000
 
 -0.2750000E+00  0.2500000E-01  0.2500000E-01  0.7500000E-03
    1       -0.883665   1.000000
    2        9.831380   0.000000
    3       18.122977   0.000000
    4       18.961386   0.000000
    5       21.213906   0.000000
 
 -0.2250000E+00  0.2500000E-01  0.2500000E-01  0.7500000E-03
    1       -1.595405   1.000000
    2       11.637982   0.000000
    3       18.264995   0.000000
    4       19.095980   0.000000
    5       22.079533   0.000000
 
 -0.1750000E+00  0.2500000E-01  0.2500000E-01  0.7500000E-03
    1       -2.176281   1.000000
    2       13.535447   0.000000
    3       18.518023   0.000000
    4       19.335206   0.000000
    5       22.506853   0.000000
 
 -0.1250000E+00  0.2500000E-01  0.2500000E-01  0.7500000E-03
    1       -2.624716   1.000000
    2       15.506740   0.000000
    3       18.878858   0.000000
    4       19.665808   0.000000
    5       22.657238   0.000000
 
 -0.7500000E-01  0.2500000E-01  0.2500000E-01  0.7500000E-03
    1       -2.939485   1.000000
    2       17.515003   0.000000
    3       19.339672   0.000000
    4       20.044322   0.000000
    5       22.372323   0.000000
 
 -0.2500000E-01  0.2500000E-01  0.2500000E-01  0.7500000E-03
    1       -3.119657   1.000000
    2       19.439591   0.000000
    3       19.876131   0.000000
    4       20.290895   0.000000
    5       21.848260   0.000000
 
  0.7500000E-01  0.7500000E-01  0.2500000E-01  0.7500000E-03
    1       -3.029529   1.000000
    2       18.804715   0.000000
    3       19.258934   0.000000
    4       19.863746   0.000000
    5       21.637272   0.000000
 
  0.1250000E+00  0.7500000E-01  0.2500000E-01  0.1500000E-02
    1       -2.849483   1.000000
    2       17.493360   0.000000
    3       18.391936   0.000000
    4       19.896916   0.000000
    5       21.665645   0.000000
 
  0.1750000E+00  0.7500000E-01  0.2500000E-01  0.1500000E-02
    1       -2.534910   1.000000
    2       15.549838   0.000000
    3       17.891687   0.000000
    4       19.750230   0.000000
    5       22.186030   0.000000
 
  0.2250000E+00  0.7500000E-01  0.2500000E-01  0.1500000E-02
    1       -2.086752   1.000000
    2       13.598694   0.000000
    3       17.516517   0.000000
    4       19.495336   0.000000
    5       21.867697   0.000000
 
  0.2750000E+00  0.7500000E-01  0.2500000E-01  0.1500000E-02
    1       -1.506240   1.000000
    2       11.710582   0.000000
    3       17.255292   0.000000
    4       19.285078   0.000000
    5       20.916594   0.000000
 
  0.3250000E+00  0.7500000E-01  0.2500000E-01  0.1500000E-02
    1       -0.794948   1.000000
    2        9.909133   0.000000
    3       17.108333   0.000000
    4       19.164204   0.000000
    5       20.007685   0.000000
 
  0.3750000E+00  0.7500000E-01  0.2500000E-01  0.1500000E-02
    1        0.045185   1.000000
    2        8.206281   0.141717
    3       17.076324   0.000000
    4       19.136683   0.000000
    5       19.207558   0.000000
 
  0.4250000E+00  0.7500000E-01  0.2500000E-01  0.1500000E-02
    1        1.011959   1.000000
    2        6.609376   1.005303
    3       17.159643   0.000000
    4       18.490554   0.000000
    5       19.246191   0.000000
 
  0.4750000E+00  0.7500000E-01  0.2500000E-01  0.1500000E-02
    1        2.102498   1.000000
    2        5.124044   1.000000
    3       17.357579   0.000000
    4       17.902588   0.000000
    5       19.454609   0.000000
 
 -0.4750000E+00  0.7500000E-01  0.2500000E-01  0.1500000E-02
    1        3.301660   1.000000
    2        3.766736   1.000000
    3       17.419631   0.000000
    4       17.681531   0.000000
    5       19.775335   0.000000
 
 -0.4250000E+00  0.7500000E-01  0.2500000E-01  0.1500000E-02
    1        2.492656   1.000000
    2        4.654722   1.000000
    3       17.066330   0.000000
    4       18.107714   0.000000
    5       20.122920   0.000000
 
 -0.3750000E+00  0.7500000E-01  0.2500000E-01  0.1500000E-02
    1        1.361929   1.000000
    2        6.101324   1.000000
    3       16.826520   0.000000
    4       18.650967   0.000000
    5       19.942045   0.000000
 
 -0.3250000E+00  0.7500000E-01  0.2500000E-01  0.1500000E-02
    1        0.353519   1.000000
    2        7.661357   0.809568
    3       16.703826   0.000000
    4       19.297753   0.000000
    5       19.830603   0.000000
 
 -0.2750000E+00  0.7500000E-01  0.2500000E-01  0.1500000E-02
    1       -0.529119   1.000000
    2        9.329043  -0.003891
    3       16.698502   0.000000
    4       19.756600   0.000000
    5       20.125317   0.000000
 
 -0.2250000E+00  0.7500000E-01  0.2500000E-01  0.1500000E-02
    1       -1.283589   1.000000
    2       11.097465   0.000000
    3       16.810538   0.000000
    4       19.870753   0.000000
    5       20.970818   0.000000
 
 -0.1750000E+00  0.7500000E-01  0.2500000E-01  0.1500000E-02
    1       -1.907873   1.000000
    2       12.955515   0.000000
    3       17.040354   0.000000
    4       20.062868   0.000000
    5       21.895843   0.000000
 
 -0.1250000E+00  0.7500000E-01  0.2500000E-01  0.1500000E-02
    1       -2.400320   1.000000
    2       14.880521   0.000000
    3       17.391790   0.000000
    4       20.321216   0.000000
    5       22.506729   0.000000
 
 -0.7500000E-01  0.7500000E-01  0.2500000E-01  0.1500000E-02
    1       -2.759535   1.000000
    2       16.795857   0.000000
    3       17.900748   0.000000
    4       20.525455   0.000000
    5       22.054440   0.000000
 
 -0.2500000E-01  0.7500000E-01  0.2500000E-01  0.1500000E-02
    1       -2.984502   1.000000
    2       18.146455   0.000000
    3       18.988620   0.000000
    4       20.325188   0.000000
    5       21.928328   0.000000
 
  0.1250000E+00  0.1250000E+00  0.2500000E-01  0.7500000E-03
    1       -2.714572   1.000000
    2       17.552905   0.000000
    3       18.041918   0.000000
    4       18.720523   0.000000
    5       21.012451   0.000000
 
  0.1750000E+00  0.1250000E+00  0.2500000E-01  0.1500000E-02
    1       -2.445151   1.000000
    2       16.266617   0.000000
    3       17.244114   0.000000
    4       18.816978   0.000000
    5       20.945884   0.000000
 
  0.2250000E+00  0.1250000E+00  0.2500000E-01  0.1500000E-02
    1       -2.041995   1.000000
    2       14.382673   0.000000
    3       16.801115   0.000000
    4       18.820194   0.000000
    5       20.573458   0.000000
 
  0.2750000E+00  0.1250000E+00  0.2500000E-01  0.1500000E-02
    1       -1.506233   1.000000
    2       12.496823   0.000000
    3       16.492816   0.000000
    4       18.677400   0.000000
    5       19.527482   0.000000
 
  0.3250000E+00  0.1250000E+00  0.2500000E-01  0.1500000E-02
    1       -0.839331   1.000000
    2       10.678341   0.000000
    3       16.302448   0.000000
    4       18.516537   0.000000
    5       18.594620   0.000000
 
  0.3750000E+00  0.1250000E+00  0.2500000E-01  0.1500000E-02
    1       -0.043138   1.000000
    2        8.949645  -0.018737
    3       16.228196   0.000000
    4       17.680165   0.000000
    5       18.527603   0.000000
 
  0.4250000E+00  0.1250000E+00  0.2500000E-01  0.1500000E-02
    1        0.880231   1.000000
    2        7.322057   1.027507
    3       16.267720   0.000000
    4       16.928369   0.000000
    5       18.596587   0.000000
 
  0.4750000E+00  0.1250000E+00  0.2500000E-01  0.1500000E-02
    1        1.928096   1.000000
    2        5.802786   1.000000
    3       16.254110   0.000000
    4       16.462089   0.000000
    5       18.779085   0.000000
 
 -0.4750000E+00  0.1250000E+00  0.2500000E-01  0.1500000E-02
    1        3.094834   1.000000
    2        4.399635   1.000000
    3       15.753692   0.000000
    4       16.717434   0.000000
    5       19.077710   0.000000
 
 -0.4250000E+00  0.1250000E+00  0.2500000E-01  0.1500000E-02
    1        3.095426   1.000000
    2        4.398521   1.000000
    3       15.353624   0.000000
    4       17.108458   0.000000
    5       19.492429   0.000000
 
 -0.3750000E+00  0.1250000E+00  0.2500000E-01  0.1500000E-02
    1        1.928415   1.000000
    2        5.800649   1.000000
    3       15.073040   0.000000
    4       17.616457   0.000000
    5       20.020134   0.000000
 
 -0.3250000E+00  0.1250000E+00  0.2500000E-01  0.1500000E-02
    1        0.880395   1.000000
    2        7.317878   1.028714
    3       14.914195   0.000000
    4       18.238699   0.000000
    5       20.642816   0.000000
 
 -0.2750000E+00  0.1250000E+00  0.2500000E-01  0.1500000E-02
    1       -0.043060   1.000000
    2        8.941092  -0.018978
    3       14.879186   0.000000
    4       18.971053   0.000000
    5       20.965715   0.000000
 
 -0.2250000E+00  0.1250000E+00  0.2500000E-01  0.1500000E-02
    1       -0.839300   1.000000
    2       10.659396   0.000000
    3       14.972411   0.000000
    4       19.803142   0.000000
    5       21.038080   0.000000
 
 -0.1750000E+00  0.1250000E+00  0.2500000E-01  0.1500000E-02
    1       -1.506232   1.000000
    2       12.448168   0.000000
    3       15.208562   0.000000
    4       20.691054   0.000000
    5       21.201976   0.000000
 
 -0.1250000E+00  0.1250000E+00  0.2500000E-01  0.1500000E-02
    1       -2.042004   1.000000
    2       14.211004   0.000000
    3       15.666308   0.000000
    4       21.186053   0.000000
    5       21.676780   0.000000
 
 -0.7500000E-01  0.1250000E+00  0.2500000E-01  0.1500000E-02
    1       -2.445166   1.000000
    2       15.474366   0.000000
    3       16.779842   0.000000
    4       20.818512   0.000000
    5       22.126052   0.000000
 
 -0.2500000E-01  0.1250000E+00  0.2500000E-01  0.1500000E-02
    1       -2.714582   1.000000
    2       16.182976   0.000000
    3       18.470060   0.000000
    4       20.071222   0.000000
    5       22.537408   0.000000
 
  0.1750000E+00  0.1750000E+00  0.2500000E-01  0.7500000E-03
    1       -2.221027   1.000000
    2       16.408092   0.000000
    3       16.943157   0.000000
    4       17.581403   0.000000
    5       20.210233   0.000000
 
  0.2250000E+00  0.1750000E+00  0.2500000E-01  0.1500000E-02
    1       -1.863161   1.000000
    2       15.175655   0.000000
    3       16.216148   0.000000
    4       17.764483   0.000000
    5       19.263185   0.000000
 
  0.2750000E+00  0.1750000E+00  0.2500000E-01  0.1500000E-02
    1       -1.372615   1.000000
    2       13.362716   0.000000
    3       15.840031   0.000000
    4       17.860224   0.000000
    5       18.142689   0.000000
 
  0.3250000E+00  0.1750000E+00  0.2500000E-01  0.1500000E-02
    1       -0.750713   1.000000
    2       11.548854   0.000000
    3       15.602810   0.000000
    4       17.086016   0.000000
    5       17.835897   0.000000
 
  0.3750000E+00  0.1750000E+00  0.2500000E-01  0.1500000E-02
    1        0.000767   1.000000
    2        9.804509   0.000000
    3       15.481494   0.000000
    4       16.173018   0.000000
    5       17.799102   0.000000
 
  0.4250000E+00  0.1750000E+00  0.2500000E-01  0.1500000E-02
    1        0.879757   1.000000
    2        8.152085   0.191814
    3       15.312623   0.000000
    4       15.538914   0.000000
    5       17.846919   0.000000
 
  0.4750000E+00  0.1750000E+00  0.2500000E-01  0.1500000E-02
    1        1.883655   1.000000
    2        6.602782   1.004228
    3       14.659208   0.000000
    4       15.624778   0.000000
    5       18.000870   0.000000
 
 -0.4750000E+00  0.1750000E+00  0.2500000E-01  0.1500000E-02
    1        3.008320   1.000000
    2        5.164711   1.000000
    3       14.095194   0.000000
    4       15.858919   0.000000
    5       18.269426   0.000000
 
 -0.4250000E+00  0.1750000E+00  0.2500000E-01  0.1500000E-02
    1        3.811542   1.000000
    2        4.281610   1.000000
    3       13.651242   0.000000
    4       16.212491   0.000000
    5       18.655349   0.000000
 
 -0.3750000E+00  0.1750000E+00  0.2500000E-01  0.1500000E-02
    1        2.621956   1.000000
    2        5.624341   1.000000
    3       13.331304   0.000000
    4       16.683290   0.000000
    5       19.158248   0.000000
 
 -0.3250000E+00  0.1750000E+00  0.2500000E-01  0.1500000E-02
    1        1.536112   1.000000
    2        7.093488   1.030675
    3       13.139128   0.000000
    4       17.269954   0.000000
    5       19.775232   0.000000
 
 -0.2750000E+00  0.1750000E+00  0.2500000E-01  0.1500000E-02
    1        0.573145   1.000000
    2        8.661819  -0.031831
    3       13.081900   0.000000
    4       17.970585   0.000000
    5       20.500349   0.000000
 
 -0.2250000E+00  0.1750000E+00  0.2500000E-01  0.1500000E-02
    1       -0.263827   1.000000
    2       10.301380   0.000000
    3       13.181261   0.000000
    4       18.781701   0.000000
    5       21.321486   0.000000
 
 -0.1750000E+00  0.1750000E+00  0.2500000E-01  0.1500000E-02
    1       -0.972440   1.000000
    2       11.901648   0.000000
    3       13.538485   0.000000
    4       19.695977   0.000000
    5       22.190121   0.000000
 
 -0.1250000E+00  0.1750000E+00  0.2500000E-01  0.1500000E-02
    1       -1.550800   1.000000
    2       13.018103   0.000000
    3       14.581202   0.000000
    4       20.689372   0.000000
    5       21.681546   0.000000
 
 -0.7500000E-01  0.1750000E+00  0.2500000E-01  0.1500000E-02
    1       -1.997282   1.000000
    2       13.631640   0.000000
    3       16.289808   0.000000
    4       20.664242   0.000000
    5       21.799897   0.000000
 
 -0.2500000E-01  0.1750000E+00  0.2500000E-01  0.1500000E-02
    1       -2.310662   1.000000
    2       14.204003   0.000000
    3       18.065760   0.000000
    4       19.747902   0.000000
    5       22.718799   0.000000
 
  0.2250000E+00  0.2250000E+00  0.2500000E-01  0.7500000E-03
    1       -1.550791   1.000000
    2       15.400684   0.000000
    3       15.987965   0.000000
    4       16.564989   0.000000
    5       17.979298   0.000000
 
  0.2750000E+00  0.2250000E+00  0.2500000E-01  0.1500000E-02
    1       -1.105772   1.000000
    2       14.235216   0.000000
    3       15.327840   0.000000
    4       16.765864   0.000000
    5       16.860697   0.000000
 
  0.3250000E+00  0.2250000E+00  0.2500000E-01  0.1500000E-02
    1       -0.529394   1.000000
    2       12.498202   0.000000
    3       15.015898   0.000000
    4       15.705614   0.000000
    5       17.044196   0.000000
 
  0.3750000E+00  0.2250000E+00  0.2500000E-01  0.1500000E-02
    1        0.176697   1.000000
    2       10.760033   0.000000
    3       14.670232   0.000000
    4       14.919979   0.000000
    5       17.081526   0.000000
 
  0.4250000E+00  0.2250000E+00  0.2500000E-01  0.1500000E-02
    1        1.010396   1.000000
    2        9.092913  -0.012075
    3       13.855303   0.000000
    4       14.841853   0.000000
    5       17.131573   0.000000
 
  0.4750000E+00  0.2250000E+00  0.2500000E-01  0.1500000E-02
    1        1.969115   1.000000
    2        7.519495   0.942660
    3       13.125059   0.000000
    4       14.917457   0.000000
    5       17.264151   0.000000
 
 -0.4750000E+00  0.2250000E+00  0.2500000E-01  0.1500000E-02
    1        3.048990   1.000000
    2        6.051467   1.000000
    3       12.514291   0.000000
    4       15.114049   0.000000
    5       17.503348   0.000000
 
 -0.4250000E+00  0.2250000E+00  0.2500000E-01  0.1500000E-02
    1        4.227751   1.000000
    2        4.713773   1.000000
    3       12.028115   0.000000
    4       15.429161   0.000000
    5       17.857713   0.000000
 
 -0.3750000E+00  0.2250000E+00  0.2500000E-01  0.1500000E-02
    1        3.439826   1.000000
    2        5.570788   1.000000
    3       11.671330   0.000000
    4       15.861859   0.000000
    5       18.329423   0.000000
 
 -0.3250000E+00  0.2250000E+00  0.2500000E-01  0.1500000E-02
    1        2.318644   1.000000
    2        6.981792   1.021986
    3       11.452707   0.000000
    4       16.411301   0.000000
    5       18.917090   0.000000
 
 -0.2750000E+00  0.2250000E+00  0.2500000E-01  0.1500000E-02
    1        1.317684   1.000000
    2        8.467833  -0.023202
    3       11.397506   0.000000
    4       17.076312   0.000000
    5       19.616294   0.000000
 
 -0.2250000E+00  0.2250000E+00  0.2500000E-01  0.1500000E-02
    1        0.441278   1.000000
    2        9.909311   0.000000
    3       11.618509   0.000000
    4       17.854951   0.000000
    5       20.418338   0.000000
 
 -0.1750000E+00  0.2250000E+00  0.2500000E-01  0.1500000E-02
    1       -0.308018   1.000000
    2       10.864811   0.000000
    3       12.548347   0.000000
    4       18.743542   0.000000
    5       21.304976   0.000000
 
 -0.1250000E+00  0.2250000E+00  0.2500000E-01  0.1500000E-02
    1       -0.928051   1.000000
    2       11.336764   0.000000
    3       14.168335   0.000000
    4       19.732336   0.000000
    5       21.662553   0.000000
 
 -0.7500000E-01  0.2250000E+00  0.2500000E-01  0.1500000E-02
    1       -1.417137   1.000000
    2       11.771919   0.000000
    3       15.993443   0.000000
    4       20.435535   0.000000
    5       20.911296   0.000000
 
 -0.2500000E-01  0.2250000E+00  0.2500000E-01  0.1500000E-02
    1       -1.773873   1.000000
    2       12.283918   0.000000
    3       17.771275   0.000000
    4       19.487052   0.000000
    5       21.996208   0.000000
 
  0.2750000E+00  0.2750000E+00  0.2500000E-01  0.7500000E-03
    1       -0.706527   1.000000
    2       14.541924   0.000000
    3       15.183174   0.000000
    4       15.521716   0.000000
    5       15.713740   0.000000
 
  0.3250000E+00  0.2750000E+00  0.2500000E-01  0.1500000E-02
    1       -0.176078   1.000000
    2       13.450503   0.000000
    3       14.352850   0.000000
    4       14.640962   0.000000
    5       16.064632   0.000000
 
  0.3750000E+00  0.2750000E+00  0.2500000E-01  0.1500000E-02
    1        0.483988   1.000000
    2       11.790650   0.000000
    3       13.367366   0.000000
    4       14.379916   0.000000
    5       16.347923   0.000000
 
  0.4250000E+00  0.2750000E+00  0.2500000E-01  0.1500000E-02
    1        1.271510   1.000000
    2       10.131435   0.000000
    3       12.471054   0.000000
    4       14.291241   0.000000
    5       16.469292   0.000000
 
  0.4750000E+00  0.2750000E+00  0.2500000E-01  0.1500000E-02
    1        2.183735   1.000000
    2        8.544842  -0.030995
    3       11.691959   0.000000
    4       14.328189   0.000000
    5       16.603539   0.000000
 
 -0.4750000E+00  0.2750000E+00  0.2500000E-01  0.1500000E-02
    1        3.216497   1.000000
    2        7.053503   1.028486
    3       11.036505   0.000000
    4       14.485395   0.000000
    5       16.820989   0.000000
 
 -0.4250000E+00  0.2750000E+00  0.2500000E-01  0.1500000E-02
    1        4.359874   1.000000
    2        5.672658   1.000000
    3       10.510356   0.000000
    4       14.761373   0.000000
    5       17.145516   0.000000
 
 -0.3750000E+00  0.2750000E+00  0.2500000E-01  0.1500000E-02
    1        4.377255   1.000000
    2        5.634896   1.000000
    3       10.123121   0.000000
    4       15.155368   0.000000
    5       17.584988   0.000000
 
 -0.3250000E+00  0.2750000E+00  0.2500000E-01  0.1500000E-02
    1        3.225382   1.000000
    2        6.959687   1.010959
    3        9.901342   0.000000
    4       15.666690   0.000000
    5       18.140535   0.000000
 
 -0.2750000E+00  0.2750000E+00  0.2500000E-01  0.1500000E-02
    1        2.188382   1.000000
    2        8.245807   0.031103
    3        9.962757   0.000000
    4       16.294498   0.000000
    5       18.809091   0.000000
 
 -0.2250000E+00  0.2750000E+00  0.2500000E-01  0.1500000E-02
    1        1.273960   1.000000
    2        9.036125  -0.005485
    3       10.755001   0.000000
    4       17.037513   0.000000
    5       19.583090   0.000000
 
 -0.1750000E+00  0.2750000E+00  0.2500000E-01  0.1500000E-02
    1        0.485247   1.000000
    2        9.344509  -0.001395
    3       12.255630   0.000000
    4       17.893536   0.000000
    5       20.446541   0.000000
 
 -0.1250000E+00  0.2750000E+00  0.2500000E-01  0.1500000E-02
    1       -0.175483   1.000000
    2        9.621804   0.000000
    3       13.997998   0.000000
    4       18.857760   0.000000
    5       21.327805   0.000000
 
 -0.7500000E-01  0.2750000E+00  0.2500000E-01  0.1500000E-02
    1       -0.706289   1.000000
    2        9.981917   0.000000
    3       15.830197   0.000000
    4       19.896071   0.000000
    5       20.431886   0.000000
 
 -0.2500000E-01  0.2750000E+00  0.2500000E-01  0.1500000E-02
    1       -1.105712   1.000000
    2       10.448021   0.000000
    3       17.588947   0.000000
    4       19.321425   0.000000
    5       21.092746   0.000000
 
  0.3250000E+00  0.3250000E+00  0.2500000E-01  0.7500000E-03
    1        0.308103   1.000000
    2       13.197650   0.000000
    3       13.844995   0.000000
    4       14.531174   0.000000
    5       15.005218   0.000000
 
  0.3750000E+00  0.3250000E+00  0.2500000E-01  0.1500000E-02
    1        0.921494   1.000000
    2       12.119908   0.000000
    3       12.839180   0.000000
    4       14.023046   0.000000
    5       15.448641   0.000000
 
  0.4250000E+00  0.3250000E+00  0.2500000E-01  0.1500000E-02
    1        1.661856   1.000000
    2       11.079735   0.000000
    3       11.361166   0.000000
    4       13.865729   0.000000
    5       15.809591   0.000000
 
  0.4750000E+00  0.3250000E+00  0.2500000E-01  0.1500000E-02
    1        2.525890   1.000000
    2        9.644229   0.000000
    3       10.395704   0.000000
    4       13.858187   0.000000
    5       16.012978   0.000000
 
 -0.4750000E+00  0.3250000E+00  0.2500000E-01  0.1500000E-02
    1        3.508253   1.000000
    2        8.155196   0.183911
    3        9.683536   0.000000
    4       13.974438   0.000000
    5       16.231357   0.000000
 
 -0.4250000E+00  0.3250000E+00  0.2500000E-01  0.1500000E-02
    1        4.597421   1.000000
    2        6.753110   1.008234
    3        9.119158   0.000000
    4       14.210572   0.000000
    5       16.533755   0.000000
 
 -0.3750000E+00  0.3250000E+00  0.2500000E-01  0.1500000E-02
    1        5.414949   1.000000
    2        5.807647   1.000000
    3        8.721826  -0.020082
    4       14.565327   0.000000
    5       16.943099   0.000000
 
 -0.3250000E+00  0.3250000E+00  0.2500000E-01  0.1500000E-02
    1        4.252761   1.000000
    2        6.914977   1.000000
    3        8.608433   0.000000
    4       15.037930   0.000000
    5       17.466108   0.000000
 
 -0.2750000E+00  0.3250000E+00  0.2500000E-01  0.1500000E-02
    1        3.182348   1.000000
    2        7.538658   1.014321
    3        9.245925   0.000000
    4       15.627624   0.000000
    5       18.102208   0.000000
 
 -0.2250000E+00  0.3250000E+00  0.2500000E-01  0.1500000E-02
    1        2.231821   1.000000
    2        7.672537   0.850426
    3       10.611497   0.000000
    4       16.333448   0.000000
    5       18.845359   0.000000
 
 -0.1750000E+00  0.3250000E+00  0.2500000E-01  0.1500000E-02
    1        1.405095   1.000000
    2        7.781307   0.675637
    3       12.231708   0.000000
    4       17.153846   0.000000
    5       19.681362   0.000000
 
 -0.1250000E+00  0.3250000E+00  0.2500000E-01  0.1500000E-02
    1        0.704899   1.000000
    2        7.977620   0.406393
    3       13.978381   0.000000
    4       18.085831   0.000000
    5       20.572954   0.000000
 
 -0.7500000E-01  0.3250000E+00  0.2500000E-01  0.1500000E-02
    1        0.133326   1.000000
    2        8.284794   0.074103
    3       15.790356   0.000000
    4       19.119885   0.000000
    5       20.381311   0.000000
 
 -0.2500000E-01  0.3250000E+00  0.2500000E-01  0.1500000E-02
    1       -0.307953   1.000000
    2        8.708979  -0.029661
    3       17.520326   0.000000
    4       19.260935   0.000000
    5       20.262448   0.000000
 
  0.3750000E+00  0.3750000E+00  0.2500000E-01  0.7500000E-03
    1        1.487490   1.000000
    2       11.009938   0.000000
    3       13.302717   0.000000
    4       14.032669   0.000000
    5       14.470055   0.000000
 
  0.4250000E+00  0.3750000E+00  0.2500000E-01  0.1500000E-02
    1        2.179268   1.000000
    2       10.011969   0.000000
    3       12.378857   0.000000
    4       13.592730   0.000000
    5       14.996069   0.000000
 
  0.4750000E+00  0.3750000E+00  0.2500000E-01  0.1500000E-02
    1        2.992295   1.000000
    2        9.137057   0.000000
    3       10.900667   0.000000
    4       13.512030   0.000000
    5       15.434395   0.000000
 
 -0.4750000E+00  0.3750000E+00  0.2500000E-01  0.1500000E-02
    1        3.917436   1.000000
    2        8.387604   0.008934
    3        9.424727   0.000000
    4       13.582921   0.000000
    5       15.719939   0.000000
 
 -0.4250000E+00  0.3750000E+00  0.2500000E-01  0.1500000E-02
    1        4.928929   1.000000
    2        7.701009   0.954810
    3        8.118627   0.018827
    4       13.777888   0.000000
    5       16.022630   0.000000
 
 -0.3750000E+00  0.3750000E+00  0.2500000E-01  0.1500000E-02
    1        5.910317   1.000000
    2        6.589482   1.000000
    3        7.610324   0.957573
    4       14.092742   0.000000
    5       16.409605   0.000000
 
 -0.3250000E+00  0.3750000E+00  0.2500000E-01  0.1500000E-02
    1        5.392697   1.000000
    2        6.376182   1.000000
    3        8.055604   0.045094
    4       14.526103   0.000000
    5       16.902352   0.000000
 
 -0.2750000E+00  0.3750000E+00  0.2500000E-01  0.1500000E-02
    1        4.294695   1.000000
    2        6.330999   1.000000
    3        9.270271   0.000000
    4       15.077084   0.000000
    5       17.505857   0.000000
 
 -0.2250000E+00  0.3750000E+00  0.2500000E-01  0.1500000E-02
    1        3.311325   1.000000
    2        6.264891   1.000000
    3       10.748810   0.000000
    4       15.744788   0.000000
    5       18.216657   0.000000
 
 -0.1750000E+00  0.3750000E+00  0.2500000E-01  0.1500000E-02
    1        2.448755   1.000000
    2        6.290450   1.000000
    3       12.368517   0.000000
    4       16.527974   0.000000
    5       19.022489   0.000000
 
 -0.1250000E+00  0.3750000E+00  0.2500000E-01  0.1500000E-02
    1        1.710613   1.000000
    2        6.430408   1.000265
    3       14.090841   0.000000
    4       17.424346   0.000000
    5       19.891983   0.000000
 
 -0.7500000E-01  0.3750000E+00  0.2500000E-01  0.1500000E-02
    1        1.099473   1.000000
    2        6.691190   1.008425
    3       15.871396   0.000000