W bcc                                   
   3.16520000000000     
    -0.500000    0.500000    0.500000
     0.500000   -0.500000    0.500000
     0.500000    0.500000   -0.500000
   W 
     1
Direct
  0.000000  0.000000  0.000000
 
   20   20   20
  13.789      13.173      11.935      11.130      10.963      10.678      9.6505      8.1555      6.9149      6.2262    
  6.0039      6.2262      6.9149      8.1555      9.6505      10.678      10.963      11.130      11.935      13.173    
  13.173      12.925      11.833      10.880      10.585      10.453      9.7419      8.4197      7.1145      6.2954    
  5.9452      6.0204      6.5187      7.5113      8.9185      10.127      10.629      10.746      11.266      12.348    
  11.935      11.833      10.914      9.9149      9.4798      9.4248      9.0712      8.1335      7.0064      6.1896    
  5.7746      5.7296      6.0412      6.7470      7.8839      9.1074      9.8837      10.183      10.535      11.266    
  11.130      10.880      9.9149      8.7803      8.1226      7.9969      7.8854      7.3700      6.5802      5.9077    
  5.5114      5.4033      5.5687      6.0469      6.8659      7.9473      8.9488      9.6461      10.183      10.746    
  10.963      10.585      9.4798      8.1226      7.1440      6.7668      6.6678      6.4227      5.9604      5.4999    
  5.1912      5.0830      5.1649      5.4700      6.0387      6.8767      7.9078      8.9488      9.8837      10.629    
  10.678      10.453      9.4248      7.9969      6.7668      6.0737      5.7951      5.6017      5.3325      5.0543    
  4.8607      4.7978      4.8541      5.0433      5.4252      6.0288      6.8767      7.9473      9.1074      10.127    
  9.6505      9.7419      9.0712      7.8854      6.6678      5.7951      5.3134      5.0410      4.8287      4.6584    
  4.5644      4.5612      4.6286      4.7627      5.0075      5.4252      6.0387      6.8659      7.8839      8.9185    
  8.1555      8.4197      8.1335      7.3700      6.4227      5.6017      5.0410      4.6967      4.4843      4.3645    
  4.3318      4.3731      4.4622      4.5851      4.7627      5.0433      5.4700      6.0469      6.7470      7.5113    
  6.9149      7.1145      7.0064      6.5802      5.9604      5.3325      4.8287      4.4843      4.2783      4.1819    
  4.1723      4.2293      4.3308      4.4622      4.6286      4.8541      5.1649      5.5687      6.0412      6.5187    
  6.2262      6.2954      6.1896      5.9077      5.4999      5.0543      4.6584      4.3645      4.1819      4.0943    
  4.0818      4.1301      4.2293      4.3731      4.5612      4.7978      5.0830      5.4033      5.7296      6.0204    
  6.0039      5.9452      5.7746      5.5114      5.1912      4.8607      4.5644      4.3318      4.1723      4.0818    
  4.0528      4.0818      4.1723      4.3318      4.5644      4.8607      5.1912      5.5114      5.7746      5.9452    
  6.2262      6.0204      5.7296      5.4033      5.0830      4.7978      4.5612      4.3731      4.2293      4.1301    
  4.0818      4.0943      4.1819      4.3645      4.6584      5.0543      5.4999      5.9077      6.1896      6.2954    
  6.9149      6.5187      6.0412      5.5687      5.1649      4.8541      4.6286      4.4622      4.3308      4.2293    
  4.1723      4.1819      4.2783      4.4843      4.8287      5.3325      5.9604      6.5802      7.0064      7.1145    
  8.1555      7.5113      6.7470      6.0469      5.4700      5.0433      4.7627      4.5851      4.4622      4.3731    
  4.3318      4.3645      4.4843      4.6967      5.0410      5.6017      6.4227      7.3700      8.1335      8.4197    
  9.6505      8.9185      7.8839      6.8659      6.0387      5.4252      5.0075      4.7627      4.6286      4.5612    
  4.5644      4.6584      4.8287      5.0410      5.3134      5.7951      6.6678      7.8854      9.0712      9.7419    
  10.678      10.127      9.1074      7.9473      6.8767      6.0288      5.4252      5.0433      4.8541      4.7978    
  4.8607      5.0543      5.3325      5.6017      5.7951      6.0737      6.7668      7.9969      9.4248      10.453    
  10.963      10.629      9.8837      8.9488      7.9078      6.8767      6.0387      5.4700      5.1649      5.0830    
  5.1912      5.4999      5.9604      6.4227      6.6678      6.7668      7.1440      8.1226      9.4798      10.585    
  11.130      10.746      10.183      9.6461      8.9488      7.9473      6.8659      6.0469      5.5687      5.4033    
  5.5114      5.9077      6.5802      7.3700      7.8854      7.9969      8.1226      8.7803      9.9149      10.880    
  11.935      11.266      10.535      10.183      9.8837      9.1074      7.8839      6.7470      6.0412      5.7296    
  5.7746      6.1896      7.0064      8.1335      9.0712      9.4248      9.4798      9.9149      10.914      11.833    
  13.173      12.348      11.266      10.746      10.629      10.127      8.9185      7.5113      6.5187      6.0204    
  5.9452      6.2954      7.1145      8.4197      9.7419      10.453      10.585      10.880      11.833      12.925    
  13.173      12.925      11.833      10.880      10.585      10.453      9.7419      8.4197      7.1145      6.2954    
  5.9452      6.0204      6.5187      7.5113      8.9185      10.127      10.629      10.746      11.266      12.348    
  12.925      13.142      12.313      11.252      10.740      10.619      10.122      8.9271      7.5178      6.5128    
  6.0163      5.9518      6.2983      7.1063      8.4170      9.7534      10.464      10.589      10.893      11.853    
  11.833      12.313      11.833      10.859      10.203      10.026      9.7399      8.8487      7.5847      6.5444    
  5.9620      5.7779      5.9620      6.5444      7.5847      8.8487      9.7399      10.026      10.203      10.859    
  10.880      11.252      10.859      9.9227      9.1342      8.8430      8.6936      8.1631      7.2365      6.3462    
  5.7753      5.5282      5.5862      5.9711      6.7087      7.7568      8.7583      9.3702      9.7162      10.202    
  10.585      10.740      10.203      9.1342      8.1226      7.5990      7.4209      7.1411      6.5769      5.9439    
  5.4767      5.2373      5.2288      5.4586      5.9636      6.7439      7.7143      8.6324      9.3782      10.032    
  10.453      10.619      10.026      8.8430      7.5990      6.7710      6.3965      6.1652      5.8339      5.4397    
  5.1172      4.9410      4.9231      5.0569      5.3860      5.9424      6.7348      7.7190      8.7640      9.7375    
  9.7419      10.122      9.7399      8.6936      7.4209      6.3965      5.7951      5.4675      5.2064      4.9567    
  4.7622      4.6701      4.6799      4.7744      4.9808      5.3610      5.9426      6.7437      7.7523      8.8381    
  8.4197      8.9271      8.8487      8.1631      7.1411      6.1652      5.4675      5.0394      4.7652      4.5761    
  4.4666      4.4445      4.4920      4.5851      4.7319      4.9803      5.3844      5.9604      6.7045      7.5821    
  7.1145      7.5178      7.5847      7.2365      6.5769      5.8339      5.2064      4.7652      4.4843      4.3223    
  4.2570      4.2723      4.3448      4.4505      4.5853      4.7742      5.0566      5.4597      5.9749      6.5512    
  6.2954      6.5128      6.5444      6.3462      5.9439      5.4397      4.9567      4.5761      4.3223      4.1824    
  4.1331      4.1548      4.2305      4.3449      4.4922      4.6804      4.9245      5.2315      5.5890      5.9626    
  5.9452      6.0163      5.9620      5.7753      5.4767      5.1172      4.7622      4.4666      4.2570      4.1331    
  4.0818      4.0911      4.1548      4.2721      4.4442      4.6700      4.9407      5.2355      5.5239      5.7714    
  6.0204      5.9518      5.7779      5.5282      5.2373      4.9410      4.6701      4.4445      4.2723      4.1548    
  4.0911      4.0817      4.1327      4.2565      4.4661      4.7615      5.1157      5.4745      5.7735      5.9626    
  6.5187      6.2983      5.9620      5.5862      5.2288      4.9231      4.6799      4.4920      4.3448      4.2305    
  4.1548      4.1327      4.1819      4.3223      4.5767      4.9574      5.4410      5.9469      6.3516      6.5512    
  7.5113      7.1063      6.5444      5.9711      5.4586      5.0569      4.7744      4.5851      4.4505      4.3449    
  4.2721      4.2565      4.3223      4.4854      4.7670      5.2085      5.8364      6.5797      7.2377      7.5821    
  8.9185      8.4170      7.5847      6.7087      5.9636      5.3860      4.9808      4.7319      4.5853      4.4922    
  4.4442      4.4661      4.5767      4.7670      5.0410      5.4675      6.1632      7.1365      8.1549      8.8381    
  10.127      9.7534      8.8487      7.7568      6.7439      5.9424      5.3610      4.9803      4.7742      4.6804    
  4.6700      4.7615      4.9574      5.2085      5.4675      5.7913      6.3904      7.4145      8.6876      9.7375    
  10.629      10.464      9.7399      8.7583      7.7143      6.7348      5.9426      5.3844      5.0566      4.9245    
  4.9407      5.1157      5.4410      5.8364      6.1632      6.3904      6.7668      7.5990      8.8449      10.032    
  10.746      10.589      10.026      9.3702      8.6324      7.7190      6.7437      5.9604      5.4597      5.2315    
  5.2355      5.4745      5.9469      6.5797      7.1365      7.4145      7.5990      8.1254      9.1331      10.202    
  11.266      10.893      10.203      9.7162      9.3782      8.7640      7.7523      6.7045      5.9749      5.5890    
  5.5239      5.7735      6.3516      7.2377      8.1549      8.6876      8.8449      9.1331      9.9149      10.859    
  12.348      11.853      10.859      10.202      10.032      9.7375      8.8381      7.5821      6.5512      5.9626    
  5.7714      5.9626      6.5512      7.5821      8.8381      9.7375      10.032      10.202      10.859      11.853    
  11.935      11.833      10.914      9.9149      9.4798      9.4248      9.0712      8.1335      7.0064      6.1896    
  5.7746      5.7296      6.0412      6.7470      7.8839      9.1074      9.8837      10.183      10.535      11.266    
  11.833      12.313      11.833      10.859      10.203      10.026      9.7399      8.8487      7.5847      6.5444    
  5.9620      5.7779      5.9620      6.5444      7.5847      8.8487      9.7399      10.026      10.203      10.859    
  10.914      11.833      11.935      11.266      10.535      10.183      9.8837      9.1074      7.8839      6.7470    
  6.0412      5.7296      5.7746      6.1896      7.0064      8.1335      9.0712      9.4248      9.4798      9.9149    
  9.9149      10.859      11.266      10.893      10.203      9.7161      9.3782      8.7640      7.7523      6.7045    
  5.9749      5.5890      5.5239      5.7735      6.3515      7.2377      8.1549      8.6876      8.8449      9.1331    
  9.4798      10.203      10.535      10.203      9.4798      8.8449      8.4219      7.9426      7.2126      6.3935    
  5.7550      5.3709      5.2495      5.3709      5.7550      6.3935      7.2126      7.9426      8.4219      8.8449    
  9.4248      10.026      10.183      9.7161      8.8449      8.0036      7.4209      6.9751      6.4659      5.8985    
  5.4183      5.1032      4.9825      5.0316      5.2649      5.7146      6.3682      7.1577      7.9426      8.6876    
  9.0712      9.7399      9.8837      9.3782      8.4219      7.4209      6.6678      6.1632      5.7531      5.3644    
  5.0377      4.8237      4.7447      4.7736      4.9115      5.2090      5.6951      6.3682      7.2127      8.1549    
  8.1335      8.8487      9.1074      8.7640      7.9426      6.9751      6.1632      5.5987      5.2064      4.9086    
  4.6904      4.5704      4.5468      4.5893      4.6865      4.8743      5.2090      5.7146      6.3935      7.2377    
  7.0064      7.5847      7.8839      7.7523      7.2126      6.4659      5.7531      5.2064      4.8287      4.5767    
  4.4259      4.3699      4.3899      4.4554      4.5488      4.6865      4.9115      5.2649      5.7550      6.3516    
  6.1896      6.5444      6.7470      6.7045      6.3935      5.8985      5.3644      4.9086      4.5767      4.3655    
  4.2570      4.2323      4.2711      4.3506      4.4554      4.5893      4.7736      5.0316      5.3709      5.7735    
  5.7746      5.9620      6.0412      5.9749      5.7550      5.4183      5.0377      4.6904      4.4259      4.2570    
  4.1723      4.1548      4.1909      4.2711      4.3899      4.5468      4.7447      4.9824      5.2495      5.5239    
  5.7296      5.7779      5.7296      5.5890      5.3709      5.1032      4.8237      4.5704      4.3699      4.2323    
  4.1548      4.1301      4.1548      4.2323      4.3699      4.5704      4.8237      5.1032      5.3709      5.5890    
  6.0412      5.9620      5.7746      5.5239      5.2495      4.9825      4.7447      4.5468      4.3899      4.2711    
  4.1909      4.1548      4.1723      4.2570      4.4259      4.6904      5.0377      5.4183      5.7550      5.9749    
  6.7470      6.5444      6.1896      5.7735      5.3709      5.0316      4.7736      4.5893      4.4554      4.3506    
  4.2711      4.2323      4.2570      4.3655      4.5767      4.9086      5.3644      5.8985      6.3935      6.7045    
  7.8839      7.5847      7.0064      6.3515      5.7550      5.2649      4.9115      4.6865      4.5488      4.4554    
  4.3899      4.3699      4.4259      4.5767      4.8287      5.2065      5.7532      6.4660      7.2127      7.7523    
  9.1074      8.8487      8.1335      7.2377      6.3935      5.7146      5.2090      4.8743      4.6865      4.5893    
  4.5468      4.5704      4.6904      4.9086      5.2065      5.5987      6.1633      6.9751      7.9426      8.7640    
  9.8837      9.7399      9.0712      8.1549      7.2126      6.3682      5.6951      5.2090      4.9115      4.7736    
  4.7447      4.8237      5.0377      5.3644      5.7532      6.1633      6.6679      7.4209      8.4219      9.3782    
  10.183      10.026      9.4248      8.6876      7.9426      7.1577      6.3682      5.7146      5.2649      5.0316    
  4.9824      5.1032      5.4183      5.8985      6.4660      6.9751      7.4209      8.0036      8.8449      9.7162    
  10.535      10.203      9.4798      8.8449      8.4219      7.9426      7.2127      6.3935      5.7550      5.3709    
  5.2495      5.3709      5.7550      6.3935      7.2127      7.9426      8.4219      8.8449      9.4798      10.203    
  11.266      10.859      9.9149      9.1331      8.8449      8.6876      8.1549      7.2377      6.3516      5.7735    
  5.5239      5.5890      5.9749      6.7045      7.7523      8.7640      9.3782      9.7162      10.203      10.893    
  11.130      10.880      9.9149      8.7803      8.1226      7.9969      7.8854      7.3700      6.5802      5.9077    
  5.5114      5.4033      5.5687      6.0469      6.8659      7.9473      8.9488      9.6461      10.183      10.746    
  10.880      11.252      10.859      9.9227      9.1342      8.8430      8.6936      8.1631      7.2365      6.3462    
  5.7753      5.5282      5.5862      5.9711      6.7087      7.7568      8.7583      9.3702      9.7162      10.202    
  9.9149      10.859      11.266      10.893      10.203      9.7161      9.3782      8.7640      7.7523      6.7045    
  5.9749      5.5890      5.5239      5.7735      6.3515      7.2377      8.1549      8.6876      8.8449      9.1331    
  8.7803      9.9227      10.893      11.133      10.740      10.183      9.6539      8.9511      7.9418      6.8641    
  6.0512      5.5693      5.3991      5.5119      5.9122      6.5782      7.3630      7.8854      8.0036      8.1254    
  8.1226      9.1342      10.203      10.740      10.585      10.032      9.3783      8.6325      7.7143      6.7439    
  5.9636      5.4586      5.2288      5.2373      5.4768      5.9439      6.5769      7.1411      7.4209      7.5990    
  7.9969      8.8430      9.7161      10.183      10.032      9.4347      8.6936      7.9405      7.1540      6.3687    
  5.7160      5.2635      5.0306      4.9840      5.1037      5.4163      5.8987      6.4694      6.9751      7.4145    
  7.8854      8.6936      9.3782      9.6539      9.3783      8.6936      7.8854      7.1365      6.4659      5.8622    
  5.3672      5.0136      4.8251      4.7717      4.8251      5.0136      5.3672      5.8622      6.4660      7.1365    
  7.3700      8.1631      8.7640      8.9511      8.6325      7.9405      7.1365      6.4178      5.8339      5.3644    
  5.0019      4.7549      4.6336      4.6059      4.6399      4.7491      4.9817      5.3667      5.8985      6.5797    
  6.5802      7.2365      7.7523      7.9418      7.7143      7.1540      6.4659      5.8339      5.3325      4.9575    
  4.6904      4.5318      4.4728      4.4805      4.5233      4.6009      4.7491      5.0143      5.4183      5.9469    
  5.9077      6.3462      6.7045      6.8641      6.7439      6.3687      5.8622      5.3644      4.9575      4.6595    
  4.4666      4.3697      4.3513      4.3845      4.4440      4.5231      4.6399      4.8253      5.1032      5.4745    
  5.5114      5.7753      5.9749      6.0512      5.9636      5.7160      5.3672      5.0019      4.6904      4.4666    
  4.3318      4.2721      4.2711      4.3129      4.3845      4.4805      4.6058      4.7709      4.9824      5.2355    
  5.4033      5.5282      5.5890      5.5693      5.4586      5.2635      5.0136      4.7549      4.5318      4.3697    
  4.2721      4.2292      4.2305      4.2711      4.3515      4.4730      4.6337      4.8253      5.0316      5.2315    
  5.5687      5.5862      5.5239      5.3991      5.2288      5.0306      4.8251      4.6336      4.4728      4.3513    
  4.2711      4.2305      4.2293      4.2723      4.3699      4.5318      4.7550      5.0143      5.2649      5.4597    
  6.0469      5.9711      5.7735      5.5119      5.2373      4.9840      4.7717      4.6059      4.4805      4.3845    
  4.3129      4.2711      4.2723      4.3318      4.4661      4.6896      5.0014      5.3667      5.7146      5.9604    
  6.8659      6.7087      6.3515      5.9122      5.4768      5.1037      4.8251      4.6399      4.5233      4.4440    
  4.3845      4.3515      4.3699      4.4661      4.6584      4.9567      5.3644      5.8622      6.3682      6.7437    
  7.9473      7.7568      7.2377      6.5782      5.9439      5.4163      5.0136      4.7491      4.6009      4.5231    
  4.4805      4.4730      4.5318      4.6896      4.9567      5.3332      5.8364      6.4694      7.1577      7.7190    
  8.9488      8.7583      8.1549      7.3630      6.5769      5.8987      5.3672      4.9817      4.7491      4.6399    
  4.6058      4.6337      4.7550      5.0014      5.3644      5.8364      6.4227      7.1411      7.9426      8.6324    
  9.6461      9.3702      8.6876      7.8854      7.1411      6.4694      5.8622      5.3667      5.0143      4.8253    
  4.7709      4.8253      5.0143      5.3667      5.8622      6.4694      7.1411      7.8854      8.6876      9.3702    
  10.183      9.7162      8.8449      8.0036      7.4209      6.9751      6.4660      5.8985      5.4183      5.1032    
  4.9824      5.0316      5.2649      5.7146      6.3682      7.1577      7.9426      8.6876      9.4248      10.026    
  10.746      10.202      9.1331      8.1254      7.5990      7.4145      7.1365      6.5797      5.9469      5.4745    
  5.2355      5.2315      5.4597      5.9604      6.7437      7.7190      8.6324      9.3702      10.026      10.589    
  10.963      10.585      9.4798      8.1226      7.1440      6.7668      6.6678      6.4227      5.9604      5.4999    
  5.1912      5.0830      5.1649      5.4700      6.0387      6.8767      7.9078      8.9488      9.8837      10.629    
  10.585      10.740      10.203      9.1342      8.1226      7.5990      7.4209      7.1411      6.5769      5.9439    
  5.4767      5.2373      5.2288      5.4586      5.9636      6.7439      7.7143      8.6324      9.3782      10.032    
  9.4798      10.203      10.535      10.203      9.4798      8.8449      8.4219      7.9426      7.2126      6.3935    
  5.7550      5.3709      5.2495      5.3709      5.7550      6.3935      7.2126      7.9426      8.4219      8.8449    
  8.1226      9.1342      10.203      10.740      10.585      10.032      9.3783      8.6325      7.7143      6.7439    
  5.9636      5.4586      5.2288      5.2373      5.4768      5.9439      6.5769      7.1411      7.4209      7.5990    
  7.1440      8.1226      9.4798      10.585      10.963      10.629      9.8838      8.9489      7.9078      6.8767    
  6.0387      5.4700      5.1649      5.0830      5.1912      5.4999      5.9604      6.4227      6.6679      6.7668    
  6.7668      7.5990      8.8449      10.032      10.629      10.464      9.7400      8.7584      7.7143      6.7348    
  5.9426      5.3844      5.0566      4.9245      4.9407      5.1157      5.4410      5.8364      6.1633      6.3904    
  6.6678      7.4209      8.4219      9.3783      9.8838      9.7400      9.0713      8.1549      7.2126      6.3682    
  5.6951      5.2090      4.9115      4.7737      4.7447      4.8237      5.0377      5.3644      5.7532      6.1632    
  6.4227      7.1411      7.9426      8.6325      8.9489      8.7584      8.1549      7.3630      6.5769      5.8987    
  5.3672      4.9818      4.7492      4.6399      4.6058      4.6337      4.7550      5.0014      5.3644      5.8364    
  5.9604      6.5769      7.2126      7.7143      7.9078      7.7143      7.2126      6.5769      5.9604      5.4410    
  5.0377      4.7550      4.5957      4.5295      4.5140      4.5295      4.5957      4.7550      5.0377      5.4410    
  5.4999      5.9439      6.3935      6.7439      6.8767      6.7348      6.3682      5.8987      5.4410      5.0558    
  4.7622      4.5703      4.4728      4.4444      4.4529      4.4789      4.5295      4.6337      4.8237      5.1157    
  5.1912      5.4767      5.7550      5.9636      6.0387      5.9426      5.6951      5.3672      5.0377      4.7622    
  4.5644      4.4442      4.3899      4.3845      4.4097      4.4529      4.5140      4.6058      4.7447      4.9407    
  5.0830      5.2373      5.3709      5.4586      5.4700      5.3844      5.2090      4.9818      4.7550      4.5703    
  4.4442      4.3729      4.3448      4.3504      4.3845      4.4444      4.5295      4.6399      4.7736      4.9245    
  5.1649      5.2288      5.2495      5.2288      5.1649      5.0566      4.9115      4.7492      4.5957      4.4728    
  4.3899      4.3448      4.3308      4.3448      4.3899      4.4728      4.5957      4.7491      4.9115      5.0566    
  5.4700      5.4586      5.3709      5.2373      5.0830      4.9245      4.7737      4.6399      4.5295      4.4444    
  4.3845      4.3504      4.3448      4.3729      4.4442      4.5702      4.7550      4.9817      5.2090      5.3844    
  6.0387      5.9636      5.7550      5.4768      5.1912      4.9407      4.7447      4.6058      4.5140      4.4529    
  4.4097      4.3845      4.3899      4.4442      4.5644      4.7622      5.0377      5.3672      5.6951      5.9426    
  6.8767      6.7439      6.3935      5.9439      5.4999      5.1157      4.8237      4.6337      4.5295      4.4789    
  4.4529      4.4444      4.4728      4.5702      4.7622      5.0558      5.4410      5.8987      6.3682      6.7348    
  7.9078      7.7143      7.2126      6.5769      5.9604      5.4410      5.0377      4.7550      4.5957      4.5295    
  4.5140      4.5295      4.5957      4.7550      5.0377      5.4410      5.9604      6.5769      7.2126      7.7143    
  8.9488      8.6324      7.9426      7.1411      6.4227      5.8364      5.3644      5.0014      4.7550      4.6337    
  4.6058      4.6399      4.7491      4.9817      5.3672      5.8987      6.5769      7.3630      8.1549      8.7583    
  9.8837      9.3782      8.4219      7.4209      6.6679      6.1633      5.7532      5.3644      5.0377      4.8237    
  4.7447      4.7736      4.9115      5.2090      5.6951      6.3682      7.2126      8.1549      9.0712      9.7399    
  10.629      10.032      8.8449      7.5990      6.7668      6.3904      6.1632      5.8364      5.4410      5.1157    
  4.9407      4.9245      5.0566      5.3844      5.9426      6.7348      7.7143      8.7583      9.7399      10.464    
  10.678      10.453      9.4248      7.9969      6.7668      6.0737      5.7951      5.6017      5.3325      5.0543    
  4.8607      4.7978      4.8541      5.0433      5.4252      6.0288      6.8767      7.9473      9.1074      10.127    
  10.453      10.619      10.026      8.8430      7.5990      6.7710      6.3965      6.1652      5.8339      5.4397    
  5.1172      4.9410      4.9231      5.0569      5.3860      5.9424      6.7348      7.7190      8.7640      9.7375    
  9.4248      10.026      10.183      9.7161      8.8449      8.0036      7.4209      6.9751      6.4659      5.8985    
  5.4183      5.1032      4.9825      5.0316      5.2649      5.7146      6.3682      7.1577      7.9426      8.6876    
  7.9969      8.8430      9.7161      10.183      10.032      9.4347      8.6936      7.9405      7.1540      6.3687    
  5.7160      5.2635      5.0306      4.9840      5.1037      5.4163      5.8987      6.4694      6.9751      7.4145    
  6.7668      7.5990      8.8449      10.032      10.629      10.464      9.7400      8.7584      7.7143      6.7348    
  5.9426      5.3844      5.0566      4.9245      4.9407      5.1157      5.4410      5.8364      6.1633      6.3904    
  6.0737      6.7710      8.0036      9.4347      10.464      10.683      10.122      9.0977      7.9418      6.8759    
  6.0283      5.4241      5.0437      4.8550      4.7972      4.8602      5.0558      5.3332      5.5987      5.7913    
  5.7951      6.3965      7.4209      8.6936      9.7400      10.122      9.7419      8.8381      7.7523      6.7437    
  5.9426      5.3610      4.9808      4.7744      4.6799      4.6701      4.7622      4.9567      5.2065      5.4675    
  5.6017      6.1652      6.9751      7.9405      8.7584      9.0977      8.8381      8.1268      7.2365      6.3950    
  5.7161      5.2097      4.8745      4.6864      4.5892      4.5470      4.5702      4.6896      4.9086      5.2085    
  5.3325      5.8339      6.4659      7.1540      7.7143      7.9418      7.7523      7.2365      6.5802      5.9469    
  5.4183      5.0143      4.7492      4.6009      4.5233      4.4805      4.4728      4.5318      4.6904      4.9574    
  5.0543      5.4397      5.8985      6.3687      6.7348      6.8759      6.7437      6.3950      5.9469      5.5027    
  5.1172      4.8240      4.6336      4.5295      4.4790      4.4529      4.4444      4.4730      4.5704      4.7615    
  4.8607      5.1172      5.4183      5.7160      5.9426      6.0283      5.9426      5.7161      5.4183      5.1172    
  4.8607      4.6700      4.5468      4.4804      4.4529      4.4462      4.4529      4.4805      4.5468      4.6700    
  4.7978      4.9410      5.1032      5.2635      5.3844      5.4241      5.3610      5.2097      5.0143      4.8240    
  4.6700      4.5610      4.4920      4.4552      4.4440      4.4529      4.4789      4.5231      4.5893      4.6804    
  4.8541      4.9231      4.9825      5.0306      5.0566      5.0437      4.9808      4.8745      4.7492      4.6336    
  4.5468      4.4920      4.4622      4.4504      4.4554      4.4805      4.5295      4.6009      4.6865      4.7742    
  5.0433      5.0569      5.0316      4.9840      4.9245      4.8550      4.7744      4.6864      4.6009      4.5295    
  4.4804      4.4552      4.4504      4.4624      4.4922      4.5470      4.6337      4.7491      4.8743      4.9803    
  5.4252      5.3860      5.2649      5.1037      4.9407      4.7972      4.6799      4.5892      4.5233      4.4790    
  4.4529      4.4440      4.4554      4.4922      4.5612      4.6701      4.8237      5.0136      5.2090      5.3610    
  6.0288      5.9424      5.7146      5.4163      5.1157      4.8602      4.6701      4.5470      4.4805      4.4529    
  4.4462      4.4529      4.4805      4.5470      4.6701      4.8602      5.1157      5.4163      5.7146      5.9424    
  6.8767      6.7348      6.3682      5.8987      5.4410      5.0558      4.7622      4.5702      4.4728      4.4444    
  4.4529      4.4789      4.5295      4.6337      4.8237      5.1157      5.4999      5.9439      6.3935      6.7439    
  7.9473      7.7190      7.1577      6.4694      5.8364      5.3332      4.9567      4.6896      4.5318      4.4730    
  4.4805      4.5231      4.6009      4.7491      5.0136      5.4163      5.9439      6.5782      7.2377      7.7568    
  9.1074      8.7640      7.9426      6.9751      6.1633      5.5987      5.2065      4.9086      4.6904      4.5704    
  4.5468      4.5893      4.6865      4.8743      5.2090      5.7146      6.3935      7.2377      8.1335      8.8487    
  10.127      9.7375      8.6876      7.4145      6.3904      5.7913      5.4675      5.2085      4.9574      4.7615    
  4.6700      4.6804      4.7742      4.9803      5.3610      5.9424      6.7439      7.7568      8.8487      9.7534    
  9.6505      9.7419      9.0712      7.8854      6.6678      5.7951      5.3134      5.0410      4.8287      4.6584    
  4.5644      4.5612      4.6286      4.7627      5.0075      5.4252      6.0387      6.8659      7.8839      8.9185    
  9.7419      10.122      9.7399      8.6936      7.4209      6.3965      5.7951      5.4675      5.2064      4.9567    
  4.7622      4.6701      4.6799      4.7744      4.9808      5.3610      5.9426      6.7437      7.7523      8.8381    
  9.0712      9.7399      9.8837      9.3782      8.4219      7.4209      6.6678      6.1632      5.7531      5.3644    