W bcc                                   
   3.16520000000000     
    -0.500000    0.500000    0.500000
     0.500000   -0.500000    0.500000
     0.500000    0.500000   -0.500000
   W 
     1
Direct
  0.000000  0.000000  0.000000
 
   20   20   20
 0.13789236297E+02 0.13172852181E+02 0.11935288339E+02 0.11130138794E+02 0.10962862820E+02
 0.10678050476E+02 0.96504862142E+01 0.81555260019E+01 0.69149337516E+01 0.62262422221E+01
 0.60039432674E+01 0.62262422221E+01 0.69149337516E+01 0.81555260019E+01 0.96504862142E+01
 0.10678050476E+02 0.10962862820E+02 0.11130138794E+02 0.11935288339E+02 0.13172852181E+02
 0.13172852181E+02 0.12925162625E+02 0.11833058602E+02 0.10880495787E+02 0.10584515293E+02
 0.10452707270E+02 0.97419063185E+01 0.84196952940E+01 0.71144582516E+01 0.62953938458E+01
 0.59451801767E+01 0.60204098349E+01 0.65186978085E+01 0.75113258429E+01 0.89185403539E+01
 0.10126838559E+02 0.10629395734E+02 0.10745934923E+02 0.11265872504E+02 0.12347668643E+02
 0.11935288339E+02 0.11833058602E+02 0.10913563361E+02 0.99148930119E+01 0.94797699218E+01
 0.94248329342E+01 0.90712380045E+01 0.81335482981E+01 0.70064434057E+01 0.61895740217E+01
 0.57745746191E+01 0.57295923051E+01 0.60412357987E+01 0.67470304565E+01 0.78838629371E+01
 0.91073783630E+01 0.98837061497E+01 0.10182549522E+02 0.10535220249E+02 0.11265872504E+02
 0.11130138794E+02 0.10880495787E+02 0.99148930119E+01 0.87803104554E+01 0.81225760590E+01
 0.79968915988E+01 0.78854303478E+01 0.73699524502E+01 0.65802013960E+01 0.59077497238E+01
 0.55114492690E+01 0.54033038573E+01 0.55687245536E+01 0.60468802217E+01 0.68658785452E+01
 0.79473491443E+01 0.89488303204E+01 0.96460516646E+01 0.10182549522E+02 0.10745934923E+02
 0.10962862820E+02 0.10584515293E+02 0.94797699218E+01 0.81225760590E+01 0.71440478031E+01
 0.67668337447E+01 0.66678440922E+01 0.64226905561E+01 0.59604317871E+01 0.54998931738E+01
 0.51912493621E+01 0.50829692319E+01 0.51648651688E+01 0.54699787155E+01 0.60387434622E+01
 0.68766845608E+01 0.79078278799E+01 0.89488303204E+01 0.98837061497E+01 0.10629395734E+02
 0.10678050476E+02 0.10452707270E+02 0.94248329342E+01 0.79968915988E+01 0.67668337447E+01
 0.60737362735E+01 0.57951471998E+01 0.56017366172E+01 0.53325074394E+01 0.50543036014E+01
 0.48606635049E+01 0.47978288765E+01 0.48541019456E+01 0.50433179014E+01 0.54251758889E+01
 0.60287708929E+01 0.68766845608E+01 0.79473491443E+01 0.91073783630E+01 0.10126838559E+02
 0.96504862142E+01 0.97419063185E+01 0.90712380045E+01 0.78854303478E+01 0.66678440922E+01
 0.57951471998E+01 0.53133847146E+01 0.50410188536E+01 0.48286589481E+01 0.46584192684E+01
 0.45644054944E+01 0.45612442530E+01 0.46285818578E+01 0.47627075097E+01 0.50075187578E+01
 0.54251758889E+01 0.60387434622E+01 0.68658785452E+01 0.78838629371E+01 0.89185403539E+01
 0.81555260019E+01 0.84196952940E+01 0.81335482981E+01 0.73699524502E+01 0.64226905561E+01
 0.56017366172E+01 0.50410188536E+01 0.46967265669E+01 0.44842721074E+01 0.43645415548E+01
 0.43317792894E+01 0.43731045403E+01 0.44621903101E+01 0.45850597859E+01 0.47627075097E+01
 0.50433179014E+01 0.54699787155E+01 0.60468802217E+01 0.67470304565E+01 0.75113258429E+01
 0.69149337516E+01 0.71144582516E+01 0.70064434057E+01 0.65802013960E+01 0.59604317871E+01
 0.53325074394E+01 0.48286589481E+01 0.44842721074E+01 0.42783342774E+01 0.41819235937E+01
 0.41723051723E+01 0.42292613122E+01 0.43308086330E+01 0.44621903101E+01 0.46285818578E+01
 0.48541019456E+01 0.51648651688E+01 0.55687245536E+01 0.60412357987E+01 0.65186978085E+01
 0.62262422221E+01 0.62953938458E+01 0.61895740217E+01 0.59077497238E+01 0.54998931738E+01
 0.50543036014E+01 0.46584192684E+01 0.43645415548E+01 0.41819235937E+01 0.40943377220E+01
 0.40818370843E+01 0.41300936830E+01 0.42292613122E+01 0.43731045403E+01 0.45612442530E+01
 0.47978288765E+01 0.50829692319E+01 0.54033038573E+01 0.57295923051E+01 0.60204098349E+01
 0.60039432674E+01 0.59451801767E+01 0.57745746191E+01 0.55114492690E+01 0.51912493621E+01
 0.48606635049E+01 0.45644054944E+01 0.43317792894E+01 0.41723051723E+01 0.40818370843E+01
 0.40528060854E+01 0.40818370843E+01 0.41723051723E+01 0.43317792894E+01 0.45644054944E+01
 0.48606635049E+01 0.51912493621E+01 0.55114492690E+01 0.57745746191E+01 0.59451801767E+01
 0.62262422221E+01 0.60204098349E+01 0.57295923051E+01 0.54033038573E+01 0.50829692319E+01
 0.47978288765E+01 0.45612442530E+01 0.43731045403E+01 0.42292613122E+01 0.41300936830E+01
 0.40818370843E+01 0.40943377220E+01 0.41819235937E+01 0.43645415548E+01 0.46584192684E+01
 0.50543036014E+01 0.54998931738E+01 0.59077497238E+01 0.61895740217E+01 0.62953938458E+01
 0.69149337516E+01 0.65186978085E+01 0.60412357987E+01 0.55687245536E+01 0.51648651688E+01
 0.48541019456E+01 0.46285818578E+01 0.44621903101E+01 0.43308086330E+01 0.42292613122E+01
 0.41723051723E+01 0.41819235937E+01 0.42783342774E+01 0.44842721074E+01 0.48286589481E+01
 0.53325074394E+01 0.59604317871E+01 0.65802013960E+01 0.70064434057E+01 0.71144582516E+01
 0.81555260019E+01 0.75113258429E+01 0.67470304565E+01 0.60468802217E+01 0.54699787155E+01
 0.50433179014E+01 0.47627075097E+01 0.45850597859E+01 0.44621903101E+01 0.43731045403E+01
 0.43317792894E+01 0.43645415548E+01 0.44842721074E+01 0.46967265669E+01 0.50410188536E+01
 0.56017366172E+01 0.64226905561E+01 0.73699524502E+01 0.81335482981E+01 0.84196952940E+01
 0.96504862142E+01 0.89185403539E+01 0.78838629371E+01 0.68658785452E+01 0.60387434622E+01
 0.54251758889E+01 0.50075187578E+01 0.47627075097E+01 0.46285818578E+01 0.45612442530E+01
 0.45644054944E+01 0.46584192684E+01 0.48286589481E+01 0.50410188536E+01 0.53133847146E+01
 0.57951471998E+01 0.66678440922E+01 0.78854303478E+01 0.90712380045E+01 0.97419063185E+01
 0.10678050476E+02 0.10126838559E+02 0.91073783630E+01 0.79473491443E+01 0.68766845608E+01
 0.60287708929E+01 0.54251758889E+01 0.50433179014E+01 0.48541019456E+01 0.47978288765E+01
 0.48606635049E+01 0.50543036014E+01 0.53325074394E+01 0.56017366172E+01 0.57951471998E+01
 0.60737362735E+01 0.67668337447E+01 0.79968915988E+01 0.94248329342E+01 0.10452707270E+02
 0.10962862820E+02 0.10629395734E+02 0.98837061497E+01 0.89488303204E+01 0.79078278799E+01
 0.68766845608E+01 0.60387434622E+01 0.54699787155E+01 0.51648651688E+01 0.50829692319E+01
 0.51912493621E+01 0.54998931738E+01 0.59604317871E+01 0.64226905561E+01 0.66678440922E+01
 0.67668337447E+01 0.71440478031E+01 0.81225760590E+01 0.94797699218E+01 0.10584515293E+02
 0.11130138794E+02 0.10745934923E+02 0.10182549522E+02 0.96460516646E+01 0.89488303204E+01
 0.79473491443E+01 0.68658785452E+01 0.60468802217E+01 0.55687245536E+01 0.54033038573E+01
 0.55114492690E+01 0.59077497238E+01 0.65802013960E+01 0.73699524502E+01 0.78854303478E+01
 0.79968915988E+01 0.81225760590E+01 0.87803104554E+01 0.99148930119E+01 0.10880495787E+02
 0.11935288339E+02 0.11265872504E+02 0.10535220249E+02 0.10182549522E+02 0.98837061497E+01
 0.91073783630E+01 0.78838629371E+01 0.67470304565E+01 0.60412357987E+01 0.57295923051E+01
 0.57745746191E+01 0.61895740217E+01 0.70064434057E+01 0.81335482981E+01 0.90712380045E+01
 0.94248329342E+01 0.94797699218E+01 0.99148930119E+01 0.10913563361E+02 0.11833058602E+02
 0.13172852181E+02 0.12347668643E+02 0.11265872504E+02 0.10745934923E+02 0.10629395734E+02
 0.10126838559E+02 0.89185403539E+01 0.75113258429E+01 0.65186978085E+01 0.60204098349E+01
 0.59451801767E+01 0.62953938458E+01 0.71144582516E+01 0.84196952940E+01 0.97419063185E+01
 0.10452707270E+02 0.10584515293E+02 0.10880495787E+02 0.11833058602E+02 0.12925162625E+02
 0.13172852181E+02 0.12925162625E+02 0.11833058602E+02 0.10880495787E+02 0.10584515293E+02
 0.10452707270E+02 0.97419063185E+01 0.84196952940E+01 0.71144582516E+01 0.62953938458E+01
 0.59451801767E+01 0.60204098349E+01 0.65186978085E+01 0.75113258429E+01 0.89185403539E+01
 0.10126838559E+02 0.10629395734E+02 0.10745934923E+02 0.11265872504E+02 0.12347668643E+02
 0.12925162625E+02 0.13141777637E+02 0.12313420850E+02 0.11251810276E+02 0.10740490904E+02
 0.10618660224E+02 0.10121708695E+02 0.89271030954E+01 0.75178332086E+01 0.65127591310E+01
 0.60162675896E+01 0.59517753460E+01 0.62982981105E+01 0.71063260476E+01 0.84169776310E+01
 0.97533994615E+01 0.10463762929E+02 0.10588905796E+02 0.10893062503E+02 0.11853312631E+02
 0.11833058602E+02 0.12313420850E+02 0.11832997889E+02 0.10859204343E+02 0.10202771439E+02
 0.10026479995E+02 0.97399442012E+01 0.88486923867E+01 0.75846631730E+01 0.65443784602E+01
 0.59619663306E+01 0.57778873840E+01 0.59619831855E+01 0.65443911893E+01 0.75846505678E+01
 0.88486559847E+01 0.97399123654E+01 0.10026487464E+02 0.10202829795E+02 0.10859288031E+02
 0.10880495787E+02 0.11251810276E+02 0.10859204343E+02 0.99226695019E+01 0.91341736633E+01
 0.88429564004E+01 0.86936205133E+01 0.81630952276E+01 0.72364786669E+01 0.63461775231E+01
 0.57752531785E+01 0.55282038195E+01 0.55862151514E+01 0.59710774070E+01 0.67086941342E+01
 0.77567862764E+01 0.87583402959E+01 0.93702100934E+01 0.97161600396E+01 0.10202126032E+02
 0.10584515293E+02 0.10740490904E+02 0.10202771439E+02 0.91341736633E+01 0.81225640480E+01
 0.75990116878E+01 0.74209245194E+01 0.71410565501E+01 0.65768838757E+01 0.59439236918E+01
 0.54767461976E+01 0.52372506155E+01 0.52287539546E+01 0.54586475329E+01 0.59636086408E+01
 0.67439121104E+01 0.77143192121E+01 0.86324282485E+01 0.93782269904E+01 0.10031622598E+02
 0.10452707270E+02 0.10618660224E+02 0.10026479995E+02 0.88429564004E+01 0.75990116878E+01
 0.67709730780E+01 0.63964989520E+01 0.61651775106E+01 0.58339266629E+01 0.54396981187E+01
 0.51171854760E+01 0.49409827198E+01 0.49230783082E+01 0.50568926245E+01 0.53860234518E+01
 0.59423648169E+01 0.67348491577E+01 0.77190046383E+01 0.87639916077E+01 0.97374742561E+01
 0.97419063185E+01 0.10121708695E+02 0.97399442012E+01 0.86936205133E+01 0.74209245194E+01
 0.63964989520E+01 0.57951396268E+01 0.54674794260E+01 0.52064290984E+01 0.49566806521E+01
 0.47621503502E+01 0.46701403698E+01 0.46799244131E+01 0.47743627678E+01 0.49807565164E+01
 0.53610320125E+01 0.59425772060E+01 0.67437194517E+01 0.77523147234E+01 0.88380804876E+01
 0.84196952940E+01 0.89271030954E+01 0.88486923867E+01 0.81630952276E+01 0.71410565501E+01
 0.61651775106E+01 0.54674794260E+01 0.50394106968E+01 0.47651865434E+01 0.45761133847E+01
 0.44665570998E+01 0.44444650368E+01 0.44919757321E+01 0.45851179824E+01 0.47319330420E+01
 0.49802635967E+01 0.53843936853E+01 0.59604170401E+01 0.67044771109E+01 0.75821070401E+01
 0.71144582516E+01 0.75178332086E+01 0.75846631730E+01 0.72364786669E+01 0.65768838757E+01
 0.58339266629E+01 0.52064290984E+01 0.47651865434E+01 0.44842770258E+01 0.43222800032E+01
 0.42570246109E+01 0.42722940644E+01 0.43447542991E+01 0.44504509206E+01 0.45852608515E+01
 0.47741620685E+01 0.50566380222E+01 0.54597197031E+01 0.59749129264E+01 0.65511994179E+01
 0.62953938458E+01 0.65127591310E+01 0.65443784602E+01 0.63461775231E+01 0.59439236918E+01
 0.54396981187E+01 0.49566806521E+01 0.45761133847E+01 0.43222800032E+01 0.41824161324E+01
 0.41331346186E+01 0.41548206162E+01 0.42304637179E+01 0.43449492182E+01 0.44922136951E+01
 0.46803872128E+01 0.49245315472E+01 0.52314814735E+01 0.55889890968E+01 0.59626275385E+01
 0.59451801767E+01 0.60162675896E+01 0.59619663306E+01 0.57752531785E+01 0.54767461976E+01
 0.51171854760E+01 0.47621503502E+01 0.44665570998E+01 0.42570246109E+01 0.41331346186E+01
 0.40818418703E+01 0.40910566801E+01 0.41547938610E+01 0.42721261077E+01 0.44442125716E+01
 0.46700282057E+01 0.49406854126E+01 0.52355353745E+01 0.55238967734E+01 0.57713538243E+01
 0.60204098349E+01 0.59517753460E+01 0.57778873840E+01 0.55282038195E+01 0.52372506155E+01
 0.49409827198E+01 0.46701403698E+01 0.44444650368E+01 0.42722940644E+01 0.41548206162E+01
 0.40910566801E+01 0.40817317536E+01 0.41327473316E+01 0.42564835661E+01 0.44660861592E+01
 0.47614990864E+01 0.51157270243E+01 0.54744648432E+01 0.57734548622E+01 0.59626275385E+01
 0.65186978085E+01 0.62982981105E+01 0.59619831855E+01 0.55862151514E+01 0.52287539546E+01
 0.49230783082E+01 0.46799244131E+01 0.44919757321E+01 0.43447542991E+01 0.42304637179E+01
 0.41547938610E+01 0.41327473316E+01 0.41819287387E+01 0.43222803247E+01 0.45766597754E+01
 0.49574394629E+01 0.54409906850E+01 0.59469062784E+01 0.63515581349E+01 0.65511994179E+01
 0.75113258429E+01 0.71063260476E+01 0.65443911893E+01 0.59710774070E+01 0.54586475329E+01
 0.50568926245E+01 0.47743627678E+01 0.45851179824E+01 0.44504509206E+01 0.43449492182E+01
 0.42721261077E+01 0.42564835661E+01 0.43222803247E+01 0.44854160809E+01 0.47670063896E+01
 0.52084580457E+01 0.58364395708E+01 0.65796842893E+01 0.72377107806E+01 0.75821070401E+01
 0.89185403539E+01 0.84169776310E+01 0.75846505678E+01 0.67086941342E+01 0.59636086408E+01
 0.53860234518E+01 0.49807565164E+01 0.47319330420E+01 0.45852608515E+01 0.44922136951E+01
 0.44442125716E+01 0.44660861592E+01 0.45766597754E+01 0.47670063896E+01 0.50410326781E+01
 0.54674996572E+01 0.61632415567E+01 0.71365056474E+01 0.81548805239E+01 0.88380804876E+01
 0.10126838559E+02 0.97533994615E+01 0.88486559847E+01 0.77567862764E+01 0.67439121104E+01
 0.59423648169E+01 0.53610320125E+01 0.49802635967E+01 0.47741620685E+01 0.46803872128E+01
 0.46700282057E+01 0.47614990864E+01 0.49574394629E+01 0.52084580457E+01 0.54674996572E+01
 0.57912838581E+01 0.63904195702E+01 0.74144583958E+01 0.86876437303E+01 0.97374742561E+01
 0.10629395734E+02 0.10463762929E+02 0.97399123654E+01 0.87583402959E+01 0.77143192121E+01
 0.67348491577E+01 0.59425772060E+01 0.53843936853E+01 0.50566380222E+01 0.49245315472E+01
 0.49406854126E+01 0.51157270243E+01 0.54409906850E+01 0.58364395708E+01 0.61632415567E+01
 0.63904195702E+01 0.67668490630E+01 0.75990320291E+01 0.88449409679E+01 0.10031622598E+02
 0.10745934923E+02 0.10588905796E+02 0.10026487464E+02 0.93702100934E+01 0.86324282485E+01
 0.77190046383E+01 0.67437194517E+01 0.59604170401E+01 0.54597197031E+01 0.52314814735E+01
 0.52355353745E+01 0.54744648432E+01 0.59469062784E+01 0.65796842893E+01 0.71365056474E+01
 0.74144583958E+01 0.75990320291E+01 0.81254211313E+01 0.91331080457E+01 0.10202126032E+02
 0.11265872504E+02 0.10893062503E+02 0.10202829795E+02 0.97161600396E+01 0.93782269904E+01
 0.87639916077E+01 0.77523147234E+01 0.67044771109E+01 0.59749129264E+01 0.55889890968E+01
 0.55238967734E+01 0.57734548622E+01 0.63515581349E+01 0.72377107806E+01 0.81548805239E+01
 0.86876437303E+01 0.88449409679E+01 0.91331080457E+01 0.99149292528E+01 0.10859288031E+02
 0.12347668643E+02 0.11853312631E+02 0.10859288031E+02 0.10202126032E+02 0.10031622598E+02
 0.97374742561E+01 0.88380804876E+01 0.75821070401E+01 0.65511994179E+01 0.59626275385E+01
 0.57713538243E+01 0.59626275385E+01 0.65511994179E+01 0.75821070401E+01 0.88380804876E+01
 0.97374742561E+01 0.10031622598E+02 0.10202126032E+02 0.10859288031E+02 0.11853312631E+02
 0.11935288339E+02 0.11833058602E+02 0.10913563361E+02 0.99148930119E+01 0.94797699218E+01
 0.94248329342E+01 0.90712380045E+01 0.81335482981E+01 0.70064434057E+01 0.61895740217E+01
 0.57745746191E+01 0.57295923051E+01 0.60412357987E+01 0.67470304565E+01 0.78838629371E+01
 0.91073783630E+01 0.98837061497E+01 0.10182549522E+02 0.10535220249E+02 0.11265872504E+02
 0.11833058602E+02 0.12313420850E+02 0.11832997889E+02 0.10859204343E+02 0.10202771439E+02
 0.10026479995E+02 0.97399442012E+01 0.88486923867E+01 0.75846631730E+01 0.65443784602E+01
 0.59619663306E+01 0.57778873840E+01 0.59619831855E+01 0.65443911893E+01 0.75846505678E+01
 0.88486559847E+01 0.97399123654E+01 0.10026487464E+02 0.10202829795E+02 0.10859288031E+02
 0.10913563361E+02 0.11832997889E+02 0.11935179590E+02 0.11265759214E+02 0.10535147927E+02
 0.10182535944E+02 0.98837328229E+01 0.91074082736E+01 0.78838694134E+01 0.67470142568E+01
 0.60412181404E+01 0.57295920089E+01 0.57745899329E+01 0.61895847570E+01 0.70064308562E+01
 0.81335147197E+01 0.90712075372E+01 0.94248316734E+01 0.94798011761E+01 0.99149292528E+01
 0.99148930119E+01 0.10859204343E+02 0.11265759214E+02 0.10892957283E+02 0.10202766096E+02
 0.97161459429E+01 0.93782427352E+01 0.87640065717E+01 0.77523102111E+01 0.67044571082E+01
 0.59748957855E+01 0.55889887776E+01 0.55239099049E+01 0.57734644279E+01 0.63515496182E+01
 0.72376860663E+01 0.81548565921E+01 0.86876367150E+01 0.88449488979E+01 0.91331080457E+01
 0.94797699218E+01 0.10202771439E+02 0.10535147927E+02 0.10202766096E+02 0.94797633407E+01
 0.88449378697E+01 0.84219458185E+01 0.79426326142E+01 0.72126376798E+01 0.63934759879E+01
 0.57549691285E+01 0.53708938461E+01 0.52494703257E+01 0.53709016211E+01 0.57549796555E+01
 0.63934830526E+01 0.72126385240E+01 0.79426296717E+01 0.84219442008E+01 0.88449409679E+01
 0.94248329342E+01 0.10026479995E+02 0.10182535944E+02 0.97161459429E+01 0.88449378697E+01
 0.80036073121E+01 0.74209315903E+01 0.69750912212E+01 0.64659386419E+01 0.58984720614E+01
 0.54182760757E+01 0.51031729400E+01 0.49824537491E+01 0.50316290205E+01 0.52648675771E+01
 0.57145845340E+01 0.63682220860E+01 0.71577418545E+01 0.79426358370E+01 0.86876437303E+01
 0.90712380045E+01 0.97399442012E+01 0.98837328229E+01 0.93782427352E+01 0.84219458185E+01
 0.74209315903E+01 0.66678434702E+01 0.61632277106E+01 0.57531370923E+01 0.53643589001E+01
 0.50376883993E+01 0.48237016891E+01 0.47446809928E+01 0.47736498712E+01 0.49115265002E+01
 0.52089601578E+01 0.56951376085E+01 0.63682281292E+01 0.72126533431E+01 0.81548805239E+01
 0.81335482981E+01 0.88486923867E+01 0.91074082736E+01 0.87640065717E+01 0.79426326142E+01
 0.69750912212E+01 0.61632277106E+01 0.55986853533E+01 0.52064412793E+01 0.49085624312E+01
 0.46903602669E+01 0.45703924612E+01 0.45468482309E+01 0.45892608304E+01 0.46864798551E+01
 0.48742622759E+01 0.52089623985E+01 0.57145913405E+01 0.63934976701E+01 0.72377107806E+01
 0.70064434057E+01 0.75846631730E+01 0.78838694134E+01 0.77523102111E+01 0.72126376798E+01
 0.64659386419E+01 0.57531370923E+01 0.52064412793E+01 0.48286756774E+01 0.45766712584E+01
 0.44259426755E+01 0.43698876241E+01 0.43898615302E+01 0.44553603211E+01 0.45488170239E+01
 0.46864807908E+01 0.49115276526E+01 0.52648692794E+01 0.57549837690E+01 0.63515581349E+01
 0.61895740217E+01 0.65443784602E+01 0.67470142568E+01 0.67044571082E+01 0.63934759879E+01
 0.58984720614E+01 0.53643589001E+01 0.49085624312E+01 0.45766712584E+01 0.43654634356E+01
 0.42570357072E+01 0.42323221421E+01 0.42710773275E+01 0.43505670494E+01 0.44553613900E+01
 0.45892617101E+01 0.47736485227E+01 0.50316242479E+01 0.53708938305E+01 0.57734548622E+01
 0.57745746191E+01 0.59619663306E+01 0.60412181404E+01 0.59748957855E+01 0.57549691285E+01
 0.54182760757E+01 0.50376883993E+01 0.46903602669E+01 0.44259426755E+01 0.42570357072E+01
 0.41723193372E+01 0.41548022294E+01 0.41908933288E+01 0.42710778697E+01 0.43898624077E+01
 0.45468481036E+01 0.47446782207E+01 0.49824473064E+01 0.52494601911E+01 0.55238967734E+01
 0.57295923051E+01 0.57778873840E+01 0.57295920089E+01 0.55889887776E+01 0.53708938461E+01
 0.51031729400E+01 0.48237016891E+01 0.45703924612E+01 0.43698876241E+01 0.42323221421E+01
 0.41548022294E+01 0.41301147832E+01 0.41548019184E+01 0.42323214854E+01 0.43698866269E+01
 0.45703913223E+01 0.48237007116E+01 0.51031723975E+01 0.53708938305E+01 0.55889890968E+01
 0.60412357987E+01 0.59619831855E+01 0.57745899329E+01 0.55239099049E+01 0.52494703257E+01
 0.49824537491E+01 0.47446809928E+01 0.45468482309E+01 0.43898615302E+01 0.42710773275E+01
 0.41908933288E+01 0.41548019184E+01 0.41723177053E+01 0.42570327222E+01 0.44259398639E+01
 0.46903600781E+01 0.50376929984E+01 0.54182862027E+01 0.57549837690E+01 0.59749129264E+01
 0.67470304565E+01 0.65443911893E+01 0.61895847570E+01 0.57734644279E+01 0.53709016211E+01
 0.50316290205E+01 0.47736498712E+01 0.45892608304E+01 0.44553603211E+01 0.43505670494E+01
 0.42710778697E+01 0.42323214854E+01 0.42570327222E+01 0.43654593454E+01 0.45766695315E+01
 0.49085669840E+01 0.53643715697E+01 0.58984912525E+01 0.63934976701E+01 0.67044771109E+01
 0.78838629371E+01 0.75846505678E+01 0.70064308562E+01 0.63515496182E+01 0.57549796555E+01
 0.52648675771E+01 0.49115265002E+01 0.46864798551E+01 0.45488170239E+01 0.44553613900E+01
 0.43898624077E+01 0.43698866269E+01 0.44259398639E+01 0.45766695315E+01 0.48286796398E+01
 0.52064540276E+01 0.57531572624E+01 0.64659603669E+01 0.72126533431E+01 0.77523147234E+01
 0.91073783630E+01 0.88486559847E+01 0.81335147197E+01 0.72376860663E+01 0.63934830526E+01
 0.57145845340E+01 0.52089601578E+01 0.48742622759E+01 0.46864807908E+01 0.45892617101E+01
 0.45468481036E+01 0.45703913223E+01 0.46903600781E+01 0.49085669840E+01 0.52064540276E+01
 0.55987061780E+01 0.61632514906E+01 0.69751090130E+01 0.79426358370E+01 0.87639916077E+01
 0.98837061497E+01 0.97399123654E+01 0.90712075372E+01 0.81548565921E+01 0.72126385240E+01
 0.63682220860E+01 0.56951376085E+01 0.52089623985E+01 0.49115276526E+01 0.47736485227E+01
 0.47446782207E+01 0.48237007116E+01 0.50376929984E+01 0.53643715697E+01 0.57531572624E+01
 0.61632514906E+01 0.66678645759E+01 0.74209434596E+01 0.84219442008E+01 0.93782269904E+01
 0.10182549522E+02 0.10026487464E+02 0.94248316734E+01 0.86876367150E+01 0.79426296717E+01
 0.71577418545E+01 0.63682281292E+01 0.57145913405E+01 0.52648692794E+01 0.50316242479E+01
 0.49824473064E+01 0.51031723975E+01 0.54182862027E+01 0.58984912525E+01 0.64659603669E+01
 0.69751090130E+01 0.74209434596E+01 0.80036164920E+01 0.88449488979E+01 0.97161600396E+01
 0.10535220249E+02 0.10202829795E+02 0.94798011761E+01 0.88449488979E+01 0.84219442008E+01
 0.79426358370E+01 0.72126533431E+01 0.63934976701E+01 0.57549837690E+01 0.53708938305E+01
 0.52494601911E+01 0.53708938305E+01 0.57549837690E+01 0.63934976701E+01 0.72126533431E+01
 0.79426358370E+01 0.84219442008E+01 0.88449488979E+01 0.94798011761E+01 0.10202829795E+02
 0.11265872504E+02 0.10859288031E+02 0.99149292528E+01 0.91331080457E+01 0.88449409679E+01
 0.86876437303E+01 0.81548805239E+01 0.72377107806E+01 0.63515581349E+01 0.57734548622E+01
 0.55238967734E+01 0.55889890968E+01 0.59749129264E+01 0.67044771109E+01 0.77523147234E+01
 0.87639916077E+01 0.93782269904E+01 0.97161600396E+01 0.10202829795E+02 0.10893062503E+02
 0.11130138794E+02 0.10880495787E+02 0.99148930119E+01 0.87803104554E+01 0.81225760590E+01
 0.79968915988E+01 0.78854303478E+01 0.73699524502E+01 0.65802013960E+01 0.59077497238E+01
 0.55114492690E+01 0.54033038573E+01 0.55687245536E+01 0.60468802217E+01 0.68658785452E+01
 0.79473491443E+01 0.89488303204E+01 0.96460516646E+01 0.10182549522E+02 0.10745934923E+02
 0.10880495787E+02 0.11251810276E+02 0.10859204343E+02 0.99226695019E+01 0.91341736633E+01
 0.88429564004E+01 0.86936205133E+01 0.81630952276E+01 0.72364786669E+01 0.63461775231E+01
 0.57752531785E+01 0.55282038195E+01 0.55862151514E+01 0.59710774070E+01 0.67086941342E+01
 0.77567862764E+01 0.87583402959E+01 0.93702100934E+01 0.97161600396E+01 0.10202126032E+02
 0.99148930119E+01 0.10859204343E+02 0.11265759214E+02 0.10892957283E+02 0.10202766096E+02
 0.97161459429E+01 0.93782427352E+01 0.87640065717E+01 0.77523102111E+01 0.67044571082E+01
 0.59748957855E+01 0.55889887776E+01 0.55239099049E+01 0.57734644279E+01 0.63515496182E+01
 0.72376860663E+01 0.81548565921E+01 0.86876367150E+01 0.88449488979E+01 0.91331080457E+01
 0.87803104554E+01 0.99226695019E+01 0.10892957283E+02 0.11133273758E+02 0.10740492986E+02
 0.10182990607E+02 0.96539054564E+01 0.89510860783E+01 0.79417893708E+01 0.68641177919E+01
 0.60512159409E+01 0.55692556439E+01 0.53991136243E+01 0.55119400322E+01 0.59121684136E+01
 0.65782253280E+01 0.73630148330E+01 0.78853569769E+01 0.80036164920E+01 0.81254211313E+01
 0.81225760590E+01 0.91341736633E+01 0.10202766096E+02 0.10740492986E+02 0.10584534034E+02
 0.10031655950E+02 0.93782621255E+01 0.86324500977E+01 0.77143208328E+01 0.67438987547E+01
 0.59635930778E+01 0.54586404780E+01 0.52287571631E+01 0.52372578642E+01 0.54767504042E+01
 0.59439238646E+01 0.65768857429E+01 0.71410667389E+01 0.74209434596E+01 0.75990320291E+01
 0.79968915988E+01 0.88429564004E+01 0.97161459429E+01 0.10182990607E+02 0.10031655950E+02
 0.94346533408E+01 0.86936464905E+01 0.79404754158E+01 0.71539741850E+01 0.63687256201E+01
 0.57160374144E+01 0.52635274001E+01 0.50305799507E+01 0.49840084762E+01 0.51036611727E+01
 0.54162575313E+01 0.58986528898E+01 0.64693651125E+01 0.69751090130E+01 0.74144583958E+01
 0.78854303478E+01 0.86936205133E+01 0.93782427352E+01 0.96539054564E+01 0.93782621255E+01
 0.86936464905E+01 0.78854468912E+01 0.71365051982E+01 0.64659483499E+01 0.58622122248E+01
 0.53671720469E+01 0.50135946279E+01 0.48251427625E+01 0.47716543361E+01 0.48251338522E+01
 0.50135855871E+01 0.53671723912E+01 0.58622231237E+01 0.64659603669E+01 0.71365056474E+01
 0.73699524502E+01 0.81630952276E+01 0.87640065717E+01 0.89510860783E+01 0.86324500977E+01
 0.79404754158E+01 0.71365051982E+01 0.64177659256E+01 0.58339458748E+01 0.53644233844E+01
 0.50019014937E+01 0.47549298874E+01 0.46336350755E+01 0.46058886899E+01 0.46398912982E+01
 0.47491382619E+01 0.49817495686E+01 0.53667019612E+01 0.58984912525E+01 0.65796842893E+01
 0.65802013960E+01 0.72364786669E+01 0.77523102111E+01 0.79417893708E+01 0.77143208328E+01
 0.71539741850E+01 0.64659483499E+01 0.58339458748E+01 0.53325300784E+01 0.49574584445E+01
 0.46903720446E+01 0.45317687444E+01 0.44727578096E+01 0.44804834803E+01 0.45232680074E+01
 0.46008756235E+01 0.47491480102E+01 0.50142768006E+01 0.54182862027E+01 0.59469062784E+01
 0.59077497238E+01 0.63461775231E+01 0.67044571082E+01 0.68641177919E+01 0.67438987547E+01
 0.63687256201E+01 0.58622122248E+01 0.53644233844E+01 0.49574584445E+01 0.46594825133E+01
 0.44665760342E+01 0.43697324800E+01 0.43513283371E+01 0.43845330414E+01 0.44440264743E+01
 0.45231124361E+01 0.46398814739E+01 0.48252903097E+01 0.51031723975E+01 0.54744648432E+01
 0.55114492690E+01 0.57752531785E+01 0.59748957855E+01 0.60512159409E+01 0.59635930778E+01
 0.57160374144E+01 0.53671720469E+01 0.50019014937E+01 0.46903720446E+01 0.44665760342E+01
 0.43317972508E+01 0.42721367776E+01 0.42710807199E+01 0.43128790487E+01 0.43844877307E+01
 0.44804594547E+01 0.46057582418E+01 0.47709318225E+01 0.49824473064E+01 0.52355353745E+01
 0.54033038573E+01 0.55282038195E+01 0.55889887776E+01 0.55692556439E+01 0.54586404780E+01
 0.52635274001E+01 0.50135946279E+01 0.47549298874E+01 0.45317687444E+01 0.43697324800E+01
 0.42721367776E+01 0.42292201230E+01 0.42304726484E+01 0.42711308669E+01 0.43515171344E+01
 0.44729977809E+01 0.46337224912E+01 0.48252903097E+01 0.50316242479E+01 0.52314814735E+01
 0.55687245536E+01 0.55862151514E+01 0.55239099049E+01 0.53991136243E+01 0.52287571631E+01
 0.50305799507E+01 0.48251427625E+01 0.46336350755E+01 0.44727578096E+01 0.43513283371E+01
 0.42710807199E+01 0.42304726484E+01 0.42292730794E+01 0.42723028891E+01 0.43698888288E+01
 0.45317620420E+01 0.47550021211E+01 0.50142768006E+01 0.52648692794E+01 0.54597197031E+01
 0.60468802217E+01 0.59710774070E+01 0.57734644279E+01 0.55119400322E+01 0.52372578642E+01
 0.49840084762E+01 0.47716543361E+01 0.46058886899E+01 0.44804834803E+01 0.43845330414E+01
 0.43128790487E+01 0.42711308669E+01 0.42723028891E+01 0.43317932616E+01 0.44660943691E+01
 0.46896396682E+01 0.50013955336E+01 0.53667019612E+01 0.57145913405E+01 0.59604170401E+01
 0.68658785452E+01 0.67086941342E+01 0.63515496182E+01 0.59121684136E+01 0.54767504042E+01
 0.51036611727E+01 0.48251338522E+01 0.46398912982E+01 0.45232680074E+01 0.44440264743E+01
 0.43844877307E+01 0.43515171344E+01 0.43698888288E+01 0.44660943691E+01 0.46584333729E+01
 0.49566968271E+01 0.53643728807E+01 0.58622231237E+01 0.63682281292E+01 0.67437194517E+01
 0.79473491443E+01 0.77567862764E+01 0.72376860663E+01 0.65782253280E+01 0.59439238646E+01
 0.54162575313E+01 0.50135855871E+01 0.47491382619E+01 0.46008756235E+01 0.45231124361E+01
 0.44804594547E+01 0.44729977809E+01 0.45317620420E+01 0.46896396682E+01 0.49566968271E+01
 0.53331858396E+01 0.58364469354E+01 0.64693651125E+01 0.71577418545E+01 0.77190046383E+01
 0.89488303204E+01 0.87583402959E+01 0.81548565921E+01 0.73630148330E+01 0.65768857429E+01
 0.58986528898E+01 0.53671723912E+01 0.49817495686E+01 0.47491480102E+01 0.46398814739E+01
 0.46057582418E+01 0.46337224912E+01 0.47550021211E+01 0.50013955336E+01 0.53643728807E+01
 0.58364469354E+01 0.64227032770E+01 0.71410667389E+01 0.79426296717E+01 0.86324282485E+01
 0.96460516646E+01 0.93702100934E+01 0.86876367150E+01 0.78853569769E+01 0.71410667389E+01
 0.64693651125E+01 0.58622231237E+01 0.53667019612E+01 0.50142768006E+01 0.48252903097E+01
 0.47709318225E+01 0.48252903097E+01 0.50142768006E+01 0.53667019612E+01 0.58622231237E+01
 0.64693651125E+01 0.71410667389E+01 0.78853569769E+01 0.86876367150E+01 0.93702100934E+01
 0.10182549522E+02 0.97161600396E+01 0.88449488979E+01 0.80036164920E+01 0.74209434596E+01
 0.69751090130E+01 0.64659603669E+01 0.58984912525E+01 0.54182862027E+01 0.51031723975E+01
 0.49824473064E+01 0.50316242479E+01 0.52648692794E+01 0.57145913405E+01 0.63682281292E+01
 0.71577418545E+01 0.79426296717E+01 0.86876367150E+01 0.94248316734E+01 0.10026487464E+02
 0.10745934923E+02 0.10202126032E+02 0.91331080457E+01 0.81254211313E+01 0.75990320291E+01
 0.74144583958E+01 0.71365056474E+01 0.65796842893E+01 0.59469062784E+01 0.54744648432E+01
 0.52355353745E+01 0.52314814735E+01 0.54597197031E+01 0.59604170401E+01 0.67437194517E+01
 0.77190046383E+01 0.86324282485E+01 0.93702100934E+01 0.10026487464E+02 0.10588905796E+02
 0.10962862820E+02 0.10584515293E+02 0.94797699218E+01 0.81225760590E+01 0.71440478031E+01
 0.67668337447E+01 0.66678440922E+01 0.64226905561E+01 0.59604317871E+01 0.54998931738E+01
 0.51912493621E+01 0.50829692319E+01 0.51648651688E+01 0.54699787155E+01 0.60387434622E+01
 0.68766845608E+01 0.79078278799E+01 0.89488303204E+01 0.98837061497E+01 0.10629395734E+02
 0.10584515293E+02 0.10740490904E+02 0.10202771439E+02 0.91341736633E+01 0.81225640480E+01
 0.75990116878E+01 0.74209245194E+01 0.71410565501E+01 0.65768838757E+01 0.59439236918E+01