   1   1   1   0
  0.1585526E+02  0.2741144E-09  0.2741144E-09  0.2741144E-09  0.5000000E-15
  1.000000000000000E-004
  CAR 
 W bcc                                   
     54.41578695     -4.41406443  301      7.81005576      1.00000000
     -4.414  0.0000E+00  0.0000E+00
     -4.218  0.0000E+00  0.0000E+00
     -4.022  0.0000E+00  0.0000E+00
     -3.826  0.0000E+00  0.0000E+00
     -3.630  0.0000E+00  0.0000E+00
     -3.434 -0.1319E-32 -0.2587E-33
     -3.237 -0.7263E-26 -0.1424E-26
     -3.041 -0.5747E-20 -0.1127E-20
     -2.845 -0.6295E-15 -0.1234E-15
     -2.649 -0.9951E-11 -0.1952E-11
     -2.453 -0.2179E-07 -0.4275E-08
     -2.257 -0.6363E-05 -0.1252E-05
     -2.061 -0.2199E-03 -0.4437E-04
     -1.865 -0.5727E-04 -0.5560E-04
     -1.669  0.9238E-02  0.1756E-02
     -1.473  0.2665E-01  0.6981E-02
     -1.276  0.3537E-01  0.1392E-01
     -1.080  0.5151E-01  0.2402E-01
     -0.884  0.4448E-01  0.3274E-01
     -0.688  0.7708E-01  0.4786E-01
     -0.492  0.6240E-01  0.6009E-01
     -0.296  0.7410E-01  0.7462E-01
     -0.100  0.1069E+00  0.9559E-01
      0.096  0.8897E-01  0.1130E+00
      0.292  0.9226E-01  0.1311E+00
      0.488  0.1505E+00  0.1606E+00
      0.685  0.1272E+00  0.1856E+00
      0.881  0.1264E+00  0.2104E+00
      1.077  0.1872E+00  0.2471E+00
      1.273  0.2208E+00  0.2904E+00
      1.469  0.2015E+00  0.3299E+00
      1.665  0.4642E+00  0.4209E+00
      1.861  0.6408E+00  0.5466E+00
      2.057  0.6237E+00  0.6689E+00
      2.253  0.6990E+00  0.8060E+00
      2.449  0.7562E+00  0.9543E+00
      2.646  0.8790E+00  0.1127E+01
      2.842  0.7939E+00  0.1282E+01
      3.038  0.1169E+01  0.1512E+01
      3.234  0.1023E+01  0.1712E+01
      3.430  0.1080E+01  0.1924E+01
      3.626  0.6206E+00  0.2046E+01
      3.822  0.4478E+00  0.2133E+01
      4.018  0.3232E+00  0.2197E+01
      4.214  0.4971E+00  0.2294E+01
      4.410  0.1285E+01  0.2546E+01
      4.607  0.1986E+01  0.2936E+01
      4.803  0.1732E+01  0.3275E+01
      4.999  0.1292E+01  0.3529E+01
      5.195  0.1128E+01  0.3750E+01
      5.391  0.1032E+01  0.3952E+01
      5.587  0.1141E+01  0.4176E+01
      5.783  0.1808E+01  0.4531E+01
      5.979  0.1734E+01  0.4870E+01
      6.175  0.1240E+01  0.5114E+01
      6.371  0.1010E+01  0.5312E+01
      6.568  0.8780E+00  0.5484E+01
      6.764  0.5686E+00  0.5595E+01
      6.960  0.3858E+00  0.5671E+01
      7.156  0.3774E+00  0.5745E+01
      7.352  0.3389E+00  0.5811E+01
      7.548  0.2244E+00  0.5855E+01
      7.744  0.5291E+00  0.5959E+01
      7.940  0.5403E+00  0.6065E+01
      8.136  0.5078E+00  0.6165E+01
      8.332  0.6298E+00  0.6288E+01
      8.529  0.7206E+00  0.6430E+01
      8.725  0.7255E+00  0.6572E+01
      8.921  0.6816E+00  0.6706E+01
      9.117  0.9197E+00  0.6886E+01
      9.313  0.1078E+01  0.7097E+01
      9.509  0.1124E+01  0.7318E+01
      9.705  0.1009E+01  0.7516E+01
      9.901  0.9111E+00  0.7694E+01
     10.097  0.1128E+01  0.7916E+01
     10.293  0.1225E+01  0.8156E+01
     10.489  0.1385E+01  0.8427E+01
     10.686  0.1214E+01  0.8666E+01
     10.882  0.2013E+01  0.9060E+01
     11.078  0.2590E+01  0.9568E+01
     11.274  0.1216E+01  0.9807E+01
     11.470  0.7103E+00  0.9946E+01
     11.666  0.9814E+00  0.1014E+02
     11.862  0.8415E+00  0.1030E+02
     12.058  0.4376E+00  0.1039E+02
     12.254  0.3429E+00  0.1046E+02
     12.450  0.3011E+00  0.1052E+02
     12.647  0.3036E+00  0.1058E+02
     12.843  0.6863E+00  0.1071E+02
     13.039  0.6543E+00  0.1084E+02
     13.235  0.3389E+00  0.1090E+02
     13.431  0.1844E+00  0.1094E+02
     13.627  0.1163E+00  0.1096E+02
     13.823  0.3342E+00  0.1103E+02
     14.019  0.4051E+00  0.1111E+02
     14.215  0.4127E+00  0.1119E+02
     14.411  0.2888E+00  0.1125E+02
     14.608  0.2504E+00  0.1130E+02
     14.804  0.2791E+00  0.1135E+02
     15.000  0.2666E+00  0.1140E+02
     15.196  0.2920E+00  0.1146E+02
     15.392  0.3573E+00  0.1153E+02
     15.588  0.3292E+00  0.1159E+02
     15.784  0.2633E+00  0.1165E+02
     15.980  0.2799E+00  0.1170E+02
     16.176  0.3066E+00  0.1176E+02
     16.372  0.3849E+00  0.1184E+02
     16.569  0.3983E+00  0.1191E+02
     16.765  0.2827E+00  0.1197E+02
     16.961  0.1386E+00  0.1200E+02
     17.157  0.3070E+00  0.1206E+02
     17.353  0.5173E+00  0.1216E+02
     17.549  0.2967E+00  0.1222E+02
     17.745  0.2958E+00  0.1227E+02
     17.941  0.3471E+00  0.1234E+02
     18.137  0.4249E+00  0.1243E+02
     18.333  0.7462E+00  0.1257E+02
     18.530  0.5315E+00  0.1268E+02
     18.726  0.2864E+00  0.1273E+02
     18.922  0.3057E+00  0.1279E+02
     19.118  0.3281E+00  0.1286E+02
     19.314  0.4036E+00  0.1294E+02
     19.510  0.4739E+00  0.1303E+02
     19.706  0.3449E+00  0.1310E+02
     19.902  0.3618E+00  0.1317E+02
     20.098  0.3408E+00  0.1323E+02
     20.294  0.3634E+00  0.1331E+02
     20.491  0.6110E+00  0.1343E+02
     20.687  0.6374E+00  0.1355E+02
     20.883  0.6223E+00  0.1367E+02
     21.079  0.6551E+00  0.1380E+02
     21.275  0.7953E+00  0.1396E+02
     21.471  0.8083E+00  0.1412E+02
     21.667  0.5667E+00  0.1423E+02
     21.863  0.5596E+00  0.1434E+02
     22.059  0.6560E+00  0.1446E+02
     22.255  0.9371E+00  0.1465E+02
     22.452  0.7096E+00  0.1479E+02
     22.648  0.4831E+00  0.1488E+02
     22.844  0.3774E+00  0.1496E+02
     23.040  0.4905E+00  0.1505E+02
     23.236  0.7943E+00  0.1521E+02
     23.432  0.6608E+00  0.1534E+02
     23.628  0.5385E+00  0.1544E+02
     23.824  0.5208E+00  0.1555E+02
     24.020  0.7146E+00  0.1569E+02
     24.216  0.7082E+00  0.1582E+02
     24.413  0.7412E+00  0.1597E+02
     24.609  0.8312E+00  0.1613E+02
     24.805  0.7274E+00  0.1628E+02
     25.001  0.8126E+00  0.1644E+02
     25.197  0.8681E+00  0.1661E+02
     25.393  0.8152E+00  0.1677E+02
     25.589  0.5149E+00  0.1687E+02
     25.785  0.5400E+00  0.1697E+02
     25.981  0.8791E+00  0.1714E+02
     26.177  0.6396E+00  0.1727E+02
     26.374  0.4416E+00  0.1736E+02
     26.570  0.3834E+00  0.1743E+02
     26.766  0.3543E+00  0.1750E+02
     26.962  0.4037E+00  0.1758E+02
     27.158  0.3588E+00  0.1765E+02
     27.354  0.5335E+00  0.1776E+02
     27.550  0.4571E+00  0.1785E+02
     27.746  0.3215E+00  0.1791E+02
     27.942  0.3908E+00  0.1798E+02
     28.138  0.4655E+00  0.1808E+02
     28.335  0.3385E+00  0.1814E+02
     28.531  0.3649E+00  0.1821E+02
     28.727  0.4897E+00  0.1831E+02
     28.923  0.9780E+00  0.1850E+02
     29.119  0.1279E+01  0.1875E+02
     29.315  0.8341E+00  0.1892E+02
     29.511  0.6663E+00  0.1905E+02
     29.707  0.7890E+00  0.1920E+02
     29.903  0.4799E+00  0.1930E+02
     30.099  0.4895E+00  0.1939E+02
     30.296  0.6020E+00  0.1951E+02
     30.492  0.5539E+00  0.1962E+02
     30.688  0.6882E+00  0.1975E+02
     30.884  0.6282E+00  0.1988E+02
     31.080  0.6888E+00  0.2001E+02
     31.276  0.5718E+00  0.2012E+02
     31.472  0.4721E+00  0.2022E+02
     31.668  0.4572E+00  0.2031E+02
     31.864  0.4198E+00  0.2039E+02
     32.060  0.6837E+00  0.2052E+02
     32.257  0.5338E+00  0.2063E+02
     32.453  0.4219E+00  0.2071E+02
     32.649  0.6185E+00  0.2083E+02
     32.845  0.6613E+00  0.2096E+02
     33.041  0.7851E+00  0.2111E+02
     33.237  0.8292E+00  0.2128E+02
     33.433  0.7576E+00  0.2143E+02
     33.629  0.7071E+00  0.2156E+02
     33.825  0.8308E+00  0.2173E+02
     34.021  0.5737E+00  0.2184E+02
     34.218  0.5275E+00  0.2194E+02
     34.414  0.6584E+00  0.2207E+02
     34.610  0.6074E+00  0.2219E+02
     34.806  0.5451E+00  0.2230E+02
     35.002  0.7506E+00  0.2245E+02
     35.198  0.6303E+00  0.2257E+02
     35.394  0.4722E+00  0.2266E+02
     35.590  0.6180E+00  0.2278E+02
     35.786  0.7625E+00  0.2293E+02
     35.982  0.8314E+00  0.2310E+02
     36.179  0.6456E+00  0.2322E+02
     36.375  0.7827E+00  0.2338E+02
     36.571  0.1123E+01  0.2360E+02
     36.767  0.9322E+00  0.2378E+02
     36.963  0.8947E+00  0.2395E+02
     37.159  0.1039E+01  0.2416E+02
     37.355  0.8388E+00  0.2432E+02
     37.551  0.7074E+00  0.2446E+02
     37.747  0.6537E+00  0.2459E+02
     37.943  0.9689E+00  0.2478E+02
     38.140  0.9167E+00  0.2496E+02
     38.336  0.1025E+01  0.2516E+02
     38.532  0.7096E+00  0.2530E+02
     38.728  0.9183E+00  0.2548E+02
     38.924  0.1175E+01  0.2571E+02
     39.120  0.1573E+01  0.2602E+02
     39.316  0.2508E+01  0.2651E+02
     39.512  0.3059E+01  0.2711E+02
     39.708  0.1635E+01  0.2743E+02
     39.904  0.9470E+00  0.2762E+02
     40.101  0.1017E+01  0.2782E+02
     40.297  0.1121E+01  0.2804E+02
     40.493  0.8023E+00  0.2819E+02
     40.689  0.5187E+00  0.2829E+02
     40.885  0.5929E+00  0.2841E+02
     41.081  0.7328E+00  0.2855E+02
     41.277  0.8822E+00  0.2873E+02
     41.473  0.7424E+00  0.2887E+02
     41.669  0.1041E+01  0.2908E+02
     41.865  0.9111E+00  0.2926E+02
     42.062  0.8393E+00  0.2942E+02
     42.258  0.8651E+00  0.2959E+02
     42.454  0.2927E+01  0.3016E+02
     42.650  0.1644E+02  0.3339E+02
     42.846  0.1215E+02  0.3577E+02
     43.042  0.1105E+01  0.3599E+02
     43.238  0.8003E+00  0.3614E+02
     43.434  0.7342E+00  0.3629E+02
     43.630  0.7988E+00  0.3644E+02
     43.826  0.9463E+00  0.3663E+02
     44.023  0.4570E+00  0.3672E+02
     44.219  0.6048E+00  0.3684E+02
     44.415  0.9398E+00  0.3702E+02
     44.611  0.9027E+00  0.3720E+02
     44.807  0.8313E+00  0.3736E+02
     45.003  0.7027E+00  0.3750E+02
     45.199  0.6077E+00  0.3762E+02
     45.395  0.6494E+00  0.3775E+02
     45.591  0.7714E+00  0.3790E+02
     45.787  0.7855E+00  0.3805E+02
     45.984  0.7712E+00  0.3820E+02
     46.180  0.8465E+00  0.3837E+02
     46.376  0.8249E+00  0.3853E+02
     46.572  0.9827E+00  0.3872E+02
     46.768  0.8937E+00  0.3890E+02
     46.964  0.6600E+00  0.3903E+02
     47.160  0.6137E+00  0.3915E+02
     47.356  0.4967E+00  0.3925E+02
     47.552  0.3985E+00  0.3932E+02
     47.748  0.2394E+00  0.3937E+02
     47.945  0.4599E+00  0.3946E+02
     48.141  0.4975E+00  0.3956E+02
     48.337  0.2193E+00  0.3960E+02
     48.533  0.3573E+00  0.3967E+02
     48.729  0.3868E+00  0.3975E+02
     48.925  0.1103E+00  0.3977E+02
     49.121  0.6999E-01  0.3978E+02
     49.317  0.9722E-01  0.3980E+02
     49.513  0.1900E+00  0.3984E+02
     49.709  0.1294E+00  0.3987E+02
     49.905  0.1271E+00  0.3989E+02
     50.102  0.1179E+00  0.3991E+02
     50.298  0.1896E+00  0.3995E+02
     50.494  0.7899E-01  0.3997E+02
     50.690  0.1122E-01  0.3997E+02
     50.886  0.7763E-01  0.3998E+02
     51.082  0.3098E-01  0.3999E+02
     51.278  0.1673E-01  0.3999E+02
     51.474  0.1585E-01  0.4000E+02
     51.670  0.1020E-01  0.4000E+02
     51.866  0.1040E-01  0.4000E+02
     52.063  0.7415E-03  0.4000E+02
     52.259 -0.2827E-03  0.4000E+02
     52.455 -0.8712E-05  0.4000E+02
     52.651 -0.2964E-07  0.4000E+02
     52.847 -0.1342E-10  0.4000E+02
     53.043 -0.8447E-15  0.4000E+02
     53.239  0.0000E+00  0.4000E+02
     53.435  0.0000E+00  0.4000E+02
     53.631  0.0000E+00  0.4000E+02
     53.827  0.0000E+00  0.4000E+02
     54.024  0.0000E+00  0.4000E+02
     54.220  0.0000E+00  0.4000E+02
     54.416  0.0000E+00  0.4000E+02
     54.41578695     -4.41406443  301      7.81005576      1.00000000
     -4.414  0.0000E+00  0.0000E+00  0.0000E+00
     -4.218  0.0000E+00  0.0000E+00  0.0000E+00
     -4.022  0.0000E+00  0.0000E+00  0.0000E+00
     -3.826  0.0000E+00  0.0000E+00  0.0000E+00
     -3.630  0.0000E+00  0.0000E+00  0.0000E+00
     -3.434 -0.7822E-33 -0.3330E-35 -0.1545E-37
     -3.237 -0.4307E-26 -0.1834E-28 -0.8529E-31
     -3.041 -0.3408E-20 -0.1452E-22 -0.6792E-25
     -2.845 -0.3732E-15 -0.1594E-17 -0.7595E-20
     -2.649 -0.5900E-11 -0.2537E-13 -0.1278E-15
     -2.453 -0.1292E-07 -0.5686E-10 -0.3376E-12
     -2.257 -0.3771E-05 -0.1801E-07 -0.1613E-09
     -2.061 -0.1301E-03 -0.8526E-06 -0.1604E-07
     -1.865 -0.2800E-04 -0.6132E-05 -0.2860E-06
     -1.669  0.5462E-02  0.3947E-04  0.4695E-06
     -1.473  0.1561E-01  0.2581E-03  0.7548E-05
     -1.276  0.2039E-01  0.6585E-03  0.4622E-04
     -1.080  0.2933E-01  0.1299E-02  0.1215E-03
     -0.884  0.2488E-01  0.1509E-02  0.1993E-03
     -0.688  0.4237E-01  0.3226E-02  0.5670E-03
     -0.492  0.3388E-01  0.2910E-02  0.6349E-03
     -0.296  0.3913E-01  0.4291E-02  0.1130E-02
     -0.100  0.5566E-01  0.6636E-02  0.2138E-02
      0.096  0.4527E-01  0.6022E-02  0.2539E-02
      0.292  0.4560E-01  0.7136E-02  0.3189E-02
      0.488  0.7291E-01  0.1217E-01  0.6534E-02
      0.685  0.5951E-01  0.1058E-01  0.8056E-02
      0.881  0.5722E-01  0.1145E-01  0.9136E-02
      1.077  0.8175E-01  0.1784E-01  0.1641E-01
      1.273  0.9240E-01  0.2000E-01  0.2637E-01
      1.469  0.7718E-01  0.1801E-01  0.3350E-01
      1.665  0.1418E+00  0.2919E-01  0.1413E+00
      1.861  0.1765E+00  0.3355E-01  0.2301E+00
      2.057  0.1497E+00  0.3377E-01  0.2492E+00
      2.253  0.1475E+00  0.3788E-01  0.3021E+00
      2.449  0.1368E+00  0.4058E-01  0.3546E+00
      2.646  0.1446E+00  0.5146E-01  0.4231E+00
      2.842  0.1011E+00  0.4318E-01  0.4205E+00
      3.038  0.1331E+00  0.6752E-01  0.6359E+00
      3.234  0.9464E-01  0.6417E-01  0.5727E+00
      3.430  0.9224E-01  0.7012E-01  0.6202E+00
      3.626  0.4351E-01  0.4036E-01  0.3698E+00
      3.822  0.2082E-01  0.2993E-01  0.2771E+00
      4.018  0.1303E-01  0.2443E-01  0.1937E+00
      4.214  0.7489E-02  0.3363E-01  0.3346E+00
      4.410  0.5257E-02  0.6470E-01  0.9596E+00
      4.607  0.5981E-02  0.1207E+00  0.1445E+01
      4.803  0.6923E-02  0.1084E+00  0.1252E+01
      4.999  0.1114E-01  0.7985E-01  0.9269E+00
      5.195  0.1655E-01  0.7931E-01  0.7915E+00
      5.391  0.1278E-01  0.7200E-01  0.7315E+00
      5.587  0.1601E-01  0.1158E+00  0.7526E+00
      5.783  0.3766E-01  0.2115E+00  0.1134E+01
      5.979  0.3140E-01  0.1865E+00  0.1120E+01
      6.175  0.1397E-01  0.1206E+00  0.8411E+00
      6.371  0.1698E-01  0.1140E+00  0.6597E+00
      6.568  0.1965E-01  0.1111E+00  0.5518E+00
      6.764  0.1143E-01  0.7814E-01  0.3471E+00
      6.960  0.8996E-02  0.5945E-01  0.2198E+00
      7.156  0.5751E-02  0.6448E-01  0.2128E+00
      7.352  0.4244E-02  0.6341E-01  0.1855E+00
      7.548  0.3885E-02  0.4264E-01  0.1168E+00
      7.744  0.9063E-02  0.4796E-01  0.3675E+00
      7.940  0.8711E-02  0.5241E-01  0.3729E+00
      8.136  0.1010E-01  0.4354E-01  0.3495E+00
      8.332  0.1545E-01  0.3440E-01  0.4606E+00
      8.529  0.1274E-01  0.3250E-01  0.5576E+00
      8.725  0.1122E-01  0.2226E-01  0.5768E+00
      8.921  0.8679E-02  0.2333E-01  0.5386E+00
      9.117  0.1554E-01  0.3673E-01  0.7184E+00
      9.313  0.1515E-01  0.3408E-01  0.8705E+00
      9.509  0.8477E-02  0.2648E-01  0.9404E+00
      9.705  0.1082E-01  0.2060E-01  0.8489E+00
      9.901  0.9197E-02  0.1864E-01  0.7761E+00
     10.097  0.1236E-01  0.1760E-01  0.9731E+00
     10.293  0.8769E-02  0.2711E-01  0.1048E+01
     10.489  0.8510E-02  0.3930E-01  0.1180E+01
     10.686  0.7513E-02  0.1454E-01  0.1076E+01
     10.882  0.2877E-01  0.1415E-01  0.1808E+01
     11.078  0.5456E-01  0.3625E-01  0.2289E+01
     11.274  0.4066E-01  0.3954E-01  0.1021E+01
     11.470  0.3587E-01  0.4472E-01  0.5471E+00
     11.666  0.3276E-01  0.7274E-01  0.7531E+00
     11.862  0.2821E-01  0.6081E-01  0.6476E+00
     12.058  0.2729E-01  0.4044E-01  0.3102E+00
     12.254  0.2029E-01  0.3603E-01  0.2369E+00
     12.450  0.1134E-01  0.2797E-01  0.2215E+00
     12.647  0.7350E-02  0.2016E-01  0.2417E+00
     12.843  0.7008E-02  0.5670E-01  0.5448E+00
     13.039  0.1196E-01  0.5741E-01  0.5101E+00
     13.235  0.1826E-01  0.3259E-01  0.2454E+00
     13.431  0.1982E-01  0.2688E-01  0.1043E+00
     13.627  0.9081E-02  0.1379E-01  0.7529E-01
     13.823  0.6412E-02  0.2904E-01  0.2628E+00
     14.019  0.7402E-02  0.4522E-01  0.3004E+00
     14.215  0.8781E-02  0.5347E-01  0.2926E+00
     14.411  0.7011E-02  0.4059E-01  0.2021E+00
     14.608  0.1534E-01  0.4321E-01  0.1503E+00
     14.804  0.2569E-01  0.5056E-01  0.1497E+00
     15.000  0.2690E-01  0.5256E-01  0.1302E+00
     15.196  0.4235E-01  0.4902E-01  0.1375E+00
     15.392  0.3005E-01  0.6022E-01  0.1994E+00
     15.588  0.3173E-01  0.5943E-01  0.1712E+00
     15.784  0.3976E-01  0.4827E-01  0.1178E+00
     15.980  0.6223E-01  0.4318E-01  0.1138E+00
     16.176  0.7693E-01  0.4496E-01  0.1147E+00
     16.372  0.7991E-01  0.6043E-01  0.1565E+00
     16.569  0.5028E-01  0.7019E-01  0.1905E+00
     16.765  0.7002E-01  0.3369E-01  0.1179E+00
     16.961  0.3795E-01  0.1375E-01  0.5713E-01
     17.157  0.9032E-01  0.5017E-01  0.7638E-01
     17.353  0.1594E+00  0.8003E-01  0.1291E+00
     17.549  0.8583E-01  0.3793E-01  0.9781E-01
     17.745  0.3483E-01  0.6605E-01  0.1175E+00
     17.941  0.4925E-01  0.7465E-01  0.1325E+00
     18.137  0.1145E+00  0.6164E-01  0.1376E+00
     18.333  0.2286E+00  0.1018E+00  0.2180E+00
     18.530  0.1633E+00  0.7125E-01  0.1654E+00
     18.726  0.7240E-01  0.4215E-01  0.1017E+00
     18.922  0.7599E-01  0.4485E-01  0.1130E+00
     19.118  0.9467E-01  0.3546E-01  0.1242E+00
     19.314  0.1111E+00  0.5602E-01  0.1223E+00
     19.510  0.1160E+00  0.8292E-01  0.1285E+00
     19.706  0.6411E-01  0.7555E-01  0.9882E-01
     19.902  0.4857E-01  0.8121E-01  0.1034E+00
     20.098  0.5813E-01  0.5730E-01  0.8626E-01
     20.294  0.5254E-01  0.6145E-01  0.7833E-01
     20.491  0.7257E-01  0.1127E+00  0.1387E+00
     20.687  0.5996E-01  0.1316E+00  0.1528E+00
     20.883  0.4187E-01  0.1386E+00  0.1465E+00
     21.079  0.4109E-01  0.1399E+00  0.1378E+00
     21.275  0.3715E-01  0.1570E+00  0.1796E+00
     21.471  0.4232E-01  0.1567E+00  0.1778E+00
     21.667  0.3813E-01  0.1057E+00  0.1122E+00
     21.863  0.3194E-01  0.1234E+00  0.1124E+00
     22.059  0.2918E-01  0.1504E+00  0.1518E+00
     22.255  0.3542E-01  0.2083E+00  0.2084E+00
     22.452  0.3523E-01  0.1509E+00  0.1369E+00
     22.648  0.2589E-01  0.9956E-01  0.8613E-01
     22.844  0.1293E-01  0.7589E-01  0.6786E-01
     23.040  0.1545E-01  0.1115E+00  0.1078E+00
     23.236  0.2133E-01  0.1844E+00  0.1694E+00
     23.432  0.1764E-01  0.1387E+00  0.1275E+00
     23.628  0.1425E-01  0.9648E-01  0.9382E-01
     23.824  0.1024E-01  0.7422E-01  0.6838E-01
     24.020  0.1669E-01  0.1433E+00  0.1178E+00
     24.216  0.1301E-01  0.1673E+00  0.1113E+00
     24.413  0.1117E-01  0.1790E+00  0.1216E+00
     24.609  0.1844E-01  0.1887E+00  0.1509E+00
     24.805  0.1390E-01  0.1781E+00  0.9556E-01
     25.001  0.2105E-01  0.1931E+00  0.1035E+00
     25.197  0.2468E-01  0.2145E+00  0.1418E+00
     25.393  0.1137E-01  0.1675E+00  0.1579E+00
     25.589  0.1051E-01  0.9255E-01  0.9329E-01
     25.785  0.1214E-01  0.1336E+00  0.7805E-01
     25.981  0.3872E-01  0.2290E+00  0.1201E+00
     26.177  0.2436E-01  0.1392E+00  0.1127E+00
     26.374  0.1245E-01  0.1017E+00  0.7727E-01
     26.570  0.7030E-02  0.9289E-01  0.6130E-01
     26.766  0.1020E-01  0.6719E-01  0.6385E-01
     26.962  0.2400E-01  0.8363E-01  0.6322E-01
     27.158  0.1713E-01  0.8346E-01  0.5617E-01
     27.354  0.2324E-01  0.1151E+00  0.8801E-01
     27.550  0.8629E-02  0.8385E-01  0.6740E-01
     27.746  0.6545E-02  0.4791E-01  0.3880E-01
     27.942  0.1417E-01  0.7717E-01  0.5846E-01
     28.138  0.9009E-02  0.7321E-01  0.8077E-01
     28.335  0.9341E-03  0.3677E-01  0.6486E-01
     28.531  0.3030E-02  0.4263E-01  0.8211E-01
     28.727  0.4988E-02  0.4708E-01  0.1091E+00
     28.923  0.1236E-01  0.8854E-01  0.1932E+00
     29.119  0.9279E-02  0.8258E-01  0.2776E+00
     29.315  0.8514E-02  0.5078E-01  0.1841E+00
     29.511  0.5799E-02  0.4187E-01  0.1368E+00
     29.707  0.9631E-02  0.6413E-01  0.1502E+00
     29.903  0.8831E-02  0.5421E-01  0.8223E-01
     30.099  0.3042E-02  0.2868E-01  0.8791E-01
     30.296  0.3918E-02  0.3434E-01  0.1080E+00
     30.492  0.8852E-02  0.4006E-01  0.9804E-01
     30.688  0.1974E-01  0.6370E-01  0.1404E+00
     30.884  0.1178E-01  0.6443E-01  0.1034E+00
     31.080  0.1368E-01  0.6947E-01  0.8829E-01
     31.276  0.1021E-01  0.6189E-01  0.6876E-01
     31.472  0.1769E-01  0.5422E-01  0.4543E-01
     31.668  0.2263E-01  0.8317E-01  0.4907E-01
     31.864  0.1324E-01  0.5966E-01  0.3528E-01
     32.060  0.1876E-01  0.8556E-01  0.6596E-01
     32.257  0.1171E-01  0.6244E-01  0.6451E-01
     32.453  0.8674E-02  0.4264E-01  0.6151E-01
     32.649  0.1542E-01  0.6074E-01  0.8644E-01
     32.845  0.2408E-01  0.8497E-01  0.8227E-01
     33.041  0.2799E-01  0.1041E+00  0.9789E-01
     33.237  0.2120E-01  0.9643E-01  0.1056E+00
     33.433  0.2189E-01  0.1101E+00  0.8657E-01
     33.629  0.2383E-01  0.1231E+00  0.9024E-01
     33.825  0.2150E-01  0.1225E+00  0.1217E+00
     34.021  0.1733E-01  0.9125E-01  0.7675E-01
     34.218  0.1767E-01  0.6898E-01  0.6126E-01
     34.414  0.2640E-01  0.9048E-01  0.7469E-01
     34.610  0.1747E-01  0.1014E+00  0.6113E-01
     34.806  0.2806E-01  0.8428E-01  0.7327E-01
     35.002  0.4032E-01  0.1154E+00  0.1244E+00
     35.198  0.2753E-01  0.8354E-01  0.1030E+00
     35.394  0.2956E-01  0.4102E-01  0.7995E-01
     35.590  0.6152E-01  0.5548E-01  0.1064E+00
     35.786  0.6152E-01  0.7111E-01  0.1091E+00
     35.982  0.6427E-01  0.6730E-01  0.1152E+00
     36.179  0.5095E-01  0.4912E-01  0.8755E-01
     36.375  0.8355E-01  0.6485E-01  0.9822E-01
     36.571  0.1711E+00  0.7168E-01  0.1487E+00
     36.767  0.1196E+00  0.6474E-01  0.1264E+00
     36.963  0.6959E-01  0.8926E-01  0.1014E+00
     37.159  0.1349E+00  0.1027E+00  0.9797E-01
     37.355  0.7324E-01  0.8895E-01  0.8621E-01
     37.551  0.5530E-01  0.8261E-01  0.6675E-01
     37.747  0.8605E-01  0.6480E-01  0.6359E-01
     37.943  0.9540E-01  0.7933E-01  0.1140E+00
     38.140  0.9865E-01  0.6750E-01  0.9026E-01
     38.336  0.1618E+00  0.8000E-01  0.9560E-01
     38.532  0.1549E+00  0.6526E-01  0.6855E-01
     38.728  0.2437E+00  0.8616E-01  0.1022E+00
     38.924  0.4817E+00  0.8546E-01  0.9664E-01
     39.120  0.8418E+00  0.8254E-01  0.7873E-01
     39.316  0.1613E+01  0.1029E+00  0.9261E-01
     39.512  0.2352E+01  0.6574E-01  0.7453E-01
     39.708  0.1165E+01  0.3809E-01  0.5698E-01
     39.904  0.3810E+00  0.4040E-01  0.6234E-01
     40.101  0.4080E+00  0.5014E-01  0.5945E-01
     40.297  0.4173E+00  0.6035E-01  0.7601E-01
     40.493  0.2186E+00  0.5941E-01  0.7473E-01
     40.689  0.7467E-01  0.5152E-01  0.6195E-01
     40.885  0.5775E-01  0.6276E-01  0.7055E-01
     41.081  0.6568E-01  0.8341E-01  0.7605E-01
     41.277  0.8672E-01  0.9913E-01  0.8628E-01
     41.473  0.5612E-01  0.1047E+00  0.7147E-01
     41.669  0.3770E-01  0.1758E+00  0.8423E-01
     41.865  0.3880E-01  0.1482E+00  0.8936E-01
     42.062  0.2959E-01  0.1902E+00  0.9261E-01
     42.258  0.3429E-01  0.1100E+00  0.1016E+00
     42.454  0.3570E-01  0.2133E+01  0.9096E-01
     42.650  0.2825E-01  0.1517E+02  0.7520E-01
     42.846  0.2014E-01  0.1097E+02  0.9550E-01
     43.042  0.2137E-01  0.3438E+00  0.1042E+00
     43.238  0.1828E-01  0.9637E-01  0.9808E-01
     43.434  0.1120E-01  0.1401E+00  0.9579E-01
     43.630  0.1677E-01  0.1226E+00  0.1097E+00
     43.826  0.2974E-01  0.1173E+00  0.1187E+00
     44.023  0.1589E-01  0.4453E-01  0.5507E-01
     44.219  0.2196E-01  0.6218E-01  0.8649E-01
     44.415  0.4392E-01  0.1008E+00  0.1040E+00
     44.611  0.4603E-01  0.9382E-01  0.1057E+00
     44.807  0.2641E-01  0.8278E-01  0.1126E+00
     45.003  0.1913E-01  0.5895E-01  0.9185E-01
     45.199  0.2317E-01  0.5365E-01  0.1003E+00
     45.395  0.2025E-01  0.6917E-01  0.8661E-01
     45.591  0.2954E-01  0.9789E-01  0.8080E-01
     45.787  0.4552E-01  0.8047E-01  0.8972E-01
     45.984  0.3604E-01  0.6600E-01  0.1006E+00
     46.180  0.2999E-01  0.6432E-01  0.1195E+00
     46.376  0.2991E-01  0.6770E-01  0.9272E-01
     46.572  0.2930E-01  0.6696E-01  0.9055E-01
     46.768  0.2361E-01  0.5499E-01  0.8217E-01
     46.964  0.1687E-01  0.5390E-01  0.7624E-01
     47.160  0.9474E-02  0.5191E-01  0.9600E-01
     47.356  0.8323E-02  0.3324E-01  0.7704E-01
     47.552  0.1191E-01  0.2651E-01  0.5169E-01
     47.748  0.9620E-02  0.2739E-01  0.2005E-01
     47.945  0.2022E-01  0.5320E-01  0.5092E-01
     48.141  0.1930E-01  0.4598E-01  0.6894E-01
     48.337  0.3960E-02  0.1587E-01  0.2252E-01
     48.533  0.7201E-02  0.2055E-01  0.3003E-01
     48.729  0.5911E-02  0.1829E-01  0.4325E-01
     48.925  0.5451E-03  0.7110E-02  0.1332E-01
     49.121  0.1266E-03  0.4479E-02  0.6680E-02
     49.317  0.1220E-02  0.7237E-02  0.1379E-01
     49.513  0.5247E-02  0.1546E-01  0.2255E-01
     49.709  0.4001E-02  0.8884E-02  0.1347E-01
     49.905  0.1319E-02  0.8749E-02  0.1327E-01
     50.102  0.1231E-02  0.7503E-02  0.1392E-01
     50.298  0.1911E-02  0.1216E-01  0.2550E-01
     50.494  0.5035E-03  0.5106E-02  0.8885E-02
     50.690  0.5653E-03  0.1844E-02  0.6714E-03
     50.886  0.3825E-02  0.6190E-02  0.9148E-02
     51.082  0.1835E-02  0.1442E-02  0.3956E-02
     51.278  0.1345E-02  0.3238E-03  0.1669E-02
     51.474  0.2560E-02  0.1246E-03  0.8430E-03
     51.670  0.1124E-02  0.1943E-03  0.1044E-02
     51.866  0.4624E-03  0.5109E-03  0.1408E-02
     52.063  0.6522E-04  0.5930E-04  0.6256E-04
     52.259 -0.1794E-04 -0.1525E-04 -0.3328E-04
     52.455 -0.6339E-06 -0.5261E-06 -0.9314E-06
     52.651 -0.2267E-08 -0.1864E-08 -0.3043E-08
     52.847 -0.1048E-11 -0.8585E-12 -0.1352E-11
     53.043 -0.6651E-16 -0.5442E-16 -0.8449E-16
     53.239  0.0000E+00  0.0000E+00  0.0000E+00
     53.435  0.0000E+00  0.0000E+00  0.0000E+00
     53.631  0.0000E+00  0.0000E+00  0.0000E+00
     53.827  0.0000E+00  0.0000E+00  0.0000E+00
     54.024  0.0000E+00  0.0000E+00  0.0000E+00
     54.220  0.0000E+00  0.0000E+00  0.0000E+00
     54.416  0.0000E+00  0.0000E+00  0.0000E+00
