    1    1    1    1
  0.1585526E+02  0.2741144E-09  0.2741144E-09  0.2741144E-09  0.5000000E-15
  1.000000000000000E-004
  CAR 
 W bcc                                   
      6    250     20
 
  0.2500000E-01  0.2500000E-01  0.2500000E-01  0.1000000E-02
    1       -1.622564
    2        6.489630
    3        6.489630
    4        6.780092
    5        9.952123
    6        9.952123
    7       23.157402
    8       23.435036
    9       23.435036
   10       33.843065
   11       33.843065
   12       36.679343
   13       39.125019
   14       39.222262
   15       39.222262
   16       42.635734
   17       42.693439
   18       42.693439
   19       46.566629
   20       48.092188
 
  0.7500000E-01  0.2500000E-01  0.2500000E-01  0.3000000E-02
    1       -1.279454
    2        6.277640
    3        6.404173
    4        7.162060
    5        9.687941
    6        9.987439
    7       23.412820
    8       24.013162
    9       24.184339
   10       32.077092
   11       33.089531
   12       35.571508
   13       39.033665
   14       39.663558
   15       41.438184
   16       42.631077
   17       42.704429
   18       42.878743
   19       44.854787
   20       47.131033
 
  0.1250000E+00  0.2500000E-01  0.2500000E-01  0.3000000E-02
    1       -0.740735
    2        5.969303
    3        6.249434
    4        7.745200
    5        9.442237
    6       10.040517
    7       23.730955
    8       24.851602
    9       25.046581
   10       30.689697
   11       31.836220
   12       34.897078
   13       38.744348
   14       39.689771
   15       42.407193
   16       42.495267
   17       42.680315
   18       43.099981
   19       44.413681
   20       46.095746
 
  0.1750000E+00  0.2500000E-01  0.2500000E-01  0.3000000E-02
    1       -0.065613
    2        5.613519
    3        6.032631
    4        8.529598
    5        9.358753
    6       10.123861
    7       23.736143
    8       25.362590
    9       25.942426
   10       30.104947
   11       30.970719
   12       34.064023
   13       38.266094
   14       39.443807
   15       41.436451
   16       42.506986
   17       42.640706
   18       42.687419
   19       45.636312
   20       46.299989
 
  0.2250000E+00  0.2500000E-01  0.2500000E-01  0.3000000E-02
    1        0.640915
    2        5.252852
    3        5.873563
    4        9.389088
    5        9.550369
    6       10.242724
    7       23.168655
    8       24.580476
    9       27.281866
   10       30.547435
   11       30.720662
   12       33.182629
   13       37.106366
   14       39.223735
   15       41.204999
   16       42.537899
   17       42.625055
   18       42.658579
   19       45.749864
   20       46.587605
 
  0.2750000E+00  0.2500000E-01  0.2500000E-01  0.3000000E-02
    1        1.221647
    2        4.917941
    3        5.967338
    4        9.636211
    5       10.395447
    6       10.601093
    7       22.249724
    8       23.125893
    9       28.844428
   10       29.677604
   11       31.766395
   12       33.362298
   13       35.382001
   14       39.313127
   15       42.038214
   16       42.553218
   17       42.614512
   18       42.665804
   19       46.041469
   20       46.238198
 
  0.3250000E+00  0.2500000E-01  0.2500000E-01  0.3000000E-02
    1        1.545679
    2        4.635094
    3        6.449814
    4        9.859585
    5       10.563405
    6       11.759548
    7       21.297810
    8       21.542906
    9       28.030281
   10       30.577585
   11       33.430276
   12       33.478651
   13       34.373647
   14       39.418185
   15       42.542328
   16       42.586251
   17       42.609757
   18       43.702042
   19       45.004161
   20       47.017178
 
  0.3750000E+00  0.2500000E-01  0.2500000E-01  0.3000000E-02
    1        1.641089
    2        4.422474
    3        7.231935
    4       10.011746
    5       10.734523
    6       12.866832
    7       20.129683
    8       20.505626
    9       26.456374
   10       32.258022
   11       32.381078
   12       34.940236
   13       35.336108
   14       39.499448
   15       42.507565
   16       42.595421
   17       42.612537
   18       43.501750
   19       45.521141
   20       45.897918
 
  0.4250000E+00  0.2500000E-01  0.2500000E-01  0.3000000E-02
    1        1.635897
    2        4.291606
    3        8.025631
    4       10.016849
    5       10.863202
    6       13.721333
    7       19.121052
    8       19.983650
    9       25.297698
   10       31.415380
   11       34.001490
   12       35.353020
   13       37.308441
   14       39.551570
   15       41.531309
   16       42.599501
   17       42.617365
   18       42.646555
   19       43.871344
   20       46.747782
 
  0.4750000E+00  0.2500000E-01  0.2500000E-01  0.1500000E-02
    1        1.624025
    2        4.246898
    3        8.400593
    4        9.958613
    5       10.909013
    6       14.054549
    7       18.745340
    8       19.801141
    9       24.859643
   10       31.123171
   11       34.755990
   12       35.492702
   13       38.695445
   14       39.566050
   15       40.230268
   16       42.598530
   17       42.608803
   18       42.626301
   19       42.942591
   20       47.129217
 
 -0.2500000E-01  0.2500000E-01  0.2500000E-01  0.7500000E-03
    1       -1.739980
    2        6.566008
    3        6.566297
    4        6.600698
    5        9.940814
    6       10.066993
    7       23.145562
    8       23.149378
    9       23.149378
   10       34.019707
   11       35.082247
   12       37.803009
   13       37.803037
   14       38.424235
   15       39.179742
   16       42.666698
   17       42.669367
   18       42.670096
   19       47.150440
   20       48.111636
 
  0.7500000E-01  0.7500000E-01  0.2500000E-01  0.3000000E-02
    1       -0.843234
    2        6.071503
    3        6.163367
    4        7.703664
    5        9.527044
    6        9.992576
    7       23.715456
    8       24.652219
    9       24.864957
   10       30.977330
   11       32.820284
   12       33.581350
   13       39.207268
   14       40.644865
   15       42.104542
   16       42.473316
   17       42.770111
   18       42.859103
   19       43.515347
   20       47.326671
 
  0.1250000E+00  0.7500000E-01  0.2500000E-01  0.6000000E-02
    1       -0.235654
    2        5.750046
    3        5.928186
    4        8.438464
    5        9.361099
    6       10.113126
    7       24.055924
    8       25.089281
    9       25.521282
   10       30.173077
   11       31.634631
   12       33.305690
   13       39.103223
   14       40.258917
   15       40.993792
   16       42.450990
   17       42.649047
   18       42.733577
   19       44.584032
   20       47.155579
 
  0.1750000E+00  0.7500000E-01  0.2500000E-01  0.6000000E-02
    1        0.470365
    2        5.389831
    3        5.708752
    4        9.271929
    5        9.423727
    6       10.256924
    7       23.775796
    8       24.993511
    9       26.188930
   10       29.743384
   11       31.007675
   12       33.753421
   13       38.703639
   14       39.084737
   15       40.144946
   16       42.500179
   17       42.624887
   18       42.675199
   19       45.161315
   20       47.334880
 
  0.2250000E+00  0.7500000E-01  0.2500000E-01  0.6000000E-02
    1        1.146663
    2        5.046429
    3        5.636221
    4        9.457502
    5       10.415185
    6       10.433922
    7       22.866385
    8       23.926863
    9       27.374868
   10       28.806219
   11       31.989129
   12       34.252956
   13       36.910000
   14       39.108698
   15       40.319567
   16       42.516758
   17       42.617473
   18       42.657076
   19       45.025418
   20       47.806011
 
  0.2750000E+00  0.7500000E-01  0.2500000E-01  0.6000000E-02
    1        1.623128
    2        4.748746
    3        5.890384
    4        9.678765
    5       10.575695
    6       11.590892
    7       21.757889
    8       22.462843
    9       27.643669
   10       28.896855
   11       33.398192
   12       34.744879
   13       35.132689
   14       39.361540
   15       41.527857
   16       42.517459
   17       42.612970
   18       42.662214
   19       44.384941
   20       48.440278
 
  0.3250000E+00  0.7500000E-01  0.2500000E-01  0.6000000E-02
    1        1.824740
    2        4.513578
    3        6.518553
    4        9.897072
    5       10.728286
    6       12.748079
    7       20.497882
    8       21.250145
    9       26.412008
   10       30.562191
   11       33.201820
   12       34.900269
   13       35.764406
   14       39.462648
   15       42.446554
   16       42.584183
   17       42.611405
   18       43.268820
   19       43.671092
   20       47.960940
 
  0.3750000E+00  0.7500000E-01  0.2500000E-01  0.6000000E-02
    1        1.851841
    2        4.351467
    3        7.310068
    4       10.004973
    5       10.880838
    6       13.750873
    7       19.269842
    8       20.511846
    9       25.324388
   10       31.731843
   11       32.636153
   12       35.301964
   13       37.331179
   14       39.511687
   15       41.658232
   16       42.597344
   17       42.613771
   18       42.660746
   19       45.713493
   20       46.092689
 
  0.4250000E+00  0.7500000E-01  0.2500000E-01  0.6000000E-02
    1        1.833361
    2        4.269554
    3        7.904233
    4        9.982131
    5       10.998790
    6       14.367404
    7       18.520468
    8       20.145612
    9       24.663587
   10       31.307090
   11       33.783729
   12       35.528852
   13       38.123227
   14       39.541630
   15       41.125862
   16       42.601826
   17       42.614639
   18       42.636522
   19       44.309853
   20       47.269285
 
 -0.7500000E-01  0.7500000E-01  0.2500000E-01  0.3000000E-02
    1       -1.505972
    2        6.434252
    3        6.534845
    4        6.824181
    5        9.685987
    6       10.111447
    7       23.343731
    8       23.557586
    9       23.708996
   10       32.260052
   11       34.493531
   12       37.484903
   13       37.583962
   14       39.110043
   15       40.516877
   16       42.637713
   17       42.668201
   18       42.726691
   19       46.681128
   20       47.085534
 
  0.1250000E+00  0.1250000E+00  0.2500000E-01  0.3000000E-02
    1        0.414270
    2        5.513657
    3        5.566699
    4        9.267109
    5        9.327508
    6       10.298089
    7       24.509710
    8       24.528202
    9       25.942645
   10       29.345977
   11       31.252519
   12       33.854279
   13       38.803801
   14       39.734413
   15       40.003639
   16       42.442242
   17       42.627352
   18       42.712517
   19       44.156309
   20       48.616375
 
  0.1750000E+00  0.1250000E+00  0.2500000E-01  0.6000000E-02
    1        1.124940
    2        5.181578
    3        5.365327
    4        9.293664
    5       10.376869
    6       10.491984
    7       23.415848
    8       24.542701
    9       26.477991
   10       27.903556
   11       32.091747
   12       35.153178
   13       38.106942
   14       38.810005
   15       39.579736
   16       42.427733
   17       42.618010
   18       42.667801
   19       43.757708
   20       49.348528
 
  0.2250000E+00  0.1250000E+00  0.2500000E-01  0.6000000E-02
    1        1.745686
    2        4.868555
    3        5.394496
    4        9.451252
    5       10.653534
    6       11.549502
    7       22.148745
    8       23.572849
    9       26.771017
   10       27.556129
   11       33.267957
   12       35.942928
   13       36.878656
   14       39.090322
   15       39.824230
   16       42.380873
   17       42.614332
   18       42.657737
   19       43.362162
   20       49.834245
 
  0.2750000E+00  0.1250000E+00  0.2500000E-01  0.6000000E-02
    1        2.107103
    2        4.624671
    3        5.774592
    4        9.681762
    5       10.777692
    6       12.758247
    7       20.792792
    8       22.326218
    9       25.850195
   10       28.956864
   11       33.690102
   12       35.735085
   13       36.722769
   14       39.395493
   15       41.683569
   16       42.182317
   17       42.609211
   18       42.679645
   19       42.916206
   20       48.586481
 
  0.3250000E+00  0.1250000E+00  0.2500000E-01  0.6000000E-02
    1        2.208823
    2        4.450348
    3        6.444093
    4        9.890997
    5       10.899221
    6       13.893625
    7       19.419557
    8       21.378551
    9       25.013714
   10       30.424727
   11       32.948785
   12       35.566108
   13       37.913559
   14       39.463835
   15       41.567522
   16       42.595568
   17       42.612231
   18       42.685562
   19       44.376198
   20       47.177747
 
  0.3750000E+00  0.1250000E+00  0.2500000E-01  0.6000000E-02
    1        2.197585
    2        4.345230
    3        7.099433
    4        9.962213
    5       11.051876
    6       14.757614
    7       18.331537
    8       20.810660
    9       24.376818
   10       31.296257
   11       32.655801
   12       35.726023
   13       38.208103
   14       39.510559
   15       41.672156
   16       42.600559
   17       42.611852
   18       42.656454
   19       45.952457
   20       46.945969
 
  0.4250000E+00  0.1250000E+00  0.2500000E-01  0.3000000E-02
    1        2.182832
    2        4.310474
    3        7.381988
    4        9.949576
    5       11.139789
    6       15.095281
    7       17.905358
    8       20.615689
    9       24.132227
   10       31.265785
   11       33.026226
   12       35.882398
   13       37.809626
   14       39.512220
   15       42.242521
   16       42.603046
   17       42.609533
   18       42.761608
   19       45.377814
   20       47.701470
 
 -0.1250000E+00  0.1250000E+00  0.2500000E-01  0.3000000E-02
    1       -1.057579
    2        6.176615
    3        6.440913
    4        7.289179
    5        9.384365
    6       10.148295
    7       23.644409
    8       24.345743
    9       24.611501
   10       30.606532
   11       33.111706
   12       36.725104
   13       37.625905
   14       39.399357
   15       42.199262
   16       42.617017
   17       42.667798
   18       43.292511
   19       44.977602
   20       45.818054
 
 -0.7500000E-01  0.1250000E+00  0.2500000E-01  0.3000000E-02
    1       -1.165296
    2        6.326673
    3        6.429390
    4        7.138920
    5        9.334647
    6       10.219553
    7       23.670276
    8       24.157375
    9       24.364962
   10       30.514060
   11       34.393228
   12       35.810809
   13       38.702334
   14       39.061330
   15       41.666124
   16       42.624635
   17       42.686753
   18       42.820496
   19       45.260377
   20       46.969241
 
  0.1750000E+00  0.1750000E+00  0.2500000E-01  0.3000000E-02
    1        1.807438
    2        4.947120
    3        5.168825
    4        9.350833
    5       10.690108
    6       11.546025
    7       22.330658
    8       24.294758
    9       26.113340
   10       27.032694
   11       33.211915
   12       37.102237
   13       37.531073
   14       38.504492
   15       39.301125
   16       42.062254
   17       42.617061
   18       42.660526
   19       42.908789
   20       50.303580
 
  0.2250000E+00  0.1750000E+00  0.2500000E-01  0.6000000E-02
    1        2.352236
    2        4.709623
    3        5.264694
    4        9.519151
    5       10.820684
    6       12.797641
    7       21.000190
    8       23.437173
    9       25.059072
   10       27.947929
   11       33.697661
   12       37.080231
   13       37.826440
   14       39.252000
   15       40.162550
   16       41.475561
   17       42.609264
   18       42.667443
   19       42.731203
   20       48.531103
 
  0.2750000E+00  0.1750000E+00  0.2500000E-01  0.6000000E-02
    1        2.611058
    2        4.547629
    3        5.685856
    4        9.747808
    5       10.891900
    6       14.043275
    7       19.563656
    8       22.367706
    9       24.492299
   10       29.108969
   11       33.324736
   12       36.388820
   13       38.634020
   14       39.438548
   15       41.174075
   16       42.486010
   17       42.606299
   18       42.682690
   19       43.088373
   20       46.703155
 
  0.3250000E+00  0.1750000E+00  0.2500000E-01  0.6000000E-02
    1        2.653200
    2        4.449458
    3        6.266064
    4        9.930305
    5       10.989661
    6       15.141001
    7       18.243950
    8       21.565625
    9       24.072469
   10       30.277246
   11       32.582233
   12       36.226018
   13       38.568614
   14       39.567633
   15       41.971611
   16       42.602697
   17       42.615450
   18       42.721153
   19       45.276992
   20       45.850284
 
  0.3750000E+00  0.1750000E+00  0.2500000E-01  0.6000000E-02
    1        2.634728
    2        4.402390
    3        6.679897
    4        9.983284
    5       11.129064
    6       15.846156
    7       17.400646
    8       21.098390
    9       23.838260
   10       31.065457
   11       32.071522
   12       36.393289
   13       38.001902
   14       39.489834
   15       42.502852
   16       42.610726
   17       42.614686
   18       43.324032
   19       45.480809
   20       46.499675
 
 -0.1750000E+00  0.1750000E+00  0.2500000E-01  0.3000000E-02
    1       -0.439307
    2        5.844509
    3        6.248907
    4        7.969403
    5        9.201028
    6       10.205365
    7       23.806643
    8       25.334866
    9       25.464534
   10       29.561537
   11       31.873918
   12       35.401446
   13       37.750661
   14       39.455933
   15       42.450225
   16       42.501604
   17       42.662202
   18       42.972343
   19       44.977515
   20       45.921520
 
 -0.1250000E+00  0.1750000E+00  0.2500000E-01  0.6000000E-02
    1       -0.630251
    2        6.058687
    3        6.273435
    4        7.709673
    5        9.032603
    6       10.321334
    7       24.020877
    8       24.897272
    9       25.264411
   10       29.205923
   11       33.321395
   12       34.871924
   13       38.654781
   14       39.352313
   15       42.320566
   16       42.532973
   17       42.681313
   18       42.881335
   19       44.751070
   20       46.144379
 
  0.2250000E+00  0.2250000E+00  0.2500000E-01  0.3000000E-02
    1        2.817575
    2        4.594309
    3        5.347466
    4        9.686595
    5       10.886381
    6       14.105401
    7       19.629584
    8       22.970214
    9       24.101304
   10       28.572950
   11       33.409986
   12       37.055314
   13       38.734215
   14       39.656636
   15       40.869485
   16       42.073610
   17       42.609653
   18       42.674462
   19       42.773000
   20       46.525920
 
  0.2750000E+00  0.2250000E+00  0.2500000E-01  0.6000000E-02
    1        3.030823
    2        4.549704
    3        5.649124
    4        9.912066
    5       10.908548
    6       15.373829
    7       18.236893
    8       22.053370
    9       23.936099
   10       29.365028
   11       32.727578
   12       36.956020
   13       38.512179
   14       39.812947
   15       42.081231
   16       42.590804
   17       42.605298
   18       42.786833
   19       44.445257
   20       44.814095
 
  0.3250000E+00  0.2250000E+00  0.2500000E-01  0.6000000E-02
    1        3.072587
    2        4.542644
    3        5.991472
    4       10.083674
    5       10.986408
    6       16.411453
    7       17.145568
    8       21.225845
    9       23.973596
   10       30.206224
   11       31.866931
   12       37.082753
   13       38.373574
   14       39.571205
   15       42.493851
   16       42.603622
   17       42.614212
   18       43.334085
   19       44.370508
   20       44.799845
 
  0.3750000E+00  0.2250000E+00  0.2500000E-01  0.3000000E-02
    1        3.071262
    2        4.542222
    3        6.137877
    4       10.128930
    5       11.059497
    6       16.637634
    7       16.935702
    8       20.851487
    9       24.008251
   10       30.969044
   11       31.080531
   12       37.214415
   13       38.325888
   14       39.423538
   15       42.443587
   16       42.600116
   17       42.615608
   18       43.011406
   19       44.455014
   20       45.459294
 
 -0.2250000E+00  0.2250000E+00  0.2500000E-01  0.3000000E-02
    1        0.267329
    2        5.480874
    3        6.028045
    4        8.837807
    5        9.213071
    6       10.290546
    7       23.477129
    8       25.117746
    9       26.854145
   10       29.591235
   11       31.529238
   12       33.592775
   13       37.420202
   14       39.288207
   15       41.884368
   16       42.526129
   17       42.631404
   18       42.674634
   19       44.717692
   20       47.417835
 
 -0.1750000E+00  0.2250000E+00  0.2500000E-01  0.6000000E-02
    1        0.040795
    2        5.714476
    3        6.051496
    4        8.489629
    5        8.922232
    6       10.433123
    7       23.958645
    8       25.258999
    9       26.188053
   10       29.051287
   11       32.012658
   12       34.158861
   13       38.269183
   14       39.313563
   15       41.516759
   16       42.519190
   17       42.643376
   18       42.685508
   19       45.598778
   20       46.081312
 
 -0.1250000E+00  0.2250000E+00  0.2500000E-01  0.3000000E-02
    1       -0.034901
    2        5.879300
    3        5.971450
    4        8.398152
    5        8.781709
    6       10.496059
    7       24.526214
    8       24.765323
    9       26.056624
   10       28.825672
   11       32.444624
   12       34.057430
   13       39.071897
   14       39.215659
   15       41.221623
   16       42.492861
   17       42.643290
   18       42.683645
   19       45.068609
   20       47.033801
 
  0.2750000E+00  0.2750000E+00  0.2500000E-01  0.3000000E-02
    1        3.270720
    2        4.661636
    3        5.636311
    4       10.156579
    5       10.887132
    6       16.561069
    7       17.152453
    8       21.172309
    9       24.165356
   10       29.730721
   11       31.878828
   12       37.661936
   13       38.243553
   14       39.750269
   15       42.463335
   16       42.605767
   17       42.606693
   18       43.055494
   19       43.891410
   20       44.378374
 
  0.3250000E+00  0.2750000E+00  0.2500000E-01  0.6000000E-02
    1        3.352329
    2        4.792634
    3        5.619034
    4       10.356557
    5       10.882513
    6       16.208997
    7       17.809240
    8       20.277285
    9       24.476268
   10       30.227845
   11       30.988063
   12       38.066623
   13       38.718517
   14       39.520508
   15       41.731106
   16       42.589835
   17       42.604308
   18       42.656226
   19       42.874473
   20       45.813417
 
 -0.2750000E+00  0.2750000E+00  0.2500000E-01  0.3000000E-02
    1        0.928606
    2        5.127524
    3        5.955052
    4        9.391677
    5        9.868602
    6       10.414121
    7       22.640018
    8       23.987609
    9       28.446634
   10       30.451427
   11       31.547535
   12       32.217297
   13       36.152065
   14       39.269656
   15       42.341679
   16       42.552711
   17       42.611138
   18       42.685703
   19       44.899386
   20       46.896665
 
 -0.2250000E+00  0.2750000E+00  0.2500000E-01  0.6000000E-02
    1        0.745006
    2        5.356272
    3        5.861390
    4        9.005525
    5        9.465233
    6       10.550478
    7       23.164026
    8       24.717454
    9       27.414081
   10       30.019020
   11       31.000963
   12       33.481283
   13       37.332338
   14       39.182040
   15       41.268709
   16       42.536904
   17       42.622368
   18       42.655010
   19       45.511630
   20       46.436063
 
 -0.1750000E+00  0.2750000E+00  0.2500000E-01  0.6000000E-02
    1        0.658836
    2        5.560472
    3        5.727918
    4        8.732584
    5        9.299261
    6       10.656043
    7       23.754355
    8       24.921767
    9       26.731601
   10       29.611849
   11       30.721299
   12       34.501298
   13       38.645212
   14       38.982704
   15       40.260139
   16       42.505404
   17       42.622611
   18       42.667073
   19       44.695834
   20       47.456961
 
  0.3250000E+00  0.3250000E+00  0.2500000E-01  0.1000000E-02
    1        3.441882
    2        5.188081
    3        5.188205
    4       10.662519
    5       10.662648
    6       15.888982
    7       19.088100
    8       19.088519
    9       24.774431
   10       30.409087
   11       30.409156
   12       38.612310
   13       39.346760
   14       39.346785
   15       41.032145
   16       41.795877
   17       42.613434
   18       42.634602
   19       42.636900
   20       46.338958
 
 -0.3250000E+00  0.3250000E+00  0.2500000E-01  0.3000000E-02
    1        1.385127
    2        4.813650
    3        6.219807
    4        9.647861
    5       10.555009
    6       11.006707
    7       21.623140
    8       22.519826
    9       29.293423
   10       30.373718
   11       31.757446
   12       33.137986
   13       34.790144
   14       39.364976
   15       42.552287
   16       42.603295
   17       42.609749
   18       43.826196
   19       45.326570
   20       46.141250
 
 -0.2750000E+00  0.3250000E+00  0.2500000E-01  0.6000000E-02
    1        1.327334
    2        5.024132
    3        5.895663
    4        9.260380
    5       10.548646
    6       10.680379
    7       22.065504
    8       23.552854
    9       28.729860
   10       29.786549
   11       31.393315
   12       33.545516
   13       35.944364
   14       39.282438
   15       42.083654
   16       42.541266
   17       42.609269
   18       42.666023
   19       45.385746
   20       46.570398
 
 -0.2250000E+00  0.3250000E+00  0.2500000E-01  0.6000000E-02
    1        1.329931
    2        5.207131
    3        5.622095
    4        8.885152
    5       10.346687
    6       10.803174
    7       22.539910
    8       24.491438
    9       27.624164
   10       28.946009
   11       31.263748
   12       34.872661
   13       37.426576
   14       39.080241
   15       40.389591
   16       42.500150
   17       42.618766
   18       42.653306
   19       44.217858
   20       48.040336
 
 -0.1750000E+00  0.3250000E+00  0.2500000E-01  0.3000000E-02
    1        1.339485
    2        5.274125
    3        5.524423
    4        8.732739
    5       10.289269
    6       10.855114
    7       22.777447
    8       24.920367
    9       27.193223
   10       28.465946
   11       31.219464
   12       35.646446
   13       38.537768
   14       38.738551
   15       39.492010
   16       42.436838
   17       42.622027
   18       42.664111
   19       43.477358
   20       49.371549
 
 -0.3750000E+00  0.3750000E+00  0.2500000E-01  0.3000000E-02
    1        1.579657
    2        4.561406
    3        6.850248
    4        9.879224
    5       10.714339
    6       12.167044
    7       20.619241
    8       21.148245
    9       27.467139
   10       32.095727
   11       32.325163
   12       33.941028
   13       34.728809
   14       39.458657
   15       42.545647
   16       42.604370
   17       42.615123
   18       44.953928
   19       45.814219
   20       46.005979
 
 -0.3250000E+00  0.3750000E+00  0.2500000E-01  0.6000000E-02
    1        1.653943
    2        4.746699
    3        6.290427
    4        9.568175
    5       10.790180
    6       11.734595
    7       20.981451
    8       22.187142
    9       27.837550
   10       30.574229
   11       32.557008
   12       33.934208
   13       35.305765
   14       39.400221
   15       42.536293
   16       42.591368
   17       42.617562
   18       43.722690
   19       44.698826
   20       47.129245
 
 -0.2750000E+00  0.3750000E+00  0.2500000E-01  0.6000000E-02
    1        1.812615
    2        4.917403
    3        5.762965
    4        9.175425
    5       10.841268
    6       11.578957
    7       21.368291
    8       23.347776
    9       27.501032
   10       28.966116
   11       32.589470
   12       34.913729
   13       36.524058
   14       39.297726
   15       41.629730
   16       42.476293
   17       42.614888
   18       42.657830
   19       43.688291
   20       48.666747
 
 -0.2250000E+00  0.3750000E+00  0.2500000E-01  0.6000000E-02
    1        1.951674
    2        4.962255
    3        5.502065
    4        8.903889
    5       10.849325
    6       11.569330
    7       21.646941
    8       24.383843
    9       26.928343
   10       27.899793
   11       32.466524
   12       36.182242
   13       37.921581
   14       39.130100
   15       39.917274
   16       42.140025
   17       42.617166
   18       42.658189
   19       42.871423
   20       50.103058
 
 -0.4250000E+00  0.4250000E+00  0.2500000E-01  0.3000000E-02
    1        1.609066
    2        4.384906
    3        7.645529
    4        9.966897
    5       10.896375
    6       13.186315
    7       19.606230
    8       20.281723
    9       25.926170
   10       31.550171
   11       33.782045
   12       35.150533
   13       35.984871
   14       39.529092
   15       42.492800
   16       42.599208
   17       42.617118
   18       43.614552
   19       43.699211
   20       46.545740
 
 -0.3750000E+00  0.4250000E+00  0.2500000E-01  0.6000000E-02
    1        1.748484
    2        4.537045
    3        6.954914
    4        9.777864
    5       10.975812
    6       12.850711
    7       19.945553
    8       21.059462
    9       26.301975
   10       31.429542
   11       32.960950
   12       34.872060
   13       36.073097
   14       39.477051
   15       42.491187
   16       42.596511
   17       42.614682
   18       43.450473
   19       45.285515
   20       46.163115
 
 -0.3250000E+00  0.4250000E+00  0.2500000E-01  0.6000000E-02
    1        2.020800
    2        4.700870
    3        6.217810