 vasp.5.3.5 31Mar14 (build Dec 14 2018 19:18:10) complex                        
  
 executed on             LinuxIFC date 2022.11.16  00:50:48
 serial version


--------------------------------------------------------------------------------------------------------


 INCAR:
 POTCAR:   PAW_PBE W 08Apr2002                    
 POTCAR:   PAW_PBE W 08Apr2002                    
   VRHFIN =W : 6s5d                                                             
   LEXCH  = PE                                                                  
   EATOM  =   204.6100 eV,   15.0384 Ry                                         
                                                                                
   TITEL  = PAW_PBE W 08Apr2002                                                 
   LULTRA =        F    use ultrasoft PP ?                                      
   IUNSCR =        1    unscreen: 0-lin 1-nonlin 2-no                           
   RPACOR =    2.330    partial core radius                                     
   POMASS =  183.850; ZVAL   =    6.000    mass and valenz                      
   RCORE  =    2.750    outmost cutoff radius                                   
   RWIGS  =    2.750; RWIGS  =    1.455    wigner-seitz radius (au A)           
   ENMAX  =  223.057; ENMIN  =  167.293 eV                                      
   RCLOC  =    2.147    cutoff for local pot                                    
   LCOR   =        T    correct aug charges                                     
   LPAW   =        T    paw PP                                                  
   EAUG   =  373.438                                                            
   DEXC   =    -.060                                                            
   RMAX   =    3.087    core radius for proj-oper                               
   RAUG   =    1.300    factor for augmentation sphere                          
   RDEP   =    2.886    radius for radial grids                                 
   QCUT   =   -4.049; QGAM   =    8.098    optimization parameters              
                                                                                
   Description                                                                  
     l     E      TYP  RCUT    TYP  RCUT                                        
     2   .000     23  2.500                                                     
     2   .000     23  2.500                                                     
     0   .000     23  2.500                                                     
     0   .000     23  2.500                                                     
     1   .200     23  2.750                                                     
     1  2.000     23  2.750                                                     
     3   .000      7   .000                                                     
  local pseudopotential read in
  partial core-charges read in
  atomic valenz-charges read in
  non local Contribution for L=           2  read in
    real space projection operators read in
  non local Contribution for L=           2  read in
    real space projection operators read in
  non local Contribution for L=           0  read in
    real space projection operators read in
  non local Contribution for L=           0  read in
    real space projection operators read in
  non local Contribution for L=           1  read in
    real space projection operators read in
  non local Contribution for L=           1  read in
    real space projection operators read in
    PAW grid and wavefunctions read in
 
   number of l-projection  operators is LMAX  =           6
   number of lm-projection operators is LMMAX =          18
 
 PAW_PBE W 08Apr2002                    :
 energy of atom  1       EATOM= -204.6100
 kinetic energy error for atom=    0.0299 (will be added to EATOM!!)
 
 
 POSCAR: W bulk bcc                              
  positions in direct lattice
  velocities in cartesian coordinates
 exchange correlation table for  LEXCH =        8
   RHO(1)=    0.500       N(1)  =     2000
   RHO(2)=  100.500       N(2)  =     4000
 


--------------------------------------------------------------------------------------------------------


 ion  position               nearest neighbor table
   1  0.000  0.000  0.000-
 
  LATTYP: Found a body centered cubic cell.
 ALAT       =     3.1652000000
  
  Lattice vectors:
  
 A1 = (  -1.5826000000,   1.5826000000,   1.5826000000)
 A2 = (   1.5826000000,  -1.5826000000,   1.5826000000)
 A3 = (   1.5826000000,   1.5826000000,  -1.5826000000)


Analysis of symmetry for initial positions (statically):
=====================================================================
 Subroutine PRICEL returns:
 Original cell was already a primitive cell.
 

 Routine SETGRP: Setting up the symmetry group for a 
 body centered cubic supercell.


 Subroutine GETGRP returns: Found 48 space group operations
 (whereof 48 operations were pure point group operations)
 out of a pool of 48 trial point group operations.


The static configuration has the point symmetry O_h .


Analysis of symmetry for dynamics (positions and initial velocities):
=====================================================================
 Subroutine PRICEL returns:
 Original cell was already a primitive cell.
 

 Routine SETGRP: Setting up the symmetry group for a 
 body centered cubic supercell.


 Subroutine GETGRP returns: Found 48 space group operations
 (whereof 48 operations were pure point group operations)
 out of a pool of 48 trial point group operations.


The dynamic configuration has the point symmetry O_h .
 
 
 KPOINTS: 20x20x20                                

Automatic generation of k-mesh.
Space group operators:
 irot       det(A)        alpha          n_x          n_y          n_z        tau_x        tau_y        tau_z
    1     1.000000     0.000000     1.000000     0.000000     0.000000     0.000000     0.000000     0.000000
    2    -1.000000     0.000000     1.000000     0.000000     0.000000     0.000000     0.000000     0.000000
    3     1.000000   120.000000    -0.577350    -0.577350    -0.577350     0.000000     0.000000     0.000000
    4    -1.000000   120.000000    -0.577350    -0.577350    -0.577350     0.000000     0.000000     0.000000
    5     1.000000   120.000000     0.577350     0.577350     0.577350     0.000000     0.000000     0.000000
    6    -1.000000   120.000000     0.577350     0.577350     0.577350     0.000000     0.000000     0.000000
    7     1.000000    90.000000     0.000000     0.000000    -1.000000     0.000000     0.000000     0.000000
    8    -1.000000    90.000000     0.000000     0.000000    -1.000000     0.000000     0.000000     0.000000
    9     1.000000   180.000000     0.000000     0.707107     0.707107     0.000000     0.000000     0.000000
   10    -1.000000   180.000000     0.000000     0.707107     0.707107     0.000000     0.000000     0.000000
   11     1.000000    90.000000     0.000000     1.000000     0.000000     0.000000     0.000000     0.000000
   12    -1.000000    90.000000     0.000000     1.000000     0.000000     0.000000     0.000000     0.000000
   13     1.000000   180.000000     0.000000     0.000000     1.000000     0.000000     0.000000     0.000000
   14    -1.000000   180.000000     0.000000     0.000000     1.000000     0.000000     0.000000     0.000000
   15     1.000000   120.000000    -0.577350     0.577350     0.577350     0.000000     0.000000     0.000000
   16    -1.000000   120.000000    -0.577350     0.577350     0.577350     0.000000     0.000000     0.000000
   17     1.000000   120.000000    -0.577350     0.577350    -0.577350     0.000000     0.000000     0.000000
   18    -1.000000   120.000000    -0.577350     0.577350    -0.577350     0.000000     0.000000     0.000000
   19     1.000000    90.000000     0.000000     0.000000     1.000000     0.000000     0.000000     0.000000
   20    -1.000000    90.000000     0.000000     0.000000     1.000000     0.000000     0.000000     0.000000
   21     1.000000    90.000000    -1.000000     0.000000     0.000000     0.000000     0.000000     0.000000
   22    -1.000000    90.000000    -1.000000     0.000000     0.000000     0.000000     0.000000     0.000000
   23     1.000000   180.000000     0.707107     0.000000     0.707107     0.000000     0.000000     0.000000
   24    -1.000000   180.000000     0.707107     0.000000     0.707107     0.000000     0.000000     0.000000
   25     1.000000   120.000000     0.577350    -0.577350     0.577350     0.000000     0.000000     0.000000
   26    -1.000000   120.000000     0.577350    -0.577350     0.577350     0.000000     0.000000     0.000000
   27     1.000000   120.000000    -0.577350    -0.577350     0.577350     0.000000     0.000000     0.000000
   28    -1.000000   120.000000    -0.577350    -0.577350     0.577350     0.000000     0.000000     0.000000
   29     1.000000   180.000000     1.000000     0.000000     0.000000     0.000000     0.000000     0.000000
   30    -1.000000   180.000000     1.000000     0.000000     0.000000     0.000000     0.000000     0.000000
   31     1.000000    90.000000     0.000000    -1.000000     0.000000     0.000000     0.000000     0.000000
   32    -1.000000    90.000000     0.000000    -1.000000     0.000000     0.000000     0.000000     0.000000
   33     1.000000   180.000000     0.707107     0.707107     0.000000     0.000000     0.000000     0.000000
   34    -1.000000   180.000000     0.707107     0.707107     0.000000     0.000000     0.000000     0.000000
   35     1.000000    90.000000     1.000000     0.000000     0.000000     0.000000     0.000000     0.000000
   36    -1.000000    90.000000     1.000000     0.000000     0.000000     0.000000     0.000000     0.000000
   37     1.000000   120.000000     0.577350    -0.577350    -0.577350     0.000000     0.000000     0.000000
   38    -1.000000   120.000000     0.577350    -0.577350    -0.577350     0.000000     0.000000     0.000000
   39     1.000000   180.000000     0.000000     1.000000     0.000000     0.000000     0.000000     0.000000
   40    -1.000000   180.000000     0.000000     1.000000     0.000000     0.000000     0.000000     0.000000
   41     1.000000   120.000000     0.577350     0.577350    -0.577350     0.000000     0.000000     0.000000
   42    -1.000000   120.000000     0.577350     0.577350    -0.577350     0.000000     0.000000     0.000000
   43     1.000000   180.000000     0.000000    -0.707107     0.707107     0.000000     0.000000     0.000000
   44    -1.000000   180.000000     0.000000    -0.707107     0.707107     0.000000     0.000000     0.000000
   45     1.000000   180.000000     0.707107    -0.707107     0.000000     0.000000     0.000000     0.000000
   46    -1.000000   180.000000     0.707107    -0.707107     0.000000     0.000000     0.000000     0.000000
   47     1.000000   180.000000     0.707107     0.000000    -0.707107     0.000000     0.000000     0.000000
   48    -1.000000   180.000000     0.707107     0.000000    -0.707107     0.000000     0.000000     0.000000
 
 Subroutine IBZKPT returns following result:
 ===========================================
 
 Found    250 irreducible k-points:
 
 Following reciprocal coordinates:
            Coordinates               Weight
  0.025000  0.025000  0.025000      8.000000
  0.075000  0.025000  0.025000     24.000000
  0.125000  0.025000  0.025000     24.000000
  0.175000  0.025000  0.025000     24.000000
  0.225000  0.025000  0.025000     24.000000
  0.275000  0.025000  0.025000     24.000000
  0.325000  0.025000  0.025000     24.000000
  0.375000  0.025000  0.025000     24.000000
  0.425000  0.025000  0.025000     24.000000
  0.475000  0.025000  0.025000     12.000000
 -0.025000  0.025000  0.025000      6.000000
  0.075000  0.075000  0.025000     24.000000
  0.125000  0.075000  0.025000     48.000000
  0.175000  0.075000  0.025000     48.000000
  0.225000  0.075000  0.025000     48.000000
  0.275000  0.075000  0.025000     48.000000
  0.325000  0.075000  0.025000     48.000000
  0.375000  0.075000  0.025000     48.000000
  0.425000  0.075000  0.025000     48.000000
 -0.075000  0.075000  0.025000     24.000000
  0.125000  0.125000  0.025000     24.000000
  0.175000  0.125000  0.025000     48.000000
  0.225000  0.125000  0.025000     48.000000
  0.275000  0.125000  0.025000     48.000000
  0.325000  0.125000  0.025000     48.000000
  0.375000  0.125000  0.025000     48.000000
  0.425000  0.125000  0.025000     24.000000
 -0.125000  0.125000  0.025000     24.000000
 -0.075000  0.125000  0.025000     24.000000
  0.175000  0.175000  0.025000     24.000000
  0.225000  0.175000  0.025000     48.000000
  0.275000  0.175000  0.025000     48.000000
  0.325000  0.175000  0.025000     48.000000
  0.375000  0.175000  0.025000     48.000000
 -0.175000  0.175000  0.025000     24.000000
 -0.125000  0.175000  0.025000     48.000000
  0.225000  0.225000  0.025000     24.000000
  0.275000  0.225000  0.025000     48.000000
  0.325000  0.225000  0.025000     48.000000
  0.375000  0.225000  0.025000     24.000000
 -0.225000  0.225000  0.025000     24.000000
 -0.175000  0.225000  0.025000     48.000000
 -0.125000  0.225000  0.025000     24.000000
  0.275000  0.275000  0.025000     24.000000
  0.325000  0.275000  0.025000     48.000000
 -0.275000  0.275000  0.025000     24.000000
 -0.225000  0.275000  0.025000     48.000000
 -0.175000  0.275000  0.025000     48.000000
  0.325000  0.325000  0.025000      8.000000
 -0.325000  0.325000  0.025000     24.000000
 -0.275000  0.325000  0.025000     48.000000
 -0.225000  0.325000  0.025000     48.000000
 -0.175000  0.325000  0.025000     24.000000
 -0.375000  0.375000  0.025000     24.000000
 -0.325000  0.375000  0.025000     48.000000
 -0.275000  0.375000  0.025000     48.000000
 -0.225000  0.375000  0.025000     48.000000
 -0.425000  0.425000  0.025000     24.000000
 -0.375000  0.425000  0.025000     48.000000
 -0.325000  0.425000  0.025000     48.000000
 -0.275000  0.425000  0.025000     48.000000
 -0.225000  0.425000  0.025000     24.000000
 -0.475000  0.475000  0.025000     24.000000
 -0.425000  0.475000  0.025000     48.000000
 -0.375000  0.475000  0.025000     48.000000
 -0.325000  0.475000  0.025000     48.000000
 -0.275000  0.475000  0.025000     48.000000
 -0.475000 -0.475000  0.025000     24.000000
 -0.425000 -0.475000  0.025000     48.000000
 -0.375000 -0.475000  0.025000     48.000000
 -0.325000 -0.475000  0.025000     48.000000
 -0.275000 -0.475000  0.025000     24.000000
 -0.425000 -0.425000  0.025000     24.000000
 -0.375000 -0.425000  0.025000     48.000000
 -0.325000 -0.425000  0.025000     48.000000
 -0.375000 -0.375000  0.025000     24.000000
 -0.325000 -0.375000  0.025000     24.000000
  0.075000  0.075000  0.075000      8.000000
  0.125000  0.075000  0.075000     24.000000
  0.175000  0.075000  0.075000     24.000000
  0.225000  0.075000  0.075000     24.000000
  0.275000  0.075000  0.075000     24.000000
  0.325000  0.075000  0.075000     24.000000
  0.375000  0.075000  0.075000     24.000000
  0.425000  0.075000  0.075000     12.000000
 -0.075000  0.075000  0.075000      6.000000
  0.125000  0.125000  0.075000     24.000000
  0.175000  0.125000  0.075000     48.000000
  0.225000  0.125000  0.075000     48.000000
  0.275000  0.125000  0.075000     48.000000
  0.325000  0.125000  0.075000     48.000000
  0.375000  0.125000  0.075000     48.000000
 -0.125000  0.125000  0.075000     24.000000
  0.175000  0.175000  0.075000     24.000000
  0.225000  0.175000  0.075000     48.000000
  0.275000  0.175000  0.075000     48.000000
  0.325000  0.175000  0.075000     48.000000
  0.375000  0.175000  0.075000     24.000000
 -0.175000  0.175000  0.075000     24.000000
 -0.125000  0.175000  0.075000     24.000000
  0.225000  0.225000  0.075000     24.000000
  0.275000  0.225000  0.075000     48.000000
  0.325000  0.225000  0.075000     48.000000
 -0.225000  0.225000  0.075000     24.000000
 -0.175000  0.225000  0.075000     48.000000
  0.275000  0.275000  0.075000     24.000000
  0.325000  0.275000  0.075000     24.000000
 -0.275000  0.275000  0.075000     24.000000
 -0.225000  0.275000  0.075000     48.000000
 -0.175000  0.275000  0.075000     24.000000
 -0.325000  0.325000  0.075000     24.000000
 -0.275000  0.325000  0.075000     48.000000
 -0.225000  0.325000  0.075000     48.000000
 -0.375000  0.375000  0.075000     24.000000
 -0.325000  0.375000  0.075000     48.000000
 -0.275000  0.375000  0.075000     48.000000
 -0.225000  0.375000  0.075000     24.000000
 -0.425000  0.425000  0.075000     24.000000
 -0.375000  0.425000  0.075000     48.000000
 -0.325000  0.425000  0.075000     48.000000
 -0.275000  0.425000  0.075000     48.000000
 -0.475000  0.475000  0.075000     24.000000
 -0.425000  0.475000  0.075000     48.000000
 -0.375000  0.475000  0.075000     48.000000
 -0.325000  0.475000  0.075000     48.000000
 -0.275000  0.475000  0.075000     24.000000
 -0.475000 -0.475000  0.075000     24.000000
 -0.425000 -0.475000  0.075000     48.000000
 -0.375000 -0.475000  0.075000     48.000000
 -0.325000 -0.475000  0.075000     48.000000
 -0.425000 -0.425000  0.075000     24.000000
 -0.375000 -0.425000  0.075000     48.000000
 -0.325000 -0.425000  0.075000     24.000000
 -0.375000 -0.375000  0.075000     24.000000
  0.125000  0.125000  0.125000      8.000000
  0.175000  0.125000  0.125000     24.000000
  0.225000  0.125000  0.125000     24.000000
  0.275000  0.125000  0.125000     24.000000
  0.325000  0.125000  0.125000     24.000000
  0.375000  0.125000  0.125000     12.000000
 -0.125000  0.125000  0.125000      6.000000
  0.175000  0.175000  0.125000     24.000000
  0.225000  0.175000  0.125000     48.000000
  0.275000  0.175000  0.125000     48.000000
  0.325000  0.175000  0.125000     48.000000
 -0.175000  0.175000  0.125000     24.000000
  0.225000  0.225000  0.125000     24.000000
  0.275000  0.225000  0.125000     48.000000
  0.325000  0.225000  0.125000     24.000000
 -0.225000  0.225000  0.125000     24.000000
 -0.175000  0.225000  0.125000     24.000000
  0.275000  0.275000  0.125000     24.000000
 -0.275000  0.275000  0.125000     24.000000
 -0.225000  0.275000  0.125000     48.000000
 -0.325000  0.325000  0.125000     24.000000
 -0.275000  0.325000  0.125000     48.000000
 -0.225000  0.325000  0.125000     24.000000
 -0.375000  0.375000  0.125000     24.000000
 -0.325000  0.375000  0.125000     48.000000
 -0.275000  0.375000  0.125000     48.000000
 -0.425000  0.425000  0.125000     24.000000
 -0.375000  0.425000  0.125000     48.000000
 -0.325000  0.425000  0.125000     48.000000
 -0.275000  0.425000  0.125000     24.000000
 -0.475000  0.475000  0.125000     24.000000
 -0.425000  0.475000  0.125000     48.000000
 -0.375000  0.475000  0.125000     48.000000
 -0.325000  0.475000  0.125000     48.000000
 -0.475000 -0.475000  0.125000     24.000000
 -0.425000 -0.475000  0.125000     48.000000
 -0.375000 -0.475000  0.125000     48.000000
 -0.325000 -0.475000  0.125000     24.000000
 -0.425000 -0.425000  0.125000     24.000000
 -0.375000 -0.425000  0.125000     48.000000
 -0.375000 -0.375000  0.125000      8.000000
  0.175000  0.175000  0.175000      8.000000
  0.225000  0.175000  0.175000     24.000000
  0.275000  0.175000  0.175000     24.000000
  0.325000  0.175000  0.175000     12.000000
 -0.175000  0.175000  0.175000      6.000000
  0.225000  0.225000  0.175000     24.000000
  0.275000  0.225000  0.175000     48.000000
 -0.225000  0.225000  0.175000     24.000000
  0.275000  0.275000  0.175000      8.000000
 -0.275000  0.275000  0.175000     24.000000
 -0.225000  0.275000  0.175000     24.000000
 -0.325000  0.325000  0.175000     24.000000
 -0.275000  0.325000  0.175000     48.000000
 -0.375000  0.375000  0.175000     24.000000
 -0.325000  0.375000  0.175000     48.000000
 -0.275000  0.375000  0.175000     24.000000
 -0.425000  0.425000  0.175000     24.000000
 -0.375000  0.425000  0.175000     48.000000
 -0.325000  0.425000  0.175000     48.000000
 -0.475000  0.475000  0.175000     24.000000
 -0.425000  0.475000  0.175000     48.000000
 -0.375000  0.475000  0.175000     48.000000
 -0.325000  0.475000  0.175000     24.000000
 -0.475000 -0.475000  0.175000     24.000000
 -0.425000 -0.475000  0.175000     48.000000
 -0.375000 -0.475000  0.175000     48.000000
 -0.425000 -0.425000  0.175000     24.000000
 -0.375000 -0.425000  0.175000     24.000000
  0.225000  0.225000  0.225000      8.000000
  0.275000  0.225000  0.225000     12.000000
 -0.225000  0.225000  0.225000      6.000000
 -0.275000  0.275000  0.225000     24.000000
 -0.325000  0.325000  0.225000     24.000000
 -0.275000  0.325000  0.225000     24.000000
 -0.375000  0.375000  0.225000     24.000000
 -0.325000  0.375000  0.225000     48.000000
 -0.425000  0.425000  0.225000     24.000000
 -0.375000  0.425000  0.225000     48.000000
 -0.325000  0.425000  0.225000     24.000000
 -0.475000  0.475000  0.225000     24.000000
 -0.425000  0.475000  0.225000     48.000000
 -0.375000  0.475000  0.225000     48.000000
 -0.475000 -0.475000  0.225000     24.000000
 -0.425000 -0.475000  0.225000     48.000000
 -0.375000 -0.475000  0.225000     24.000000
 -0.425000 -0.425000  0.225000     24.000000
 -0.275000  0.275000  0.275000      6.000000
 -0.325000  0.325000  0.275000     24.000000
 -0.375000  0.375000  0.275000     24.000000
 -0.325000  0.375000  0.275000     24.000000
 -0.425000  0.425000  0.275000     24.000000
 -0.375000  0.425000  0.275000     48.000000
 -0.475000  0.475000  0.275000     24.000000
 -0.425000  0.475000  0.275000     48.000000
 -0.375000  0.475000  0.275000     24.000000
 -0.475000 -0.475000  0.275000     24.000000
 -0.425000 -0.475000  0.275000     48.000000
 -0.425000 -0.425000  0.275000      8.000000
 -0.325000  0.325000  0.325000      6.000000
 -0.375000  0.375000  0.325000     24.000000
 -0.425000  0.425000  0.325000     24.000000
 -0.375000  0.425000  0.325000     24.000000
 -0.475000  0.475000  0.325000     24.000000
 -0.425000  0.475000  0.325000     48.000000
 -0.475000 -0.475000  0.325000     24.000000
 -0.425000 -0.475000  0.325000     24.000000
 -0.375000  0.375000  0.375000      6.000000
 -0.425000  0.425000  0.375000     24.000000
 -0.475000  0.475000  0.375000     24.000000
 -0.425000  0.475000  0.375000     24.000000
 -0.475000 -0.475000  0.375000     24.000000
 -0.425000  0.425000  0.425000      6.000000
 -0.475000  0.475000  0.425000     24.000000
 -0.475000 -0.475000  0.425000      8.000000
 -0.475000  0.475000  0.475000      6.000000
 
 Following cartesian coordinates:
            Coordinates               Weight
  0.050000  0.050000  0.050000      8.000000
  0.050000  0.100000  0.100000     24.000000
  0.050000  0.150000  0.150000     24.000000
  0.050000  0.200000  0.200000     24.000000
  0.050000  0.250000  0.250000     24.000000
  0.050000  0.300000  0.300000     24.000000
  0.050000  0.350000  0.350000     24.000000
  0.050000  0.400000  0.400000     24.000000
  0.050000  0.450000  0.450000     24.000000
  0.050000  0.500000  0.500000     12.000000
  0.050000  0.000000  0.000000      6.000000
  0.100000  0.100000  0.150000     24.000000
  0.100000  0.150000  0.200000     48.000000
  0.100000  0.200000  0.250000     48.000000
  0.100000  0.250000  0.300000     48.000000
  0.100000  0.300000  0.350000     48.000000
  0.100000  0.350000  0.400000     48.000000
  0.100000  0.400000  0.450000     48.000000
  0.100000  0.450000  0.500000     48.000000
  0.100000 -0.050000  0.000000     24.000000
  0.150000  0.150000  0.250000     24.000000
  0.150000  0.200000  0.300000     48.000000
  0.150000  0.250000  0.350000     48.000000
  0.150000  0.300000  0.400000     48.000000
  0.150000  0.350000  0.450000     48.000000
  0.150000  0.400000  0.500000     48.000000
  0.150000  0.450000  0.550000     24.000000
  0.150000 -0.100000  0.000000     24.000000
  0.150000 -0.050000  0.050000     24.000000
  0.200000  0.200000  0.350000     24.000000
  0.200000  0.250000  0.400000     48.000000
  0.200000  0.300000  0.450000     48.000000
  0.200000  0.350000  0.500000     48.000000
  0.200000  0.400000  0.550000     48.000000
  0.200000 -0.150000  0.000000     24.000000
  0.200000 -0.100000  0.050000     48.000000
  0.250000  0.250000  0.450000     24.000000
  0.250000  0.300000  0.500000     48.000000
  0.250000  0.350000  0.550000     48.000000
  0.250000  0.400000  0.600000     24.000000
  0.250000 -0.200000  0.000000     24.000000
  0.250000 -0.150000  0.050000     48.000000
  0.250000 -0.100000  0.100000     24.000000
  0.300000  0.300000  0.550000     24.000000
  0.300000  0.350000  0.600000     48.000000
  0.300000 -0.250000  0.000000     24.000000
  0.300000 -0.200000  0.050000     48.000000
  0.300000 -0.150000  0.100000     48.000000
  0.350000  0.350000  0.650000      8.000000
  0.350000 -0.300000  0.000000     24.000000
  0.350000 -0.250000  0.050000     48.000000
  0.350000 -0.200000  0.100000     48.000000
  0.350000 -0.150000  0.150000     24.000000
  0.400000 -0.350000  0.000000     24.000000
  0.400000 -0.300000  0.050000     48.000000
  0.400000 -0.250000  0.100000     48.000000
  0.400000 -0.200000  0.150000     48.000000
  0.450000 -0.400000  0.000000     24.000000
  0.450000 -0.350000  0.050000     48.000000
  0.450000 -0.300000  0.100000     48.000000
  0.450000 -0.250000  0.150000     48.000000
  0.450000 -0.200000  0.200000     24.000000
  0.500000 -0.450000  0.000000     24.000000
  0.500000 -0.400000  0.050000     48.000000
  0.500000 -0.350000  0.100000     48.000000
  0.500000 -0.300000  0.150000     48.000000
  0.500000 -0.250000  0.200000     48.000000
 -0.450000 -0.450000 -0.950000     24.000000
 -0.450000 -0.400000 -0.900000     48.000000
 -0.450000 -0.350000 -0.850000     48.000000
 -0.450000 -0.300000 -0.800000     48.000000
 -0.450000 -0.250000 -0.750000     24.000000
 -0.400000 -0.400000 -0.850000     24.000000
 -0.400000 -0.350000 -0.800000     48.000000
 -0.400000 -0.300000 -0.750000     48.000000
 -0.350000 -0.350000 -0.750000     24.000000
 -0.350000 -0.300000 -0.700000     24.000000
  0.150000  0.150000  0.150000      8.000000
  0.150000  0.200000  0.200000     24.000000
  0.150000  0.250000  0.250000     24.000000
  0.150000  0.300000  0.300000     24.000000
  0.150000  0.350000  0.350000     24.000000
  0.150000  0.400000  0.400000     24.000000
  0.150000  0.450000  0.450000     24.000000
  0.150000  0.500000  0.500000     12.000000
  0.150000  0.000000  0.000000      6.000000
  0.200000  0.200000  0.250000     24.000000
  0.200000  0.250000  0.300000     48.000000
  0.200000  0.300000  0.350000     48.000000
  0.200000  0.350000  0.400000     48.000000
  0.200000  0.400000  0.450000     48.000000
  0.200000  0.450000  0.500000     48.000000
  0.200000 -0.050000  0.000000     24.000000
  0.250000  0.250000  0.350000     24.000000
  0.250000  0.300000  0.400000     48.000000
  0.250000  0.350000  0.450000     48.000000
  0.250000  0.400000  0.500000     48.000000
  0.250000  0.450000  0.550000     24.000000
  0.250000 -0.100000  0.000000     24.000000
  0.250000 -0.050000  0.050000     24.000000
  0.300000  0.300000  0.450000     24.000000
  0.300000  0.350000  0.500000     48.000000
  0.300000  0.400000  0.550000     48.000000
  0.300000 -0.150000  0.000000     24.000000
  0.300000 -0.100000  0.050000     48.000000
  0.350000  0.350000  0.550000     24.000000
  0.350000  0.400000  0.600000     24.000000
  0.350000 -0.200000  0.000000     24.000000
  0.350000 -0.150000  0.050000     48.000000
  0.350000 -0.100000  0.100000     24.000000
  0.400000 -0.250000  0.000000     24.000000
  0.400000 -0.200000  0.050000     48.000000
  0.400000 -0.150000  0.100000     48.000000
  0.450000 -0.300000  0.000000     24.000000
  0.450000 -0.250000  0.050000     48.000000
  0.450000 -0.200000  0.100000     48.000000
  0.450000 -0.150000  0.150000     24.000000
  0.500000 -0.350000  0.000000     24.000000
  0.500000 -0.300000  0.050000     48.000000
  0.500000 -0.250000  0.100000     48.000000
  0.500000 -0.200000  0.150000     48.000000
  0.550000 -0.400000  0.000000     24.000000
  0.550000 -0.350000  0.050000     48.000000
  0.550000 -0.300000  0.100000     48.000000
  0.550000 -0.250000  0.150000     48.000000
  0.550000 -0.200000  0.200000     24.000000
 -0.400000 -0.400000 -0.950000     24.000000
 -0.400000 -0.350000 -0.900000     48.000000
 -0.400000 -0.300000 -0.850000     48.000000
 -0.400000 -0.250000 -0.800000     48.000000
 -0.350000 -0.350000 -0.850000     24.000000
 -0.350000 -0.300000 -0.800000     48.000000
 -0.350000 -0.250000 -0.750000     24.000000
 -0.300000 -0.300000 -0.750000     24.000000
  0.250000  0.250000  0.250000      8.000000
  0.250000  0.300000  0.300000     24.000000
  0.250000  0.350000  0.350000     24.000000
  0.250000  0.400000  0.400000     24.000000
  0.250000  0.450000  0.450000     24.000000
  0.250000  0.500000  0.500000     12.000000
  0.250000  0.000000  0.000000      6.000000
  0.300000  0.300000  0.350000     24.000000
  0.300000  0.350000  0.400000     48.000000
  0.300000  0.400000  0.450000     48.000000
  0.300000  0.450000  0.500000     48.000000
  0.300000 -0.050000  0.000000     24.000000
  0.350000  0.350000  0.450000     24.000000
  0.350000  0.400000  0.500000     48.000000
  0.350000  0.450000  0.550000     24.000000
  0.350000 -0.100000  0.000000     24.000000
  0.350000 -0.050000  0.050000     24.000000
  0.400000  0.400000  0.550000     24.000000
  0.400000 -0.150000  0.000000     24.000000
  0.400000 -0.100000  0.050000     48.000000
  0.450000 -0.200000  0.000000     24.000000
  0.450000 -0.150000  0.050000     48.000000
  0.450000 -0.100000  0.100000     24.000000
  0.500000 -0.250000  0.000000     24.000000
  0.500000 -0.200000  0.050000     48.000000
  0.500000 -0.150000  0.100000     48.000000
  0.550000 -0.300000  0.000000     24.000000
  0.550000 -0.250000  0.050000     48.000000
  0.550000 -0.200000  0.100000     48.000000
  0.550000 -0.150000  0.150000     24.000000
  0.600000 -0.350000  0.000000     24.000000
  0.600000 -0.300000  0.050000     48.000000
  0.600000 -0.250000  0.100000     48.000000
  0.600000 -0.200000  0.150000     48.000000
 -0.350000 -0.350000 -0.950000     24.000000
 -0.350000 -0.300000 -0.900000     48.000000
 -0.350000 -0.250000 -0.850000     48.000000
 -0.350000 -0.200000 -0.800000     24.000000
 -0.300000 -0.300000 -0.850000     24.000000
 -0.300000 -0.250000 -0.800000     48.000000
 -0.250000 -0.250000 -0.750000      8.000000
  0.350000  0.350000  0.350000      8.000000
  0.350000  0.400000  0.400000     24.000000
  0.350000  0.450000  0.450000     24.000000
  0.350000  0.500000  0.500000     12.000000
  0.350000  0.000000  0.000000      6.000000
  0.400000  0.400000  0.450000     24.000000
  0.400000  0.450000  0.500000     48.000000
  0.400000 -0.050000  0.000000     24.000000
  0.450000  0.450000  0.550000      8.000000
  0.450000 -0.100000  0.000000     24.000000
  0.450000 -0.050000  0.050000     24.000000
  0.500000 -0.150000  0.000000     24.000000
  0.500000 -0.100000  0.050000     48.000000
  0.550000 -0.200000  0.000000     24.000000
  0.550000 -0.150000  0.050000     48.000000
  0.550000 -0.100000  0.100000     24.000000
  0.600000 -0.250000  0.000000     24.000000
  0.600000 -0.200000  0.050000     48.000000
  0.600000 -0.150000  0.100000     48.000000
  0.650000 -0.300000  0.000000     24.000000
  0.650000 -0.250000  0.050000     48.000000
  0.650000 -0.200000  0.100000     48.000000
  0.650000 -0.150000  0.150000     24.000000
 -0.300000 -0.300000 -0.950000     24.000000
 -0.300000 -0.250000 -0.900000     48.000000
 -0.300000 -0.200000 -0.850000     48.000000
 -0.250000 -0.250000 -0.850000     24.000000
 -0.250000 -0.200000 -0.800000     24.000000
  0.450000  0.450000  0.450000      8.000000
  0.450000  0.500000  0.500000     12.000000
  0.450000  0.000000  0.000000      6.000000
  0.500000 -0.050000  0.000000     24.000000
  0.550000 -0.100000  0.000000     24.000000
  0.550000 -0.050000  0.050000     24.000000
  0.600000 -0.150000  0.000000     24.000000
  0.600000 -0.100000  0.050000     48.000000
  0.650000 -0.200000  0.000000     24.000000
  0.650000 -0.150000  0.050000     48.000000
  0.650000 -0.100000  0.100000     24.000000
  0.700000 -0.250000  0.000000     24.000000
  0.700000 -0.200000  0.050000     48.000000
  0.700000 -0.150000  0.100000     48.000000
 -0.250000 -0.250000 -0.950000     24.000000
 -0.250000 -0.200000 -0.900000     48.000000
 -0.250000 -0.150000 -0.850000     24.000000
 -0.200000 -0.200000 -0.850000     24.000000
  0.550000  0.000000  0.000000      6.000000
  0.600000 -0.050000  0.000000     24.000000
  0.650000 -0.100000  0.000000     24.000000
  0.650000 -0.050000  0.050000     24.000000
  0.700000 -0.150000  0.000000     24.000000
  0.700000 -0.100000  0.050000     48.000000
  0.750000 -0.200000  0.000000     24.000000
  0.750000 -0.150000  0.050000     48.000000
  0.750000 -0.100000  0.100000     24.000000
 -0.200000 -0.200000 -0.950000     24.000000
 -0.200000 -0.150000 -0.900000     48.000000
 -0.150000 -0.150000 -0.850000      8.000000
  0.650000  0.000000  0.000000      6.000000
  0.700000 -0.050000  0.000000     24.000000
  0.750000 -0.100000  0.000000     24.000000
  0.750000 -0.050000  0.050000     24.000000
  0.800000 -0.150000  0.000000     24.000000
  0.800000 -0.100000  0.050000     48.000000
 -0.150000 -0.150000 -0.950000     24.000000
 -0.150000 -0.100000 -0.900000     24.000000
  0.750000  0.000000  0.000000      6.000000
  0.800000 -0.050000  0.000000     24.000000
  0.850000 -0.100000  0.000000     24.000000
  0.850000 -0.050000  0.050000     24.000000
 -0.100000 -0.100000 -0.950000     24.000000
  0.850000  0.000000  0.000000      6.000000
  0.900000 -0.050000  0.000000     24.000000
 -0.050000 -0.050000 -0.950000      8.000000
  0.950000  0.000000  0.000000      6.000000
 


--------------------------------------------------------------------------------------------------------




 Dimension of arrays:
   k-points           NKPTS =    250   k-points in BZ     NKDIM =    250   number of bands    NBANDS=     20
   number of dos      NEDOS =    301   number of ions     NIONS =      1
   non local maximal  LDIM  =      6   non local SUM 2l+1 LMDIM =     18
   total plane-waves  NPLWV =   1000
   max r-space proj   IRMAX =      1   max aug-charges    IRDMAX=   3799
   dimension x,y,z NGX =    10 NGY =   10 NGZ =   10
   dimension x,y,z NGXF=    20 NGYF=   20 NGZF=   20
   support grid    NGXF=    20 NGYF=   20 NGZF=   20
   ions per type =               1
 NGX,Y,Z   is equivalent  to a cutoff of   6.06,  6.06,  6.06 a.u.
 NGXF,Y,Z  is equivalent  to a cutoff of  12.13, 12.13, 12.13 a.u.


 I would recommend the setting:
   dimension x,y,z NGX =    10 NGY =   10 NGZ =   10
 SYSTEM =  W bcc                                   
 POSCAR =  W bulk bcc                              

 Startparameter for this run:
   NWRITE =      2    write-flag & timer
   PREC   = normal    normal or accurate (medium, high low for compatibility)
   ISTART =      0    job   : 0-new  1-cont  2-samecut
   ICHARG =      2    charge: 1-file 2-atom 10-const
   ISPIN  =      1    spin polarized calculation?
   LNONCOLLINEAR =      F non collinear calculations
   LSORBIT =      F    spin-orbit coupling
   INIWAV =      1    electr: 0-lowe 1-rand  2-diag
   LASPH  =      F    aspherical Exc in radial PAW
   METAGGA=      F    non-selfconsistent MetaGGA calc.

 Electronic Relaxation 1
   ENCUT  =  223.1 eV  16.39 Ry    4.05 a.u.   3.34  3.34  3.34*2*pi/ulx,y,z
   ENINI  =  223.1     initial cutoff
   ENAUG  =  373.4 eV  augmentation charge cutoff
   NELM   =     60;   NELMIN=  2; NELMDL= -5     # of ELM steps 
   EDIFF  = 0.1E-03   stopping-criterion for ELM
   LREAL  =      F    real-space projection
   NLSPLINE    = F    spline interpolate recip. space projectors
   LCOMPAT=      F    compatible to vasp.4.4
   GGA_COMPAT  = T    GGA compatible to vasp.4.4-vasp.4.6
   LMAXPAW     = -100 max onsite density
   LMAXMIX     =    2 max onsite mixed and CHGCAR
   VOSKOWN=      0    Vosko Wilk Nusair interpolation
   ROPT   =    0.00000
 Ionic relaxation
   EDIFFG = 0.1E-02   stopping-criterion for IOM
   NSW    =      0    number of steps for IOM
   NBLOCK =      1;   KBLOCK =      1    inner block; outer block 
   IBRION =     -1    ionic relax: 0-MD 1-quasi-New 2-CG
   NFREE  =      0    steps in history (QN), initial steepest desc. (CG)
   ISIF   =      2    stress and relaxation
   IWAVPR =      0    prediction:  0-non 1-charg 2-wave 3-comb
   ISYM   =      2    0-nonsym 1-usesym 2-fastsym
   LCORR  =      T    Harris-Foulkes like correction to forces

   POTIM  = 0.5000    time-step for ionic-motion
   TEIN   =    0.0    initial temperature
   TEBEG  =    0.0;   TEEND  =   0.0 temperature during run
   SMASS  =  -3.00    Nose mass-parameter (am)
   estimated Nose-frequenzy (Omega)   =  0.10E-29 period in steps =****** mass=  -0.172E-27a.u.
   SCALEE = 1.0000    scale energy and forces
   NPACO  =    256;   APACO  = 16.0  distance and # of slots for P.C.
   PSTRESS=    0.0 pullay stress

  Mass of Ions in am
   POMASS = 183.85
  Ionic Valenz
   ZVAL   =   6.00
  Atomic Wigner-Seitz radii
   RWIGS  =   1.46
  virtual crystal weights 
   VCA    =   1.00
   NELECT =       6.0000    total number of electrons
   NUPDOWN=      -1.0000    fix difference up-down

 DOS related values:
   EMIN   =  10.00;   EMAX   =-10.00  energy-range for DOS
   EFERMI =   0.00
   ISMEAR =     1;   SIGMA  =   0.20  broadening in eV -4-tet -1-fermi 0-gaus

 Electronic relaxation 2 (details)
   IALGO  =     38    algorithm
   LDIAG  =      T    sub-space diagonalisation (order eigenvalues)
   LSUBROT=      F    optimize rotation matrix (better conditioning)
   TURBO    =      0    0=normal 1=particle mesh
   IRESTART =      0    0=no restart 2=restart with 2 vectors
   NREBOOT  =      0    no. of reboots
   NMIN     =      0    reboot dimension
   EREF     =   0.00    reference energy to select bands
   IMIX   =      4    mixing-type and parameters
     AMIX     =   0.40;   BMIX     =  1.00
     AMIX_MAG =   1.60;   BMIX_MAG =  1.00
     AMIN     =   0.10
     WC   =   100.;   INIMIX=   1;  MIXPRE=   1;  MAXMIX= -45

 Intra band minimization:
   WEIMIN = 0.0000     energy-eigenvalue tresh-hold
   EBREAK =  0.13E-05  absolut break condition
   DEPER  =   0.30     relativ break condition  

   TIME   =   0.40     timestep for ELM

  volume/ion in A,a.u.               =      15.86       107.00
  Fermi-wavevector in a.u.,A,eV,Ry     =   1.184134  2.237688 19.077718  1.402173
  Thomas-Fermi vector in A             =   2.320354
 
 Write flags
   LWAVE  =      T    write WAVECAR
   LCHARG =      T    write CHGCAR
   LVTOT  =      F    write LOCPOT, total local potential
   LVHAR  =      F    write LOCPOT, Hartree potential only
   LELF   =      F    write electronic localiz. function (ELF)
   LORBIT =      0    0 simple, 1 ext, 2 COOP (PROOUT)


 Dipole corrections
   LMONO  =      F    monopole corrections only (constant potential shift)
   LDIPOL =      F    correct potential (dipole corrections)
   IDIPOL =      0    1-x, 2-y, 3-z, 4-all directions 
   EPSILON=  1.0000000 bulk dielectric constant

 Exchange correlation treatment:
   GGA     =    --    GGA type
   LEXCH   =     8    internal setting for exchange type
   VOSKOWN=      0    Vosko Wilk Nusair interpolation
   LHFCALC =     F    Hartree Fock is set to
   LHFONE  =     F    Hartree Fock one center treatment
   AEXX    =    0.0000 exact exchange contribution

 Linear response parameters
   LEPSILON=     F    determine dielectric tensor
   LRPA    =     F    only Hartree local field effects (RPA)
   LNABLA  =     F    use nabla operator in PAW spheres
   LVEL    =     F    velocity operator in full k-point grid
   LINTERFAST=   F  fast interpolation
   KINTER  =     0    interpolate to denser k-point grid
   CSHIFT  =0.1000    complex shift for real part using Kramers Kronig
   OMEGAMAX=  -1.0    maximum frequency
   DEG_THRESHOLD= 0.2000000E-02 threshold for treating states as degnerate
   RTIME   =    0.100 relaxation time in fs

 Orbital magnetization related:
   ORBITALMAG=     F  switch on orbital magnetization
   LCHIMAG   =     F  perturbation theory with respect to B field
   DQ        =  0.001000  dq finite difference perturbation B field



--------------------------------------------------------------------------------------------------------


 Static calculation
 charge density and potential will be updated during run
 non-spin polarized calculation
 Variant of blocked Davidson
 Davidson routine will perform the subspace rotation
 perform sub-space diagonalisation
    after iterative eigenvector-optimisation
 modified Broyden-mixing scheme, WC =      100.0
 initial mixing is a Kerker type mixing with AMIX =  0.4000 and BMIX =      1.0000
 Hartree-type preconditioning will be used
 using additional bands           17
 reciprocal scheme for non local part
 use partial core corrections
 calculate Harris-corrections to forces 
   (improved forces if not selfconsistent)
 use gradient corrections 
 use of overlap-Matrix (Vanderbilt PP)
 Methfessel and Paxton  Order N= 1 SIGMA  =   0.20


--------------------------------------------------------------------------------------------------------


  energy-cutoff  :      223.06
  volume of cell :       15.86
      direct lattice vectors                 reciprocal lattice vectors
    -1.582600000  1.582600000  1.582600000     0.000000000  0.315935802  0.315935802
     1.582600000 -1.582600000  1.582600000     0.315935802  0.000000000  0.315935802
     1.582600000  1.582600000 -1.582600000     0.315935802  0.315935802  0.000000000

  length of vectors
     2.741143608  2.741143608  2.741143608     0.446800696  0.446800696  0.446800696


 
 k-points in units of 2pi/SCALE and weight: 20x20x20                                
   0.05000000  0.05000000  0.05000000       0.001
   0.05000000  0.10000000  0.10000000       0.003
   0.05000000  0.15000000  0.15000000       0.003
   0.05000000  0.20000000  0.20000000       0.003
   0.05000000  0.25000000  0.25000000       0.003
   0.05000000  0.30000000  0.30000000       0.003
   0.05000000  0.35000000  0.35000000       0.003
   0.05000000  0.40000000  0.40000000       0.003
   0.05000000  0.45000000  0.45000000       0.003
   0.05000000  0.50000000  0.50000000       0.002
   0.05000000  0.00000000  0.00000000       0.001
   0.10000000  0.10000000  0.15000000       0.003
   0.10000000  0.15000000  0.20000000       0.006
   0.10000000  0.20000000  0.25000000       0.006
   0.10000000  0.25000000  0.30000000       0.006
   0.10000000  0.30000000  0.35000000       0.006
   0.10000000  0.35000000  0.40000000       0.006
   0.10000000  0.40000000  0.45000000       0.006
   0.10000000  0.45000000  0.50000000       0.006
   0.10000000 -0.05000000  0.00000000       0.003
   0.15000000  0.15000000  0.25000000       0.003
   0.15000000  0.20000000  0.30000000       0.006
   0.15000000  0.25000000  0.35000000       0.006
   0.15000000  0.30000000  0.40000000       0.006
   0.15000000  0.35000000  0.45000000       0.006
   0.15000000  0.40000000  0.50000000       0.006
   0.15000000  0.45000000  0.55000000       0.003
   0.15000000 -0.10000000  0.00000000       0.003
   0.15000000 -0.05000000  0.05000000       0.003
   0.20000000  0.20000000  0.35000000       0.003
   0.20000000  0.25000000  0.40000000       0.006
   0.20000000  0.30000000  0.45000000       0.006
   0.20000000  0.35000000  0.50000000       0.006
   0.20000000  0.40000000  0.55000000       0.006
   0.20000000 -0.15000000  0.00000000       0.003
   0.20000000 -0.10000000  0.05000000       0.006
   0.25000000  0.25000000  0.45000000       0.003
   0.25000000  0.30000000  0.50000000       0.006
   0.25000000  0.35000000  0.55000000       0.006
   0.25000000  0.40000000  0.60000000       0.003
   0.25000000 -0.20000000  0.00000000       0.003
   0.25000000 -0.15000000  0.05000000       0.006
   0.25000000 -0.10000000  0.10000000       0.003
   0.30000000  0.30000000  0.55000000       0.003
   0.30000000  0.35000000  0.60000000       0.006
   0.30000000 -0.25000000  0.00000000       0.003
   0.30000000 -0.20000000  0.05000000       0.006
   0.30000000 -0.15000000  0.10000000       0.006
   0.35000000  0.35000000  0.65000000       0.001
   0.35000000 -0.30000000  0.00000000       0.003
   0.35000000 -0.25000000  0.05000000       0.006
   0.35000000 -0.20000000  0.10000000       0.006
   0.35000000 -0.15000000  0.15000000       0.003
   0.40000000 -0.35000000  0.00000000       0.003
   0.40000000 -0.30000000  0.05000000       0.006
   0.40000000 -0.25000000  0.10000000       0.006
   0.40000000 -0.20000000  0.15000000       0.006
   0.45000000 -0.40000000  0.00000000       0.003
   0.45000000 -0.35000000  0.05000000       0.006
   0.45000000 -0.30000000  0.10000000       0.006
   0.45000000 -0.25000000  0.15000000       0.006
   0.45000000 -0.20000000  0.20000000       0.003
   0.50000000 -0.45000000  0.00000000       0.003
   0.50000000 -0.40000000  0.05000000       0.006
   0.50000000 -0.35000000  0.10000000       0.006
   0.50000000 -0.30000000  0.15000000       0.006
   0.50000000 -0.25000000  0.20000000       0.006
  -0.45000000 -0.45000000 -0.95000000       0.003
  -0.45000000 -0.40000000 -0.90000000       0.006
  -0.45000000 -0.35000000 -0.85000000       0.006
  -0.45000000 -0.30000000 -0.80000000       0.006
  -0.45000000 -0.25000000 -0.75000000       0.003
  -0.40000000 -0.40000000 -0.85000000       0.003
  -0.40000000 -0.35000000 -0.80000000       0.006
  -0.40000000 -0.30000000 -0.75000000       0.006
  -0.35000000 -0.35000000 -0.75000000       0.003
  -0.35000000 -0.30000000 -0.70000000       0.003
   0.15000000  0.15000000  0.15000000       0.001
   0.15000000  0.20000000  0.20000000       0.003
   0.15000000  0.25000000  0.25000000       0.003
   0.15000000  0.30000000  0.30000000       0.003
   0.15000000  0.35000000  0.35000000       0.003
   0.15000000  0.40000000  0.40000000       0.003
   0.15000000  0.45000000  0.45000000       0.003
   0.15000000  0.50000000  0.50000000       0.002
   0.15000000  0.00000000  0.00000000       0.001
   0.20000000  0.20000000  0.25000000       0.003
   0.20000000  0.25000000  0.30000000       0.006
   0.20000000  0.30000000  0.35000000       0.006
   0.20000000  0.35000000  0.40000000       0.006
   0.20000000  0.40000000  0.45000000       0.006
   0.20000000  0.45000000  0.50000000       0.006
   0.20000000 -0.05000000  0.00000000       0.003
   0.25000000  0.25000000  0.35000000       0.003
   0.25000000  0.30000000  0.40000000       0.006
   0.25000000  0.35000000  0.45000000       0.006
   0.25000000  0.40000000  0.50000000       0.006
   0.25000000  0.45000000  0.55000000       0.003
   0.25000000 -0.10000000  0.00000000       0.003
   0.25000000 -0.05000000  0.05000000       0.003
   0.30000000  0.30000000  0.45000000       0.003
   0.30000000  0.35000000  0.50000000       0.006
   0.30000000  0.40000000  0.55000000       0.006
   0.30000000 -0.15000000  0.00000000       0.003
   0.30000000 -0.10000000  0.05000000       0.006
   0.35000000  0.35000000  0.55000000       0.003
   0.35000000  0.40000000  0.60000000       0.003
   0.35000000 -0.20000000  0.00000000       0.003
   0.35000000 -0.15000000  0.05000000       0.006
   0.35000000 -0.10000000  0.10000000       0.003
   0.40000000 -0.25000000  0.00000000       0.003
   0.40000000 -0.20000000  0.05000000       0.006
   0.40000000 -0.15000000  0.10000000       0.006
   0.45000000 -0.30000000  0.00000000       0.003
   0.45000000 -0.25000000  0.05000000       0.006
   0.45000000 -0.20000000  0.10000000       0.006
   0.45000000 -0.15000000  0.15000000       0.003
   0.50000000 -0.35000000  0.00000000       0.003
   0.50000000 -0.30000000  0.05000000       0.006
   0.50000000 -0.25000000  0.10000000       0.006
   0.50000000 -0.20000000  0.15000000       0.006
   0.55000000 -0.40000000  0.00000000       0.003
   0.55000000 -0.35000000  0.05000000       0.006
   0.55000000 -0.30000000  0.10000000       0.006
   0.55000000 -0.25000000  0.15000000       0.006
   0.55000000 -0.20000000  0.20000000       0.003
  -0.40000000 -0.40000000 -0.95000000       0.003
  -0.40000000 -0.35000000 -0.90000000       0.006
  -0.40000000 -0.30000000 -0.85000000       0.006
  -0.40000000 -0.25000000 -0.80000000       0.006
  -0.35000000 -0.35000000 -0.85000000       0.003
  -0.35000000 -0.30000000 -0.80000000       0.006
  -0.35000000 -0.25000000 -0.75000000       0.003
  -0.30000000 -0.30000000 -0.75000000       0.003
   0.25000000  0.25000000  0.25000000       0.001
   0.25000000  0.30000000  0.30000000       0.003
   0.25000000  0.35000000  0.35000000       0.003
   0.25000000  0.40000000  0.40000000       0.003
   0.25000000  0.45000000  0.45000000       0.003
   0.25000000  0.50000000  0.50000000       0.002
   0.25000000  0.00000000  0.00000000       0.001
   0.30000000  0.30000000  0.35000000       0.003
   0.30000000  0.35000000  0.40000000       0.006
   0.30000000  0.40000000  0.45000000       0.006
   0.30000000  0.45000000  0.50000000       0.006
   0.30000000 -0.05000000  0.00000000       0.003
   0.35000000  0.35000000  0.45000000       0.003
   0.35000000  0.40000000  0.50000000       0.006
   0.35000000  0.45000000  0.55000000       0.003
   0.35000000 -0.10000000  0.00000000       0.003
   0.35000000 -0.05000000  0.05000000       0.003
   0.40000000  0.40000000  0.55000000       0.003
   0.40000000 -0.15000000  0.00000000       0.003
   0.40000000 -0.10000000  0.05000000       0.006
   0.45000000 -0.20000000  0.00000000       0.003
   0.45000000 -0.15000000  0.05000000       0.006
   0.45000000 -0.10000000  0.10000000       0.003
   0.50000000 -0.25000000  0.00000000       0.003
   0.50000000 -0.20000000  0.05000000       0.006
   0.50000000 -0.15000000  0.10000000       0.006
   0.55000000 -0.30000000  0.00000000       0.003
   0.55000000 -0.25000000  0.05000000       0.006
   0.55000000 -0.20000000  0.10000000       0.006
   0.55000000 -0.15000000  0.15000000       0.003
   0.60000000 -0.35000000  0.00000000       0.003
   0.60000000 -0.30000000  0.05000000       0.006
   0.60000000 -0.25000000  0.10000000       0.006
   0.60000000 -0.20000000  0.15000000       0.006
  -0.35000000 -0.35000000 -0.95000000       0.003
  -0.35000000 -0.30000000 -0.90000000       0.006
  -0.35000000 -0.25000000 -0.85000000       0.006
  -0.35000000 -0.20000000 -0.80000000       0.003
  -0.30000000 -0.30000000 -0.85000000       0.003
  -0.30000000 -0.25000000 -0.80000000       0.006
  -0.25000000 -0.25000000 -0.75000000       0.001
   0.35000000  0.35000000  0.35000000       0.001
   0.35000000  0.40000000  0.40000000       0.003
   0.35000000  0.45000000  0.45000000       0.003
   0.35000000  0.50000000  0.50000000       0.002
   0.35000000  0.00000000  0.00000000       0.001
   0.40000000  0.40000000  0.45000000       0.003
   0.40000000  0.45000000  0.50000000       0.006
   0.40000000 -0.05000000  0.00000000       0.003
   0.45000000  0.45000000  0.55000000       0.001
   0.45000000 -0.10000000  0.00000000       0.003
   0.45000000 -0.05000000  0.05000000       0.003
   0.50000000 -0.15000000  0.00000000       0.003
   0.50000000 -0.10000000  0.05000000       0.006
   0.55000000 -0.20000000  0.00000000       0.003
   0.55000000 -0.15000000  0.05000000       0.006
   0.55000000 -0.10000000  0.10000000       0.003
   0.60000000 -0.25000000  0.00000000       0.003
   0.60000000 -0.20000000  0.05000000       0.006
   0.60000000 -0.15000000  0.10000000       0.006
   0.65000000 -0.30000000  0.00000000       0.003
   0.65000000 -0.25000000  0.05000000       0.006
   0.65000000 -0.20000000  0.10000000       0.006
   0.65000000 -0.15000000  0.15000000       0.003
  -0.30000000 -0.30000000 -0.95000000       0.003
  -0.30000000 -0.25000000 -0.90000000       0.006
  -0.30000000 -0.20000000 -0.85000000       0.006
  -0.25000000 -0.25000000 -0.85000000       0.003
  -0.25000000 -0.20000000 -0.80000000       0.003
   0.45000000  0.45000000  0.45000000       0.001
   0.45000000  0.50000000  0.50000000       0.002
   0.45000000  0.00000000  0.00000000       0.001
   0.50000000 -0.05000000  0.00000000       0.003
   0.55000000 -0.10000000  0.00000000       0.003
   0.55000000 -0.05000000  0.05000000       0.003
   0.60000000 -0.15000000  0.00000000       0.003
   0.60000000 -0.10000000  0.05000000       0.006
   0.65000000 -0.20000000  0.00000000       0.003
   0.65000000 -0.15000000  0.05000000       0.006
   0.65000000 -0.10000000  0.10000000       0.003
   0.70000000 -0.25000000  0.00000000       0.003
   0.70000000 -0.20000000  0.05000000       0.006
   0.70000000 -0.15000000  0.10000000       0.006
  -0.25000000 -0.25000000 -0.95000000       0.003
  -0.25000000 -0.20000000 -0.90000000       0.006
  -0.25000000 -0.15000000 -0.85000000       0.003
  -0.20000000 -0.20000000 -0.85000000       0.003
   0.55000000  0.00000000  0.00000000       0.001
   0.60000000 -0.05000000  0.00000000       0.003
   0.65000000 -0.10000000  0.00000000       0.003
   0.65000000 -0.05000000  0.05000000       0.003
   0.70000000 -0.15000000  0.00000000       0.003
   0.70000000 -0.10000000  0.05000000       0.006
   0.75000000 -0.20000000  0.00000000       0.003
   0.75000000 -0.15000000  0.05000000       0.006
   0.75000000 -0.10000000  0.10000000       0.003
  -0.20000000 -0.20000000 -0.95000000       0.003
  -0.20000000 -0.15000000 -0.90000000       0.006
  -0.15000000 -0.15000000 -0.85000000       0.001
   0.65000000  0.00000000  0.00000000       0.001
   0.70000000 -0.05000000  0.00000000       0.003
   0.75000000 -0.10000000  0.00000000       0.003
   0.75000000 -0.05000000  0.05000000       0.003
   0.80000000 -0.15000000  0.00000000       0.003
   0.80000000 -0.10000000  0.05000000       0.006
  -0.15000000 -0.15000000 -0.95000000       0.003
  -0.15000000 -0.10000000 -0.90000000       0.003
   0.75000000  0.00000000  0.00000000       0.001
   0.80000000 -0.05000000  0.00000000       0.003
   0.85000000 -0.10000000  0.00000000       0.003
   0.85000000 -0.05000000  0.05000000       0.003
  -0.10000000 -0.10000000 -0.95000000       0.003
   0.85000000  0.00000000  0.00000000       0.001
   0.90000000 -0.05000000  0.00000000       0.003
  -0.05000000 -0.05000000 -0.95000000       0.001
   0.95000000  0.00000000  0.00000000       0.001
 
 k-points in reciprocal lattice and weights: 20x20x20                                
   0.02500000  0.02500000  0.02500000       0.001
   0.07500000  0.02500000  0.02500000       0.003
   0.12500000  0.02500000  0.02500000       0.003
   0.17500000  0.02500000  0.02500000       0.003
   0.22500000  0.02500000  0.02500000       0.003
   0.27500000  0.02500000  0.02500000       0.003
   0.32500000  0.02500000  0.02500000       0.003
   0.37500000  0.02500000  0.02500000       0.003
   0.42500000  0.02500000  0.02500000       0.003
   0.47500000  0.02500000  0.02500000       0.002
  -0.02500000  0.02500000  0.02500000       0.001
   0.07500000  0.07500000  0.02500000       0.003
   0.12500000  0.07500000  0.02500000       0.006
   0.17500000  0.07500000  0.02500000       0.006
   0.22500000  0.07500000  0.02500000       0.006
   0.27500000  0.07500000  0.02500000       0.006
   0.32500000  0.07500000  0.02500000       0.006
   0.37500000  0.07500000  0.02500000       0.006
   0.42500000  0.07500000  0.02500000       0.006
  -0.07500000  0.07500000  0.02500000       0.003
   0.12500000  0.12500000  0.02500000       0.003
   0.17500000  0.12500000  0.02500000       0.006
   0.22500000  0.12500000  0.02500000       0.006
   0.27500000  0.12500000  0.02500000       0.006
   0.32500000  0.12500000  0.02500000       0.006
   0.37500000  0.12500000  0.02500000       0.006
   0.42500000  0.12500000  0.02500000       0.003
  -0.12500000  0.12500000  0.02500000       0.003
  -0.07500000  0.12500000  0.02500000       0.003
   0.17500000  0.17500000  0.02500000       0.003
   0.22500000  0.17500000  0.02500000       0.006
   0.27500000  0.17500000  0.02500000       0.006
   0.32500000  0.17500000  0.02500000       0.006
   0.37500000  0.17500000  0.02500000       0.006
  -0.17500000  0.17500000  0.02500000       0.003
  -0.12500000  0.17500000  0.02500000       0.006
   0.22500000  0.22500000  0.02500000       0.003
   0.27500000  0.22500000  0.02500000       0.006
   0.32500000  0.22500000  0.02500000       0.006
   0.37500000  0.22500000  0.02500000       0.003
  -0.22500000  0.22500000  0.02500000       0.003
  -0.17500000  0.22500000  0.02500000       0.006
  -0.12500000  0.22500000  0.02500000       0.003
   0.27500000  0.27500000  0.02500000       0.003
   0.32500000  0.27500000  0.02500000       0.006
  -0.27500000  0.27500000  0.02500000       0.003
  -0.22500000  0.27500000  0.02500000       0.006
  -0.17500000  0.27500000  0.02500000       0.006
   0.32500000  0.32500000  0.02500000       0.001
  -0.32500000  0.32500000  0.02500000       0.003
  -0.27500000  0.32500000  0.02500000       0.006
  -0.22500000  0.32500000  0.02500000       0.006
  -0.17500000  0.32500000  0.02500000       0.003
  -0.37500000  0.37500000  0.02500000       0.003
  -0.32500000  0.37500000  0.02500000       0.006
  -0.27500000  0.37500000  0.02500000       0.006
  -0.22500000  0.37500000  0.02500000       0.006
  -0.42500000  0.42500000  0.02500000       0.003
  -0.37500000  0.42500000  0.02500000       0.006
  -0.32500000  0.42500000  0.02500000       0.006
  -0.27500000  0.42500000  0.02500000       0.006
  -0.22500000  0.42500000  0.02500000       0.003
  -0.47500000  0.47500000  0.02500000       0.003
  -0.42500000  0.47500000  0.02500000       0.006
  -0.37500000  0.47500000  0.02500000       0.006
  -0.32500000  0.47500000  0.02500000       0.006
  -0.27500000  0.47500000  0.02500000       0.006
  -0.47500000 -0.47500000  0.02500000       0.003
  -0.42500000 -0.47500000  0.02500000       0.006
  -0.37500000 -0.47500000  0.02500000       0.006
  -0.32500000 -0.47500000  0.02500000       0.006
  -0.27500000 -0.47500000  0.02500000       0.003
  -0.42500000 -0.42500000  0.02500000       0.003
  -0.37500000 -0.42500000  0.02500000       0.006
  -0.32500000 -0.42500000  0.02500000       0.006
  -0.37500000 -0.37500000  0.02500000       0.003
  -0.32500000 -0.37500000  0.02500000       0.003
   0.07500000  0.07500000  0.07500000       0.001
   0.12500000  0.07500000  0.07500000       0.003
   0.17500000  0.07500000  0.07500000       0.003
   0.22500000  0.07500000  0.07500000       0.003
   0.27500000  0.07500000  0.07500000       0.003
   0.32500000  0.07500000  0.07500000       0.003
   0.37500000  0.07500000  0.07500000       0.003
   0.42500000  0.07500000  0.07500000       0.002
  -0.07500000  0.07500000  0.07500000       0.001
   0.12500000  0.12500000  0.07500000       0.003
   0.17500000  0.12500000  0.07500000       0.006
   0.22500000  0.12500000  0.07500000       0.006
   0.27500000  0.12500000  0.07500000       0.006
   0.32500000  0.12500000  0.07500000       0.006
   0.37500000  0.12500000  0.07500000       0.006
  -0.12500000  0.12500000  0.07500000       0.003
   0.17500000  0.17500000  0.07500000       0.003
   0.22500000  0.17500000  0.07500000       0.006
   0.27500000  0.17500000  0.07500000       0.006
   0.32500000  0.17500000  0.07500000       0.006
   0.37500000  0.17500000  0.07500000       0.003
  -0.17500000  0.17500000  0.07500000       0.003
  -0.12500000  0.17500000  0.07500000       0.003
   0.22500000  0.22500000  0.07500000       0.003
   0.27500000  0.22500000  0.07500000       0.006
   0.32500000  0.22500000  0.07500000       0.006
  -0.22500000  0.22500000  0.07500000       0.003
  -0.17500000  0.22500000  0.07500000       0.006
   0.27500000  0.27500000  0.07500000       0.003
   0.32500000  0.27500000  0.07500000       0.003
  -0.27500000  0.27500000  0.07500000       0.003
  -0.22500000  0.27500000  0.07500000       0.006
  -0.17500000  0.27500000  0.07500000       0.003
  -0.32500000  0.32500000  0.07500000       0.003
  -0.27500000  0.32500000  0.07500000       0.006
  -0.22500000  0.32500000  0.07500000       0.006
  -0.37500000  0.37500000  0.07500000       0.003
  -0.32500000  0.37500000  0.07500000       0.006
  -0.27500000  0.37500000  0.07500000       0.006
  -0.22500000  0.37500000  0.07500000       0.003
  -0.42500000  0.42500000  0.07500000       0.003
  -0.37500000  0.42500000  0.07500000       0.006
  -0.32500000  0.42500000  0.07500000       0.006
  -0.27500000  0.42500000  0.07500000       0.006
  -0.47500000  0.47500000  0.07500000       0.003
  -0.42500000  0.47500000  0.07500000       0.006
  -0.37500000  0.47500000  0.07500000       0.006
  -0.32500000  0.47500000  0.07500000       0.006
  -0.27500000  0.47500000  0.07500000       0.003
  -0.47500000 -0.47500000  0.07500000       0.003
  -0.42500000 -0.47500000  0.07500000       0.006
  -0.37500000 -0.47500000  0.07500000       0.006
  -0.32500000 -0.47500000  0.07500000       0.006
  -0.42500000 -0.42500000  0.07500000       0.003
  -0.37500000 -0.42500000  0.07500000       0.006
  -0.32500000 -0.42500000  0.07500000       0.003
  -0.37500000 -0.37500000  0.07500000       0.003
   0.12500000  0.12500000  0.12500000       0.001
   0.17500000  0.12500000  0.12500000       0.003
   0.22500000  0.12500000  0.12500000       0.003
   0.27500000  0.12500000  0.12500000       0.003
   0.32500000  0.12500000  0.12500000       0.003
   0.37500000  0.12500000  0.12500000       0.002
  -0.12500000  0.12500000  0.12500000       0.001
   0.17500000  0.17500000  0.12500000       0.003
   0.22500000  0.17500000  0.12500000       0.006
   0.27500000  0.17500000  0.12500000       0.006
   0.32500000  0.17500000  0.12500000       0.006
  -0.17500000  0.17500000  0.12500000       0.003
   0.22500000  0.22500000  0.12500000       0.003
   0.27500000  0.22500000  0.12500000       0.006
   0.32500000  0.22500000  0.12500000       0.003
  -0.22500000  0.22500000  0.12500000       0.003
  -0.17500000  0.22500000  0.12500000       0.003
   0.27500000  0.27500000  0.12500000       0.003
  -0.27500000  0.27500000  0.12500000       0.003
  -0.22500000  0.27500000  0.12500000       0.006
  -0.32500000  0.32500000  0.12500000       0.003
  -0.27500000  0.32500000  0.12500000       0.006
  -0.22500000  0.32500000  0.12500000       0.003
  -0.37500000  0.37500000  0.12500000       0.003
  -0.32500000  0.37500000  0.12500000       0.006
  -0.27500000  0.37500000  0.12500000       0.006
  -0.42500000  0.42500000  0.12500000       0.003
  -0.37500000  0.42500000  0.12500000       0.006
  -0.32500000  0.42500000  0.12500000       0.006
  -0.27500000  0.42500000  0.12500000       0.003
  -0.47500000  0.47500000  0.12500000       0.003
  -0.42500000  0.47500000  0.12500000       0.006
  -0.37500000  0.47500000  0.12500000       0.006
  -0.32500000  0.47500000  0.12500000       0.006
  -0.47500000 -0.47500000  0.12500000       0.003
  -0.42500000 -0.47500000  0.12500000       0.006
  -0.37500000 -0.47500000  0.12500000       0.006
  -0.32500000 -0.47500000  0.12500000       0.003
  -0.42500000 -0.42500000  0.12500000       0.003
  -0.37500000 -0.42500000  0.12500000       0.006
  -0.37500000 -0.37500000  0.12500000       0.001
   0.17500000  0.17500000  0.17500000       0.001
   0.22500000  0.17500000  0.17500000       0.003
   0.27500000  0.17500000  0.17500000       0.003
   0.32500000  0.17500000  0.17500000       0.002
  -0.17500000  0.17500000  0.17500000       0.001
   0.22500000  0.22500000  0.17500000       0.003
   0.27500000  0.22500000  0.17500000       0.006
  -0.22500000  0.22500000  0.17500000       0.003
   0.27500000  0.27500000  0.17500000       0.001
  -0.27500000  0.27500000  0.17500000       0.003
  -0.22500000  0.27500000  0.17500000       0.003
  -0.32500000  0.32500000  0.17500000       0.003
  -0.27500000  0.32500000  0.17500000       0.006
  -0.37500000  0.37500000  0.17500000       0.003
  -0.32500000  0.37500000  0.17500000       0.006
  -0.27500000  0.37500000  0.17500000       0.003
  -0.42500000  0.42500000  0.17500000       0.003
  -0.37500000  0.42500000  0.17500000       0.006
  -0.32500000  0.42500000  0.17500000       0.006
  -0.47500000  0.47500000  0.17500000       0.003
  -0.42500000  0.47500000  0.17500000       0.006
  -0.37500000  0.47500000  0.17500000       0.006
  -0.32500000  0.47500000  0.17500000       0.003
  -0.47500000 -0.47500000  0.17500000       0.003
  -0.42500000 -0.47500000  0.17500000       0.006
  -0.37500000 -0.47500000  0.17500000       0.006
  -0.42500000 -0.42500000  0.17500000       0.003
  -0.37500000 -0.42500000  0.17500000       0.003
   0.22500000  0.22500000  0.22500000       0.001
   0.27500000  0.22500000  0.22500000       0.002
  -0.22500000  0.22500000  0.22500000       0.001
  -0.27500000  0.27500000  0.22500000       0.003
  -0.32500000  0.32500000  0.22500000       0.003
  -0.27500000  0.32500000  0.22500000       0.003
  -0.37500000  0.37500000  0.22500000       0.003
  -0.32500000  0.37500000  0.22500000       0.006
  -0.42500000  0.42500000  0.22500000       0.003
  -0.37500000  0.42500000  0.22500000       0.006
  -0.32500000  0.42500000  0.22500000       0.003
  -0.47500000  0.47500000  0.22500000       0.003
  -0.42500000  0.47500000  0.22500000       0.006
  -0.37500000  0.47500000  0.22500000       0.006
  -0.47500000 -0.47500000  0.22500000       0.003
  -0.42500000 -0.47500000  0.22500000       0.006
  -0.37500000 -0.47500000  0.22500000       0.003
  -0.42500000 -0.42500000  0.22500000       0.003
  -0.27500000  0.27500000  0.27500000       0.001
  -0.32500000  0.32500000  0.27500000       0.003
  -0.37500000  0.37500000  0.27500000       0.003
  -0.32500000  0.37500000  0.27500000       0.003
  -0.42500000  0.42500000  0.27500000       0.003
  -0.37500000  0.42500000  0.27500000       0.006
  -0.47500000  0.47500000  0.27500000       0.003
  -0.42500000  0.47500000  0.27500000       0.006
  -0.37500000  0.47500000  0.27500000       0.003
  -0.47500000 -0.47500000  0.27500000       0.003
  -0.42500000 -0.47500000  0.27500000       0.006
  -0.42500000 -0.42500000  0.27500000       0.001
  -0.32500000  0.32500000  0.32500000       0.001
  -0.37500000  0.37500000  0.32500000       0.003
  -0.42500000  0.42500000  0.32500000       0.003
  -0.37500000  0.42500000  0.32500000       0.003
  -0.47500000  0.47500000  0.32500000       0.003
  -0.42500000  0.47500000  0.32500000       0.006
  -0.47500000 -0.47500000  0.32500000       0.003
  -0.42500000 -0.47500000  0.32500000       0.003
  -0.37500000  0.37500000  0.37500000       0.001
  -0.42500000  0.42500000  0.37500000       0.003
  -0.47500000  0.47500000  0.37500000       0.003
  -0.42500000  0.47500000  0.37500000       0.003
  -0.47500000 -0.47500000  0.37500000       0.003
  -0.42500000  0.42500000  0.42500000       0.001
  -0.47500000  0.47500000  0.42500000       0.003
  -0.47500000 -0.47500000  0.42500000       0.001
  -0.47500000  0.47500000  0.47500000       0.001
 
 position of ions in fractional coordinates (direct lattice) 
   0.00000000  0.00000000  0.00000000
 
 position of ions in cartesian coordinates  (Angst):
   0.00000000  0.00000000  0.00000000
 


--------------------------------------------------------------------------------------------------------


 k-point  1 :   0.0250 0.0250 0.0250  plane waves:     135
 k-point  2 :   0.0750 0.0250 0.0250  plane waves:     127
 k-point  3 :   0.1250 0.0250 0.0250  plane waves:     127
 k-point  4 :   0.1750 0.0250 0.0250  plane waves:     123
 k-point  5 :   0.2250 0.0250 0.0250  plane waves:     119
 k-point  6 :   0.2750 0.0250 0.0250  plane waves:     118
 k-point  7 :   0.3250 0.0250 0.0250  plane waves:     121
 k-point  8 :   0.3750 0.0250 0.0250  plane waves:     118
 k-point  9 :   0.4250 0.0250 0.0250  plane waves:     116
 k-point 10 :   0.4750 0.0250 0.0250  plane waves:     118
 k-point 11 :  -0.0250 0.0250 0.0250  plane waves:     135
 k-point 12 :   0.0750 0.0750 0.0250  plane waves:     126
 k-point 13 :   0.1250 0.0750 0.0250  plane waves:     121
 k-point 14 :   0.1750 0.0750 0.0250  plane waves:     121
 k-point 15 :   0.2250 0.0750 0.0250  plane waves:     119
 k-point 16 :   0.2750 0.0750 0.0250  plane waves:     118
 k-point 17 :   0.3250 0.0750 0.0250  plane waves:     118
 k-point 18 :   0.3750 0.0750 0.0250  plane waves:     119
 k-point 19 :   0.4250 0.0750 0.0250  plane waves:     118
 k-point 20 :  -0.0750 0.0750 0.0250  plane waves:     135
 k-point 21 :   0.1250 0.1250 0.0250  plane waves:     120
 k-point 22 :   0.1750 0.1250 0.0250  plane waves:     121
 k-point 23 :   0.2250 0.1250 0.0250  plane waves:     119
 k-point 24 :   0.2750 0.1250 0.0250  plane waves:     121
 k-point 25 :   0.3250 0.1250 0.0250  plane waves:     119
 k-point 26 :   0.3750 0.1250 0.0250  plane waves:     121
 k-point 27 :   0.4250 0.1250 0.0250  plane waves:     122
 k-point 28 :  -0.1250 0.1250 0.0250  plane waves:     128
 k-point 29 :  -0.0750 0.1250 0.0250  plane waves:     130
 k-point 30 :   0.1750 0.1750 0.0250  plane waves:     120
 k-point 31 :   0.2250 0.1750 0.0250  plane waves:     120
 k-point 32 :   0.2750 0.1750 0.0250  plane waves:     122
 k-point 33 :   0.3250 0.1750 0.0250  plane waves:     121
 k-point 34 :   0.3750 0.1750 0.0250  plane waves:     121
 k-point 35 :  -0.1750 0.1750 0.0250  plane waves:     122
 k-point 36 :  -0.1250 0.1750 0.0250  plane waves:     124
 k-point 37 :   0.2250 0.2250 0.0250  plane waves:     122
 k-point 38 :   0.2750 0.2250 0.0250  plane waves:     123
 k-point 39 :   0.3250 0.2250 0.0250  plane waves:     122
 k-point 40 :   0.3750 0.2250 0.0250  plane waves:     124
 k-point 41 :  -0.2250 0.2250 0.0250  plane waves:     123
 k-point 42 :  -0.1750 0.2250 0.0250  plane waves:     119
 k-point 43 :  -0.1250 0.2250 0.0250  plane waves:     122
 k-point 44 :   0.2750 0.2750 0.0250  plane waves:     122
 k-point 45 :   0.3250 0.2750 0.0250  plane waves:     122
 k-point 46 :  -0.2750 0.2750 0.0250  plane waves:     120
 k-point 47 :  -0.2250 0.2750 0.0250  plane waves:     119
 k-point 48 :  -0.1750 0.2750 0.0250  plane waves:     120
 k-point 49 :   0.3250 0.3250 0.0250  plane waves:     119
 k-point 50 :  -0.3250 0.3250 0.0250  plane waves:     120
 k-point 51 :  -0.2750 0.3250 0.0250  plane waves:     121
 k-point 52 :  -0.2250 0.3250 0.0250  plane waves:     119
 k-point 53 :  -0.1750 0.3250 0.0250  plane waves:     117
 k-point 54 :  -0.3750 0.3750 0.0250  plane waves:     118
 k-point 55 :  -0.3250 0.3750 0.0250  plane waves:     118
 k-point 56 :  -0.2750 0.3750 0.0250  plane waves:     120
 k-point 57 :  -0.2250 0.3750 0.0250  plane waves:     117
 k-point 58 :  -0.4250 0.4250 0.0250  plane waves:     116
 k-point 59 :  -0.3750 0.4250 0.0250  plane waves:     119
 k-point 60 :  -0.3250 0.4250 0.0250  plane waves:     119
 k-point 61 :  -0.2750 0.4250 0.0250  plane waves:     119
 k-point 62 :  -0.2250 0.4250 0.0250  plane waves:     122
 k-point 63 :  -0.4750 0.4750 0.0250  plane waves:     118
 k-point 64 :  -0.4250 0.4750 0.0250  plane waves:     119
 k-point 65 :  -0.3750 0.4750 0.0250  plane waves:     120
 k-point 66 :  -0.3250 0.4750 0.0250  plane waves:     119
 k-point 67 :  -0.2750 0.4750 0.0250  plane waves:     121
 k-point 68 :  -0.4750-0.4750 0.0250  plane waves:     118
 k-point 69 :  -0.4250-0.4750 0.0250  plane waves:     121
 k-point 70 :  -0.3750-0.4750 0.0250  plane waves:     122
 k-point 71 :  -0.3250-0.4750 0.0250  plane waves:     122
 k-point 72 :  -0.2750-0.4750 0.0250  plane waves:     122
 k-point 73 :  -0.4250-0.4250 0.0250  plane waves:     121
 k-point 74 :  -0.3750-0.4250 0.0250  plane waves:     121
 k-point 75 :  -0.3250-0.4250 0.0250  plane waves:     124
 k-point 76 :  -0.3750-0.3750 0.0250  plane waves:     122
 k-point 77 :  -0.3250-0.3750 0.0250  plane waves:     121
 k-point 78 :   0.0750 0.0750 0.0750  plane waves:     123
 k-point 79 :   0.1250 0.0750 0.0750  plane waves:     123
 k-point 80 :   0.1750 0.0750 0.0750  plane waves:     121
 k-point 81 :   0.2250 0.0750 0.0750  plane waves:     119
 k-point 82 :   0.2750 0.0750 0.0750  plane waves:     119
 k-point 83 :   0.3250 0.0750 0.0750  plane waves:     120
 k-point 84 :   0.3750 0.0750 0.0750  plane waves:     120
 k-point 85 :   0.4250 0.0750 0.0750  plane waves:     122
 k-point 86 :  -0.0750 0.0750 0.0750  plane waves:     128
 k-point 87 :   0.1250 0.1250 0.0750  plane waves:     122
 k-point 88 :   0.1750 0.1250 0.0750  plane waves:     120
 k-point 89 :   0.2250 0.1250 0.0750  plane waves:     120
 k-point 90 :   0.2750 0.1250 0.0750  plane waves:     121
 k-point 91 :   0.3250 0.1250 0.0750  plane waves:     121
 k-point 92 :   0.3750 0.1250 0.0750  plane waves:     121
 k-point 93 :  -0.1250 0.1250 0.0750  plane waves:     124
 k-point 94 :   0.1750 0.1750 0.0750  plane waves:     124
 k-point 95 :   0.2250 0.1750 0.0750  plane waves:     121
 k-point 96 :   0.2750 0.1750 0.0750  plane waves:     123
 k-point 97 :   0.3250 0.1750 0.0750  plane waves:     123
 k-point 98 :   0.3750 0.1750 0.0750  plane waves:     125
 k-point 99 :  -0.1750 0.1750 0.0750  plane waves:     118
 k-point ** :  -0.1250 0.1750 0.0750  plane waves:     120
 k-point ** :   0.2250 0.2250 0.0750  plane waves:     123
 k-point ** :   0.2750 0.2250 0.0750  plane waves:     122
 k-point ** :   0.3250 0.2250 0.0750  plane waves:     123
 k-point ** :  -0.2250 0.2250 0.0750  plane waves:     118
 k-point ** :  -0.1750 0.2250 0.0750  plane waves:     120
 k-point ** :   0.2750 0.2750 0.0750  plane waves:     123
 k-point ** :   0.3250 0.2750 0.0750  plane waves:     121
 k-point ** :  -0.2750 0.2750 0.0750  plane waves:     119
 k-point ** :  -0.2250 0.2750 0.0750  plane waves:     118
 k-point ** :  -0.1750 0.2750 0.0750  plane waves:     118
 k-point ** :  -0.3250 0.3250 0.0750  plane waves:     120
 k-point ** :  -0.2750 0.3250 0.0750  plane waves:     122
 k-point ** :  -0.2250 0.3250 0.0750  plane waves:     117
 k-point ** :  -0.3750 0.3750 0.0750  plane waves:     118
 k-point ** :  -0.3250 0.3750 0.0750  plane waves:     119
 k-point ** :  -0.2750 0.3750 0.0750  plane waves:     119
 k-point ** :  -0.2250 0.3750 0.0750  plane waves:     122
 k-point ** :  -0.4250 0.4250 0.0750  plane waves:     120
 k-point ** :  -0.3750 0.4250 0.0750  plane waves:     120
 k-point ** :  -0.3250 0.4250 0.0750  plane waves:     118
 k-point ** :  -0.2750 0.4250 0.0750  plane waves:     119
 k-point ** :  -0.4750 0.4750 0.0750  plane waves:     119
 k-point ** :  -0.4250 0.4750 0.0750  plane waves:     123
 k-point ** :  -0.3750 0.4750 0.0750  plane waves:     121
 k-point ** :  -0.3250 0.4750 0.0750  plane waves:     119
 k-point ** :  -0.2750 0.4750 0.0750  plane waves:     119
 k-point ** :  -0.4750-0.4750 0.0750  plane waves:     122
 k-point ** :  -0.4250-0.4750 0.0750  plane waves:     121
 k-point ** :  -0.3750-0.4750 0.0750  plane waves:     121
 k-point ** :  -0.3250-0.4750 0.0750  plane waves:     118
 k-point ** :  -0.4250-0.4250 0.0750  plane waves:     122
 k-point ** :  -0.3750-0.4250 0.0750  plane waves:     120
 k-point ** :  -0.3250-0.4250 0.0750  plane waves:     119
 k-point ** :  -0.3750-0.3750 0.0750  plane waves:     119
 k-point ** :   0.1250 0.1250 0.1250  plane waves:     119
 k-point ** :   0.1750 0.1250 0.1250  plane waves:     122
 k-point ** :   0.2250 0.1250 0.1250  plane waves:     122
 k-point ** :   0.2750 0.1250 0.1250  plane waves:     121
 k-point ** :   0.3250 0.1250 0.1250  plane waves:     120
 k-point ** :   0.3750 0.1250 0.1250  plane waves:     122
 k-point ** :  -0.1250 0.1250 0.1250  plane waves:     120
 k-point ** :   0.1750 0.1750 0.1250  plane waves:     125
 k-point ** :   0.2250 0.1750 0.1250  plane waves:     123
 k-point ** :   0.2750 0.1750 0.1250  plane waves:     122
 k-point ** :   0.3250 0.1750 0.1250  plane waves:     123
 k-point ** :  -0.1750 0.1750 0.1250  plane waves:     116
 k-point ** :   0.2250 0.2250 0.1250  plane waves:     125
 k-point ** :   0.2750 0.2250 0.1250  plane waves:     123
 k-point ** :   0.3250 0.2250 0.1250  plane waves:     126
 k-point ** :  -0.2250 0.2250 0.1250  plane waves:     116
 k-point ** :  -0.1750 0.2250 0.1250  plane waves:     116
 k-point ** :   0.2750 0.2750 0.1250  plane waves:     123
 k-point ** :  -0.2750 0.2750 0.1250  plane waves:     118
 k-point ** :  -0.2250 0.2750 0.1250  plane waves:     116
 k-point ** :  -0.3250 0.3250 0.1250  plane waves:     122
 k-point ** :  -0.2750 0.3250 0.1250  plane waves:     120
 k-point ** :  -0.2250 0.3250 0.1250  plane waves:     117
 k-point ** :  -0.3750 0.3750 0.1250  plane waves:     122
 k-point ** :  -0.3250 0.3750 0.1250  plane waves:     120
 k-point ** :  -0.2750 0.3750 0.1250  plane waves:     120
 k-point ** :  -0.4250 0.4250 0.1250  plane waves:     121
 k-point ** :  -0.3750 0.4250 0.1250  plane waves:     120
 k-point ** :  -0.3250 0.4250 0.1250  plane waves:     120
 k-point ** :  -0.2750 0.4250 0.1250  plane waves:     119
 k-point ** :  -0.4750 0.4750 0.1250  plane waves:     123
 k-point ** :  -0.4250 0.4750 0.1250  plane waves:     122
 k-point ** :  -0.3750 0.4750 0.1250  plane waves:     120
 k-point ** :  -0.3250 0.4750 0.1250  plane waves:     118
 k-point ** :  -0.4750-0.4750 0.1250  plane waves:     120
 k-point ** :  -0.4250-0.4750 0.1250  plane waves:     119
 k-point ** :  -0.3750-0.4750 0.1250  plane waves:     118
 k-point ** :  -0.3250-0.4750 0.1250  plane waves:     117
 k-point ** :  -0.4250-0.4250 0.1250  plane waves:     119
 k-point ** :  -0.3750-0.4250 0.1250  plane waves:     117
 k-point ** :  -0.3750-0.3750 0.1250  plane waves:     119
 k-point ** :   0.1750 0.1750 0.1750  plane waves:     125
 k-point ** :   0.2250 0.1750 0.1750  plane waves:     125
 k-point ** :   0.2750 0.1750 0.1750  plane waves:     123
 k-point ** :   0.3250 0.1750 0.1750  plane waves:     122
 k-point ** :  -0.1750 0.1750 0.1750  plane waves:     120
 k-point ** :   0.2250 0.2250 0.1750  plane waves:     125
 k-point ** :   0.2750 0.2250 0.1750  plane waves:     125
 k-point ** :  -0.2250 0.2250 0.1750  plane waves:     116
 k-point ** :   0.2750 0.2750 0.1750  plane waves:     119
 k-point ** :  -0.2750 0.2750 0.1750  plane waves:     120
 k-point ** :  -0.2250 0.2750 0.1750  plane waves:     118
 k-point ** :  -0.3250 0.3250 0.1750  plane waves:     119
 k-point ** :  -0.2750 0.3250 0.1750  plane waves:     118
 k-point ** :  -0.3750 0.3750 0.1750  plane waves:     120
 k-point ** :  -0.3250 0.3750 0.1750  plane waves:     119
 k-point ** :  -0.2750 0.3750 0.1750  plane waves:     119
 k-point ** :  -0.4250 0.4250 0.1750  plane waves:     123
 k-point ** :  -0.3750 0.4250 0.1750  plane waves:     121
 k-point ** :  -0.3250 0.4250 0.1750  plane waves:     118
 k-point ** :  -0.4750 0.4750 0.1750  plane waves:     122
 k-point ** :  -0.4250 0.4750 0.1750  plane waves:     119
 k-point ** :  -0.3750 0.4750 0.1750  plane waves:     119
 k-point ** :  -0.3250 0.4750 0.1750  plane waves:     119
 k-point ** :  -0.4750-0.4750 0.1750  plane waves:     121
 k-point ** :  -0.4250-0.4750 0.1750  plane waves:     118
 k-point ** :  -0.3750-0.4750 0.1750  plane waves:     116
 k-point ** :  -0.4250-0.4250 0.1750  plane waves:     117
 k-point ** :  -0.3750-0.4250 0.1750  plane waves:     115
 k-point ** :   0.2250 0.2250 0.2250  plane waves:     125
 k-point ** :   0.2750 0.2250 0.2250  plane waves:     126
 k-point ** :  -0.2250 0.2250 0.2250  plane waves:     116
 k-point ** :  -0.2750 0.2750 0.2250  plane waves:     116
 k-point ** :  -0.3250 0.3250 0.2250  plane waves:     117
 k-point ** :  -0.2750 0.3250 0.2250  plane waves:     117
 k-point ** :  -0.3750 0.3750 0.2250  plane waves:     119
 k-point ** :  -0.3250 0.3750 0.2250  plane waves:     117
 k-point ** :  -0.4250 0.4250 0.2250  plane waves:     120
 k-point ** :  -0.3750 0.4250 0.2250  plane waves:     120
[...]


 plasma frequency squared (from interband transitions, int dw w eps(2)(w)
  --------------------------------------------------------------------------------------
     772.448      -0.000      -0.000
      -0.000     772.448      -0.000
      -0.000      -0.000     772.448
  --------------------------------------------------------------------------------------
 plasma frequency squared  (valence only):     521.796

  frequency dependent IMAGINARY DIELECTRIC FUNCTION (independent particle, no local field effects)
     E(ev)      X         Y         Z        XY        YZ        ZX
  --------------------------------------------------------------------------------------
    0.000000    0.000000    0.000000    0.000000    0.000000    0.000000    0.000000
    0.642423   42.876002   42.876002   42.876002   -0.000000   -0.000000   -0.000000
    1.284845   22.047510   22.047510   22.047510   -0.000000   -0.000000   -0.000000
    1.927268   22.036108   22.036108   22.036108   -0.000000   -0.000000   -0.000000
    2.569691   23.392159   23.392159   23.392159   -0.000000   -0.000000   -0.000000
    3.212113   19.232681   19.232681   19.232681   -0.000000   -0.000000   -0.000000
    3.854536   18.074216   18.074216   18.074216   -0.000000   -0.000000   -0.000000
    4.496959   18.825534   18.825534   18.825534   -0.000000   -0.000000    0.000000
    5.139381   26.958216   26.958216   26.958216    0.000000    0.000000   -0.000000
    5.781804   15.063843   15.063843   15.063843   -0.000000    0.000000   -0.000000
    6.424226    8.236902    8.236902    8.236902   -0.000000   -0.000000   -0.000000
    7.066649    5.692347    5.692347    5.692347    0.000000   -0.000000    0.000000
    7.709072    3.895636    3.895636    3.895636    0.000000   -0.000000    0.000000
    8.351494    3.699502    3.699502    3.699502   -0.000000    0.000000    0.000000
    8.993917    3.029677    3.029677    3.029677   -0.000000   -0.000000   -0.000000
    9.636340    3.565352    3.565352    3.565352    0.000000   -0.000000    0.000000
   10.278762    4.480760    4.480760    4.480760   -0.000000    0.000000   -0.000000
   10.921185    3.527825    3.527825    3.527825    0.000000    0.000000   -0.000000
   11.563608    3.478854    3.478854    3.478854    0.000000    0.000000    0.000000
   12.206030    2.736237    2.736237    2.736237    0.000000    0.000000   -0.000000
   12.848453    2.578514    2.578514    2.578514    0.000000    0.000000    0.000000
   13.490876    2.052752    2.052752    2.052752    0.000000   -0.000000    0.000000
   14.133298    1.799175    1.799175    1.799175    0.000000   -0.000000   -0.000000
   14.775721    1.681405    1.681405    1.681405   -0.000000   -0.000000   -0.000000
   15.418143    1.444288    1.444288    1.444288    0.000000    0.000000   -0.000000
   16.060566    1.887556    1.887556    1.887556    0.000000   -0.000000    0.000000
   16.702989    2.688637    2.688637    2.688637    0.000000    0.000000    0.000000
   17.345411    2.790599    2.790599    2.790599   -0.000000   -0.000000    0.000000
   17.987834    2.024317    2.024317    2.024317   -0.000000   -0.000000    0.000000
   18.630257    1.878709    1.878709    1.878709   -0.000000   -0.000000    0.000000
   19.272679    1.668689    1.668689    1.668689   -0.000000   -0.000000   -0.000000
   19.915102    0.928996    0.928996    0.928996   -0.000000   -0.000000   -0.000000
   20.557525    0.638623    0.638623    0.638623   -0.000000   -0.000000   -0.000000
   21.199947    0.563979    0.563979    0.563979   -0.000000   -0.000000    0.000000
   21.842370    0.604765    0.604765    0.604765   -0.000000   -0.000000    0.000000
   22.484793    0.560360    0.560360    0.560360   -0.000000   -0.000000    0.000000
   23.127215    0.513563    0.513563    0.513563   -0.000000   -0.000000   -0.000000
   23.769638    0.443869    0.443869    0.443869   -0.000000   -0.000000    0.000000
   24.412061    0.353346    0.353346    0.353346    0.000000    0.000000    0.000000
   25.054483    0.253783    0.253783    0.253783    0.000000    0.000000   -0.000000
   25.696906    0.292857    0.292857    0.292857   -0.000000    0.000000    0.000000
   26.339328    0.296274    0.296274    0.296274   -0.000000   -0.000000   -0.000000
   26.981751    0.276048    0.276048    0.276048   -0.000000   -0.000000    0.000000
   27.624174    0.271526    0.271526    0.271526    0.000000    0.000000   -0.000000
   28.266596    0.239950    0.239950    0.239950   -0.000000   -0.000000   -0.000000
   28.909019    0.210901    0.210901    0.210901   -0.000000   -0.000000    0.000000
   29.551442    0.205229    0.205229    0.205229    0.000000    0.000000   -0.000000
   30.193864    0.169380    0.169380    0.169380   -0.000000    0.000000    0.000000
   30.836287    0.157614    0.157614    0.157614   -0.000000    0.000000    0.000000
   31.478710    0.186763    0.186763    0.186763   -0.000000   -0.000000   -0.000000
   32.121132    0.218031    0.218031    0.218031   -0.000000   -0.000000   -0.000000
   32.763555    0.193934    0.193934    0.193934    0.000000    0.000000   -0.000000
   33.405978    0.244896    0.244896    0.244896   -0.000000   -0.000000   -0.000000
   34.048400    0.171079    0.171079    0.171079   -0.000000    0.000000   -0.000000
   34.690823    0.313189    0.313189    0.313189    0.000000    0.000000   -0.000000
   35.333245    0.394046    0.394046    0.394046   -0.000000   -0.000000   -0.000000
   35.975668    0.710298    0.710298    0.710298    0.000000   -0.000000    0.000000
   36.618091    1.320404    1.320404    1.320404   -0.000000   -0.000000    0.000000
   37.260513    1.215487    1.215487    1.215487    0.000000   -0.000000    0.000000
   37.902936    1.455339    1.455339    1.455339    0.000000   -0.000000    0.000000
   38.545359    0.676825    0.676825    0.676825    0.000000   -0.000000    0.000000
   39.187781    0.779607    0.779607    0.779607    0.000000    0.000000   -0.000000
   39.830204    0.814747    0.814747    0.814747   -0.000000    0.000000    0.000000
   40.472627    0.576832    0.576832    0.576832    0.000000    0.000000    0.000000
   41.115049    0.320325    0.320325    0.320325   -0.000000   -0.000000   -0.000000
   41.757472    0.170110    0.170110    0.170110   -0.000000   -0.000000   -0.000000
   42.399895    0.114897    0.114897    0.114897   -0.000000   -0.000000    0.000000
   43.042317    0.081303    0.081303    0.081303    0.000000    0.000000    0.000000
   43.684740    0.078102    0.078102    0.078102    0.000000    0.000000   -0.000000
   44.327163    0.062762    0.062762    0.062762   -0.000000   -0.000000    0.000000
   44.969585    0.037267    0.037267    0.037267   -0.000000   -0.000000    0.000000
   45.612008    0.022331    0.022331    0.022331    0.000000    0.000000    0.000000
   46.254430    0.022984    0.022984    0.022984   -0.000000    0.000000    0.000000
   46.896853    0.016115    0.016115    0.016115    0.000000    0.000000    0.000000
   47.539276    0.008393    0.008393    0.008393    0.000000    0.000000   -0.000000
   48.181698    0.005858    0.005858    0.005858   -0.000000   -0.000000    0.000000
   48.824121    0.004199    0.004199    0.004199   -0.000000   -0.000000    0.000000
   49.466544    0.003124    0.003124    0.003124    0.000000   -0.000000    0.000000
   50.108966    0.002741    0.002741    0.002741   -0.000000   -0.000000   -0.000000
   50.751389    0.002493    0.002493    0.002493   -0.000000   -0.000000   -0.000000
   51.393812    0.002291    0.002291    0.002291   -0.000000   -0.000000   -0.000000
   52.036234    0.002119    0.002119    0.002119   -0.000000   -0.000000   -0.000000
   52.678657    0.001971    0.001971    0.001971   -0.000000   -0.000000   -0.000000
   53.321080    0.001840    0.001840    0.001840   -0.000000   -0.000000   -0.000000
   53.963502    0.001724    0.001724    0.001724   -0.000000   -0.000000   -0.000000
   54.605925    0.001621    0.001621    0.001621   -0.000000   -0.000000   -0.000000
   55.248347    0.001527    0.001527    0.001527   -0.000000   -0.000000   -0.000000
   55.890770    0.001443    0.001443    0.001443   -0.000000   -0.000000   -0.000000
   56.533193    0.001366    0.001366    0.001366   -0.000000   -0.000000   -0.000000
   57.175615    0.001295    0.001295    0.001295   -0.000000   -0.000000   -0.000000
   57.818038    0.001231    0.001231    0.001231   -0.000000   -0.000000   -0.000000
   58.460461    0.001171    0.001171    0.001171   -0.000000   -0.000000   -0.000000
   59.102883    0.001116    0.001116    0.001116   -0.000000   -0.000000   -0.000000
   59.745306    0.001065    0.001065    0.001065   -0.000000   -0.000000   -0.000000
   60.387729    0.001017    0.001017    0.001017   -0.000000   -0.000000   -0.000000
   61.030151    0.000973    0.000973    0.000973   -0.000000   -0.000000   -0.000000
   61.672574    0.000932    0.000932    0.000932   -0.000000   -0.000000   -0.000000
   62.314997    0.000893    0.000893    0.000893   -0.000000   -0.000000   -0.000000
   62.957419    0.000857    0.000857    0.000857   -0.000000   -0.000000   -0.000000
   63.599842    0.000823    0.000823    0.000823   -0.000000   -0.000000   -0.000000

  frequency dependent      REAL DIELECTRIC FUNCTION (independent particle, no local field effects)
     E(ev)      X         Y         Z        XY        YZ        ZX
  --------------------------------------------------------------------------------------
    0.000000   76.578353   76.578353   76.578353   -0.000000   -0.000000   -0.000000
    0.642423   10.266603   10.266603   10.266603   -0.000000   -0.000000   -0.000000
    1.284845   25.764055   25.764055   25.764055   -0.000000    0.000000    0.000000
    1.927268   24.150550   24.150550   24.150550   -0.000000   -0.000000   -0.000000
    2.569691    8.142835    8.142835    8.142835    0.000000    0.000000   -0.000000
    3.212113   10.384911   10.384911   10.384911    0.000000    0.000000   -0.000000
    3.854536    4.269631    4.269631    4.269631    0.000000   -0.000000    0.000000
    4.496959    5.066491    5.066491    5.066491    0.000000    0.000000   -0.000000
    5.139381    0.292976    0.292976    0.292976    0.000000    0.000000   -0.000000
    5.781804   -9.854952   -9.854952   -9.854952    0.000000    0.000000    0.000000
    6.424226   -8.800772   -8.800772   -8.800772    0.000000   -0.000000    0.000000
    7.066649   -6.440627   -6.440627   -6.440627    0.000000    0.000000    0.000000
    7.709072   -4.163866   -4.163866   -4.163866    0.000000    0.000000    0.000000
    8.351494   -2.311923   -2.311923   -2.311923    0.000000    0.000000    0.000000
    8.993917   -1.759048   -1.759048   -1.759048    0.000000    0.000000   -0.000000
    9.636340   -0.405047   -0.405047   -0.405047    0.000000    0.000000   -0.000000
   10.278762   -0.608875   -0.608875   -0.608875    0.000000    0.000000   -0.000000
   10.921185   -1.166495   -1.166495   -1.166495    0.000000   -0.000000    0.000000
   11.563608   -2.075062   -2.075062   -2.075062   -0.000000   -0.000000    0.000000
   12.206030   -1.344379   -1.344379   -1.344379    0.000000   -0.000000   -0.000000
   12.848453   -1.543723   -1.543723   -1.543723   -0.000000   -0.000000    0.000000
   13.490876   -1.195661   -1.195661   -1.195661   -0.000000   -0.000000    0.000000
   14.133298   -1.100150   -1.100150   -1.100150   -0.000000   -0.000000    0.000000
   14.775721   -0.371463   -0.371463   -0.371463   -0.000000   -0.000000    0.000000
   15.418143   -0.188910   -0.188910   -0.188910   -0.000000   -0.000000    0.000000
   16.060566    0.008863    0.008863    0.008863   -0.000000   -0.000000    0.000000
   16.702989    0.004092    0.004092    0.004092   -0.000000   -0.000000    0.000000
   17.345411   -0.916387   -0.916387   -0.916387   -0.000000   -0.000000    0.000000
   17.987834   -0.909445   -0.909445   -0.909445    0.000000    0.000000   -0.000000
   18.630257   -1.115743   -1.115743   -1.115743    0.000000    0.000000   -0.000000
   19.272679   -1.413733   -1.413733   -1.413733   -0.000000   -0.000000   -0.000000
   19.915102   -1.350072   -1.350072   -1.350072    0.000000    0.000000    0.000000
   20.557525   -0.912072   -0.912072   -0.912072    0.000000    0.000000    0.000000
   21.199947   -0.586691   -0.586691   -0.586691    0.000000    0.000000    0.000000
   21.842370   -0.385650   -0.385650   -0.385650    0.000000    0.000000    0.000000
   22.484793   -0.437283   -0.437283   -0.437283    0.000000    0.000000    0.000000
   23.127215   -0.339412   -0.339412   -0.339412   -0.000000    0.000000    0.000000
   23.769638   -0.236467   -0.236467   -0.236467    0.000000    0.000000    0.000000
   24.412061   -0.213742   -0.213742   -0.213742   -0.000000    0.000000    0.000000
   25.054483   -0.038364   -0.038364   -0.038364    0.000000    0.000000    0.000000
   25.696906    0.061759    0.061759    0.061759    0.000000   -0.000000    0.000000
   26.339328    0.136454    0.136454    0.136454    0.000000   -0.000000    0.000000
   26.981751    0.161763    0.161763    0.161763    0.000000    0.000000    0.000000
   27.624174    0.243169    0.243169    0.243169   -0.000000   -0.000000    0.000000
   28.266596    0.278425    0.278425    0.278425   -0.000000   -0.000000    0.000000
   28.909019    0.300957    0.300957    0.300957    0.000000    0.000000    0.000000
   29.551442    0.406694    0.406694    0.406694    0.000000    0.000000    0.000000
   30.193864    0.424367    0.424367    0.424367   -0.000000    0.000000    0.000000
   30.836287    0.541856    0.541856    0.541856    0.000000    0.000000    0.000000
   31.478710    0.593844    0.593844    0.593844    0.000000    0.000000    0.000000
   32.121132    0.698727    0.698727    0.698727    0.000000   -0.000000    0.000000
   32.763555    0.688072    0.688072    0.688072    0.000000    0.000000    0.000000
   33.405978    0.750317    0.750317    0.750317    0.000000   -0.000000    0.000000
   34.048400    0.862166    0.862166    0.862166    0.000000    0.000000    0.000000
   34.690823    1.120887    1.120887    1.120887    0.000000    0.000000    0.000000
   35.333245    1.142665    1.142665    1.142665   -0.000000   -0.000000    0.000000
   35.975668    1.403862    1.403862    1.403862    0.000000   -0.000000    0.000000
   36.618091    1.243703    1.243703    1.243703    0.000000   -0.000000    0.000000
   37.260513    0.456712    0.456712    0.456712   -0.000000   -0.000000   -0.000000
   37.902936    0.424792    0.424792    0.424792    0.000000    0.000000   -0.000000
   38.545359   -0.148808   -0.148808   -0.148808   -0.000000    0.000000   -0.000000
   39.187781    0.267469    0.267469    0.267469   -0.000000    0.000000   -0.000000
   39.830204   -0.035479   -0.035479   -0.035479    0.000000    0.000000    0.000000
   40.472627   -0.095743   -0.095743   -0.095743    0.000000    0.000000    0.000000
   41.115049   -0.150729   -0.150729   -0.150729   -0.000000    0.000000   -0.000000
   41.757472    0.035492    0.035492    0.035492    0.000000    0.000000    0.000000
   42.399895    0.136880    0.136880    0.136880    0.000000    0.000000    0.000000
   43.042317    0.224011    0.224011    0.224011    0.000000    0.000000    0.000000
   43.684740    0.290255    0.290255    0.290255   -0.000000    0.000000    0.000000
   44.327163    0.316550    0.316550    0.316550   -0.000000    0.000000    0.000000
   44.969585    0.366565    0.366565    0.366565    0.000000    0.000000    0.000000
   45.612008    0.395736    0.395736    0.395736    0.000000    0.000000    0.000000
   46.254430    0.435531    0.435531    0.435531    0.000000    0.000000    0.000000
   46.896853    0.467343    0.467343    0.467343   -0.000000    0.000000    0.000000
   47.539276    0.496748    0.496748    0.496748    0.000000    0.000000    0.000000
   48.181698    0.520828    0.520828    0.520828    0.000000    0.000000    0.000000
   48.824121    0.543930    0.543930    0.543930    0.000000    0.000000    0.000000
   49.466544    0.564733    0.564733    0.564733    0.000000    0.000000    0.000000
   50.108966    0.583251    0.583251    0.583251    0.000000    0.000000    0.000000
   50.751389    0.600028    0.600028    0.600028    0.000000    0.000000    0.000000
   51.393812    0.615372    0.615372    0.615372    0.000000    0.000000    0.000000
   52.036234    0.629522    0.629522    0.629522    0.000000    0.000000    0.000000
   52.678657    0.642648    0.642648    0.642648    0.000000    0.000000    0.000000
   53.321080    0.654881    0.654881    0.654881    0.000000    0.000000    0.000000
   53.963502    0.666323    0.666323    0.666323    0.000000    0.000000    0.000000
   54.605925    0.677062    0.677062    0.677062    0.000000    0.000000    0.000000
   55.248347    0.687169    0.687169    0.687169    0.000000    0.000000    0.000000
   55.890770    0.696705    0.696705    0.696705    0.000000    0.000000    0.000000
   56.533193    0.705723    0.705723    0.705723    0.000000    0.000000    0.000000
   57.175615    0.714268    0.714268    0.714268    0.000000    0.000000    0.000000
   57.818038    0.722379    0.722379    0.722379    0.000000    0.000000    0.000000
   58.460461    0.730092    0.730092    0.730092    0.000000    0.000000    0.000000
   59.102883    0.737436    0.737436    0.737436    0.000000    0.000000    0.000000
   59.745306    0.744439    0.744439    0.744439    0.000000    0.000000    0.000000
   60.387729    0.751126    0.751126    0.751126    0.000000    0.000000    0.000000
   61.030151    0.757518    0.757518    0.757518    0.000000    0.000000    0.000000
   61.672574    0.763636    0.763636    0.763636    0.000000    0.000000    0.000000
   62.314997    0.769496    0.769496    0.769496    0.000000    0.000000    0.000000
   62.957419    0.775116    0.775116    0.775116    0.000000    0.000000    0.000000
   63.599842    0.780510    0.780510    0.780510    0.000000    0.000000    0.000000
 
 The outermost node in the dielectric function lies at epsilon=  41.6


--------------------------------------------------------------------------------------------------------


    OPTICS:  cpu time    2.55: real time    2.57
    4ORBIT:  cpu time    0.00: real time    0.00

volume of typ            1:    81.4 %
 
total charge     
 
# of ion     s       p       d       tot
----------------------------------------
  1        0.479   0.487   3.530   4.495
 
orbital moment (x)
 
# of ion   s             p             d             tot
---------------------------------------------------------------
   1     0.000000E+00 -0.489709E-09 -0.556352E-08 -0.605322E-08
 
orbital moment (y)
 
# of ion   s             p             d             tot
---------------------------------------------------------------
   1     0.000000E+00 -0.130674E-08 -0.650134E-08 -0.780808E-08
 
orbital moment (z)
 
# of ion   s             p             d             tot
---------------------------------------------------------------
   1     0.000000E+00  0.621471E-09 -0.461442E-08 -0.399295E-08
 

 total amount of memory used by VASP on root node    47789. kBytes
========================================================================

   base      :      30000. kBytes
   nonl-proj :       4862. kBytes
   grid      :        672. kBytes
   one-center:         15. kBytes
   wavefun   :      12240. kBytes
 
  
  
 General timing and accounting informations for this job:
 ========================================================
  
                  Total CPU time used (sec):       16.288
                            User time (sec):       14.800
                          System time (sec):        1.488
                         Elapsed time (sec):       16.435
  
                   Maximum memory used (kb):       79168.
                   Average memory used (kb):           0.
  
                          Minor page faults:        20087
                          Major page faults:            0
                 Voluntary context switches:          373
