 vasp.5.3.5 31Mar14 (build Dec 14 2018 19:18:10) complex                        
  
 POSCAR found type information on POSCAR  W 
 POSCAR found :  1 types and       1 ions
 LDA part: xc-table for Pade appr. of Perdew
 POSCAR, INCAR and KPOINTS ok, starting setup
 WARNING: small aliasing (wrap around) errors must be expected
 FFT: planning ...
 WAVECAR not read
 entering main loop
       N       E                     dE             d eps       ncg     rms          rms(c)
DAV:   1    -0.613844842387E+00   -0.61384E+00   -0.14394E+03 10988   0.115E+02
DAV:   2    -0.135457714538E+02   -0.12932E+02   -0.12453E+02 12664   0.439E+01
DAV:   3    -0.136905701045E+02   -0.14480E+00   -0.14449E+00 13472   0.414E+00
DAV:   4    -0.136906104469E+02   -0.40342E-04   -0.40339E-04 11628   0.681E-02
DAV:   5    -0.136906104500E+02   -0.31322E-08   -0.30646E-08 10548   0.613E-04    0.424E+00
DAV:   6    -0.131971294132E+02    0.49348E+00   -0.21309E-01 12692   0.152E+00    0.224E+00
DAV:   7    -0.130041589111E+02    0.19297E+00   -0.30673E-01 12240   0.175E+00    0.237E-01
DAV:   8    -0.130040170313E+02    0.14188E-03   -0.96175E-03 11632   0.402E-01    0.160E-01
DAV:   9    -0.130030469215E+02    0.97011E-03   -0.17075E-03 12120   0.140E-01    0.120E-02
DAV:  10    -0.130030473386E+02   -0.41707E-06   -0.35716E-05  7820   0.245E-02
   1 F= -.13003047E+02 E0= -.13002792E+02  d E =-.766838E-03
 writing wavefunctions
 optical routines
 imaginary and real dielectric function
 recalculating local potential from charge density
 direction            1
 direction            2
 direction            3
