<?xml version="1.0" encoding="ISO-8859-1"?>
<modeling>
 <generator>
  <i name="program" type="string">vasp </i>
  <i name="version" type="string">5.3.5  </i>
  <i name="subversion" type="string">31Mar14 (build Dec 14 2018 19:18:10) complex                          serial </i>
  <i name="platform" type="string">LinuxIFC </i>
  <i name="date" type="string">2022 11 16 </i>
  <i name="time" type="string">00:50:48 </i>
 </generator>
 <incar>
  <i type="string" name="SYSTEM"> W bcc</i>
  <i type="string" name="PREC">normal</i>
  <i type="int" name="NBANDS">    20</i>
  <v name="RWIGS">      1.45500000</v>
  <i type="logical" name="LOPTICS"> T  </i>
  <i type="logical" name="LSCALAPACK"> F  </i>
 </incar>
 <kpoints>
  <generation param="Monkhorst-Pack">
   <v type="int" name="divisions">      20       20       20 </v>
   <v name="usershift">      0.00000000       0.00000000       0.00000000 </v>
   <v name="genvec1">      0.05000000       0.00000000       0.00000000 </v>
   <v name="genvec2">      0.00000000       0.05000000       0.00000000 </v>
   <v name="genvec3">      0.00000000       0.00000000       0.05000000 </v>
   <v name="shift">      0.50000000       0.50000000       0.50000000 </v>
  </generation>
  <varray name="kpointlist" >
   <v>       0.02500000       0.02500000       0.02500000 </v>
   <v>       0.07500000       0.02500000       0.02500000 </v>
   <v>       0.12500000       0.02500000       0.02500000 </v>
   <v>       0.17500000       0.02500000       0.02500000 </v>
   <v>       0.22500000       0.02500000       0.02500000 </v>
   <v>       0.27500000       0.02500000       0.02500000 </v>
   <v>       0.32500000       0.02500000       0.02500000 </v>
   <v>       0.37500000       0.02500000       0.02500000 </v>
   <v>       0.42500000       0.02500000       0.02500000 </v>
   <v>       0.47500000       0.02500000       0.02500000 </v>
   <v>      -0.02500000       0.02500000       0.02500000 </v>
   <v>       0.07500000       0.07500000       0.02500000 </v>
   <v>       0.12500000       0.07500000       0.02500000 </v>
   <v>       0.17500000       0.07500000       0.02500000 </v>
   <v>       0.22500000       0.07500000       0.02500000 </v>
   <v>       0.27500000       0.07500000       0.02500000 </v>
   <v>       0.32500000       0.07500000       0.02500000 </v>
   <v>       0.37500000       0.07500000       0.02500000 </v>
   <v>       0.42500000       0.07500000       0.02500000 </v>
   <v>      -0.07500000       0.07500000       0.02500000 </v>
   <v>       0.12500000       0.12500000       0.02500000 </v>
   <v>       0.17500000       0.12500000       0.02500000 </v>
   <v>       0.22500000       0.12500000       0.02500000 </v>
   <v>       0.27500000       0.12500000       0.02500000 </v>
   <v>       0.32500000       0.12500000       0.02500000 </v>
   <v>       0.37500000       0.12500000       0.02500000 </v>
   <v>       0.42500000       0.12500000       0.02500000 </v>
   <v>      -0.12500000       0.12500000       0.02500000 </v>
   <v>      -0.07500000       0.12500000       0.02500000 </v>
   <v>       0.17500000       0.17500000       0.02500000 </v>
   <v>       0.22500000       0.17500000       0.02500000 </v>
   <v>       0.27500000       0.17500000       0.02500000 </v>
   <v>       0.32500000       0.17500000       0.02500000 </v>
   <v>       0.37500000       0.17500000       0.02500000 </v>
   <v>      -0.17500000       0.17500000       0.02500000 </v>
   <v>      -0.12500000       0.17500000       0.02500000 </v>
   <v>       0.22500000       0.22500000       0.02500000 </v>
   <v>       0.27500000       0.22500000       0.02500000 </v>
   <v>       0.32500000       0.22500000       0.02500000 </v>
   <v>       0.37500000       0.22500000       0.02500000 </v>
   <v>      -0.22500000       0.22500000       0.02500000 </v>
   <v>      -0.17500000       0.22500000       0.02500000 </v>
   <v>      -0.12500000       0.22500000       0.02500000 </v>
   <v>       0.27500000       0.27500000       0.02500000 </v>
   <v>       0.32500000       0.27500000       0.02500000 </v>
   <v>      -0.27500000       0.27500000       0.02500000 </v>
   <v>      -0.22500000       0.27500000       0.02500000 </v>
   <v>      -0.17500000       0.27500000       0.02500000 </v>
   <v>       0.32500000       0.32500000       0.02500000 </v>
   <v>      -0.32500000       0.32500000       0.02500000 </v>
   <v>      -0.27500000       0.32500000       0.02500000 </v>
   <v>      -0.22500000       0.32500000       0.02500000 </v>
   <v>      -0.17500000       0.32500000       0.02500000 </v>
   <v>      -0.37500000       0.37500000       0.02500000 </v>
   <v>      -0.32500000       0.37500000       0.02500000 </v>
   <v>      -0.27500000       0.37500000       0.02500000 </v>
   <v>      -0.22500000       0.37500000       0.02500000 </v>
   <v>      -0.42500000       0.42500000       0.02500000 </v>
   <v>      -0.37500000       0.42500000       0.02500000 </v>
   <v>      -0.32500000       0.42500000       0.02500000 </v>
   <v>      -0.27500000       0.42500000       0.02500000 </v>
   <v>      -0.22500000       0.42500000       0.02500000 </v>
   <v>      -0.47500000       0.47500000       0.02500000 </v>
   <v>      -0.42500000       0.47500000       0.02500000 </v>
   <v>      -0.37500000       0.47500000       0.02500000 </v>
   <v>      -0.32500000       0.47500000       0.02500000 </v>
   <v>      -0.27500000       0.47500000       0.02500000 </v>
   <v>      -0.47500000      -0.47500000       0.02500000 </v>
   <v>      -0.42500000      -0.47500000       0.02500000 </v>
   <v>      -0.37500000      -0.47500000       0.02500000 </v>
   <v>      -0.32500000      -0.47500000       0.02500000 </v>
   <v>      -0.27500000      -0.47500000       0.02500000 </v>
   <v>      -0.42500000      -0.42500000       0.02500000 </v>
   <v>      -0.37500000      -0.42500000       0.02500000 </v>
   <v>      -0.32500000      -0.42500000       0.02500000 </v>
   <v>      -0.37500000      -0.37500000       0.02500000 </v>
   <v>      -0.32500000      -0.37500000       0.02500000 </v>
   <v>       0.07500000       0.07500000       0.07500000 </v>
   <v>       0.12500000       0.07500000       0.07500000 </v>
   <v>       0.17500000       0.07500000       0.07500000 </v>
   <v>       0.22500000       0.07500000       0.07500000 </v>
   <v>       0.27500000       0.07500000       0.07500000 </v>
   <v>       0.32500000       0.07500000       0.07500000 </v>
   <v>       0.37500000       0.07500000       0.07500000 </v>
   <v>       0.42500000       0.07500000       0.07500000 </v>
   <v>      -0.07500000       0.07500000       0.07500000 </v>
   <v>       0.12500000       0.12500000       0.07500000 </v>
   <v>       0.17500000       0.12500000       0.07500000 </v>
   <v>       0.22500000       0.12500000       0.07500000 </v>
   <v>       0.27500000       0.12500000       0.07500000 </v>
   <v>       0.32500000       0.12500000       0.07500000 </v>
   <v>       0.37500000       0.12500000       0.07500000 </v>
   <v>      -0.12500000       0.12500000       0.07500000 </v>
   <v>       0.17500000       0.17500000       0.07500000 </v>
   <v>       0.22500000       0.17500000       0.07500000 </v>
   <v>       0.27500000       0.17500000       0.07500000 </v>
   <v>       0.32500000       0.17500000       0.07500000 </v>
   <v>       0.37500000       0.17500000       0.07500000 </v>
   <v>      -0.17500000       0.17500000       0.07500000 </v>
   <v>      -0.12500000       0.17500000       0.07500000 </v>
   <v>       0.22500000       0.22500000       0.07500000 </v>
   <v>       0.27500000       0.22500000       0.07500000 </v>
   <v>       0.32500000       0.22500000       0.07500000 </v>
   <v>      -0.22500000       0.22500000       0.07500000 </v>
   <v>      -0.17500000       0.22500000       0.07500000 </v>
   <v>       0.27500000       0.27500000       0.07500000 </v>
   <v>       0.32500000       0.27500000       0.07500000 </v>
   <v>      -0.27500000       0.27500000       0.07500000 </v>
   <v>      -0.22500000       0.27500000       0.07500000 </v>
   <v>      -0.17500000       0.27500000       0.07500000 </v>
   <v>      -0.32500000       0.32500000       0.07500000 </v>
   <v>      -0.27500000       0.32500000       0.07500000 </v>
   <v>      -0.22500000       0.32500000       0.07500000 </v>
   <v>      -0.37500000       0.37500000       0.07500000 </v>
   <v>      -0.32500000       0.37500000       0.07500000 </v>
   <v>      -0.27500000       0.37500000       0.07500000 </v>
   <v>      -0.22500000       0.37500000       0.07500000 </v>
   <v>      -0.42500000       0.42500000       0.07500000 </v>
   <v>      -0.37500000       0.42500000       0.07500000 </v>
   <v>      -0.32500000       0.42500000       0.07500000 </v>
   <v>      -0.27500000       0.42500000       0.07500000 </v>
   <v>      -0.47500000       0.47500000       0.07500000 </v>
   <v>      -0.42500000       0.47500000       0.07500000 </v>
   <v>      -0.37500000       0.47500000       0.07500000 </v>
   <v>      -0.32500000       0.47500000       0.07500000 </v>
   <v>      -0.27500000       0.47500000       0.07500000 </v>
   <v>      -0.47500000      -0.47500000       0.07500000 </v>
   <v>      -0.42500000      -0.47500000       0.07500000 </v>
   <v>      -0.37500000      -0.47500000       0.07500000 </v>
   <v>      -0.32500000      -0.47500000       0.07500000 </v>
   <v>      -0.42500000      -0.42500000       0.07500000 </v>
   <v>      -0.37500000      -0.42500000       0.07500000 </v>
   <v>      -0.32500000      -0.42500000       0.07500000 </v>
   <v>      -0.37500000      -0.37500000       0.07500000 </v>
   <v>       0.12500000       0.12500000       0.12500000 </v>
   <v>       0.17500000       0.12500000       0.12500000 </v>
   <v>       0.22500000       0.12500000       0.12500000 </v>
   <v>       0.27500000       0.12500000       0.12500000 </v>
   <v>       0.32500000       0.12500000       0.12500000 </v>
   <v>       0.37500000       0.12500000       0.12500000 </v>
   <v>      -0.12500000       0.12500000       0.12500000 </v>
   <v>       0.17500000       0.17500000       0.12500000 </v>
   <v>       0.22500000       0.17500000       0.12500000 </v>
   <v>       0.27500000       0.17500000       0.12500000 </v>
   <v>       0.32500000       0.17500000       0.12500000 </v>
   <v>      -0.17500000       0.17500000       0.12500000 </v>
   <v>       0.22500000       0.22500000       0.12500000 </v>
   <v>       0.27500000       0.22500000       0.12500000 </v>
   <v>       0.32500000       0.22500000       0.12500000 </v>
   <v>      -0.22500000       0.22500000       0.12500000 </v>
   <v>      -0.17500000       0.22500000       0.12500000 </v>
   <v>       0.27500000       0.27500000       0.12500000 </v>
   <v>      -0.27500000       0.27500000       0.12500000 </v>
   <v>      -0.22500000       0.27500000       0.12500000 </v>
   <v>      -0.32500000       0.32500000       0.12500000 </v>
   <v>      -0.27500000       0.32500000       0.12500000 </v>
   <v>      -0.22500000       0.32500000       0.12500000 </v>
   <v>      -0.37500000       0.37500000       0.12500000 </v>
   <v>      -0.32500000       0.37500000       0.12500000 </v>
   <v>      -0.27500000       0.37500000       0.12500000 </v>
   <v>      -0.42500000       0.42500000       0.12500000 </v>
   <v>      -0.37500000       0.42500000       0.12500000 </v>
   <v>      -0.32500000       0.42500000       0.12500000 </v>
   <v>      -0.27500000       0.42500000       0.12500000 </v>
   <v>      -0.47500000       0.47500000       0.12500000 </v>
   <v>      -0.42500000       0.47500000       0.12500000 </v>
   <v>      -0.37500000       0.47500000       0.12500000 </v>
   <v>      -0.32500000       0.47500000       0.12500000 </v>
   <v>      -0.47500000      -0.47500000       0.12500000 </v>
   <v>      -0.42500000      -0.47500000       0.12500000 </v>
   <v>      -0.37500000      -0.47500000       0.12500000 </v>
   <v>      -0.32500000      -0.47500000       0.12500000 </v>
   <v>      -0.42500000      -0.42500000       0.12500000 </v>
   <v>      -0.37500000      -0.42500000       0.12500000 </v>
   <v>      -0.37500000      -0.37500000       0.12500000 </v>
   <v>       0.17500000       0.17500000       0.17500000 </v>
   <v>       0.22500000       0.17500000       0.17500000 </v>
   <v>       0.27500000       0.17500000       0.17500000 </v>
   <v>       0.32500000       0.17500000       0.17500000 </v>
   <v>      -0.17500000       0.17500000       0.17500000 </v>
   <v>       0.22500000       0.22500000       0.17500000 </v>
   <v>       0.27500000       0.22500000       0.17500000 </v>
   <v>      -0.22500000       0.22500000       0.17500000 </v>
   <v>       0.27500000       0.27500000       0.17500000 </v>
   <v>      -0.27500000       0.27500000       0.17500000 </v>
   <v>      -0.22500000       0.27500000       0.17500000 </v>
   <v>      -0.32500000       0.32500000       0.17500000 </v>
   <v>      -0.27500000       0.32500000       0.17500000 </v>
   <v>      -0.37500000       0.37500000       0.17500000 </v>
   <v>      -0.32500000       0.37500000       0.17500000 </v>
   <v>      -0.27500000       0.37500000       0.17500000 </v>
   <v>      -0.42500000       0.42500000       0.17500000 </v>
   <v>      -0.37500000       0.42500000       0.17500000 </v>
   <v>      -0.32500000       0.42500000       0.17500000 </v>
   <v>      -0.47500000       0.47500000       0.17500000 </v>
   <v>      -0.42500000       0.47500000       0.17500000 </v>
   <v>      -0.37500000       0.47500000       0.17500000 </v>
   <v>      -0.32500000       0.47500000       0.17500000 </v>
   <v>      -0.47500000      -0.47500000       0.17500000 </v>
   <v>      -0.42500000      -0.47500000       0.17500000 </v>
   <v>      -0.37500000      -0.47500000       0.17500000 </v>
   <v>      -0.42500000      -0.42500000       0.17500000 </v>
   <v>      -0.37500000      -0.42500000       0.17500000 </v>
   <v>       0.22500000       0.22500000       0.22500000 </v>
   <v>       0.27500000       0.22500000       0.22500000 </v>
   <v>      -0.22500000       0.22500000       0.22500000 </v>
   <v>      -0.27500000       0.27500000       0.22500000 </v>
   <v>      -0.32500000       0.32500000       0.22500000 </v>
   <v>      -0.27500000       0.32500000       0.22500000 </v>
   <v>      -0.37500000       0.37500000       0.22500000 </v>
   <v>      -0.32500000       0.37500000       0.22500000 </v>
   <v>      -0.42500000       0.42500000       0.22500000 </v>
   <v>      -0.37500000       0.42500000       0.22500000 </v>
   <v>      -0.32500000       0.42500000       0.22500000 </v>
   <v>      -0.47500000       0.47500000       0.22500000 </v>
   <v>      -0.42500000       0.47500000       0.22500000 </v>
   <v>      -0.37500000       0.47500000       0.22500000 </v>
   <v>      -0.47500000      -0.47500000       0.22500000 </v>
   <v>      -0.42500000      -0.47500000       0.22500000 </v>
   <v>      -0.37500000      -0.47500000       0.22500000 </v>
   <v>      -0.42500000      -0.42500000       0.22500000 </v>
   <v>      -0.27500000       0.27500000       0.27500000 </v>
   <v>      -0.32500000       0.32500000       0.27500000 </v>
   <v>      -0.37500000       0.37500000       0.27500000 </v>
   <v>      -0.32500000       0.37500000       0.27500000 </v>
   <v>      -0.42500000       0.42500000       0.27500000 </v>
   <v>      -0.37500000       0.42500000       0.27500000 </v>
   <v>      -0.47500000       0.47500000       0.27500000 </v>
   <v>      -0.42500000       0.47500000       0.27500000 </v>
   <v>      -0.37500000       0.47500000       0.27500000 </v>
   <v>      -0.47500000      -0.47500000       0.27500000 </v>
   <v>      -0.42500000      -0.47500000       0.27500000 </v>
   <v>      -0.42500000      -0.42500000       0.27500000 </v>
   <v>      -0.32500000       0.32500000       0.32500000 </v>
   <v>      -0.37500000       0.37500000       0.32500000 </v>
   <v>      -0.42500000       0.42500000       0.32500000 </v>
   <v>      -0.37500000       0.42500000       0.32500000 </v>
   <v>      -0.47500000       0.47500000       0.32500000 </v>
   <v>      -0.42500000       0.47500000       0.32500000 </v>
   <v>      -0.47500000      -0.47500000       0.32500000 </v>
   <v>      -0.42500000      -0.47500000       0.32500000 </v>
   <v>      -0.37500000       0.37500000       0.37500000 </v>
   <v>      -0.42500000       0.42500000       0.37500000 </v>
   <v>      -0.47500000       0.47500000       0.37500000 </v>
   <v>      -0.42500000       0.47500000       0.37500000 </v>
   <v>      -0.47500000      -0.47500000       0.37500000 </v>
   <v>      -0.42500000       0.42500000       0.42500000 </v>
   <v>      -0.47500000       0.47500000       0.42500000 </v>
   <v>      -0.47500000      -0.47500000       0.42500000 </v>
   <v>      -0.47500000       0.47500000       0.47500000 </v>
  </varray>
  <varray name="weights" >
   <v>       0.00100000 </v>
   <v>       0.00300000 </v>
   <v>       0.00300000 </v>
   <v>       0.00300000 </v>
   <v>       0.00300000 </v>
   <v>       0.00300000 </v>
   <v>       0.00300000 </v>
   <v>       0.00300000 </v>
   <v>       0.00300000 </v>
   <v>       0.00150000 </v>
   <v>       0.00075000 </v>
   <v>       0.00300000 </v>
   <v>       0.00600000 </v>
   <v>       0.00600000 </v>
   <v>       0.00600000 </v>
   <v>       0.00600000 </v>
   <v>       0.00600000 </v>
   <v>       0.00600000 </v>
   <v>       0.00600000 </v>
   <v>       0.00300000 </v>
   <v>       0.00300000 </v>
   <v>       0.00600000 </v>
   <v>       0.00600000 </v>
   <v>       0.00600000 </v>
   <v>       0.00600000 </v>
   <v>       0.00600000 </v>
   <v>       0.00300000 </v>
   <v>       0.00300000 </v>
   <v>       0.00300000 </v>
   <v>       0.00300000 </v>
   <v>       0.00600000 </v>
   <v>       0.00600000 </v>
   <v>       0.00600000 </v>
   <v>       0.00600000 </v>
   <v>       0.00300000 </v>
   <v>       0.00600000 </v>
   <v>       0.00300000 </v>
   <v>       0.00600000 </v>
   <v>       0.00600000 </v>
   <v>       0.00300000 </v>
   <v>       0.00300000 </v>
   <v>       0.00600000 </v>
   <v>       0.00300000 </v>
   <v>       0.00300000 </v>
   <v>       0.00600000 </v>
   <v>       0.00300000 </v>
   <v>       0.00600000 </v>
   <v>       0.00600000 </v>
   <v>       0.00100000 </v>
   <v>       0.00300000 </v>
   <v>       0.00600000 </v>
   <v>       0.00600000 </v>
   <v>       0.00300000 </v>
   <v>       0.00300000 </v>
   <v>       0.00600000 </v>
   <v>       0.00600000 </v>
   <v>       0.00600000 </v>
   <v>       0.00300000 </v>
   <v>       0.00600000 </v>
   <v>       0.00600000 </v>
   <v>       0.00600000 </v>
   <v>       0.00300000 </v>
   <v>       0.00300000 </v>
   <v>       0.00600000 </v>
   <v>       0.00600000 </v>
   <v>       0.00600000 </v>
   <v>       0.00600000 </v>
   <v>       0.00300000 </v>
   <v>       0.00600000 </v>
   <v>       0.00600000 </v>
   <v>       0.00600000 </v>
   <v>       0.00300000 </v>
   <v>       0.00300000 </v>
   <v>       0.00600000 </v>
   <v>       0.00600000 </v>
   <v>       0.00300000 </v>
   <v>       0.00300000 </v>
   <v>       0.00100000 </v>
   <v>       0.00300000 </v>
   <v>       0.00300000 </v>
   <v>       0.00300000 </v>
   <v>       0.00300000 </v>
   <v>       0.00300000 </v>
   <v>       0.00300000 </v>
   <v>       0.00150000 </v>
   <v>       0.00075000 </v>
   <v>       0.00300000 </v>
   <v>       0.00600000 </v>
   <v>       0.00600000 </v>
   <v>       0.00600000 </v>
   <v>       0.00600000 </v>
   <v>       0.00600000 </v>
   <v>       0.00300000 </v>
   <v>       0.00300000 </v>
   <v>       0.00600000 </v>
   <v>       0.00600000 </v>
   <v>       0.00600000 </v>
   <v>       0.00300000 </v>
   <v>       0.00300000 </v>
   <v>       0.00300000 </v>
   <v>       0.00300000 </v>
   <v>       0.00600000 </v>
   <v>       0.00600000 </v>
   <v>       0.00300000 </v>
   <v>       0.00600000 </v>
   <v>       0.00300000 </v>
   <v>       0.00300000 </v>
   <v>       0.00300000 </v>
   <v>       0.00600000 </v>
   <v>       0.00300000 </v>
   <v>       0.00300000 </v>
   <v>       0.00600000 </v>
   <v>       0.00600000 </v>
   <v>       0.00300000 </v>
   <v>       0.00600000 </v>
   <v>       0.00600000 </v>
   <v>       0.00300000 </v>
   <v>       0.00300000 </v>
   <v>       0.00600000 </v>
   <v>       0.00600000 </v>
   <v>       0.00600000 </v>
   <v>       0.00300000 </v>
   <v>       0.00600000 </v>
   <v>       0.00600000 </v>
   <v>       0.00600000 </v>
   <v>       0.00300000 </v>
   <v>       0.00300000 </v>
   <v>       0.00600000 </v>
   <v>       0.00600000 </v>
   <v>       0.00600000 </v>
   <v>       0.00300000 </v>
   <v>       0.00600000 </v>
   <v>       0.00300000 </v>
   <v>       0.00300000 </v>
   <v>       0.00100000 </v>
   <v>       0.00300000 </v>
   <v>       0.00300000 </v>
   <v>       0.00300000 </v>
   <v>       0.00300000 </v>
   <v>       0.00150000 </v>
   <v>       0.00075000 </v>
   <v>       0.00300000 </v>
   <v>       0.00600000 </v>
   <v>       0.00600000 </v>
   <v>       0.00600000 </v>
   <v>       0.00300000 </v>
   <v>       0.00300000 </v>
   <v>       0.00600000 </v>
   <v>       0.00300000 </v>
   <v>       0.00300000 </v>
   <v>       0.00300000 </v>
   <v>       0.00300000 </v>
   <v>       0.00300000 </v>
   <v>       0.00600000 </v>
   <v>       0.00300000 </v>
   <v>       0.00600000 </v>
   <v>       0.00300000 </v>
   <v>       0.00300000 </v>
   <v>       0.00600000 </v>
   <v>       0.00600000 </v>
   <v>       0.00300000 </v>
   <v>       0.00600000 </v>
   <v>       0.00600000 </v>
   <v>       0.00300000 </v>
   <v>       0.00300000 </v>
   <v>       0.00600000 </v>
   <v>       0.00600000 </v>
   <v>       0.00600000 </v>
   <v>       0.00300000 </v>
   <v>       0.00600000 </v>
   <v>       0.00600000 </v>
   <v>       0.00300000 </v>
   <v>       0.00300000 </v>
   <v>       0.00600000 </v>
   <v>       0.00100000 </v>
   <v>       0.00100000 </v>
   <v>       0.00300000 </v>
   <v>       0.00300000 </v>
   <v>       0.00150000 </v>
   <v>       0.00075000 </v>
   <v>       0.00300000 </v>
   <v>       0.00600000 </v>
   <v>       0.00300000 </v>
   <v>       0.00100000 </v>
   <v>       0.00300000 </v>
   <v>       0.00300000 </v>
   <v>       0.00300000 </v>
   <v>       0.00600000 </v>
   <v>       0.00300000 </v>
   <v>       0.00600000 </v>
   <v>       0.00300000 </v>
   <v>       0.00300000 </v>
   <v>       0.00600000 </v>
   <v>       0.00600000 </v>
   <v>       0.00300000 </v>
   <v>       0.00600000 </v>
   <v>       0.00600000 </v>
   <v>       0.00300000 </v>
   <v>       0.00300000 </v>
   <v>       0.00600000 </v>
   <v>       0.00600000 </v>
   <v>       0.00300000 </v>
   <v>       0.00300000 </v>
   <v>       0.00100000 </v>
   <v>       0.00150000 </v>
   <v>       0.00075000 </v>
   <v>       0.00300000 </v>
   <v>       0.00300000 </v>
   <v>       0.00300000 </v>
   <v>       0.00300000 </v>
   <v>       0.00600000 </v>
   <v>       0.00300000 </v>
   <v>       0.00600000 </v>
   <v>       0.00300000 </v>
   <v>       0.00300000 </v>
   <v>       0.00600000 </v>
   <v>       0.00600000 </v>
   <v>       0.00300000 </v>
   <v>       0.00600000 </v>
   <v>       0.00300000 </v>
   <v>       0.00300000 </v>
   <v>       0.00075000 </v>
   <v>       0.00300000 </v>
   <v>       0.00300000 </v>
   <v>       0.00300000 </v>
   <v>       0.00300000 </v>
   <v>       0.00600000 </v>
   <v>       0.00300000 </v>
   <v>       0.00600000 </v>
   <v>       0.00300000 </v>
   <v>       0.00300000 </v>
   <v>       0.00600000 </v>
   <v>       0.00100000 </v>
   <v>       0.00075000 </v>
   <v>       0.00300000 </v>
   <v>       0.00300000 </v>
   <v>       0.00300000 </v>
   <v>       0.00300000 </v>
   <v>       0.00600000 </v>
   <v>       0.00300000 </v>
   <v>       0.00300000 </v>
   <v>       0.00075000 </v>
   <v>       0.00300000 </v>
   <v>       0.00300000 </v>
   <v>       0.00300000 </v>
   <v>       0.00300000 </v>
   <v>       0.00075000 </v>
   <v>       0.00300000 </v>
   <v>       0.00100000 </v>
   <v>       0.00075000 </v>
  </varray>
 </kpoints>
 <parameters>
  <separator name="general" >
   <i type="string" name="SYSTEM">W bcc</i>
   <i type="logical" name="LCOMPAT"> F  </i>
  </separator>
  <separator name="electronic" >
   <i type="string" name="PREC">normal</i>
   <i name="ENMAX">    223.05700000</i>
   <i name="ENAUG">    373.43800000</i>
   <i name="EDIFF">      0.00010000</i>
   <i type="int" name="IALGO">    38</i>
   <i type="int" name="IWAVPR">     0</i>
   <i type="int" name="NBANDS">    20</i>
   <i name="NELECT">      6.00000000</i>
   <i type="int" name="TURBO">     0</i>
   <i type="int" name="IRESTART">     0</i>
   <i type="int" name="NREBOOT">     0</i>
   <i type="int" name="NMIN">     0</i>
   <i name="EREF">      0.00000000</i>
   <separator name="electronic smearing" >
    <i type="int" name="ISMEAR">     1</i>
    <i name="SIGMA">      0.20000000</i>
    <i name="KSPACING">      0.50000000</i>
    <i type="logical" name="KGAMMA"> T  </i>
   </separator>
   <separator name="electronic projectors" >
    <i type="logical" name="LREAL"> F  </i>
    <v name="ROPT">      0.00000000</v>
    <i type="int" name="LMAXPAW">  -100</i>
    <i type="int" name="LMAXMIX">     2</i>
    <i type="logical" name="NLSPLINE"> F  </i>
   </separator>
   <separator name="electronic startup" >
    <i type="int" name="ISTART">     0</i>
    <i type="int" name="ICHARG">     2</i>
    <i type="int" name="INIWAV">     1</i>
   </separator>
   <separator name="electronic spin" >
    <i type="int" name="ISPIN">     1</i>
    <i type="logical" name="LNONCOLLINEAR"> F  </i>
    <v name="MAGMOM">      1.00000000</v>
    <i name="NUPDOWN">     -1.00000000</i>
    <i type="logical" name="LSORBIT"> F  </i>
    <v name="SAXIS">      0.00000000      0.00000000      1.00000000</v>
    <i type="logical" name="LSPIRAL"> F  </i>
    <v name="QSPIRAL">      0.00000000      0.00000000      0.00000000</v>
    <i type="logical" name="LZEROZ"> F  </i>
   </separator>
   <separator name="electronic exchange-correlation" >
    <i type="logical" name="LASPH"> F  </i>
    <i type="logical" name="LMETAGGA"> F  </i>
   </separator>
   <separator name="electronic convergence" >
    <i type="int" name="NELM">    60</i>
    <i type="int" name="NELMDL">    -5</i>
    <i type="int" name="NELMIN">     2</i>
    <i name="ENINI">    223.05700000</i>
    <separator name="electronic convergence detail" >
     <i type="logical" name="LDIAG"> T  </i>
     <i type="logical" name="LSUBROT"> F  </i>
     <i name="WEIMIN">      0.00000000</i>
     <i name="EBREAK">      0.00000125</i>
     <i name="DEPER">      0.30000000</i>
     <i type="int" name="NRMM">     4</i>
     <i name="TIME">      0.40000000</i>
    </separator>
   </separator>
   <separator name="electronic mixer" >
    <i name="AMIX">      0.40000000</i>
    <i name="BMIX">      1.00000000</i>
    <i name="AMIN">      0.10000000</i>
    <i name="AMIX_MAG">      1.60000000</i>
    <i name="BMIX_MAG">      1.00000000</i>
    <separator name="electronic mixer details" >
     <i type="int" name="IMIX">     4</i>
     <i type="int" name="MAXMIX">   -45</i>
     <i name="WC">    100.00000000</i>
     <i type="int" name="INIMIX">     1</i>
     <i type="int" name="MIXPRE">     1</i>
     <i type="int" name="MREMOVE">     5</i>
    </separator>
   </separator>
   <separator name="electronic dipolcorrection" >
    <i type="logical" name="LDIPOL"> F  </i>
    <i type="logical" name="LMONO"> F  </i>
    <i type="int" name="IDIPOL">     0</i>
    <i name="EPSILON">      1.00000000</i>
    <v name="DIPOL">   -100.00000000   -100.00000000   -100.00000000</v>
    <i name="EFIELD">      0.00000000</i>
   </separator>
  </separator>
  <separator name="grids" >
   <i type="int" name="NGX">    10</i>
   <i type="int" name="NGY">    10</i>
   <i type="int" name="NGZ">    10</i>
   <i type="int" name="NGXF">    20</i>
   <i type="int" name="NGYF">    20</i>
   <i type="int" name="NGZF">    20</i>
   <i type="logical" name="ADDGRID"> F  </i>
  </separator>
  <separator name="ionic" >
   <i type="int" name="NSW">     0</i>
   <i type="int" name="IBRION">    -1</i>
   <i type="int" name="ISIF">     2</i>
   <i name="PSTRESS">      0.00000000</i>
   <i name="EDIFFG">      0.00100000</i>
   <i type="int" name="NFREE">     0</i>
   <i name="POTIM">      0.50000000</i>
   <i name="SMASS">     -3.00000000</i>
   <i name="SCALEE">      1.00000000</i>
  </separator>
  <separator name="ionic md" >
   <i name="TEBEG">      0.00010000</i>
   <i name="TEEND">      0.00010000</i>
   <i type="int" name="NBLOCK">     1</i>
   <i type="int" name="KBLOCK">     1</i>
   <i type="int" name="NPACO">   256</i>
   <i name="APACO">     16.00000000</i>
  </separator>
  <separator name="symmetry" >
   <i type="int" name="ISYM">     2</i>
   <i name="SYMPREC">      0.00001000</i>
  </separator>
  <separator name="dos" >
   <i type="logical" name="LORBIT"> F  </i>
   <v name="RWIGS">      1.45500000</v>
   <i type="int" name="NEDOS">   301</i>
   <i name="EMIN">     10.00000000</i>
   <i name="EMAX">    -10.00000000</i>
   <i name="EFERMI">      0.00000000</i>
  </separator>
  <separator name="writing" >
   <i type="int" name="NWRITE">     2</i>
   <i type="logical" name="LWAVE"> T  </i>
   <i type="logical" name="LCHARG"> T  </i>
   <i type="logical" name="LPARD"> F  </i>
   <i type="logical" name="LVTOT"> F  </i>
   <i type="logical" name="LVHAR"> F  </i>
   <i type="logical" name="LELF"> F  </i>
   <i type="logical" name="LOPTICS"> T  </i>
   <v name="STM">      0.00000000      0.00000000      0.00000000      0.00000000      0.00000000      0.00000000      0.00000000</v>
  </separator>
  <separator name="performance" >
   <i type="int" name="NPAR">     1</i>
   <i type="int" name="NSIM">     4</i>
   <i type="int" name="NBLK">    -1</i>
   <i type="logical" name="LPLANE"> T  </i>
   <i type="logical" name="LSCALAPACK"> F  </i>
   <i type="logical" name="LSCAAWARE"> F  </i>
   <i type="logical" name="LSCALU"> F  </i>
   <i type="logical" name="LASYNC"> F  </i>
   <i type="logical" name="LORBITALREAL"> F  </i>
  </separator>
  <separator name="miscellaneous" >
   <i type="int" name="IDIOT">     3</i>
   <i type="logical" name="LMUSIC"> F  </i>
   <v name="POMASS">    183.85000000</v>
   <v name="DARWINR">      0.00000000</v>
   <v name="DARWINV">      1.00000000</v>
   <i type="logical" name="LCORR"> T  </i>
  </separator>
  <i type="logical" name="GGA_COMPAT"> T  </i>
  <i type="logical" name="LBERRY"> F  </i>
  <i type="int" name="ICORELEVEL">     0</i>
  <i type="logical" name="LDAU"> F  </i>
  <i type="int" name="I_CONSTRAINED_M">     0</i>
  <separator name="electronic exchange-correlation" >
   <i type="string" name="GGA">--</i>
   <i type="int" name="VOSKOWN">     0</i>
   <i type="logical" name="LHFCALC"> F  </i>
   <i type="string" name="PRECFOCK"></i>
   <i type="logical" name="LSYMGRAD"> F  </i>
   <i type="logical" name="LHFONE"> F  </i>
   <i type="logical" name="LRHFCALC"> F  </i>
   <i type="logical" name="LTHOMAS"> F  </i>
   <i type="logical" name="LMODELHF"> F  </i>
   <i name="ENCUT4O">     -1.00000000</i>
   <i type="int" name="EXXOEP">     0</i>
   <i type="int" name="FOURORBIT">     0</i>
   <i name="AEXX">      0.00000000</i>
   <i name="HFALPHA">      0.00000000</i>
   <i name="MCALPHA">      0.00000000</i>
   <i name="ALDAX">      1.00000000</i>
   <i name="AGGAX">      1.00000000</i>
   <i name="ALDAC">      1.00000000</i>
   <i name="AGGAC">      1.00000000</i>
   <i type="int" name="NKREDX">     1</i>
   <i type="int" name="NKREDY">     1</i>
   <i type="int" name="NKREDZ">     1</i>
   <i type="logical" name="SHIFTRED"> F  </i>
   <i type="logical" name="ODDONLY"> F  </i>
   <i type="logical" name="EVENONLY"> F  </i>
   <i type="int" name="LMAXFOCK">     0</i>
   <i type="int" name="NMAXFOCKAE">     0</i>
   <i type="logical" name="LFOCKAEDFT"> F  </i>
   <i name="HFSCREEN">      0.00000000</i>
   <i name="HFSCREENC">      0.00000000</i>
   <i type="int" name="NBANDSGWLOW">     0</i>
  </separator>
  <separator name="vdW DFT" >
   <i type="logical" name="LUSE_VDW"> F  </i>
   <i name="Zab_VDW">     -0.84910000</i>
   <i name="PARAM1">      0.12340000</i>
   <i name="PARAM2">      1.00000000</i>
   <i name="PARAM3">      0.00000000</i>
  </separator>
  <separator name="model GW" >
   <i type="int" name="MODEL_GW">     0</i>
   <i name="MODEL_EPS0">      9.51315835</i>
   <i name="MODEL_ALPHA">      1.00000000</i>
  </separator>
  <separator name="linear response parameters" >
   <i type="logical" name="LEPSILON"> F  </i>
   <i type="logical" name="LRPA"> F  </i>
   <i type="logical" name="LNABLA"> F  </i>
   <i type="logical" name="LVEL"> F  </i>
   <i type="int" name="KINTER">     0</i>
   <i name="CSHIFT">      0.10000000</i>
   <i name="OMEGAMAX">     -1.00000000</i>
   <i name="DEG_THRESHOLD">      0.00200000</i>
  </separator>
  <separator name="orbital magnetization" >
   <i type="logical" name="NUCIND"> F  </i>
   <v name="MAGPOS">      0.00000000      0.00000000      0.00000000</v>
   <i type="logical" name="LNICSALL"> T  </i>
   <i type="logical" name="ORBITALMAG"> F  </i>
   <i type="logical" name="LMAGBLOCH"> F  </i>
   <i type="logical" name="LCHIMAG"> F  </i>
   <i type="logical" name="LGAUGE"> T  </i>
   <i type="int" name="MAGATOM">     0</i>
   <v name="MAGDIPOL">      0.00000000      0.00000000      0.00000000</v>
   <v name="AVECCONST">      0.00000000      0.00000000      0.00000000</v>
  </separator>
  <separator name="response functions" >
   <i type="logical" name="LADDER"> F  </i>
   <i type="logical" name="LFXC"> F  </i>
   <i type="logical" name="LHARTREE"> T  </i>
   <i type="int" name="IBSE">     0</i>
   <i type="logical" name="LTCTE"> F  </i>
   <i type="logical" name="LTETE"> F  </i>
   <i type="logical" name="LTRIPLET"> F  </i>
   <i type="logical" name="LFXCEPS"> F  </i>
   <i type="logical" name="LFXHEG"> F  </i>
   <i type="logical" name="L2ORDER"> F  </i>
   <i type="logical" name="LUSEW"> F  </i>
   <i name="ENCUTGW">     -2.00000000</i>
   <i name="ENCUTGWSOFT">     -2.00000000</i>
   <i name="ENCUTLF">     -1.00000000</i>
   <i type="int" name="LMAXMP2">    -1</i>
   <i name="SCISSOR">      0.00000000</i>
   <i type="int" name="NOMEGA">     0</i>
   <i type="int" name="NOMEGAR">     0</i>
   <i type="int" name="NBANDSGW">    -1</i>
   <i type="int" name="NBANDSO">    -1</i>
   <i type="int" name="NBANDSV">    -1</i>
   <i type="int" name="NELM">     1</i>
   <i type="int" name="DIM">     3</i>
   <i type="int" name="ANTIRES">     0</i>
   <i name="OMEGAMAX">    -30.00000000</i>
   <i name="OMEGAMIN">    -30.00000000</i>
   <i name="OMEGATL">   -200.00000000</i>
   <i type="int" name="OMEGAGRID">     0</i>
   <i name="CSHIFT">     -0.10000000</i>
   <i type="logical" name="SELFENERGY"> F  </i>
   <i type="logical" name="LSPECTRAL"> F  </i>
   <i type="logical" name="ODDONLYGW"> F  </i>
   <i type="logical" name="EVENONLYGW"> F  </i>
   <i type="int" name="NKREDLFX">     1</i>
   <i type="int" name="NKREDLFY">     1</i>
   <i type="int" name="NKREDLFZ">     1</i>
   <i type="int" name="MAXMEM">  1800</i>
   <i type="int" name="TELESCOPE">     0</i>
   <i type="int" name="TAUPAR">     1</i>
  </separator>
  <separator name="External order field" >
   <i name="OFIELD_KAPPA">      0.00000000</i>
   <v name="OFIELD_K">      0.00000000      0.00000000      0.00000000</v>
   <i name="OFIELD_Q6_NEAR">      0.00000000</i>
   <i name="OFIELD_Q6_FAR">      0.00000000</i>
   <i name="OFIELD_A">      0.00000000</i>
  </separator>
 </parameters>
 <atominfo>
  <atoms>       1 </atoms>
  <types>       1 </types>
  <array name="atoms" >
   <dimension dim="1">ion</dimension>
   <field type="string">element</field>
   <field type="int">atomtype</field>
   <set>
    <rc><c>W </c><c>   1</c></rc>
   </set>
  </array>
  <array name="atomtypes" >
   <dimension dim="1">type</dimension>
   <field type="int">atomspertype</field>
   <field type="string">element</field>
   <field>mass</field>
   <field>valence</field>
   <field type="string">pseudopotential</field>
   <set>
    <rc><c>   1</c><c>W </c><c>    183.85000000</c><c>      6.00000000</c><c> PAW_PBE W 08Apr2002                    </c></rc>
   </set>
  </array>
 </atominfo>
 <structure name="initialpos" >
  <crystal>
   <varray name="basis" >
    <v>      -1.58260000       1.58260000       1.58260000 </v>
    <v>       1.58260000      -1.58260000       1.58260000 </v>
    <v>       1.58260000       1.58260000      -1.58260000 </v>
   </varray>
   <i name="volume">     15.85526392 </i>
   <varray name="rec_basis" >
    <v>       0.00000000       0.31593580       0.31593580 </v>
    <v>       0.31593580       0.00000000       0.31593580 </v>
    <v>       0.31593580       0.31593580       0.00000000 </v>
   </varray>
  </crystal>
  <varray name="positions" >
   <v>       0.00000000       0.00000000       0.00000000 </v>
  </varray>
 </structure>
 <calculation>
  <scstep>
   <time name="dav">    1.10    1.10</time>
   <time name="total">    1.12    1.12</time>
   <energy>
    <i name="alphaZ">     45.96991786 </i>
    <i name="ewald">   -298.01445978 </i>
    <i name="hartreedc">     -5.92676918 </i>
    <i name="XCdc">    -47.82978870 </i>
    <i name="pawpsdc">    183.33685883 </i>
    <i name="pawaedc">   -124.19881658 </i>
    <i name="eentropy">      0.00074300 </i>
    <i name="bandstr">     41.46837452 </i>
    <i name="atom">    204.58009518 </i>
    <i name="e_fr_energy">     -0.61384484 </i>
    <i name="e_wo_entrp">     -0.61458784 </i>
    <i name="e_0_energy">     -0.61409251 </i>
   </energy>
  </scstep>
  <scstep>
   <time name="dav">    1.23    1.23</time>
   <time name="total">    1.24    1.25</time>
   <energy>
    <i name="e_fr_energy">    -13.54577145 </i>
    <i name="e_wo_entrp">    -13.54537038 </i>
    <i name="e_0_energy">    -13.54563776 </i>
   </energy>
  </scstep>
  <scstep>
   <time name="dav">    1.30    1.31</time>
   <time name="total">    1.32    1.33</time>
   <energy>
    <i name="e_fr_energy">    -13.69057010 </i>
    <i name="e_wo_entrp">    -13.68992401 </i>
    <i name="e_0_energy">    -13.69035474 </i>
   </energy>
  </scstep>
  <scstep>
   <time name="dav">    1.14    1.14</time>
   <time name="total">    1.16    1.16</time>
   <energy>
    <i name="e_fr_energy">    -13.69061045 </i>
    <i name="e_wo_entrp">    -13.68996431 </i>
    <i name="e_0_energy">    -13.69039507 </i>
   </energy>
  </scstep>
  <scstep>
   <time name="dav">    1.07    1.07</time>
   <time name="total">    1.12    1.13</time>
   <energy>
    <i name="e_fr_energy">    -13.69061045 </i>
    <i name="e_wo_entrp">    -13.68996432 </i>
    <i name="e_0_energy">    -13.69039507 </i>
   </energy>
  </scstep>
  <scstep>
   <time name="dav">    1.22    1.23</time>
   <time name="total">    1.28    1.29</time>
   <energy>
    <i name="e_fr_energy">    -13.19712941 </i>
    <i name="e_wo_entrp">    -13.19598923 </i>
    <i name="e_0_energy">    -13.19674935 </i>
   </energy>
  </scstep>
  <scstep>
   <time name="dav">    1.08    1.08</time>
   <time name="total">    1.13    1.14</time>
   <energy>
    <i name="e_fr_energy">    -13.00415891 </i>
    <i name="e_wo_entrp">    -13.00336495 </i>
    <i name="e_0_energy">    -13.00389426 </i>
   </energy>
  </scstep>
  <scstep>
   <time name="dav">    1.13    1.14</time>
   <time name="total">    1.19    1.20</time>
   <energy>
    <i name="e_fr_energy">    -13.00401703 </i>
    <i name="e_wo_entrp">    -13.00312024 </i>
    <i name="e_0_energy">    -13.00371810 </i>
   </energy>
  </scstep>
  <scstep>
   <time name="dav">    1.17    1.18</time>
   <time name="total">    1.23    1.23</time>
   <energy>
    <i name="e_fr_energy">    -13.00304692 </i>
    <i name="e_wo_entrp">    -13.00228386 </i>
    <i name="e_0_energy">    -13.00279257 </i>
   </energy>
  </scstep>
  <scstep>
   <time name="dav">    0.85    0.86</time>
   <time name="total">    0.87    0.88</time>
   <energy>
    <i name="alphaZ">     45.96991786 </i>
    <i name="ewald">   -298.01445978 </i>
    <i name="hartreedc">     -2.21025531 </i>
    <i name="XCdc">    -47.17747279 </i>
    <i name="pawpsdc">    241.36318342 </i>
    <i name="pawaedc">   -183.82691193 </i>
    <i name="eentropy">     -0.00076684 </i>
    <i name="bandstr">     26.31362285 </i>
    <i name="atom">    204.58009518 </i>
    <i name="e_fr_energy">    -13.00304734 </i>
    <i name="e_wo_entrp">    -13.00228050 </i>
    <i name="e_0_energy">    -13.00279173 </i>
   </energy>
  </scstep>
  <structure>
   <crystal>
    <varray name="basis" >
     <v>      -1.58260000       1.58260000       1.58260000 </v>
     <v>       1.58260000      -1.58260000       1.58260000 </v>
     <v>       1.58260000       1.58260000      -1.58260000 </v>
    </varray>
    <i name="volume">     15.85526392 </i>
    <varray name="rec_basis" >
     <v>       0.00000000       0.31593580       0.31593580 </v>
     <v>       0.31593580       0.00000000       0.31593580 </v>
     <v>       0.31593580       0.31593580       0.00000000 </v>
    </varray>
   </crystal>
   <varray name="positions" >
    <v>       0.00000000       0.00000000       0.00000000 </v>
   </varray>
  </structure>
  <varray name="forces" >
   <v>       0.00000000      -0.00000000       0.00000000 </v>
  </varray>
  <varray name="stress" >
   <v>       6.07005230      -0.00000000      -0.00000000 </v>
   <v>      -0.00000000       6.07005230      -0.00000000 </v>
   <v>       0.00000000       0.00000000       6.07005230 </v>
  </varray>
  <energy>
   <i name="e_fr_energy">    -13.00304734 </i>
   <i name="e_wo_entrp">    -13.00279173 </i>
   <i name="e_0_energy">     -0.00076684 </i>
  </energy>
  <time name="totalsc">   12.20   12.27</time>
  <eigenvalues>
   <array>
    <dimension dim="1">band</dimension>
    <dimension dim="2">kpoint</dimension>
    <dimension dim="3">spin</dimension>
    <field>eigene</field>
    <field>occ</field>
    <set>
     <set comment="spin 1">
      <set comment="kpoint 1">
       <r>   -1.6226    1.0000 </r>
       <r>    6.4896    1.0000 </r>
       <r>    6.4896    1.0000 </r>
       <r>    6.7801    1.0000 </r>
       <r>    9.9521   -0.0000 </r>
       <r>    9.9521   -0.0000 </r>
       <r>   23.1574    0.0000 </r>
       <r>   23.4350    0.0000 </r>
       <r>   23.4350    0.0000 </r>
       <r>   33.8431    0.0000 </r>
       <r>   33.8431    0.0000 </r>
       <r>   36.6793    0.0000 </r>
       <r>   39.1250    0.0000 </r>
       <r>   39.2223    0.0000 </r>
       <r>   39.2223    0.0000 </r>
       <r>   42.6357    0.0000 </r>
       <r>   42.6934    0.0000 </r>
       <r>   42.6934    0.0000 </r>
       <r>   46.5666    0.0000 </r>
       <r>   48.0922    0.0000 </r>
      </set>
      <set comment="kpoint 2">
       <r>   -1.2795    1.0000 </r>
       <r>    6.2776    1.0000 </r>
       <r>    6.4042    1.0000 </r>
       <r>    7.1621    1.0000 </r>
       <r>    9.6879   -0.0000 </r>
       <r>    9.9874   -0.0000 </r>
       <r>   23.4128    0.0000 </r>
       <r>   24.0132    0.0000 </r>
       <r>   24.1843    0.0000 </r>
       <r>   32.0771    0.0000 </r>
       <r>   33.0895    0.0000 </r>
       <r>   35.5715    0.0000 </r>
       <r>   39.0337    0.0000 </r>
       <r>   39.6636    0.0000 </r>
       <r>   41.4382    0.0000 </r>
       <r>   42.6311    0.0000 </r>
       <r>   42.7044    0.0000 </r>
       <r>   42.8787    0.0000 </r>
       <r>   44.8548    0.0000 </r>
       <r>   47.1310    0.0000 </r>
      </set>
      <set comment="kpoint 3">
       <r>   -0.7407    1.0000 </r>
       <r>    5.9693    1.0000 </r>
       <r>    6.2494    1.0000 </r>
       <r>    7.7452    0.7591 </r>
       <r>    9.4422   -0.0000 </r>
       <r>   10.0405   -0.0000 </r>
       <r>   23.7310    0.0000 </r>
       <r>   24.8516    0.0000 </r>
       <r>   25.0466    0.0000 </r>
       <r>   30.6897    0.0000 </r>
       <r>   31.8362    0.0000 </r>
       <r>   34.8971    0.0000 </r>
       <r>   38.7443    0.0000 </r>
       <r>   39.6898    0.0000 </r>
       <r>   42.4072    0.0000 </r>
       <r>   42.4953    0.0000 </r>
       <r>   42.6803    0.0000 </r>
       <r>   43.1000    0.0000 </r>
       <r>   44.4137    0.0000 </r>
       <r>   46.0957    0.0000 </r>
      </set>
      <set comment="kpoint 4">
       <r>   -0.0656    1.0000 </r>
       <r>    5.6135    1.0000 </r>
       <r>    6.0326    1.0000 </r>
       <r>    8.5296   -0.0000 </r>
       <r>    9.3588   -0.0000 </r>
       <r>   10.1239   -0.0000 </r>
       <r>   23.7361    0.0000 </r>
       <r>   25.3626    0.0000 </r>
       <r>   25.9424    0.0000 </r>
       <r>   30.1049    0.0000 </r>
       <r>   30.9707    0.0000 </r>
       <r>   34.0640    0.0000 </r>
       <r>   38.2661    0.0000 </r>
       <r>   39.4438    0.0000 </r>
       <r>   41.4365    0.0000 </r>
       <r>   42.5070    0.0000 </r>
       <r>   42.6407    0.0000 </r>
       <r>   42.6874    0.0000 </r>
       <r>   45.6363    0.0000 </r>
       <r>   46.3000    0.0000 </r>
      </set>
      <set comment="kpoint 5">
       <r>    0.6409    1.0000 </r>
       <r>    5.2529    1.0000 </r>
       <r>    5.8736    1.0000 </r>
       <r>    9.3891   -0.0000 </r>
       <r>    9.5504   -0.0000 </r>
       <r>   10.2427   -0.0000 </r>
       <r>   23.1687    0.0000 </r>
       <r>   24.5805    0.0000 </r>
       <r>   27.2819    0.0000 </r>
       <r>   30.5474    0.0000 </r>
       <r>   30.7207    0.0000 </r>
       <r>   33.1826    0.0000 </r>
       <r>   37.1064    0.0000 </r>
       <r>   39.2237    0.0000 </r>
       <r>   41.2050    0.0000 </r>
       <r>   42.5379    0.0000 </r>
       <r>   42.6251    0.0000 </r>
       <r>   42.6586    0.0000 </r>
       <r>   45.7499    0.0000 </r>
       <r>   46.5876    0.0000 </r>
      </set>
      <set comment="kpoint 6">
       <r>    1.2216    1.0000 </r>
       <r>    4.9179    1.0000 </r>
       <r>    5.9673    1.0000 </r>
       <r>    9.6362   -0.0000 </r>
       <r>   10.3954   -0.0000 </r>
       <r>   10.6011   -0.0000 </r>
       <r>   22.2497    0.0000 </r>
       <r>   23.1259    0.0000 </r>
       <r>   28.8444    0.0000 </r>
       <r>   29.6776    0.0000 </r>
       <r>   31.7664    0.0000 </r>
       <r>   33.3623    0.0000 </r>
       <r>   35.3820    0.0000 </r>
       <r>   39.3131    0.0000 </r>
       <r>   42.0382    0.0000 </r>
       <r>   42.5532    0.0000 </r>
       <r>   42.6145    0.0000 </r>
       <r>   42.6658    0.0000 </r>
       <r>   46.0415    0.0000 </r>
       <r>   46.2382    0.0000 </r>
      </set>
      <set comment="kpoint 7">
       <r>    1.5457    1.0000 </r>
       <r>    4.6351    1.0000 </r>
       <r>    6.4498    1.0000 </r>
       <r>    9.8596   -0.0000 </r>
       <r>   10.5634   -0.0000 </r>
       <r>   11.7595   -0.0000 </r>
       <r>   21.2978    0.0000 </r>
       <r>   21.5429    0.0000 </r>
       <r>   28.0303    0.0000 </r>
       <r>   30.5776    0.0000 </r>
       <r>   33.4303    0.0000 </r>
       <r>   33.4787    0.0000 </r>
       <r>   34.3736    0.0000 </r>
       <r>   39.4182    0.0000 </r>
       <r>   42.5423    0.0000 </r>
       <r>   42.5863    0.0000 </r>
       <r>   42.6098    0.0000 </r>
       <r>   43.7020    0.0000 </r>
       <r>   45.0042    0.0000 </r>
       <r>   47.0172    0.0000 </r>
      </set>
      <set comment="kpoint 8">
       <r>    1.6411    1.0000 </r>
       <r>    4.4225    1.0000 </r>
       <r>    7.2319    1.0002 </r>
       <r>   10.0117   -0.0000 </r>
       <r>   10.7345   -0.0000 </r>
       <r>   12.8668   -0.0000 </r>
       <r>   20.1297    0.0000 </r>
       <r>   20.5056    0.0000 </r>
       <r>   26.4564    0.0000 </r>
       <r>   32.2580    0.0000 </r>
       <r>   32.3811    0.0000 </r>
       <r>   34.9402    0.0000 </r>
       <r>   35.3361    0.0000 </r>
       <r>   39.4994    0.0000 </r>
       <r>   42.5076    0.0000 </r>
       <r>   42.5954    0.0000 </r>
       <r>   42.6125    0.0000 </r>
       <r>   43.5018    0.0000 </r>
       <r>   45.5211    0.0000 </r>
       <r>   45.8979    0.0000 </r>
      </set>
      <set comment="kpoint 9">
       <r>    1.6359    1.0000 </r>
       <r>    4.2916    1.0000 </r>
       <r>    8.0256   -0.0314 </r>
       <r>   10.0168   -0.0000 </r>
       <r>   10.8632   -0.0000 </r>
       <r>   13.7213    0.0000 </r>
       <r>   19.1211    0.0000 </r>
       <r>   19.9836    0.0000 </r>
       <r>   25.2977    0.0000 </r>
       <r>   31.4154    0.0000 </r>
       <r>   34.0015    0.0000 </r>
       <r>   35.3530    0.0000 </r>
       <r>   37.3084    0.0000 </r>
       <r>   39.5516    0.0000 </r>
       <r>   41.5313    0.0000 </r>
       <r>   42.5995    0.0000 </r>
       <r>   42.6174    0.0000 </r>
       <r>   42.6466    0.0000 </r>
       <r>   43.8713    0.0000 </r>
       <r>   46.7478    0.0000 </r>
      </set>
      <set comment="kpoint 10">
       <r>    1.6240    1.0000 </r>
       <r>    4.2469    1.0000 </r>
       <r>    8.4006   -0.0001 </r>
       <r>    9.9586   -0.0000 </r>
       <r>   10.9090   -0.0000 </r>
       <r>   14.0545    0.0000 </r>
       <r>   18.7453    0.0000 </r>
       <r>   19.8011    0.0000 </r>
       <r>   24.8596    0.0000 </r>
       <r>   31.1232    0.0000 </r>
       <r>   34.7560    0.0000 </r>
       <r>   35.4927    0.0000 </r>
       <r>   38.6954    0.0000 </r>
       <r>   39.5660    0.0000 </r>
       <r>   40.2303    0.0000 </r>
       <r>   42.5985    0.0000 </r>
       <r>   42.6088    0.0000 </r>
       <r>   42.6263    0.0000 </r>
       <r>   42.9426    0.0000 </r>
       <r>   47.1292    0.0000 </r>
      </set>
      <set comment="kpoint 11">
       <r>   -1.7400    1.0000 </r>
       <r>    6.5660    1.0000 </r>
       <r>    6.5663    1.0000 </r>
       <r>    6.6007    1.0000 </r>
       <r>    9.9408   -0.0000 </r>
       <r>   10.0670   -0.0000 </r>
       <r>   23.1456    0.0000 </r>
       <r>   23.1494    0.0000 </r>
       <r>   23.1494    0.0000 </r>
       <r>   34.0197    0.0000 </r>
       <r>   35.0822    0.0000 </r>
       <r>   37.8030    0.0000 </r>
       <r>   37.8030    0.0000 </r>
       <r>   38.4242    0.0000 </r>
       <r>   39.1797    0.0000 </r>
       <r>   42.6667    0.0000 </r>
       <r>   42.6694    0.0000 </r>
       <r>   42.6701    0.0000 </r>
       <r>   47.1504    0.0000 </r>
       <r>   48.1116    0.0000 </r>
      </set>
      <set comment="kpoint 12">
       <r>   -0.8432    1.0000 </r>
       <r>    6.0715    1.0000 </r>
       <r>    6.1634    1.0000 </r>
       <r>    7.7037    0.8871 </r>
       <r>    9.5270   -0.0000 </r>
       <r>    9.9926   -0.0000 </r>
       <r>   23.7155    0.0000 </r>
       <r>   24.6522    0.0000 </r>
       <r>   24.8650    0.0000 </r>
       <r>   30.9773    0.0000 </r>
       <r>   32.8203    0.0000 </r>
       <r>   33.5814    0.0000 </r>
       <r>   39.2073    0.0000 </r>
       <r>   40.6449    0.0000 </r>
       <r>   42.1045    0.0000 </r>
       <r>   42.4733    0.0000 </r>
       <r>   42.7701    0.0000 </r>
       <r>   42.8591    0.0000 </r>
       <r>   43.5153    0.0000 </r>
       <r>   47.3267    0.0000 </r>
      </set>
      <set comment="kpoint 13">
       <r>   -0.2357    1.0000 </r>
       <r>    5.7500    1.0000 </r>
       <r>    5.9282    1.0000 </r>
       <r>    8.4385   -0.0000 </r>
       <r>    9.3611   -0.0000 </r>
       <r>   10.1131   -0.0000 </r>
       <r>   24.0559    0.0000 </r>
       <r>   25.0893    0.0000 </r>
       <r>   25.5213    0.0000 </r>
       <r>   30.1731    0.0000 </r>
       <r>   31.6346    0.0000 </r>
       <r>   33.3057    0.0000 </r>
       <r>   39.1032    0.0000 </r>
       <r>   40.2589    0.0000 </r>
       <r>   40.9938    0.0000 </r>
       <r>   42.4510    0.0000 </r>
       <r>   42.6490    0.0000 </r>
       <r>   42.7336    0.0000 </r>
       <r>   44.5840    0.0000 </r>
       <r>   47.1556    0.0000 </r>
      </set>
      <set comment="kpoint 14">
       <r>    0.4704    1.0000 </r>
       <r>    5.3898    1.0000 </r>
       <r>    5.7088    1.0000 </r>
       <r>    9.2719   -0.0000 </r>
       <r>    9.4237   -0.0000 </r>
       <r>   10.2569   -0.0000 </r>
       <r>   23.7758    0.0000 </r>
       <r>   24.9935    0.0000 </r>
       <r>   26.1889    0.0000 </r>
       <r>   29.7434    0.0000 </r>
       <r>   31.0077    0.0000 </r>
       <r>   33.7534    0.0000 </r>
       <r>   38.7036    0.0000 </r>
       <r>   39.0847    0.0000 </r>
       <r>   40.1449    0.0000 </r>
       <r>   42.5002    0.0000 </r>
       <r>   42.6249    0.0000 </r>
       <r>   42.6752    0.0000 </r>
       <r>   45.1613    0.0000 </r>
       <r>   47.3349    0.0000 </r>
      </set>
      <set comment="kpoint 15">
       <r>    1.1467    1.0000 </r>
       <r>    5.0464    1.0000 </r>
       <r>    5.6362    1.0000 </r>
       <r>    9.4575   -0.0000 </r>
       <r>   10.4152   -0.0000 </r>
       <r>   10.4339   -0.0000 </r>
       <r>   22.8664    0.0000 </r>
       <r>   23.9269    0.0000 </r>
       <r>   27.3749    0.0000 </r>
       <r>   28.8062    0.0000 </r>
       <r>   31.9891    0.0000 </r>
       <r>   34.2530    0.0000 </r>
       <r>   36.9100    0.0000 </r>
       <r>   39.1087    0.0000 </r>
       <r>   40.3196    0.0000 </r>
       <r>   42.5168    0.0000 </r>
       <r>   42.6175    0.0000 </r>
       <r>   42.6571    0.0000 </r>
       <r>   45.0254    0.0000 </r>
       <r>   47.8060    0.0000 </r>
      </set>
      <set comment="kpoint 16">
       <r>    1.6231    1.0000 </r>
       <r>    4.7487    1.0000 </r>
       <r>    5.8904    1.0000 </r>
       <r>    9.6788   -0.0000 </r>
       <r>   10.5757   -0.0000 </r>
       <r>   11.5909   -0.0000 </r>
       <r>   21.7579    0.0000 </r>
       <r>   22.4628    0.0000 </r>
       <r>   27.6437    0.0000 </r>
       <r>   28.8969    0.0000 </r>
       <r>   33.3982    0.0000 </r>
       <r>   34.7449    0.0000 </r>
       <r>   35.1327    0.0000 </r>
       <r>   39.3615    0.0000 </r>
       <r>   41.5279    0.0000 </r>
       <r>   42.5175    0.0000 </r>
       <r>   42.6130    0.0000 </r>
       <r>   42.6622    0.0000 </r>
       <r>   44.3849    0.0000 </r>
       <r>   48.4403    0.0000 </r>
      </set>
      <set comment="kpoint 17">
       <r>    1.8247    1.0000 </r>
       <r>    4.5136    1.0000 </r>
       <r>    6.5186    1.0000 </r>
       <r>    9.8971   -0.0000 </r>
       <r>   10.7283   -0.0000 </r>
       <r>   12.7481   -0.0000 </r>
       <r>   20.4979    0.0000 </r>
       <r>   21.2501    0.0000 </r>
       <r>   26.4120    0.0000 </r>
       <r>   30.5622    0.0000 </r>
       <r>   33.2018    0.0000 </r>
       <r>   34.9003    0.0000 </r>
       <r>   35.7644    0.0000 </r>
       <r>   39.4626    0.0000 </r>
       <r>   42.4466    0.0000 </r>
       <r>   42.5842    0.0000 </r>
       <r>   42.6114    0.0000 </r>
       <r>   43.2688    0.0000 </r>
       <r>   43.6711    0.0000 </r>
       <r>   47.9609    0.0000 </r>
      </set>
      <set comment="kpoint 18">
       <r>    1.8518    1.0000 </r>
       <r>    4.3515    1.0000 </r>
       <r>    7.3101    1.0012 </r>
       <r>   10.0050   -0.0000 </r>
       <r>   10.8808   -0.0000 </r>
       <r>   13.7509    0.0000 </r>
       <r>   19.2698    0.0000 </r>
       <r>   20.5118    0.0000 </r>
       <r>   25.3244    0.0000 </r>
       <r>   31.7318    0.0000 </r>
       <r>   32.6362    0.0000 </r>
       <r>   35.3020    0.0000 </r>
       <r>   37.3312    0.0000 </r>
       <r>   39.5117    0.0000 </r>
       <r>   41.6582    0.0000 </r>
       <r>   42.5973    0.0000 </r>
       <r>   42.6138    0.0000 </r>
       <r>   42.6607    0.0000 </r>
       <r>   45.7135    0.0000 </r>
       <r>   46.0927    0.0000 </r>
      </set>
      <set comment="kpoint 19">
       <r>    1.8334    1.0000 </r>
       <r>    4.2696    1.0000 </r>
       <r>    7.9042    0.1463 </r>
       <r>    9.9821   -0.0000 </r>
       <r>   10.9988   -0.0000 </r>
       <r>   14.3674    0.0000 </r>
       <r>   18.5205    0.0000 </r>
       <r>   20.1456    0.0000 </r>
       <r>   24.6636    0.0000 </r>
       <r>   31.3071    0.0000 </r>
       <r>   33.7837    0.0000 </r>
       <r>   35.5289    0.0000 </r>
       <r>   38.1232    0.0000 </r>
       <r>   39.5416    0.0000 </r>
       <r>   41.1259    0.0000 </r>
       <r>   42.6018    0.0000 </r>
       <r>   42.6146    0.0000 </r>
       <r>   42.6365    0.0000 </r>
       <r>   44.3099    0.0000 </r>
       <r>   47.2693    0.0000 </r>
      </set>
      <set comment="kpoint 20">
       <r>   -1.5060    1.0000 </r>
       <r>    6.4343    1.0000 </r>
       <r>    6.5348    1.0000 </r>
       <r>    6.8242    1.0000 </r>
       <r>    9.6860   -0.0000 </r>
       <r>   10.1114   -0.0000 </r>
       <r>   23.3437    0.0000 </r>
       <r>   23.5576    0.0000 </r>
       <r>   23.7090    0.0000 </r>
       <r>   32.2601    0.0000 </r>
       <r>   34.4935    0.0000 </r>
       <r>   37.4849    0.0000 </r>
       <r>   37.5840    0.0000 </r>
       <r>   39.1100    0.0000 </r>
       <r>   40.5169    0.0000 </r>
       <r>   42.6377    0.0000 </r>
       <r>   42.6682    0.0000 </r>
       <r>   42.7267    0.0000 </r>
       <r>   46.6811    0.0000 </r>
       <r>   47.0855    0.0000 </r>
      </set>
      <set comment="kpoint 21">
       <r>    0.4143    1.0000 </r>
       <r>    5.5137    1.0000 </r>
       <r>    5.5667    1.0000 </r>
       <r>    9.2671   -0.0000 </r>
       <r>    9.3275   -0.0000 </r>
       <r>   10.2981   -0.0000 </r>
       <r>   24.5097    0.0000 </r>
       <r>   24.5282    0.0000 </r>
       <r>   25.9426    0.0000 </r>
       <r>   29.3460    0.0000 </r>
       <r>   31.2525    0.0000 </r>
       <r>   33.8543    0.0000 </r>
       <r>   38.8038    0.0000 </r>
       <r>   39.7344    0.0000 </r>
       <r>   40.0036    0.0000 </r>
       <r>   42.4422    0.0000 </r>
       <r>   42.6274    0.0000 </r>
       <r>   42.7125    0.0000 </r>
       <r>   44.1563    0.0000 </r>
       <r>   48.6164    0.0000 </r>
      </set>
      <set comment="kpoint 22">
       <r>    1.1249    1.0000 </r>
       <r>    5.1816    1.0000 </r>
       <r>    5.3653    1.0000 </r>
       <r>    9.2937   -0.0000 </r>
       <r>   10.3769   -0.0000 </r>
       <r>   10.4920   -0.0000 </r>
       <r>   23.4158    0.0000 </r>
       <r>   24.5427    0.0000 </r>
       <r>   26.4780    0.0000 </r>
       <r>   27.9036    0.0000 </r>
       <r>   32.0917    0.0000 </r>
       <r>   35.1532    0.0000 </r>
       <r>   38.1069    0.0000 </r>
       <r>   38.8100    0.0000 </r>
       <r>   39.5797    0.0000 </r>
       <r>   42.4277    0.0000 </r>
       <r>   42.6180    0.0000 </r>
       <r>   42.6678    0.0000 </r>
       <r>   43.7577    0.0000 </r>
       <r>   49.3485    0.0000 </r>
      </set>
      <set comment="kpoint 23">
       <r>    1.7457    1.0000 </r>
       <r>    4.8686    1.0000 </r>
       <r>    5.3945    1.0000 </r>
       <r>    9.4513   -0.0000 </r>
       <r>   10.6535   -0.0000 </r>
       <r>   11.5495   -0.0000 </r>
       <r>   22.1487    0.0000 </r>
       <r>   23.5728    0.0000 </r>
       <r>   26.7710    0.0000 </r>
       <r>   27.5561    0.0000 </r>
       <r>   33.2680    0.0000 </r>
       <r>   35.9429    0.0000 </r>
       <r>   36.8787    0.0000 </r>
       <r>   39.0903    0.0000 </r>
       <r>   39.8242    0.0000 </r>
       <r>   42.3809    0.0000 </r>
       <r>   42.6143    0.0000 </r>
       <r>   42.6577    0.0000 </r>
       <r>   43.3622    0.0000 </r>
       <r>   49.8342    0.0000 </r>
      </set>
      <set comment="kpoint 24">
       <r>    2.1071    1.0000 </r>
       <r>    4.6247    1.0000 </r>
       <r>    5.7746    1.0000 </r>
       <r>    9.6818   -0.0000 </r>
       <r>   10.7777   -0.0000 </r>
       <r>   12.7582   -0.0000 </r>
       <r>   20.7928    0.0000 </r>
       <r>   22.3262    0.0000 </r>
       <r>   25.8502    0.0000 </r>
       <r>   28.9569    0.0000 </r>
       <r>   33.6901    0.0000 </r>
       <r>   35.7351    0.0000 </r>
       <r>   36.7228    0.0000 </r>
       <r>   39.3955    0.0000 </r>
       <r>   41.6836    0.0000 </r>
       <r>   42.1823    0.0000 </r>
       <r>   42.6092    0.0000 </r>
       <r>   42.6796    0.0000 </r>
       <r>   42.9162    0.0000 </r>
       <r>   48.5865    0.0000 </r>
      </set>
      <set comment="kpoint 25">
       <r>    2.2088    1.0000 </r>
       <r>    4.4503    1.0000 </r>
       <r>    6.4441    1.0000 </r>
       <r>    9.8910   -0.0000 </r>
       <r>   10.8992   -0.0000 </r>
       <r>   13.8936    0.0000 </r>
       <r>   19.4196    0.0000 </r>
       <r>   21.3786    0.0000 </r>
       <r>   25.0137    0.0000 </r>
       <r>   30.4247    0.0000 </r>
       <r>   32.9488    0.0000 </r>
       <r>   35.5661    0.0000 </r>
       <r>   37.9136    0.0000 </r>
       <r>   39.4638    0.0000 </r>
       <r>   41.5675    0.0000 </r>
       <r>   42.5956    0.0000 </r>
       <r>   42.6122    0.0000 </r>
       <r>   42.6856    0.0000 </r>
       <r>   44.3762    0.0000 </r>
       <r>   47.1777    0.0000 </r>
      </set>
      <set comment="kpoint 26">
       <r>    2.1976    1.0000 </r>
       <r>    4.3452    1.0000 </r>
       <r>    7.0994    1.0000 </r>
       <r>    9.9622   -0.0000 </r>
       <r>   11.0519   -0.0000 </r>
       <r>   14.7576    0.0000 </r>
       <r>   18.3315    0.0000 </r>
       <r>   20.8107    0.0000 </r>
       <r>   24.3768    0.0000 </r>
       <r>   31.2963    0.0000 </r>
       <r>   32.6558    0.0000 </r>
       <r>   35.7260    0.0000 </r>
       <r>   38.2081    0.0000 </r>
       <r>   39.5106    0.0000 </r>
       <r>   41.6722    0.0000 </r>
       <r>   42.6006    0.0000 </r>
       <r>   42.6119    0.0000 </r>
       <r>   42.6565    0.0000 </r>
       <r>   45.9525    0.0000 </r>
       <r>   46.9460    0.0000 </r>
      </set>
      <set comment="kpoint 27">
       <r>    2.1828    1.0000 </r>
       <r>    4.3105    1.0000 </r>
       <r>    7.3820    1.0049 </r>
       <r>    9.9496   -0.0000 </r>
       <r>   11.1398   -0.0000 </r>
       <r>   15.0953    0.0000 </r>
       <r>   17.9054    0.0000 </r>
       <r>   20.6157    0.0000 </r>
       <r>   24.1322    0.0000 </r>
       <r>   31.2658    0.0000 </r>
       <r>   33.0262    0.0000 </r>
       <r>   35.8824    0.0000 </r>
       <r>   37.8096    0.0000 </r>
       <r>   39.5122    0.0000 </r>
       <r>   42.2425    0.0000 </r>
       <r>   42.6030    0.0000 </r>
       <r>   42.6095    0.0000 </r>
       <r>   42.7616    0.0000 </r>
       <r>   45.3778    0.0000 </r>
       <r>   47.7015    0.0000 </r>
      </set>
      <set comment="kpoint 28">
       <r>   -1.0576    1.0000 </r>
       <r>    6.1766    1.0000 </r>
       <r>    6.4409    1.0000 </r>
       <r>    7.2892    1.0007 </r>
       <r>    9.3844   -0.0000 </r>
       <r>   10.1483   -0.0000 </r>
       <r>   23.6444    0.0000 </r>
       <r>   24.3457    0.0000 </r>
       <r>   24.6115    0.0000 </r>
       <r>   30.6065    0.0000 </r>
       <r>   33.1117    0.0000 </r>
       <r>   36.7251    0.0000 </r>
       <r>   37.6259    0.0000 </r>
       <r>   39.3994    0.0000 </r>
       <r>   42.1993    0.0000 </r>
       <r>   42.6170    0.0000 </r>
       <r>   42.6678    0.0000 </r>
       <r>   43.2925    0.0000 </r>
       <r>   44.9776    0.0000 </r>
       <r>   45.8181    0.0000 </r>
      </set>
      <set comment="kpoint 29">
       <r>   -1.1653    1.0000 </r>
       <r>    6.3267    1.0000 </r>
       <r>    6.4294    1.0000 </r>
       <r>    7.1389    1.0000 </r>
       <r>    9.3346   -0.0000 </r>
       <r>   10.2196   -0.0000 </r>
       <r>   23.6703    0.0000 </r>
       <r>   24.1574    0.0000 </r>
       <r>   24.3650    0.0000 </r>
       <r>   30.5141    0.0000 </r>
       <r>   34.3932    0.0000 </r>
       <r>   35.8108    0.0000 </r>
       <r>   38.7023    0.0000 </r>
       <r>   39.0613    0.0000 </r>
       <r>   41.6661    0.0000 </r>
       <r>   42.6246    0.0000 </r>
       <r>   42.6868    0.0000 </r>
       <r>   42.8205    0.0000 </r>
       <r>   45.2604    0.0000 </r>
       <r>   46.9692    0.0000 </r>
      </set>
      <set comment="kpoint 30">
       <r>    1.8074    1.0000 </r>
       <r>    4.9471    1.0000 </r>
       <r>    5.1688    1.0000 </r>
       <r>    9.3508   -0.0000 </r>
       <r>   10.6901   -0.0000 </r>
       <r>   11.5460   -0.0000 </r>
       <r>   22.3307    0.0000 </r>
       <r>   24.2948    0.0000 </r>
       <r>   26.1133    0.0000 </r>
       <r>   27.0327    0.0000 </r>
       <r>   33.2119    0.0000 </r>
       <r>   37.1022    0.0000 </r>
       <r>   37.5311    0.0000 </r>
       <r>   38.5045    0.0000 </r>
       <r>   39.3011    0.0000 </r>
       <r>   42.0623    0.0000 </r>
       <r>   42.6171    0.0000 </r>
       <r>   42.6605    0.0000 </r>
       <r>   42.9088    0.0000 </r>
       <r>   50.3036    0.0000 </r>
      </set>
      <set comment="kpoint 31">
       <r>    2.3522    1.0000 </r>
       <r>    4.7096    1.0000 </r>
       <r>    5.2647    1.0000 </r>
       <r>    9.5192   -0.0000 </r>
       <r>   10.8207   -0.0000 </r>
       <r>   12.7976   -0.0000 </r>
       <r>   21.0002    0.0000 </r>
       <r>   23.4372    0.0000 </r>
       <r>   25.0591    0.0000 </r>
       <r>   27.9479    0.0000 </r>
       <r>   33.6977    0.0000 </r>
       <r>   37.0802    0.0000 </r>
       <r>   37.8264    0.0000 </r>
       <r>   39.2520    0.0000 </r>
       <r>   40.1626    0.0000 </r>
       <r>   41.4756    0.0000 </r>
       <r>   42.6093    0.0000 </r>
       <r>   42.6674    0.0000 </r>
       <r>   42.7312    0.0000 </r>
       <r>   48.5311    0.0000 </r>
      </set>
      <set comment="kpoint 32">
       <r>    2.6111    1.0000 </r>
       <r>    4.5476    1.0000 </r>
       <r>    5.6859    1.0000 </r>
       <r>    9.7478   -0.0000 </r>
       <r>   10.8919   -0.0000 </r>
       <r>   14.0433    0.0000 </r>
       <r>   19.5637    0.0000 </r>
       <r>   22.3677    0.0000 </r>
       <r>   24.4923    0.0000 </r>
       <r>   29.1090    0.0000 </r>
       <r>   33.3247    0.0000 </r>
       <r>   36.3888    0.0000 </r>
       <r>   38.6340    0.0000 </r>
       <r>   39.4385    0.0000 </r>
       <r>   41.1741    0.0000 </r>
       <r>   42.4860    0.0000 </r>
       <r>   42.6063    0.0000 </r>
       <r>   42.6827    0.0000 </r>
       <r>   43.0884    0.0000 </r>
       <r>   46.7032    0.0000 </r>
      </set>
      <set comment="kpoint 33">
       <r>    2.6532    1.0000 </r>
       <r>    4.4495    1.0000 </r>
       <r>    6.2661    1.0000 </r>
       <r>    9.9303   -0.0000 </r>
       <r>   10.9897   -0.0000 </r>
       <r>   15.1410    0.0000 </r>
       <r>   18.2440    0.0000 </r>
       <r>   21.5656    0.0000 </r>
       <r>   24.0725    0.0000 </r>
       <r>   30.2772    0.0000 </r>
       <r>   32.5822    0.0000 </r>
       <r>   36.2260    0.0000 </r>
       <r>   38.5686    0.0000 </r>
       <r>   39.5676    0.0000 </r>
       <r>   41.9716    0.0000 </r>
       <r>   42.6027    0.0000 </r>
       <r>   42.6154    0.0000 </r>
       <r>   42.7212    0.0000 </r>
       <r>   45.2770    0.0000 </r>
       <r>   45.8503    0.0000 </r>
      </set>
      <set comment="kpoint 34">
       <r>    2.6347    1.0000 </r>
       <r>    4.4024    1.0000 </r>
       <r>    6.6799    1.0000 </r>
       <r>    9.9833   -0.0000 </r>
       <r>   11.1291   -0.0000 </r>
       <r>   15.8462    0.0000 </r>
       <r>   17.4006    0.0000 </r>
       <r>   21.0984    0.0000 </r>
       <r>   23.8383    0.0000 </r>
       <r>   31.0655    0.0000 </r>
       <r>   32.0715    0.0000 </r>
       <r>   36.3933    0.0000 </r>
       <r>   38.0019    0.0000 </r>
       <r>   39.4898    0.0000 </r>
       <r>   42.5029    0.0000 </r>
       <r>   42.6107    0.0000 </r>
       <r>   42.6147    0.0000 </r>
       <r>   43.3240    0.0000 </r>
       <r>   45.4808    0.0000 </r>
       <r>   46.4997    0.0000 </r>
      </set>
      <set comment="kpoint 35">
       <r>   -0.4393    1.0000 </r>
       <r>    5.8445    1.0000 </r>
       <r>    6.2489    1.0000 </r>
       <r>    7.9694    0.0108 </r>
       <r>    9.2010   -0.0000 </r>
       <r>   10.2054   -0.0000 </r>
       <r>   23.8066    0.0000 </r>
       <r>   25.3349    0.0000 </r>
       <r>   25.4645    0.0000 </r>
       <r>   29.5615    0.0000 </r>
       <r>   31.8739    0.0000 </r>
       <r>   35.4014    0.0000 </r>
       <r>   37.7507    0.0000 </r>
       <r>   39.4559    0.0000 </r>
       <r>   42.4502    0.0000 </r>
       <r>   42.5016    0.0000 </r>
       <r>   42.6622    0.0000 </r>
       <r>   42.9723    0.0000 </r>
       <r>   44.9775    0.0000 </r>
       <r>   45.9215    0.0000 </r>
      </set>
      <set comment="kpoint 36">
       <r>   -0.6303    1.0000 </r>
       <r>    6.0587    1.0000 </r>
       <r>    6.2734    1.0000 </r>
       <r>    7.7097    0.8711 </r>
       <r>    9.0326   -0.0000 </r>
       <r>   10.3213   -0.0000 </r>
       <r>   24.0209    0.0000 </r>
       <r>   24.8973    0.0000 </r>
       <r>   25.2644    0.0000 </r>
       <r>   29.2059    0.0000 </r>
       <r>   33.3214    0.0000 </r>
       <r>   34.8719    0.0000 </r>
       <r>   38.6548    0.0000 </r>
       <r>   39.3523    0.0000 </r>
       <r>   42.3206    0.0000 </r>
       <r>   42.5330    0.0000 </r>
       <r>   42.6813    0.0000 </r>
       <r>   42.8813    0.0000 </r>
       <r>   44.7511    0.0000 </r>
       <r>   46.1444    0.0000 </r>
      </set>
      <set comment="kpoint 37">
       <r>    2.8176    1.0000 </r>
       <r>    4.5943    1.0000 </r>
       <r>    5.3475    1.0000 </r>
       <r>    9.6866   -0.0000 </r>
       <r>   10.8864   -0.0000 </r>
       <r>   14.1054    0.0000 </r>
       <r>   19.6296    0.0000 </r>
       <r>   22.9702    0.0000 </r>
       <r>   24.1013    0.0000 </r>
       <r>   28.5730    0.0000 </r>
       <r>   33.4100    0.0000 </r>
       <r>   37.0553    0.0000 </r>
       <r>   38.7342    0.0000 </r>
       <r>   39.6566    0.0000 </r>
       <r>   40.8695    0.0000 </r>
       <r>   42.0736    0.0000 </r>
       <r>   42.6097    0.0000 </r>
       <r>   42.6745    0.0000 </r>
       <r>   42.7730    0.0000 </r>
       <r>   46.5259    0.0000 </r>
      </set>
      <set comment="kpoint 38">
       <r>    3.0308    1.0000 </r>
       <r>    4.5497    1.0000 </r>
       <r>    5.6491    1.0000 </r>
       <r>    9.9121   -0.0000 </r>
       <r>   10.9085   -0.0000 </r>
       <r>   15.3738    0.0000 </r>
       <r>   18.2369    0.0000 </r>
       <r>   22.0534    0.0000 </r>
       <r>   23.9361    0.0000 </r>
       <r>   29.3650    0.0000 </r>
       <r>   32.7276    0.0000 </r>
       <r>   36.9560    0.0000 </r>
       <r>   38.5122    0.0000 </r>
       <r>   39.8129    0.0000 </r>
       <r>   42.0812    0.0000 </r>
       <r>   42.5908    0.0000 </r>
       <r>   42.6053    0.0000 </r>
       <r>   42.7868    0.0000 </r>
       <r>   44.4453    0.0000 </r>
       <r>   44.8141    0.0000 </r>
      </set>
      <set comment="kpoint 39">
       <r>    3.0726    1.0000 </r>
       <r>    4.5426    1.0000 </r>
       <r>    5.9915    1.0000 </r>
       <r>   10.0837   -0.0000 </r>
       <r>   10.9864   -0.0000 </r>
       <r>   16.4115    0.0000 </r>
       <r>   17.1456    0.0000 </r>
       <r>   21.2258    0.0000 </r>
       <r>   23.9736    0.0000 </r>
       <r>   30.2062    0.0000 </r>
       <r>   31.8669    0.0000 </r>
       <r>   37.0828    0.0000 </r>
       <r>   38.3736    0.0000 </r>
       <r>   39.5712    0.0000 </r>
       <r>   42.4939    0.0000 </r>
       <r>   42.6036    0.0000 </r>
       <r>   42.6142    0.0000 </r>
       <r>   43.3341    0.0000 </r>
       <r>   44.3705    0.0000 </r>
       <r>   44.7998    0.0000 </r>
      </set>
      <set comment="kpoint 40">
       <r>    3.0713    1.0000 </r>
       <r>    4.5422    1.0000 </r>
       <r>    6.1379    1.0000 </r>
       <r>   10.1289   -0.0000 </r>
       <r>   11.0595   -0.0000 </r>
       <r>   16.6376    0.0000 </r>
       <r>   16.9357    0.0000 </r>
       <r>   20.8515    0.0000 </r>
       <r>   24.0083    0.0000 </r>
       <r>   30.9690    0.0000 </r>
       <r>   31.0805    0.0000 </r>
       <r>   37.2144    0.0000 </r>
       <r>   38.3259    0.0000 </r>
       <r>   39.4235    0.0000 </r>
       <r>   42.4436    0.0000 </r>
       <r>   42.6001    0.0000 </r>
       <r>   42.6156    0.0000 </r>
       <r>   43.0114    0.0000 </r>
       <r>   44.4550    0.0000 </r>
       <r>   45.4593    0.0000 </r>
      </set>
      <set comment="kpoint 41">
       <r>    0.2673    1.0000 </r>
       <r>    5.4809    1.0000 </r>
       <r>    6.0280    1.0000 </r>
       <r>    8.8378   -0.0000 </r>
       <r>    9.2131   -0.0000 </r>
       <r>   10.2905   -0.0000 </r>
       <r>   23.4771    0.0000 </r>
       <r>   25.1177    0.0000 </r>
       <r>   26.8541    0.0000 </r>
       <r>   29.5912    0.0000 </r>
       <r>   31.5292    0.0000 </r>
       <r>   33.5928    0.0000 </r>
       <r>   37.4202    0.0000 </r>
       <r>   39.2882    0.0000 </r>
       <r>   41.8844    0.0000 </r>
       <r>   42.5261    0.0000 </r>
       <r>   42.6314    0.0000 </r>
       <r>   42.6746    0.0000 </r>
       <r>   44.7177    0.0000 </r>
       <r>   47.4178    0.0000 </r>
      </set>
      <set comment="kpoint 42">
       <r>    0.0408    1.0000 </r>
       <r>    5.7145    1.0000 </r>
       <r>    6.0515    1.0000 </r>
       <r>    8.4896   -0.0000 </r>
       <r>    8.9222   -0.0000 </r>
       <r>   10.4331   -0.0000 </r>
       <r>   23.9586    0.0000 </r>
       <r>   25.2590    0.0000 </r>
       <r>   26.1881    0.0000 </r>
       <r>   29.0513    0.0000 </r>
       <r>   32.0127    0.0000 </r>
       <r>   34.1589    0.0000 </r>
       <r>   38.2692    0.0000 </r>
       <r>   39.3136    0.0000 </r>
       <r>   41.5168    0.0000 </r>
       <r>   42.5192    0.0000 </r>
       <r>   42.6434    0.0000 </r>
       <r>   42.6855    0.0000 </r>
       <r>   45.5988    0.0000 </r>
       <r>   46.0813    0.0000 </r>
      </set>
      <set comment="kpoint 43">
       <r>   -0.0349    1.0000 </r>
       <r>    5.8793    1.0000 </r>
       <r>    5.9714    1.0000 </r>
       <r>    8.3982   -0.0001 </r>
       <r>    8.7817   -0.0000 </r>
       <r>   10.4961   -0.0000 </r>
       <r>   24.5262    0.0000 </r>
       <r>   24.7653    0.0000 </r>
       <r>   26.0566    0.0000 </r>
       <r>   28.8257    0.0000 </r>
       <r>   32.4446    0.0000 </r>
       <r>   34.0574    0.0000 </r>
       <r>   39.0719    0.0000 </r>
       <r>   39.2157    0.0000 </r>
       <r>   41.2216    0.0000 </r>
       <r>   42.4929    0.0000 </r>
       <r>   42.6433    0.0000 </r>
       <r>   42.6836    0.0000 </r>
       <r>   45.0686    0.0000 </r>
       <r>   47.0338    0.0000 </r>
      </set>
      <set comment="kpoint 44">
       <r>    3.2707    1.0000 </r>
       <r>    4.6616    1.0000 </r>
       <r>    5.6363    1.0000 </r>
       <r>   10.1566   -0.0000 </r>
       <r>   10.8871   -0.0000 </r>
       <r>   16.5611    0.0000 </r>
       <r>   17.1525    0.0000 </r>
       <r>   21.1723    0.0000 </r>
       <r>   24.1654    0.0000 </r>
       <r>   29.7307    0.0000 </r>
       <r>   31.8788    0.0000 </r>
       <r>   37.6619    0.0000 </r>
       <r>   38.2436    0.0000 </r>
       <r>   39.7503    0.0000 </r>
       <r>   42.4633    0.0000 </r>
       <r>   42.6058    0.0000 </r>
       <r>   42.6067    0.0000 </r>
       <r>   43.0555    0.0000 </r>
       <r>   43.8914    0.0000 </r>
       <r>   44.3784    0.0000 </r>
      </set>
      <set comment="kpoint 45">
       <r>    3.3523    1.0000 </r>
       <r>    4.7926    1.0000 </r>
       <r>    5.6190    1.0000 </r>
       <r>   10.3566   -0.0000 </r>
       <r>   10.8825   -0.0000 </r>
       <r>   16.2090    0.0000 </r>
       <r>   17.8092    0.0000 </r>
       <r>   20.2773    0.0000 </r>
       <r>   24.4763    0.0000 </r>
       <r>   30.2278    0.0000 </r>
       <r>   30.9881    0.0000 </r>
       <r>   38.0666    0.0000 </r>
       <r>   38.7185    0.0000 </r>
       <r>   39.5205    0.0000 </r>
       <r>   41.7311    0.0000 </r>
       <r>   42.5898    0.0000 </r>
       <r>   42.6043    0.0000 </r>
       <r>   42.6562    0.0000 </r>
       <r>   42.8745    0.0000 </r>
       <r>   45.8134    0.0000 </r>
      </set>
      <set comment="kpoint 46">
       <r>    0.9286    1.0000 </r>
       <r>    5.1275    1.0000 </r>
       <r>    5.9551    1.0000 </r>
       <r>    9.3917   -0.0000 </r>
       <r>    9.8686   -0.0000 </r>
       <r>   10.4141   -0.0000 </r>
       <r>   22.6400    0.0000 </r>
       <r>   23.9876    0.0000 </r>
       <r>   28.4466    0.0000 </r>
       <r>   30.4514    0.0000 </r>
       <r>   31.5475    0.0000 </r>
       <r>   32.2173    0.0000 </r>
       <r>   36.1521    0.0000 </r>
       <r>   39.2697    0.0000 </r>
       <r>   42.3417    0.0000 </r>
       <r>   42.5527    0.0000 </r>
       <r>   42.6111    0.0000 </r>
       <r>   42.6857    0.0000 </r>
       <r>   44.8994    0.0000 </r>
       <r>   46.8967    0.0000 </r>
      </set>
      <set comment="kpoint 47">
       <r>    0.7450    1.0000 </r>
       <r>    5.3563    1.0000 </r>
       <r>    5.8614    1.0000 </r>
       <r>    9.0055   -0.0000 </r>
       <r>    9.4652   -0.0000 </r>
       <r>   10.5505   -0.0000 </r>
       <r>   23.1640    0.0000 </r>
       <r>   24.7175    0.0000 </r>
       <r>   27.4141    0.0000 </r>
       <r>   30.0190    0.0000 </r>
       <r>   31.0010    0.0000 </r>
       <r>   33.4813    0.0000 </r>
       <r>   37.3323    0.0000 </r>
       <r>   39.1820    0.0000 </r>
       <r>   41.2687    0.0000 </r>
       <r>   42.5369    0.0000 </r>
       <r>   42.6224    0.0000 </r>
       <r>   42.6550    0.0000 </r>
       <r>   45.5116    0.0000 </r>
       <r>   46.4361    0.0000 </r>
      </set>
      <set comment="kpoint 48">
       <r>    0.6588    1.0000 </r>
       <r>    5.5605    1.0000 </r>
       <r>    5.7279    1.0000 </r>
       <r>    8.7326   -0.0000 </r>
       <r>    9.2993   -0.0000 </r>
       <r>   10.6560   -0.0000 </r>
       <r>   23.7544    0.0000 </r>
       <r>   24.9218    0.0000 </r>
       <r>   26.7316    0.0000 </r>
       <r>   29.6118    0.0000 </r>
       <r>   30.7213    0.0000 </r>
       <r>   34.5013    0.0000 </r>
       <r>   38.6452    0.0000 </r>
       <r>   38.9827    0.0000 </r>
       <r>   40.2601    0.0000 </r>
       <r>   42.5054    0.0000 </r>
       <r>   42.6226    0.0000 </r>
       <r>   42.6671    0.0000 </r>
       <r>   44.6958    0.0000 </r>
       <r>   47.4570    0.0000 </r>
      </set>
      <set comment="kpoint 49">
       <r>    3.4419    1.0000 </r>
       <r>    5.1881    1.0000 </r>
       <r>    5.1882    1.0000 </r>
       <r>   10.6625   -0.0000 </r>
       <r>   10.6626   -0.0000 </r>
       <r>   15.8890    0.0000 </r>
       <r>   19.0881    0.0000 </r>
       <r>   19.0885    0.0000 </r>
       <r>   24.7744    0.0000 </r>
       <r>   30.4091    0.0000 </r>
       <r>   30.4092    0.0000 </r>
       <r>   38.6123    0.0000 </r>
       <r>   39.3468    0.0000 </r>
       <r>   39.3468    0.0000 </r>
       <r>   41.0321    0.0000 </r>
       <r>   41.7959    0.0000 </r>
       <r>   42.6134    0.0000 </r>
       <r>   42.6346    0.0000 </r>
       <r>   42.6369    0.0000 </r>
       <r>   46.3390    0.0000 </r>
      </set>
      <set comment="kpoint 50">
       <r>    1.3851    1.0000 </r>
       <r>    4.8137    1.0000 </r>
       <r>    6.2198    1.0000 </r>
       <r>    9.6479   -0.0000 </r>
       <r>   10.5550   -0.0000 </r>
[...]
       </set>
       <set comment="band 2">
        <r>  0.0000  0.0369  0.6787 </r>
       </set>
       <set comment="band 3">
        <r>  0.0447  0.0838  0.6757 </r>
       </set>
       <set comment="band 4">
        <r>  0.0224  0.0984  0.7023 </r>
       </set>
       <set comment="band 5">
        <r>  0.0000  0.0380  0.8787 </r>
       </set>
       <set comment="band 6">
        <r>  0.0000  0.4733  0.1535 </r>
       </set>
       <set comment="band 7">
        <r>  0.2501  0.1524  0.3419 </r>
       </set>
       <set comment="band 8">
        <r>  0.0055  0.4287  0.1992 </r>
       </set>
       <set comment="band 9">
        <r>  0.3002  0.2717  0.0912 </r>
       </set>
       <set comment="band 10">
        <r>  0.0000  0.0001  0.4631 </r>
       </set>
       <set comment="band 11">
        <r>  0.0632  0.0227  0.4441 </r>
       </set>
       <set comment="band 12">
        <r>  0.0025  0.0007  0.1007 </r>
       </set>
       <set comment="band 13">
        <r>  0.7389  0.0367  0.0153 </r>
       </set>
       <set comment="band 14">
        <r>  0.2798  0.1268  0.0573 </r>
       </set>
       <set comment="band 15">
        <r>  0.0010  0.9149  0.0053 </r>
       </set>
       <set comment="band 16">
        <r>  0.0000  0.9539  0.0006 </r>
       </set>
       <set comment="band 17">
        <r>  0.0071  0.9248  0.0028 </r>
       </set>
       <set comment="band 18">
        <r>  0.0031  0.2384  0.0893 </r>
       </set>
       <set comment="band 19">
        <r>  0.0000  0.0586  0.1297 </r>
       </set>
       <set comment="band 20">
        <r>  0.0524  0.0250  0.0533 </r>
       </set>
      </set>
      <set comment="kpoint 241">
       <set comment="band 1">
        <r>  0.0000  0.0170  0.7021 </r>
       </set>
       <set comment="band 2">
        <r>  0.0008  0.0305  0.6857 </r>
       </set>
       <set comment="band 3">
        <r>  0.0489  0.0848  0.6673 </r>
       </set>
       <set comment="band 4">
        <r>  0.0000  0.0987  0.7492 </r>
       </set>
       <set comment="band 5">
        <r>  0.0066  0.0708  0.8013 </r>
       </set>
       <set comment="band 6">
        <r>  0.0966  0.3303  0.2565 </r>
       </set>
       <set comment="band 7">
        <r>  0.1573  0.2898  0.2185 </r>
       </set>
       <set comment="band 8">
        <r>  0.0000  0.4184  0.2498 </r>
       </set>
       <set comment="band 9">
        <r>  0.3511  0.2723  0.0381 </r>
       </set>
       <set comment="band 10">
        <r>  0.0242  0.0090  0.4560 </r>
       </set>
       <set comment="band 11">
        <r>  0.0000  0.0004  0.5229 </r>
       </set>
       <set comment="band 12">
        <r>  0.0040  0.0013  0.0925 </r>
       </set>
       <set comment="band 13">
        <r>  0.7344  0.0398  0.0066 </r>
       </set>
       <set comment="band 14">
        <r>  0.2872  0.1341  0.0356 </r>
       </set>
       <set comment="band 15">
        <r>  0.0000  0.9418  0.0024 </r>
       </set>
       <set comment="band 16">
        <r>  0.0002  0.9518  0.0009 </r>
       </set>
       <set comment="band 17">
        <r>  0.0074  0.9252  0.0015 </r>
       </set>
       <set comment="band 18">
        <r>  0.0000  0.1794  0.1235 </r>
       </set>
       <set comment="band 19">
        <r>  0.0024  0.1550  0.1350 </r>
       </set>
       <set comment="band 20">
        <r>  0.0251  0.0830  0.0727 </r>
       </set>
      </set>
      <set comment="kpoint 242">
       <set comment="band 1">
        <r>  0.0000  0.0000  0.7193 </r>
       </set>
       <set comment="band 2">
        <r>  0.0187  0.0708  0.6154 </r>
       </set>
       <set comment="band 3">
        <r>  0.0000  0.1064  0.7165 </r>
       </set>
       <set comment="band 4">
        <r>  0.0000  0.1064  0.7165 </r>
       </set>
       <set comment="band 5">
        <r>  0.0000  0.0000  0.9129 </r>
       </set>
       <set comment="band 6">
        <r>  0.2583  0.2498  0.1406 </r>
       </set>
       <set comment="band 7">
        <r>  0.0000  0.4079  0.2690 </r>
       </set>
       <set comment="band 8">
        <r>  0.0000  0.4079  0.2691 </r>
       </set>
       <set comment="band 9">
        <r>  0.2400  0.1772  0.1893 </r>
       </set>
       <set comment="band 10">
        <r>  0.0000  0.0000  0.5771 </r>
       </set>
       <set comment="band 11">
        <r>  0.1969  0.0711  0.2080 </r>
       </set>
       <set comment="band 12">
        <r>  0.0000  0.0000  0.1007 </r>
       </set>
       <set comment="band 13">
        <r>  0.8823  0.0096  0.0105 </r>
       </set>
       <set comment="band 14">
        <r>  0.0000  0.2179  0.0657 </r>
       </set>
       <set comment="band 15">
        <r>  0.0000  0.2180  0.0657 </r>
       </set>
       <set comment="band 16">
        <r>  0.0028  0.9508  0.0008 </r>
       </set>
       <set comment="band 17">
        <r>  0.0000  0.9087  0.0043 </r>
       </set>
       <set comment="band 18">
        <r>  0.0000  0.9088  0.0043 </r>
       </set>
       <set comment="band 19">
        <r>  0.2156  0.0766  0.1236 </r>
       </set>
       <set comment="band 20">
        <r>  0.0000  0.0845  0.0066 </r>
       </set>
      </set>
      <set comment="kpoint 243">
       <set comment="band 1">
        <r>  0.0002  0.0024  0.7179 </r>
       </set>
       <set comment="band 2">
        <r>  0.0066  0.0454  0.6611 </r>
       </set>
       <set comment="band 3">
        <r>  0.0000  0.0968  0.7353 </r>
       </set>
       <set comment="band 4">
        <r>  0.0208  0.1076  0.6874 </r>
       </set>
       <set comment="band 5">
        <r>  0.0000  0.0066  0.9164 </r>
       </set>
       <set comment="band 6">
        <r>  0.1935  0.3183  0.1161 </r>
       </set>
       <set comment="band 7">
        <r>  0.0324  0.3841  0.2564 </r>
       </set>
       <set comment="band 8">
        <r>  0.0000  0.4161  0.2398 </r>
       </set>
       <set comment="band 9">
        <r>  0.3371  0.2005  0.1240 </r>
       </set>
       <set comment="band 10">
        <r>  0.0487  0.0127  0.4671 </r>
       </set>
       <set comment="band 11">
        <r>  0.0675  0.0150  0.4489 </r>
       </set>
       <set comment="band 12">
        <r>  0.0000  0.0000  0.0751 </r>
       </set>
       <set comment="band 13">
        <r>  0.8742  0.0120  0.0078 </r>
       </set>
       <set comment="band 14">
        <r>  0.0423  0.4661  0.0476 </r>
       </set>
       <set comment="band 15">
        <r>  0.0000  0.6923  0.0224 </r>
       </set>
       <set comment="band 16">
        <r>  0.0022  0.9499  0.0010 </r>
       </set>
       <set comment="band 17">
        <r>  0.0240  0.6500  0.0315 </r>
       </set>
       <set comment="band 18">
        <r>  0.0000  0.4562  0.0447 </r>
       </set>
       <set comment="band 19">
        <r>  0.1361  0.1265  0.0967 </r>
       </set>
       <set comment="band 20">
        <r>  0.0000  0.0590  0.0626 </r>
       </set>
      </set>
      <set comment="kpoint 244">
       <set comment="band 1">
        <r>  0.0010  0.0079  0.7117 </r>
       </set>
       <set comment="band 2">
        <r>  0.0008  0.0283  0.6885 </r>
       </set>
       <set comment="band 3">
        <r>  0.0000  0.0861  0.7529 </r>
       </set>
       <set comment="band 4">
        <r>  0.0456  0.1091  0.6488 </r>
       </set>
       <set comment="band 5">
        <r>  0.0000  0.0024  0.9411 </r>
       </set>
       <set comment="band 6">
        <r>  0.0796  0.4225  0.1057 </r>
       </set>
       <set comment="band 7">
        <r>  0.1239  0.2958  0.2727 </r>
       </set>
       <set comment="band 8">
        <r>  0.0000  0.4333  0.1931 </r>
       </set>
       <set comment="band 9">
        <r>  0.4113  0.2194  0.0542 </r>
       </set>
       <set comment="band 10">
        <r>  0.0138  0.0031  0.4868 </r>
       </set>
       <set comment="band 11">
        <r>  0.0253  0.0027  0.5332 </r>
       </set>
       <set comment="band 12">
        <r>  0.0000  0.0001  0.0638 </r>
       </set>
       <set comment="band 13">
        <r>  0.8611  0.0153  0.0061 </r>
       </set>
       <set comment="band 14">
        <r>  0.0693  0.5861  0.0361 </r>
       </set>
       <set comment="band 15">
        <r>  0.0000  0.9023  0.0036 </r>
       </set>
       <set comment="band 16">
        <r>  0.0004  0.9523  0.0007 </r>
       </set>
       <set comment="band 17">
        <r>  0.0729  0.5053  0.0459 </r>
       </set>
       <set comment="band 18">
        <r>  0.0000  0.2797  0.0505 </r>
       </set>
       <set comment="band 19">
        <r>  0.0348  0.2088  0.0829 </r>
       </set>
       <set comment="band 20">
        <r>  0.0000  0.0100  0.1277 </r>
       </set>
      </set>
      <set comment="kpoint 245">
       <set comment="band 1">
        <r>  0.0000  0.0042  0.7171 </r>
       </set>
       <set comment="band 2">
        <r>  0.0017  0.0263  0.6901 </r>
       </set>
       <set comment="band 3">
        <r>  0.0223  0.0966  0.7024 </r>
       </set>
       <set comment="band 4">
        <r>  0.0000  0.1000  0.7440 </r>
       </set>
       <set comment="band 5">
        <r>  0.0082  0.0226  0.8846 </r>
       </set>
       <set comment="band 6">
        <r>  0.1218  0.3671  0.1346 </r>
       </set>
       <set comment="band 7">
        <r>  0.0619  0.3726  0.2144 </r>
       </set>
       <set comment="band 8">
        <r>  0.0000  0.4226  0.2258 </r>
       </set>
       <set comment="band 9">
        <r>  0.4539  0.1902  0.0431 </r>
       </set>
       <set comment="band 10">
        <r>  0.0344  0.0036  0.4720 </r>
       </set>
       <set comment="band 11">
        <r>  0.0000  0.0004  0.5841 </r>
       </set>
       <set comment="band 12">
        <r>  0.0002  0.0002  0.0525 </r>
       </set>
       <set comment="band 13">
        <r>  0.8809  0.0115  0.0034 </r>
       </set>
       <set comment="band 14">
        <r>  0.0305  0.7287  0.0147 </r>
       </set>
       <set comment="band 15">
        <r>  0.0000  0.9259  0.0028 </r>
       </set>
       <set comment="band 16">
        <r>  0.0011  0.9500  0.0009 </r>
       </set>
       <set comment="band 17">
        <r>  0.0671  0.3981  0.0390 </r>
       </set>
       <set comment="band 18">
        <r>  0.0000  0.2345  0.0768 </r>
       </set>
       <set comment="band 19">
        <r>  0.0571  0.2120  0.0758 </r>
       </set>
       <set comment="band 20">
        <r>  0.0088  0.0166  0.1230 </r>
       </set>
      </set>
      <set comment="kpoint 246">
       <set comment="band 1">
        <r>  0.0002  0.0084  0.7126 </r>
       </set>
       <set comment="band 2">
        <r>  0.0000  0.0164  0.7037 </r>
       </set>
       <set comment="band 3">
        <r>  0.0265  0.0951  0.6982 </r>
       </set>
       <set comment="band 4">
        <r>  0.0056  0.0893  0.7593 </r>
       </set>
       <set comment="band 5">
        <r>  0.0000  0.0361  0.8787 </r>
       </set>
       <set comment="band 6">
        <r>  0.0000  0.4863  0.1053 </r>
       </set>
       <set comment="band 7">
        <r>  0.1555  0.2666  0.2654 </r>
       </set>
       <set comment="band 8">
        <r>  0.0189  0.4234  0.1837 </r>
       </set>
       <set comment="band 9">
        <r>  0.4906  0.1838  0.0137 </r>
       </set>
       <set comment="band 10">
        <r>  0.0000  0.0008  0.5419 </r>
       </set>
       <set comment="band 11">
        <r>  0.0052  0.0005  0.5648 </r>
       </set>
       <set comment="band 12">
        <r>  0.0004  0.0003  0.0455 </r>
       </set>
       <set comment="band 13">
        <r>  0.8780  0.0126  0.0016 </r>
       </set>
       <set comment="band 14">
        <r>  0.0377  0.7320  0.0119 </r>
       </set>
       <set comment="band 15">
        <r>  0.0003  0.9409  0.0014 </r>
       </set>
       <set comment="band 16">
        <r>  0.0000  0.9509  0.0007 </r>
       </set>
       <set comment="band 17">
        <r>  0.0822  0.3918  0.0318 </r>
       </set>
       <set comment="band 18">
        <r>  0.0030  0.2376  0.0746 </r>
       </set>
       <set comment="band 19">
        <r>  0.0000  0.2426  0.0822 </r>
       </set>
       <set comment="band 20">
        <r>  0.0000  0.0348  0.1265 </r>
       </set>
      </set>
      <set comment="kpoint 247">
       <set comment="band 1">
        <r>  0.0000  0.0000  0.7221 </r>
       </set>
       <set comment="band 2">
        <r>  0.0020  0.0250  0.6915 </r>
       </set>
       <set comment="band 3">
        <r>  0.0000  0.1005  0.7422 </r>
       </set>
       <set comment="band 4">
        <r>  0.0000  0.1005  0.7422 </r>
       </set>
       <set comment="band 5">
        <r>  0.0000  0.0000  0.9305 </r>
       </set>
       <set comment="band 6">
        <r>  0.1619  0.3779  0.0462 </r>
       </set>
       <set comment="band 7">
        <r>  0.0000  0.4235  0.2182 </r>
       </set>
       <set comment="band 8">
        <r>  0.0000  0.4235  0.2182 </r>
       </set>
       <set comment="band 9">
        <r>  0.5084  0.1478  0.0404 </r>
       </set>
       <set comment="band 10">
        <r>  0.0372  0.0015  0.4777 </r>
       </set>
       <set comment="band 11">
        <r>  0.0000  0.0000  0.6083 </r>
       </set>
       <set comment="band 12">
        <r>  0.0000  0.0000  0.0401 </r>
       </set>
       <set comment="band 13">
        <r>  0.9072  0.0051  0.0028 </r>
       </set>
       <set comment="band 14">
        <r>  0.0000  0.9137  0.0028 </r>
       </set>
       <set comment="band 15">
        <r>  0.0000  0.9136  0.0028 </r>
       </set>
       <set comment="band 16">
        <r>  0.0020  0.9478  0.0010 </r>
       </set>
       <set comment="band 17">
        <r>  0.0000  0.2581  0.0559 </r>
       </set>
       <set comment="band 18">
        <r>  0.0000  0.2582  0.0559 </r>
       </set>
       <set comment="band 19">
        <r>  0.1280  0.1683  0.0731 </r>
       </set>
       <set comment="band 20">
        <r>  0.0000  0.0612  0.0724 </r>
       </set>
      </set>
      <set comment="kpoint 248">
       <set comment="band 1">
        <r>  0.0000  0.0020  0.7207 </r>
       </set>
       <set comment="band 2">
        <r>  0.0003  0.0118  0.7094 </r>
       </set>
       <set comment="band 3">
        <r>  0.0000  0.0775  0.7858 </r>
       </set>
       <set comment="band 4">
        <r>  0.0117  0.0922  0.7451 </r>
       </set>
       <set comment="band 5">
        <r>  0.0000  0.0020  0.9402 </r>
       </set>
       <set comment="band 6">
        <r>  0.0701  0.4504  0.0504 </r>
       </set>
       <set comment="band 7">
        <r>  0.0404  0.4046  0.1833 </r>
       </set>
       <set comment="band 8">
        <r>  0.0000  0.4468  0.1641 </r>
       </set>
       <set comment="band 9">
        <r>  0.5817  0.1096  0.0088 </r>
       </set>
       <set comment="band 10">
        <r>  0.0048  0.0005  0.5613 </r>
       </set>
       <set comment="band 11">
        <r>  0.0009  0.0001  0.6059 </r>
       </set>
       <set comment="band 12">
        <r>  0.0000  0.0000  0.0238 </r>
       </set>
       <set comment="band 13">
        <r>  0.9112  0.0045  0.0008 </r>
       </set>
       <set comment="band 14">
        <r>  0.0024  0.9279  0.0015 </r>
       </set>
       <set comment="band 15">
        <r>  0.0001  0.9359  0.0008 </r>
       </set>
       <set comment="band 16">
        <r>  0.0005  0.9488  0.0006 </r>
       </set>
       <set comment="band 17">
        <r>  0.0549  0.2338  0.0445 </r>
       </set>
       <set comment="band 18">
        <r>  0.0000  0.2671  0.0379 </r>
       </set>
       <set comment="band 19">
        <r>  0.0207  0.2619  0.0430 </r>
       </set>
       <set comment="band 20">
        <r>  0.0000  0.0093  0.1640 </r>
       </set>
      </set>
      <set comment="kpoint 249">
       <set comment="band 1">
        <r>  0.0000  0.0041  0.7188 </r>
       </set>
       <set comment="band 2">
        <r>  0.0000  0.0041  0.7188 </r>
       </set>
       <set comment="band 3">
        <r>  0.0085  0.0784  0.7727 </r>
       </set>
       <set comment="band 4">
        <r>  0.0000  0.0354  0.8779 </r>
       </set>
       <set comment="band 5">
        <r>  0.0000  0.0354  0.8779 </r>
       </set>
       <set comment="band 6">
        <r>  0.0000  0.4917  0.0785 </r>
       </set>
       <set comment="band 7">
        <r>  0.0000  0.4917  0.0786 </r>
       </set>
       <set comment="band 8">
        <r>  0.0775  0.3763  0.1708 </r>
       </set>
       <set comment="band 9">
        <r>  0.6253  0.0759  0.0018 </r>
       </set>
       <set comment="band 10">
        <r>  0.0000  0.0005  0.6014 </r>
       </set>
       <set comment="band 11">
        <r>  0.0000  0.0005  0.6014 </r>
       </set>
       <set comment="band 12">
        <r>  0.0000  0.0000  0.0146 </r>
       </set>
       <set comment="band 13">
        <r>  0.9165  0.0032  0.0001 </r>
       </set>
       <set comment="band 14">
        <r>  0.0022  0.9294  0.0007 </r>
       </set>
       <set comment="band 15">
        <r>  0.0000  0.9465  0.0004 </r>
       </set>
       <set comment="band 16">
        <r>  0.0000  0.9465  0.0004 </r>
       </set>
       <set comment="band 17">
        <r>  0.0461  0.2519  0.0247 </r>
       </set>
       <set comment="band 18">
        <r>  0.0000  0.2784  0.0313 </r>
       </set>
       <set comment="band 19">
        <r>  0.0000  0.2784  0.0313 </r>
       </set>
       <set comment="band 20">
        <r>  0.0000  0.0139  0.1714 </r>
       </set>
      </set>
      <set comment="kpoint 250">
       <set comment="band 1">
        <r>  0.0000  0.0000  0.7238 </r>
       </set>
       <set comment="band 2">
        <r>  0.0000  0.0027  0.7208 </r>
       </set>
       <set comment="band 3">
        <r>  0.0000  0.0353  0.8776 </r>
       </set>
       <set comment="band 4">
        <r>  0.0000  0.0353  0.8775 </r>
       </set>
       <set comment="band 5">
        <r>  0.0000  0.0000  0.9440 </r>
       </set>
       <set comment="band 6">
        <r>  0.0290  0.5034  0.0054 </r>
       </set>
       <set comment="band 7">
        <r>  0.0000  0.4931  0.0700 </r>
       </set>
       <set comment="band 8">
        <r>  0.0000  0.4931  0.0700 </r>
       </set>
       <set comment="band 9">
        <r>  0.6850  0.0259  0.0005 </r>
       </set>
       <set comment="band 10">
        <r>  0.0004  0.0003  0.6114 </r>
       </set>
       <set comment="band 11">
        <r>  0.0000  0.0000  0.6247 </r>
       </set>
       <set comment="band 12">
        <r>  0.0000  0.0000  0.0047 </r>
       </set>
       <set comment="band 13">
        <r>  0.9247  0.0008  0.0001 </r>
       </set>
       <set comment="band 14">
        <r>  0.0000  0.9440  0.0001 </r>
       </set>
       <set comment="band 15">
        <r>  0.0000  0.9440  0.0001 </r>
       </set>
       <set comment="band 16">
        <r>  0.0004  0.9456  0.0002 </r>
       </set>
       <set comment="band 17">
        <r>  0.0000  0.2880  0.0119 </r>
       </set>
       <set comment="band 18">
        <r>  0.0000  0.2880  0.0119 </r>
       </set>
       <set comment="band 19">
        <r>  0.0210  0.2776  0.0117 </r>
       </set>
       <set comment="band 20">
        <r>  0.0000  0.0113  0.1906 </r>
       </set>
      </set>
     </set>
    </set>
   </array>
  </projected>
 </calculation>
 <structure name="finalpos" >
  <crystal>
   <varray name="basis" >
    <v>      -1.58260000       1.58260000       1.58260000 </v>
    <v>       1.58260000      -1.58260000       1.58260000 </v>
    <v>       1.58260000       1.58260000      -1.58260000 </v>
   </varray>
   <i name="volume">     15.85526392 </i>
   <varray name="rec_basis" >
    <v>       0.00000000       0.31593580       0.31593580 </v>
    <v>       0.31593580       0.00000000       0.31593580 </v>
    <v>       0.31593580       0.31593580       0.00000000 </v>
   </varray>
  </crystal>
  <varray name="positions" >
   <v>       0.00000000       0.00000000       0.00000000 </v>
  </varray>
 </structure>
</modeling>
