W bcc                                   
           1
    -1.582600    1.582600    1.582600
     1.582600   -1.582600    1.582600
     1.582600    1.582600   -1.582600
   W 
   1
Direct configuration=     1
   0.00000000  0.00000000  0.00000000
