   8   8   0   0
  0.2001288E+02  0.5430000E-09  0.5430000E-09  0.5430000E-09  0.5000000E-15
  1.000000000000000E-004
  CAR 
 Si gaussian                             
     12.62931698     -8.13056730  301      6.11604943      1.00000000
     -8.131  0.0000E+00  0.0000E+00
     -8.061  0.0000E+00  0.0000E+00
     -7.992  0.0000E+00  0.0000E+00
     -7.923  0.0000E+00  0.0000E+00
     -7.854  0.0000E+00  0.0000E+00
     -7.785  0.0000E+00  0.0000E+00
     -7.715  0.0000E+00  0.0000E+00
     -7.646  0.0000E+00  0.0000E+00
     -7.577  0.0000E+00  0.0000E+00
     -7.508  0.0000E+00  0.0000E+00
     -7.439  0.0000E+00  0.0000E+00
     -7.369  0.0000E+00  0.0000E+00
     -7.300  0.1604E-17  0.1110E-18
     -7.231  0.1508E-15  0.1055E-16
     -7.162  0.7289E-14  0.5149E-15
     -7.093  0.2624E-12  0.1867E-13
     -7.023  0.7533E-11  0.5399E-12
     -6.954  0.1726E-09  0.1248E-10
     -6.885  0.3158E-08  0.2310E-09
     -6.816  0.4622E-07  0.3429E-08
     -6.747  0.5418E-06  0.4092E-07
     -6.677  0.5094E-05  0.3934E-06
     -6.608  0.3849E-04  0.3057E-05
     -6.539  0.2343E-03  0.1927E-04
     -6.470  0.1153E-02  0.9905E-04
     -6.401  0.4606E-02  0.4178E-03
     -6.331  0.1504E-01  0.1458E-02
     -6.262  0.4047E-01  0.4259E-02
     -6.193  0.9090E-01  0.1055E-01
     -6.124  0.1730E+00  0.2252E-01
     -6.055  0.2841E+00  0.4218E-01
     -5.985  0.4115E+00  0.7066E-01
     -5.916  0.5392E+00  0.1080E+00
     -5.847  0.6571E+00  0.1534E+00
     -5.778  0.7631E+00  0.2063E+00
     -5.709  0.8578E+00  0.2656E+00
     -5.639  0.9395E+00  0.3306E+00
     -5.570  0.1010E+01  0.4005E+00
     -5.501  0.1080E+01  0.4752E+00
     -5.432  0.1157E+01  0.5553E+00
     -5.363  0.1237E+01  0.6409E+00
     -5.293  0.1301E+01  0.7309E+00
     -5.224  0.1343E+01  0.8238E+00
     -5.155  0.1383E+01  0.9196E+00
     -5.086  0.1450E+01  0.1020E+01
     -5.017  0.1544E+01  0.1127E+01
     -4.947  0.1630E+01  0.1240E+01
     -4.878  0.1684E+01  0.1356E+01
     -4.809  0.1711E+01  0.1474E+01
     -4.740  0.1740E+01  0.1595E+01
     -4.671  0.1788E+01  0.1719E+01
     -4.601  0.1864E+01  0.1848E+01
     -4.532  0.1969E+01  0.1984E+01
     -4.463  0.2089E+01  0.2128E+01
     -4.394  0.2186E+01  0.2280E+01
     -4.325  0.2229E+01  0.2434E+01
     -4.255  0.2229E+01  0.2588E+01
     -4.186  0.2244E+01  0.2743E+01
     -4.117  0.2340E+01  0.2905E+01
     -4.048  0.2533E+01  0.3081E+01
     -3.979  0.2773E+01  0.3273E+01
     -3.909  0.2985E+01  0.3479E+01
     -3.840  0.3135E+01  0.3696E+01
     -3.771  0.3233E+01  0.3920E+01
     -3.702  0.3285E+01  0.4147E+01
     -3.633  0.3272E+01  0.4374E+01
     -3.563  0.3194E+01  0.4595E+01
     -3.494  0.3102E+01  0.4809E+01
     -3.425  0.3052E+01  0.5020E+01
     -3.356  0.3061E+01  0.5232E+01
     -3.287  0.3097E+01  0.5447E+01
     -3.217  0.3099E+01  0.5661E+01
     -3.148  0.3011E+01  0.5869E+01
     -3.079  0.2809E+01  0.6064E+01
     -3.010  0.2520E+01  0.6238E+01
     -2.941  0.2219E+01  0.6392E+01
     -2.871  0.2020E+01  0.6531E+01
     -2.802  0.2009E+01  0.6671E+01
     -2.733  0.2171E+01  0.6821E+01
     -2.664  0.2369E+01  0.6985E+01
     -2.595  0.2432E+01  0.7153E+01
     -2.525  0.2270E+01  0.7310E+01
     -2.456  0.1923E+01  0.7443E+01
     -2.387  0.1513E+01  0.7548E+01
     -2.318  0.1163E+01  0.7628E+01
     -2.249  0.9384E+00  0.7693E+01
     -2.179  0.8439E+00  0.7752E+01
     -2.110  0.8451E+00  0.7810E+01
     -2.041  0.8974E+00  0.7872E+01
     -1.972  0.9577E+00  0.7938E+01
     -1.903  0.9842E+00  0.8006E+01
     -1.833  0.9467E+00  0.8072E+01
     -1.764  0.8461E+00  0.8131E+01
     -1.695  0.7207E+00  0.8180E+01
     -1.626  0.6245E+00  0.8224E+01
     -1.557  0.6055E+00  0.8266E+01
     -1.487  0.7097E+00  0.8315E+01
     -1.418  0.9947E+00  0.8383E+01
     -1.349  0.1507E+01  0.8488E+01
     -1.280  0.2210E+01  0.8641E+01
     -1.211  0.2951E+01  0.8845E+01
     -1.141  0.3552E+01  0.9091E+01
     -1.072  0.3948E+01  0.9364E+01
     -1.003  0.4190E+01  0.9654E+01
     -0.934  0.4324E+01  0.9953E+01
     -0.865  0.4324E+01  0.1025E+02
     -0.795  0.4181E+01  0.1054E+02
     -0.726  0.3947E+01  0.1081E+02
     -0.657  0.3681E+01  0.1107E+02
     -0.588  0.3419E+01  0.1131E+02
     -0.519  0.3198E+01  0.1153E+02
     -0.449  0.3054E+01  0.1174E+02
     -0.380  0.2937E+01  0.1194E+02
     -0.311  0.2726E+01  0.1213E+02
     -0.242  0.2368E+01  0.1229E+02
     -0.173  0.1979E+01  0.1243E+02
     -0.103  0.1750E+01  0.1255E+02
     -0.034  0.1761E+01  0.1267E+02
      0.035  0.1901E+01  0.1281E+02
      0.104  0.1977E+01  0.1294E+02
      0.173  0.1887E+01  0.1307E+02
      0.243  0.1688E+01  0.1319E+02
      0.312  0.1529E+01  0.1330E+02
      0.381  0.1514E+01  0.1340E+02
      0.450  0.1621E+01  0.1351E+02
      0.519  0.1711E+01  0.1363E+02
      0.589  0.1646E+01  0.1375E+02
      0.658  0.1407E+01  0.1384E+02
      0.727  0.1114E+01  0.1392E+02
      0.796  0.9232E+00  0.1398E+02
      0.865  0.9092E+00  0.1405E+02
      0.935  0.1041E+01  0.1412E+02
      1.004  0.1217E+01  0.1420E+02
      1.073  0.1317E+01  0.1429E+02
      1.142  0.1282E+01  0.1438E+02
      1.211  0.1160E+01  0.1446E+02
      1.281  0.1077E+01  0.1454E+02
      1.350  0.1155E+01  0.1462E+02
      1.419  0.1471E+01  0.1472E+02
      1.488  0.2031E+01  0.1486E+02
      1.557  0.2747E+01  0.1505E+02
      1.627  0.3437E+01  0.1529E+02
      1.696  0.3918E+01  0.1556E+02
      1.765  0.4132E+01  0.1584E+02
      1.834  0.4165E+01  0.1613E+02
      1.903  0.4161E+01  0.1642E+02
      1.973  0.4214E+01  0.1671E+02
      2.042  0.4328E+01  0.1701E+02
      2.111  0.4416E+01  0.1732E+02
      2.180  0.4384E+01  0.1762E+02
      2.249  0.4237E+01  0.1791E+02
      2.319  0.4092E+01  0.1820E+02
      2.388  0.4052E+01  0.1848E+02
      2.457  0.4116E+01  0.1876E+02
      2.526  0.4224E+01  0.1905E+02
      2.595  0.4357E+01  0.1936E+02
      2.665  0.4537E+01  0.1967E+02
      2.734  0.4761E+01  0.2000E+02
      2.803  0.4995E+01  0.2035E+02
      2.872  0.5211E+01  0.2071E+02
      2.941  0.5405E+01  0.2108E+02
      3.011  0.5579E+01  0.2147E+02
      3.080  0.5708E+01  0.2186E+02
      3.149  0.5772E+01  0.2226E+02
      3.218  0.5804E+01  0.2266E+02
      3.287  0.5850E+01  0.2307E+02
      3.357  0.5884E+01  0.2347E+02
      3.426  0.5818E+01  0.2388E+02
      3.495  0.5645E+01  0.2427E+02
      3.564  0.5483E+01  0.2465E+02
      3.633  0.5429E+01  0.2502E+02
      3.703  0.5423E+01  0.2540E+02
      3.772  0.5337E+01  0.2577E+02
      3.841  0.5161E+01  0.2612E+02
      3.910  0.5035E+01  0.2647E+02
      3.979  0.5068E+01  0.2682E+02
      4.049  0.5192E+01  0.2718E+02
      4.118  0.5224E+01  0.2754E+02
      4.187  0.5051E+01  0.2789E+02
      4.256  0.4740E+01  0.2822E+02
      4.325  0.4476E+01  0.2853E+02
      4.395  0.4409E+01  0.2884E+02
      4.464  0.4515E+01  0.2915E+02
      4.533  0.4604E+01  0.2947E+02
      4.602  0.4460E+01  0.2978E+02
      4.671  0.4028E+01  0.3005E+02
      4.741  0.3463E+01  0.3029E+02
      4.810  0.2986E+01  0.3050E+02
      4.879  0.2704E+01  0.3069E+02
      4.948  0.2552E+01  0.3086E+02
      5.017  0.2399E+01  0.3103E+02
      5.087  0.2174E+01  0.3118E+02
      5.156  0.1905E+01  0.3131E+02
      5.225  0.1656E+01  0.3143E+02
      5.294  0.1463E+01  0.3153E+02
      5.363  0.1312E+01  0.3162E+02
      5.433  0.1181E+01  0.3170E+02
      5.502  0.1056E+01  0.3177E+02
      5.571  0.9253E+00  0.3184E+02
      5.640  0.7718E+00  0.3189E+02
      5.709  0.5954E+00  0.3193E+02
      5.779  0.4176E+00  0.3196E+02
      5.848  0.2649E+00  0.3198E+02
      5.917  0.1516E+00  0.3199E+02
      5.986  0.7761E-01  0.3200E+02
      6.055  0.3591E-01  0.3200E+02
      6.125  0.1853E-01  0.3200E+02
      6.194  0.2044E-01  0.3200E+02
      6.263  0.4159E-01  0.3200E+02
      6.332  0.8722E-01  0.3201E+02
      6.401  0.1678E+00  0.3202E+02
      6.471  0.2984E+00  0.3204E+02
      6.540  0.4897E+00  0.3208E+02
      6.609  0.7291E+00  0.3213E+02
      6.678  0.9755E+00  0.3219E+02
      6.747  0.1187E+01  0.3228E+02
      6.817  0.1356E+01  0.3237E+02
      6.886  0.1500E+01  0.3247E+02
      6.955  0.1625E+01  0.3259E+02
      7.024  0.1724E+01  0.3271E+02
      7.093  0.1820E+01  0.3283E+02
      7.163  0.1974E+01  0.3297E+02
      7.232  0.2222E+01  0.3312E+02
      7.301  0.2504E+01  0.3330E+02
      7.370  0.2721E+01  0.3348E+02
      7.439  0.2854E+01  0.3368E+02
      7.509  0.2998E+01  0.3389E+02
      7.578  0.3251E+01  0.3411E+02
      7.647  0.3597E+01  0.3436E+02
      7.716  0.3931E+01  0.3463E+02
      7.785  0.4191E+01  0.3492E+02
      7.855  0.4414E+01  0.3523E+02
      7.924  0.4668E+01  0.3555E+02
      7.993  0.4965E+01  0.3590E+02
      8.062  0.5279E+01  0.3626E+02
      8.131  0.5570E+01  0.3665E+02
      8.201  0.5756E+01  0.3705E+02
      8.270  0.5716E+01  0.3744E+02
      8.339  0.5411E+01  0.3782E+02
      8.408  0.4972E+01  0.3816E+02
      8.477  0.4600E+01  0.3848E+02
      8.547  0.4367E+01  0.3878E+02
      8.616  0.4163E+01  0.3907E+02
      8.685  0.3834E+01  0.3933E+02
      8.754  0.3363E+01  0.3957E+02
      8.823  0.2915E+01  0.3977E+02
      8.893  0.2721E+01  0.3996E+02
      8.962  0.2891E+01  0.4016E+02
      9.031  0.3325E+01  0.4039E+02
      9.100  0.3777E+01  0.4065E+02
      9.169  0.3976E+01  0.4092E+02
      9.239  0.3762E+01  0.4118E+02
      9.308  0.3178E+01  0.4140E+02
      9.377  0.2430E+01  0.4157E+02
      9.446  0.1745E+01  0.4169E+02
      9.515  0.1229E+01  0.4178E+02
      9.585  0.8717E+00  0.4184E+02
      9.654  0.6293E+00  0.4188E+02
      9.723  0.4655E+00  0.4191E+02
      9.792  0.3487E+00  0.4194E+02
      9.861  0.2517E+00  0.4196E+02
      9.931  0.1652E+00  0.4197E+02
     10.000  0.9709E-01  0.4197E+02
     10.069  0.5499E-01  0.4198E+02
     10.138  0.3600E-01  0.4198E+02
     10.207  0.3139E-01  0.4198E+02
     10.277  0.3374E-01  0.4198E+02
     10.346  0.3791E-01  0.4199E+02
     10.415  0.3987E-01  0.4199E+02
     10.484  0.3780E-01  0.4199E+02
     10.553  0.3290E-01  0.4199E+02
     10.623  0.2718E-01  0.4200E+02
     10.692  0.2123E-01  0.4200E+02
     10.761  0.1494E-01  0.4200E+02
     10.830  0.8956E-02  0.4200E+02
     10.899  0.4403E-02  0.4200E+02
     10.969  0.1740E-02  0.4200E+02
     11.038  0.5475E-03  0.4200E+02
     11.107  0.1366E-03  0.4200E+02
     11.176  0.2698E-04  0.4200E+02
     11.245  0.4213E-05  0.4200E+02
     11.315  0.5199E-06  0.4200E+02
     11.384  0.5070E-07  0.4200E+02
     11.453  0.3905E-08  0.4200E+02
     11.522  0.2376E-09  0.4200E+02
     11.591  0.1141E-10  0.4200E+02
     11.661  0.4328E-12  0.4200E+02
     11.730  0.1296E-13  0.4200E+02
     11.799  0.3080E-15  0.4200E+02
     11.868  0.0000E+00  0.4200E+02
     11.937  0.0000E+00  0.4200E+02
     12.007  0.0000E+00  0.4200E+02
     12.076  0.0000E+00  0.4200E+02
     12.145  0.0000E+00  0.4200E+02
     12.214  0.0000E+00  0.4200E+02
     12.283  0.0000E+00  0.4200E+02
     12.353  0.0000E+00  0.4200E+02
     12.422  0.0000E+00  0.4200E+02
     12.491  0.0000E+00  0.4200E+02
     12.560  0.0000E+00  0.4200E+02
     12.629  0.0000E+00  0.4200E+02
