 vasp.5.4.4.18Apr17-6-g9f103f2a35 (build May 20 2018 16:52:39) complex          
  
 executed on             LinuxIFC date 2022.11.04  18:26:48
 running on    1 total cores
 distrk:  each k-point on    1 cores,    1 groups
 distr:  one band on NCORES_PER_BAND=   1 cores,    1 groups


--------------------------------------------------------------------------------------------------------


 INCAR:
 POTCAR:   PAW_PBE Si 05Jan2001                   
 POTCAR:   PAW_PBE Si 05Jan2001                   
   VRHFIN =Si: s2p2                                                             
   LEXCH  = PE                                                                  
   EATOM  =   103.0669 eV,    7.5752 Ry                                         
                                                                                
   TITEL  = PAW_PBE Si 05Jan2001                                                
   LULTRA =        F    use ultrasoft PP ?                                      
   IUNSCR =        1    unscreen: 0-lin 1-nonlin 2-no                           
   RPACOR =    1.500    partial core radius                                     
   POMASS =   28.085; ZVAL   =    4.000    mass and valenz                      
   RCORE  =    1.900    outmost cutoff radius                                   
   RWIGS  =    2.480; RWIGS  =    1.312    wigner-seitz radius (au A)           
   ENMAX  =  245.345; ENMIN  =  184.009 eV                                      
   ICORE  =        2    local potential                                         
   LCOR   =        T    correct aug charges                                     
   LPAW   =        T    paw PP                                                  
   EAUG   =  322.069                                                            
   DEXC   =    -.007                                                            
   RMAX   =    2.944    core radius for proj-oper                               
   RAUG   =    1.300    factor for augmentation sphere                          
   RDEP   =    1.993    radius for radial grids                                 
   QCUT   =   -4.246; QGAM   =    8.493    optimization parameters              
                                                                                
   Description                                                                  
     l     E      TYP  RCUT    TYP  RCUT                                        
     0   .000     23  1.900                                                     
     0   .000     23  1.900                                                     
     1   .000     23  1.900                                                     
     1   .000     23  1.900                                                     
     2   .000      7  1.900                                                     
  local pseudopotential read in
  partial core-charges read in
  atomic valenz-charges read in
  non local Contribution for L=           0  read in
    real space projection operators read in
  non local Contribution for L=           0  read in
    real space projection operators read in
  non local Contribution for L=           1  read in
    real space projection operators read in
  non local Contribution for L=           1  read in
    real space projection operators read in
    PAW grid and wavefunctions read in
 
   number of l-projection  operators is LMAX  =           4
   number of lm-projection operators is LMMAX =           8
 
 PAW_PBE Si 05Jan2001                   :
 energy of atom  1       EATOM= -103.0669
 kinetic energy error for atom=    0.0021 (will be added to EATOM!!)
 
 
 POSCAR: sic Si                                  
  positions in direct lattice
  No initial velocities read in
 exchange correlation table for  LEXCH =        8
   RHO(1)=    0.500       N(1)  =     2000
   RHO(2)=  100.500       N(2)  =     4000
 


--------------------------------------------------------------------------------------------------------


 ion  position               nearest neighbor table
   1  0.000  0.000  0.000-   5 2.35   6 2.35   7 2.35   8 2.35
   2  0.500  0.500  0.000-   5 2.35   6 2.35   7 2.35   8 2.35
   3  0.000  0.500  0.500-   5 2.35   6 2.35   7 2.35   8 2.35
   4  0.500  0.000  0.500-   5 2.35   6 2.35   7 2.35   8 2.35
   5  0.250  0.250  0.250-   1 2.35   2 2.35   3 2.35   4 2.35
   6  0.750  0.750  0.250-   1 2.35   2 2.35   3 2.35   4 2.35
   7  0.250  0.750  0.750-   1 2.35   2 2.35   3 2.35   4 2.35
   8  0.750  0.250  0.750-   1 2.35   2 2.35   3 2.35   4 2.35
 
  LATTYP: Found a simple cubic cell.
 ALAT       =     5.4300000000
  
  Lattice vectors:
  
 A1 = (   5.4300000000,   0.0000000000,   0.0000000000)
 A2 = (   0.0000000000,   5.4300000000,   0.0000000000)
 A3 = (   0.0000000000,   0.0000000000,   5.4300000000)


Analysis of symmetry for initial positions (statically):
=====================================================================
 Subroutine PRICEL returns following result:
 
  LATTYP: Found a face centered cubic cell.
 ALAT       =     5.4300000000
  
  Lattice vectors:
  
 A1 = (   2.7150000000,   2.7150000000,   0.0000000000)
 A2 = (   2.7150000000,   0.0000000000,  -2.7150000000)
 A3 = (   0.0000000000,   2.7150000000,  -2.7150000000)
 
   4 primitive cells build up your supercell.
 

 Routine SETGRP: Setting up the symmetry group for a 
 simple cubic supercell.


 Subroutine GETGRP returns: Found 48 space group operations
 (whereof 24 operations were pure point group operations)
 out of a pool of 48 trial point group operations.


The static configuration has the point symmetry T_d .
 The point group associated with its full space group is O_h .


Analysis of symmetry for dynamics (positions and initial velocities):
=====================================================================
 Subroutine PRICEL returns following result:
 
  LATTYP: Found a face centered cubic cell.
 ALAT       =     5.4300000000
  
  Lattice vectors:
  
 A1 = (   2.7150000000,   2.7150000000,   0.0000000000)
 A2 = (   2.7150000000,   0.0000000000,  -2.7150000000)
 A3 = (   0.0000000000,   2.7150000000,  -2.7150000000)
 
   4 primitive cells build up your supercell.
 

 Routine SETGRP: Setting up the symmetry group for a 
 simple cubic supercell.


 Subroutine GETGRP returns: Found 48 space group operations
 (whereof 24 operations were pure point group operations)
 out of a pool of 48 trial point group operations.


The dynamic configuration has the point symmetry T_d .
 The point group associated with its full space group is O_h .


 Subroutine INISYM returns: Found 48 space group operations
 (whereof 24 operations are pure point group operations),
 and found     4 'primitive' translations

 
 
 KPOINTS: 10*10*10                                

Automatic generation of k-mesh.
Space group operators:
 irot       det(A)        alpha          n_x          n_y          n_z        tau_x        tau_y        tau_z
    1     1.000000     0.000001     1.000000     0.000000     0.000000     0.000000     0.000000     0.000000
    2     1.000000   120.000000    -0.577350    -0.577350    -0.577350     0.000000     0.000000     0.000000
    3     1.000000   120.000000     0.577350     0.577350     0.577350     0.000000     0.000000     0.000000
    4    -1.000000    90.000000     0.000000     0.000000    -1.000000     0.000000     0.000000     0.000000
    5    -1.000000   180.000000     0.000000     0.707107     0.707107     0.000000     0.000000     0.000000
    6    -1.000000    90.000000     0.000000     1.000000     0.000000     0.000000     0.000000     0.000000
    7     1.000000   180.000000     0.000000     0.000000     1.000000     0.000000     0.000000     0.000000
    8     1.000000   120.000000    -0.577350     0.577350     0.577350     0.000000     0.000000     0.000000
    9     1.000000   120.000000    -0.577350     0.577350    -0.577350     0.000000     0.000000     0.000000
   10    -1.000000    90.000000     0.000000     0.000000     1.000000     0.000000     0.000000     0.000000
   11    -1.000000    90.000000    -1.000000     0.000000     0.000000     0.000000     0.000000     0.000000
   12    -1.000000   180.000000     0.707107     0.000000     0.707107     0.000000     0.000000     0.000000
   13     1.000000   120.000000     0.577350    -0.577350     0.577350     0.000000     0.000000     0.000000
   14     1.000000   120.000000    -0.577350    -0.577350     0.577350     0.000000     0.000000     0.000000
   15     1.000000   180.000000     1.000000     0.000000     0.000000     0.000000     0.000000     0.000000
   16    -1.000000    90.000000     0.000000    -1.000000     0.000000     0.000000     0.000000     0.000000
   17    -1.000000   180.000000     0.707107     0.707107     0.000000     0.000000     0.000000     0.000000
   18    -1.000000    90.000000     1.000000     0.000000     0.000000     0.000000     0.000000     0.000000
   19     1.000000   120.000000     0.577350    -0.577350    -0.577350     0.000000     0.000000     0.000000
   20     1.000000   180.000000     0.000000     1.000000     0.000000     0.000000     0.000000     0.000000
   21     1.000000   120.000000     0.577350     0.577350    -0.577350     0.000000     0.000000     0.000000
   22    -1.000000   180.000000     0.000000    -0.707107     0.707107     0.000000     0.000000     0.000000
   23    -1.000000   180.000000     0.707107    -0.707107     0.000000     0.000000     0.000000     0.000000
   24    -1.000000   180.000000     0.707107     0.000000    -0.707107     0.000000     0.000000     0.000000
   25    -1.000000     0.000001     1.000000     0.000000     0.000000     0.750000     0.750000    -0.750000
   26    -1.000000   120.000000    -0.577350    -0.577350    -0.577350     0.750000     0.750000    -0.750000
   27    -1.000000   120.000000     0.577350     0.577350     0.577350     0.750000     0.750000    -0.750000
   28     1.000000    90.000000     0.000000     0.000000    -1.000000     0.750000     0.750000    -0.750000
   29     1.000000   180.000000     0.000000     0.707107     0.707107     0.750000     0.750000    -0.750000
   30     1.000000    90.000000     0.000000     1.000000     0.000000     0.750000     0.750000    -0.750000
   31    -1.000000   180.000000     0.000000     0.000000     1.000000     0.750000     0.750000    -0.750000
   32    -1.000000   120.000000    -0.577350     0.577350     0.577350     0.750000     0.750000    -0.750000
   33    -1.000000   120.000000    -0.577350     0.577350    -0.577350     0.750000     0.750000    -0.750000
   34     1.000000    90.000000     0.000000     0.000000     1.000000     0.750000     0.750000    -0.750000
   35     1.000000    90.000000    -1.000000     0.000000     0.000000     0.750000     0.750000    -0.750000
   36     1.000000   180.000000     0.707107     0.000000     0.707107     0.750000     0.750000    -0.750000
   37    -1.000000   120.000000     0.577350    -0.577350     0.577350     0.750000     0.750000    -0.750000
   38    -1.000000   120.000000    -0.577350    -0.577350     0.577350     0.750000     0.750000    -0.750000
   39    -1.000000   180.000000     1.000000     0.000000     0.000000     0.750000     0.750000    -0.750000
   40     1.000000    90.000000     0.000000    -1.000000     0.000000     0.750000     0.750000    -0.750000
   41     1.000000   180.000000     0.707107     0.707107     0.000000     0.750000     0.750000    -0.750000
   42     1.000000    90.000000     1.000000     0.000000     0.000000     0.750000     0.750000    -0.750000
   43    -1.000000   120.000000     0.577350    -0.577350    -0.577350     0.750000     0.750000    -0.750000
   44    -1.000000   180.000000     0.000000     1.000000     0.000000     0.750000     0.750000    -0.750000
   45    -1.000000   120.000000     0.577350     0.577350    -0.577350     0.750000     0.750000    -0.750000
   46     1.000000   180.000000     0.000000    -0.707107     0.707107     0.750000     0.750000    -0.750000
   47     1.000000   180.000000     0.707107    -0.707107     0.000000     0.750000     0.750000    -0.750000
   48     1.000000   180.000000     0.707107     0.000000    -0.707107     0.750000     0.750000    -0.750000
 
 Subroutine IBZKPT returns following result:
 ===========================================
 
 Found     56 irreducible k-points:
 
 Following reciprocal coordinates:
            Coordinates               Weight
  0.000000  0.000000  0.000000      1.000000
  0.100000  0.000000  0.000000      6.000000
  0.200000  0.000000  0.000000      6.000000
  0.300000  0.000000  0.000000      6.000000
  0.400000  0.000000  0.000000      6.000000
  0.500000  0.000000  0.000000      3.000000
  0.100000  0.100000  0.000000     12.000000
  0.200000  0.100000  0.000000     24.000000
  0.300000  0.100000  0.000000     24.000000
  0.400000  0.100000  0.000000     24.000000
  0.500000  0.100000  0.000000     12.000000
  0.200000  0.200000  0.000000     12.000000
  0.300000  0.200000  0.000000     24.000000
  0.400000  0.200000  0.000000     24.000000
  0.500000  0.200000  0.000000     12.000000
  0.300000  0.300000  0.000000     12.000000
  0.400000  0.300000  0.000000     24.000000
  0.500000  0.300000  0.000000     12.000000
  0.400000  0.400000  0.000000     12.000000
  0.500000  0.400000  0.000000     12.000000
  0.500000  0.500000  0.000000      3.000000
  0.100000  0.100000  0.100000      8.000000
  0.200000  0.100000  0.100000     24.000000
  0.300000  0.100000  0.100000     24.000000
  0.400000  0.100000  0.100000     24.000000
  0.500000  0.100000  0.100000     12.000000
  0.200000  0.200000  0.100000     24.000000
  0.300000  0.200000  0.100000     48.000000
  0.400000  0.200000  0.100000     48.000000
  0.500000  0.200000  0.100000     24.000000
  0.300000  0.300000  0.100000     24.000000
  0.400000  0.300000  0.100000     48.000000
  0.500000  0.300000  0.100000     24.000000
  0.400000  0.400000  0.100000     24.000000
  0.500000  0.400000  0.100000     24.000000
  0.500000  0.500000  0.100000      6.000000
  0.200000  0.200000  0.200000      8.000000
  0.300000  0.200000  0.200000     24.000000
  0.400000  0.200000  0.200000     24.000000
  0.500000  0.200000  0.200000     12.000000
  0.300000  0.300000  0.200000     24.000000
  0.400000  0.300000  0.200000     48.000000
  0.500000  0.300000  0.200000     24.000000
  0.400000  0.400000  0.200000     24.000000
  0.500000  0.400000  0.200000     24.000000
  0.500000  0.500000  0.200000      6.000000
  0.300000  0.300000  0.300000      8.000000
  0.400000  0.300000  0.300000     24.000000
  0.500000  0.300000  0.300000     12.000000
  0.400000  0.400000  0.300000     24.000000
  0.500000  0.400000  0.300000     24.000000
  0.500000  0.500000  0.300000      6.000000
  0.400000  0.400000  0.400000      8.000000
  0.500000  0.400000  0.400000     12.000000
  0.500000  0.500000  0.400000      6.000000
  0.500000  0.500000  0.500000      1.000000
 
 Following cartesian coordinates:
            Coordinates               Weight
  0.000000  0.000000  0.000000      1.000000
  0.100000  0.000000  0.000000      6.000000
  0.200000  0.000000  0.000000      6.000000
  0.300000  0.000000  0.000000      6.000000
  0.400000  0.000000  0.000000      6.000000
  0.500000  0.000000  0.000000      3.000000
  0.100000  0.100000  0.000000     12.000000
  0.200000  0.100000  0.000000     24.000000
  0.300000  0.100000  0.000000     24.000000
  0.400000  0.100000  0.000000     24.000000
  0.500000  0.100000  0.000000     12.000000
  0.200000  0.200000  0.000000     12.000000
  0.300000  0.200000  0.000000     24.000000
  0.400000  0.200000  0.000000     24.000000
  0.500000  0.200000  0.000000     12.000000
  0.300000  0.300000  0.000000     12.000000
  0.400000  0.300000  0.000000     24.000000
  0.500000  0.300000  0.000000     12.000000
  0.400000  0.400000  0.000000     12.000000
  0.500000  0.400000  0.000000     12.000000
  0.500000  0.500000  0.000000      3.000000
  0.100000  0.100000  0.100000      8.000000
  0.200000  0.100000  0.100000     24.000000
  0.300000  0.100000  0.100000     24.000000
  0.400000  0.100000  0.100000     24.000000
  0.500000  0.100000  0.100000     12.000000
  0.200000  0.200000  0.100000     24.000000
  0.300000  0.200000  0.100000     48.000000
  0.400000  0.200000  0.100000     48.000000
  0.500000  0.200000  0.100000     24.000000
  0.300000  0.300000  0.100000     24.000000
  0.400000  0.300000  0.100000     48.000000
  0.500000  0.300000  0.100000     24.000000
  0.400000  0.400000  0.100000     24.000000
  0.500000  0.400000  0.100000     24.000000
  0.500000  0.500000  0.100000      6.000000
  0.200000  0.200000  0.200000      8.000000
  0.300000  0.200000  0.200000     24.000000
  0.400000  0.200000  0.200000     24.000000
  0.500000  0.200000  0.200000     12.000000
  0.300000  0.300000  0.200000     24.000000
  0.400000  0.300000  0.200000     48.000000
  0.500000  0.300000  0.200000     24.000000
  0.400000  0.400000  0.200000     24.000000
  0.500000  0.400000  0.200000     24.000000
  0.500000  0.500000  0.200000      6.000000
  0.300000  0.300000  0.300000      8.000000
  0.400000  0.300000  0.300000     24.000000
  0.500000  0.300000  0.300000     12.000000
  0.400000  0.400000  0.300000     24.000000
  0.500000  0.400000  0.300000     24.000000
  0.500000  0.500000  0.300000      6.000000
  0.400000  0.400000  0.400000      8.000000
  0.500000  0.400000  0.400000     12.000000
  0.500000  0.500000  0.400000      6.000000
  0.500000  0.500000  0.500000      1.000000
 


--------------------------------------------------------------------------------------------------------




 Dimension of arrays:
   k-points           NKPTS =     56   k-points in BZ     NKDIM =     56   number of bands    NBANDS=     21
   number of dos      NEDOS =    301   number of ions     NIONS =      8
   non local maximal  LDIM  =      4   non local SUM 2l+1 LMDIM =      8
   total plane-waves  NPLWV =  13824
   max r-space proj   IRMAX =      1   max aug-charges    IRDMAX=   3086
   dimension x,y,z NGX =    24 NGY =   24 NGZ =   24
   dimension x,y,z NGXF=    48 NGYF=   48 NGZF=   48
   support grid    NGXF=    48 NGYF=   48 NGZF=   48
   ions per type =               8
   NGX,Y,Z   is equivalent  to a cutoff of   7.35,  7.35,  7.35 a.u.
   NGXF,Y,Z  is equivalent  to a cutoff of  14.70, 14.70, 14.70 a.u.

 SYSTEM =  Si gaussian                             
 POSCAR =  sic Si                                  

 Startparameter for this run:
   NWRITE =      2    write-flag & timer
   PREC   = normal    normal or accurate (medium, high low for compatibility)
   ISTART =      0    job   : 0-new  1-cont  2-samecut
   ICHARG =     11    charge: 1-file 2-atom 10-const
   ISPIN  =      1    spin polarized calculation?
   LNONCOLLINEAR =      F non collinear calculations
   LSORBIT =      F    spin-orbit coupling
   INIWAV =      1    electr: 0-lowe 1-rand  2-diag
   LASPH  =      F    aspherical Exc in radial PAW
   METAGGA=      F    non-selfconsistent MetaGGA calc.

 Electronic Relaxation 1
   ENCUT  =  300.0 eV  22.05 Ry    4.70 a.u.   7.67  7.67  7.67*2*pi/ulx,y,z
   ENINI  =  300.0     initial cutoff
   ENAUG  =  322.1 eV  augmentation charge cutoff
   NELM   =     60;   NELMIN=  2; NELMDL= -5     # of ELM steps 
   EDIFF  = 0.1E-06   stopping-criterion for ELM
   LREAL  =      F    real-space projection
   NLSPLINE    = F    spline interpolate recip. space projectors
   LCOMPAT=      F    compatible to vasp.4.4
   GGA_COMPAT  = T    GGA compatible to vasp.4.4-vasp.4.6
   LMAXPAW     = -100 max onsite density
   LMAXMIX     =    2 max onsite mixed and CHGCAR
   VOSKOWN=      0    Vosko Wilk Nusair interpolation
   ROPT   =    0.00000
 Ionic relaxation
   EDIFFG = 0.1E-05   stopping-criterion for IOM
   NSW    =      0    number of steps for IOM
   NBLOCK =      1;   KBLOCK =      1    inner block; outer block 
   IBRION =     -1    ionic relax: 0-MD 1-quasi-New 2-CG
   NFREE  =      0    steps in history (QN), initial steepest desc. (CG)
   ISIF   =      2    stress and relaxation
   IWAVPR =     10    prediction:  0-non 1-charg 2-wave 3-comb
   ISYM   =      2    0-nonsym 1-usesym 2-fastsym
   LCORR  =      T    Harris-Foulkes like correction to forces

   POTIM  = 0.5000    time-step for ionic-motion
   TEIN   =    0.0    initial temperature
   TEBEG  =    0.0;   TEEND  =   0.0 temperature during run
   SMASS  =  -3.00    Nose mass-parameter (am)
   estimated Nose-frequenzy (Omega)   =  0.10E-29 period in steps =****** mass=  -0.674E-27a.u.
   SCALEE = 1.0000    scale energy and forces
   NPACO  =    256;   APACO  = 16.0  distance and # of slots for P.C.
   PSTRESS=    0.0 pullay stress

  Mass of Ions in am
   POMASS =  28.09
  Ionic Valenz
   ZVAL   =   4.00
  Atomic Wigner-Seitz radii
   RWIGS  =  -1.00
  virtual crystal weights 
   VCA    =   1.00
   NELECT =      32.0000    total number of electrons
   NUPDOWN=      -1.0000    fix difference up-down

 DOS related values:
   EMIN   =  10.00;   EMAX   =-10.00  energy-range for DOS
   EFERMI =   0.00
   ISMEAR =     0;   SIGMA  =   0.20  broadening in eV -4-tet -1-fermi 0-gaus

 Electronic relaxation 2 (details)
   IALGO  =     38    algorithm
   LDIAG  =      T    sub-space diagonalisation (order eigenvalues)
   LSUBROT=      F    optimize rotation matrix (better conditioning)
   TURBO    =      0    0=normal 1=particle mesh
   IRESTART =      0    0=no restart 2=restart with 2 vectors
   NREBOOT  =      0    no. of reboots
   NMIN     =      0    reboot dimension
   EREF     =   0.00    reference energy to select bands
   IMIX   =      4    mixing-type and parameters
     AMIX     =   0.40;   BMIX     =  1.00
     AMIX_MAG =   1.60;   BMIX_MAG =  1.00
     AMIN     =   0.10
     WC   =   100.;   INIMIX=   1;  MIXPRE=   1;  MAXMIX= -45

 Intra band minimization:
   WEIMIN = 0.0000     energy-eigenvalue tresh-hold
   EBREAK =  0.12E-08  absolut break condition
   DEPER  =   0.30     relativ break condition  

   TIME   =   0.40     timestep for ELM

  volume/ion in A,a.u.               =      20.01       135.05
  Fermi-wavevector in a.u.,A,eV,Ry     =   0.957176  1.808800 12.465458  0.916185
  Thomas-Fermi vector in A             =   2.086170
 
 Write flags
   LWAVE        =      T    write WAVECAR
   LDOWNSAMPLE  =      F    k-point downsampling of WAVECAR
   LCHARG       =      F    write CHGCAR
   LVTOT        =      F    write LOCPOT, total local potential
   LVHAR        =      F    write LOCPOT, Hartree potential only
   LELF         =      F    write electronic localiz. function (ELF)
   LORBIT       =      0    0 simple, 1 ext, 2 COOP (PROOUT), +10 PAW based schemes


 Dipole corrections
   LMONO  =      F    monopole corrections only (constant potential shift)
   LDIPOL =      F    correct potential (dipole corrections)
   IDIPOL =      0    1-x, 2-y, 3-z, 4-all directions 
   EPSILON=  1.0000000 bulk dielectric constant

 Exchange correlation treatment:
   GGA     =    --    GGA type
   LEXCH   =     8    internal setting for exchange type
   VOSKOWN=      0    Vosko Wilk Nusair interpolation
   LHFCALC =     F    Hartree Fock is set to
   LHFONE  =     F    Hartree Fock one center treatment
   AEXX    =    0.0000 exact exchange contribution

 Linear response parameters
   LEPSILON=     F    determine dielectric tensor
   LRPA    =     F    only Hartree local field effects (RPA)
   LNABLA  =     F    use nabla operator in PAW spheres
   LVEL    =     F    velocity operator in full k-point grid
   LINTERFAST=   F  fast interpolation
   KINTER  =     0    interpolate to denser k-point grid
   CSHIFT  =0.1000    complex shift for real part using Kramers Kronig
   OMEGAMAX=  -1.0    maximum frequency
   DEG_THRESHOLD= 0.2000000E-02 threshold for treating states as degnerate
   RTIME   =   -0.100 relaxation time in fs
  (WPLASMAI=    0.000 imaginary part of plasma frequency in eV, 0.658/RTIME)
   DFIELD  = 0.0000000 0.0000000 0.0000000 field for delta impulse in time
 
 Orbital magnetization related:
   ORBITALMAG=     F  switch on orbital magnetization
   LCHIMAG   =     F  perturbation theory with respect to B field
   DQ        =  0.001000  dq finite difference perturbation B field
   LLRAUG    =     F  two centre corrections for induced B field



--------------------------------------------------------------------------------------------------------


 Static calculation
 charge density and potential remain constant during run
 non-spin polarized calculation
 Variant of blocked Davidson
 Davidson routine will perform the subspace rotation
 perform sub-space diagonalisation
    after iterative eigenvector-optimisation
 no mixing
 using additional bands            5
 reciprocal scheme for non local part
 use partial core corrections
 calculate Harris-corrections to forces 
   (improved forces if not selfconsistent)
 use gradient corrections 
 WARNING: stress and forces are not correct
  (second derivative of E(xc) not defined)
 use of overlap-Matrix (Vanderbilt PP)
 Gauss-broadening in eV      SIGMA  =   0.20


--------------------------------------------------------------------------------------------------------


  energy-cutoff  :      300.00
  volume of cell :      160.10
      direct lattice vectors                 reciprocal lattice vectors
     5.430000000  0.000000000  0.000000000     0.184162063  0.000000000  0.000000000
     0.000000000  5.430000000  0.000000000     0.000000000  0.184162063  0.000000000
     0.000000000  0.000000000  5.430000000     0.000000000  0.000000000  0.184162063

  length of vectors
     5.430000000  5.430000000  5.430000000     0.184162063  0.184162063  0.184162063


 
 k-points in units of 2pi/SCALE and weight: 10*10*10                                
   0.00000000  0.00000000  0.00000000       0.001
   0.10000000  0.00000000  0.00000000       0.006
   0.20000000  0.00000000  0.00000000       0.006
   0.30000000  0.00000000  0.00000000       0.006
   0.40000000  0.00000000  0.00000000       0.006
   0.50000000  0.00000000  0.00000000       0.003
   0.10000000  0.10000000  0.00000000       0.012
   0.20000000  0.10000000  0.00000000       0.024
   0.30000000  0.10000000  0.00000000       0.024
   0.40000000  0.10000000  0.00000000       0.024
   0.50000000  0.10000000  0.00000000       0.012
   0.20000000  0.20000000  0.00000000       0.012
   0.30000000  0.20000000  0.00000000       0.024
   0.40000000  0.20000000  0.00000000       0.024
   0.50000000  0.20000000  0.00000000       0.012
   0.30000000  0.30000000  0.00000000       0.012
   0.40000000  0.30000000  0.00000000       0.024
   0.50000000  0.30000000  0.00000000       0.012
   0.40000000  0.40000000  0.00000000       0.012
   0.50000000  0.40000000  0.00000000       0.012
   0.50000000  0.50000000  0.00000000       0.003
   0.10000000  0.10000000  0.10000000       0.008
   0.20000000  0.10000000  0.10000000       0.024
   0.30000000  0.10000000  0.10000000       0.024
   0.40000000  0.10000000  0.10000000       0.024
   0.50000000  0.10000000  0.10000000       0.012
   0.20000000  0.20000000  0.10000000       0.024
   0.30000000  0.20000000  0.10000000       0.048
   0.40000000  0.20000000  0.10000000       0.048
   0.50000000  0.20000000  0.10000000       0.024
   0.30000000  0.30000000  0.10000000       0.024
   0.40000000  0.30000000  0.10000000       0.048
   0.50000000  0.30000000  0.10000000       0.024
   0.40000000  0.40000000  0.10000000       0.024
   0.50000000  0.40000000  0.10000000       0.024
   0.50000000  0.50000000  0.10000000       0.006
   0.20000000  0.20000000  0.20000000       0.008
   0.30000000  0.20000000  0.20000000       0.024
   0.40000000  0.20000000  0.20000000       0.024
   0.50000000  0.20000000  0.20000000       0.012
   0.30000000  0.30000000  0.20000000       0.024
   0.40000000  0.30000000  0.20000000       0.048
   0.50000000  0.30000000  0.20000000       0.024
   0.40000000  0.40000000  0.20000000       0.024
   0.50000000  0.40000000  0.20000000       0.024
   0.50000000  0.50000000  0.20000000       0.006
   0.30000000  0.30000000  0.30000000       0.008
   0.40000000  0.30000000  0.30000000       0.024
   0.50000000  0.30000000  0.30000000       0.012
   0.40000000  0.40000000  0.30000000       0.024
   0.50000000  0.40000000  0.30000000       0.024
   0.50000000  0.50000000  0.30000000       0.006
   0.40000000  0.40000000  0.40000000       0.008
   0.50000000  0.40000000  0.40000000       0.012
   0.50000000  0.50000000  0.40000000       0.006
   0.50000000  0.50000000  0.50000000       0.001
 
 k-points in reciprocal lattice and weights: 10*10*10                                
   0.00000000  0.00000000  0.00000000       0.001
   0.10000000  0.00000000  0.00000000       0.006
   0.20000000  0.00000000  0.00000000       0.006
   0.30000000  0.00000000  0.00000000       0.006
   0.40000000  0.00000000  0.00000000       0.006
   0.50000000  0.00000000  0.00000000       0.003
   0.10000000  0.10000000  0.00000000       0.012
   0.20000000  0.10000000  0.00000000       0.024
   0.30000000  0.10000000  0.00000000       0.024
   0.40000000  0.10000000  0.00000000       0.024
   0.50000000  0.10000000  0.00000000       0.012
   0.20000000  0.20000000  0.00000000       0.012
   0.30000000  0.20000000  0.00000000       0.024
   0.40000000  0.20000000  0.00000000       0.024
   0.50000000  0.20000000  0.00000000       0.012
   0.30000000  0.30000000  0.00000000       0.012
   0.40000000  0.30000000  0.00000000       0.024
   0.50000000  0.30000000  0.00000000       0.012
   0.40000000  0.40000000  0.00000000       0.012
   0.50000000  0.40000000  0.00000000       0.012
   0.50000000  0.50000000  0.00000000       0.003
   0.10000000  0.10000000  0.10000000       0.008
   0.20000000  0.10000000  0.10000000       0.024
   0.30000000  0.10000000  0.10000000       0.024
   0.40000000  0.10000000  0.10000000       0.024
   0.50000000  0.10000000  0.10000000       0.012
   0.20000000  0.20000000  0.10000000       0.024
   0.30000000  0.20000000  0.10000000       0.048
   0.40000000  0.20000000  0.10000000       0.048
   0.50000000  0.20000000  0.10000000       0.024
   0.30000000  0.30000000  0.10000000       0.024
   0.40000000  0.30000000  0.10000000       0.048
   0.50000000  0.30000000  0.10000000       0.024
   0.40000000  0.40000000  0.10000000       0.024
   0.50000000  0.40000000  0.10000000       0.024
   0.50000000  0.50000000  0.10000000       0.006
   0.20000000  0.20000000  0.20000000       0.008
   0.30000000  0.20000000  0.20000000       0.024
   0.40000000  0.20000000  0.20000000       0.024
   0.50000000  0.20000000  0.20000000       0.012
   0.30000000  0.30000000  0.20000000       0.024
   0.40000000  0.30000000  0.20000000       0.048
   0.50000000  0.30000000  0.20000000       0.024
   0.40000000  0.40000000  0.20000000       0.024
   0.50000000  0.40000000  0.20000000       0.024
   0.50000000  0.50000000  0.20000000       0.006
   0.30000000  0.30000000  0.30000000       0.008
   0.40000000  0.30000000  0.30000000       0.024
   0.50000000  0.30000000  0.30000000       0.012
   0.40000000  0.40000000  0.30000000       0.024
   0.50000000  0.40000000  0.30000000       0.024
   0.50000000  0.50000000  0.30000000       0.006
   0.40000000  0.40000000  0.40000000       0.008
   0.50000000  0.40000000  0.40000000       0.012
   0.50000000  0.50000000  0.40000000       0.006
   0.50000000  0.50000000  0.50000000       0.001
 
 position of ions in fractional coordinates (direct lattice) 
   0.00000000  0.00000000  0.00000000
   0.50000000  0.50000000  0.00000000
   0.00000000  0.50000000  0.50000000
   0.50000000  0.00000000  0.50000000
   0.25000000  0.25000000  0.25000000
   0.75000000  0.75000000  0.25000000
   0.25000000  0.75000000  0.75000000
   0.75000000  0.25000000  0.75000000
 
 position of ions in cartesian coordinates  (Angst):
   0.00000000  0.00000000  0.00000000
   2.71500000  2.71500000  0.00000000
   0.00000000  2.71500000  2.71500000
   2.71500000  0.00000000  2.71500000
   1.35750000  1.35750000  1.35750000
   4.07250000  4.07250000  1.35750000
   1.35750000  4.07250000  4.07250000
   4.07250000  1.35750000  4.07250000
 


--------------------------------------------------------------------------------------------------------


 k-point  1 :   0.0000 0.0000 0.0000  plane waves:    1863
 k-point  2 :   0.1000 0.0000 0.0000  plane waves:    1887
 k-point  3 :   0.2000 0.0000 0.0000  plane waves:    1895
 k-point  4 :   0.3000 0.0000 0.0000  plane waves:    1907
 k-point  5 :   0.4000 0.0000 0.0000  plane waves:    1908
 k-point  6 :   0.5000 0.0000 0.0000  plane waves:    1888
 k-point  7 :   0.1000 0.1000 0.0000  plane waves:    1881
 k-point  8 :   0.2000 0.1000 0.0000  plane waves:    1882
 k-point  9 :   0.3000 0.1000 0.0000  plane waves:    1901
 k-point 10 :   0.4000 0.1000 0.0000  plane waves:    1893
 k-point 11 :   0.5000 0.1000 0.0000  plane waves:    1882
 k-point 12 :   0.2000 0.2000 0.0000  plane waves:    1893
 k-point 13 :   0.3000 0.2000 0.0000  plane waves:    1891
 k-point 14 :   0.4000 0.2000 0.0000  plane waves:    1895
 k-point 15 :   0.5000 0.2000 0.0000  plane waves:    1888
 k-point 16 :   0.3000 0.3000 0.0000  plane waves:    1887
 k-point 17 :   0.4000 0.3000 0.0000  plane waves:    1887
 k-point 18 :   0.5000 0.3000 0.0000  plane waves:    1892
 k-point 19 :   0.4000 0.4000 0.0000  plane waves:    1881
 k-point 20 :   0.5000 0.4000 0.0000  plane waves:    1896
 k-point 21 :   0.5000 0.5000 0.0000  plane waves:    1924
 k-point 22 :   0.1000 0.1000 0.1000  plane waves:    1887
 k-point 23 :   0.2000 0.1000 0.1000  plane waves:    1882
 k-point 24 :   0.3000 0.1000 0.1000  plane waves:    1886
 k-point 25 :   0.4000 0.1000 0.1000  plane waves:    1893
 k-point 26 :   0.5000 0.1000 0.1000  plane waves:    1900
 k-point 27 :   0.2000 0.2000 0.1000  plane waves:    1896
 k-point 28 :   0.3000 0.2000 0.1000  plane waves:    1895
 k-point 29 :   0.4000 0.2000 0.1000  plane waves:    1888
 k-point 30 :   0.5000 0.2000 0.1000  plane waves:    1896
 k-point 31 :   0.3000 0.3000 0.1000  plane waves:    1889
 k-point 32 :   0.4000 0.3000 0.1000  plane waves:    1882
 k-point 33 :   0.5000 0.3000 0.1000  plane waves:    1890
 k-point 34 :   0.4000 0.4000 0.1000  plane waves:    1895
 k-point 35 :   0.5000 0.4000 0.1000  plane waves:    1886
 k-point 36 :   0.5000 0.5000 0.1000  plane waves:    1884
 k-point 37 :   0.2000 0.2000 0.2000  plane waves:    1887
 k-point 38 :   0.3000 0.2000 0.2000  plane waves:    1890
 k-point 39 :   0.4000 0.2000 0.2000  plane waves:    1891
 k-point 40 :   0.5000 0.2000 0.2000  plane waves:    1900
 k-point 41 :   0.3000 0.3000 0.2000  plane waves:    1882
 k-point 42 :   0.4000 0.3000 0.2000  plane waves:    1884
 k-point 43 :   0.5000 0.3000 0.2000  plane waves:    1888
 k-point 44 :   0.4000 0.4000 0.2000  plane waves:    1900
 k-point 45 :   0.5000 0.4000 0.2000  plane waves:    1878
 k-point 46 :   0.5000 0.5000 0.2000  plane waves:    1884
 k-point 47 :   0.3000 0.3000 0.3000  plane waves:    1893
 k-point 48 :   0.4000 0.3000 0.3000  plane waves:    1883
 k-point 49 :   0.5000 0.3000 0.3000  plane waves:    1874
 k-point 50 :   0.4000 0.4000 0.3000  plane waves:    1878
 k-point 51 :   0.5000 0.4000 0.3000  plane waves:    1882
 k-point 52 :   0.5000 0.5000 0.3000  plane waves:    1880
 k-point 53 :   0.4000 0.4000 0.4000  plane waves:    1884
 k-point 54 :   0.5000 0.4000 0.4000  plane waves:    1886
 k-point 55 :   0.5000 0.5000 0.4000  plane waves:    1880
 k-point 56 :   0.5000 0.5000 0.5000  plane waves:    1904

 maximum and minimum number of plane-waves per node :      1924     1863

 maximum number of plane-waves:      1924
 maximum index in each direction: 
   IXMAX=    7   IYMAX=    7   IZMAX=    7
   IXMIN=   -8   IYMIN=   -8   IZMIN=   -8


 serial   3D FFT for wavefunctions
 parallel 3D FFT for charge:
    minimum data exchange during FFTs selected (reduces bandwidth)


 total amount of memory used by VASP MPI-rank0    91372. kBytes
=======================================================================

   base      :      30000. kBytes
   nonl-proj :       7141. kBytes
   fftplans  :       7512. kBytes
   grid      :       9289. kBytes
   one-center:         24. kBytes
   wavefun   :      37406. kBytes
 
     INWAV:  cpu time    0.0001: real time    0.0003
 initial charge density was supplied:
 number of electron      32.0000059 magnetization 
 keeping initial charge density in first step


--------------------------------------------------------------------------------------------------------


 Maximum index for augmentation-charges         2801 (set IRDMAX)


--------------------------------------------------------------------------------------------------------


 First call to EWALD:  gamma=   0.326
 Maximum number of real-space cells 3x 3x 3
 Maximum number of reciprocal cells 3x 3x 3

    FEWALD:  cpu time    0.0017: real time    0.0017


--------------------------------------- Iteration      1(   1)  ---------------------------------------


    POTLOK:  cpu time    0.0611: real time    0.0628
    SETDIJ:  cpu time    0.0071: real time    0.0071
     EDDAV:  cpu time    2.2253: real time    2.2329
       DOS:  cpu time    0.0051: real time    0.0051
    --------------------------------------------
      LOOP:  cpu time    2.2986: real time    2.3080

 eigenvalue-minimisations  :  2352
 total energy-change (2. order) : 0.4922677E+02  (-0.8780874E+03)
 number of electron      32.0000059 magnetization 
 augmentation part       32.0000059 magnetization 

 Free energy of the ion-electron system (eV)
  ---------------------------------------------------
  alpha Z        PSCENC =        13.45656811
  Ewald energy   TEWEN  =      -914.25413255
  -Hartree energ DENC   =       -59.65328608
  -exchange      EXHF   =         0.00000000
  -V(xc)+E(xc)   XCENC  =       -71.84024895
  PAW double counting   =       297.98569623     -158.14432760
  entropy T*S    EENTRO =        -0.04131155
  eigenvalues    EBANDS =       117.19906660
  atomic energy  EATOM  =       824.51874349
  Solvation  Ediel_sol  =         0.00000000
  ---------------------------------------------------
  free energy    TOTEN  =        49.22676770 eV

  energy without entropy =       49.26807925  energy(sigma->0) =       49.24742347


--------------------------------------------------------------------------------------------------------




--------------------------------------- Iteration      1(   2)  ---------------------------------------


     EDDAV:  cpu time    2.8590: real time    2.8694
       DOS:  cpu time    0.0055: real time    0.0055
    --------------------------------------------
      LOOP:  cpu time    2.8645: real time    2.8749

 eigenvalue-minimisations  :  3239
 total energy-change (2. order) :-0.8864776E+02  (-0.8396409E+02)
 number of electron      32.0000059 magnetization 
 augmentation part       32.0000059 magnetization 

 Free energy of the ion-electron system (eV)
  ---------------------------------------------------
  alpha Z        PSCENC =        13.45656811
  Ewald energy   TEWEN  =      -914.25413255
  -Hartree energ DENC   =       -59.65328608
  -exchange      EXHF   =         0.00000000
  -V(xc)+E(xc)   XCENC  =       -71.84024895
  PAW double counting   =       297.98569623     -158.14432760
  entropy T*S    EENTRO =        -0.00337097
  eigenvalues    EBANDS =        28.51336699
  atomic energy  EATOM  =       824.51874349
  Solvation  Ediel_sol  =         0.00000000
  ---------------------------------------------------
  free energy    TOTEN  =       -39.42099133 eV

  energy without entropy =      -39.41762036  energy(sigma->0) =      -39.41930585


--------------------------------------------------------------------------------------------------------




--------------------------------------- Iteration      1(   3)  ---------------------------------------


     EDDAV:  cpu time    2.7282: real time    2.7375
       DOS:  cpu time    0.0057: real time    0.0057
    --------------------------------------------
      LOOP:  cpu time    2.7339: real time    2.7433

 eigenvalue-minimisations  :  3030
 total energy-change (2. order) :-0.3859188E+01  (-0.3802399E+01)
 number of electron      32.0000059 magnetization 
 augmentation part       32.0000059 magnetization 

 Free energy of the ion-electron system (eV)
  ---------------------------------------------------
  alpha Z        PSCENC =        13.45656811
  Ewald energy   TEWEN  =      -914.25413255
  -Hartree energ DENC   =       -59.65328608
  -exchange      EXHF   =         0.00000000
  -V(xc)+E(xc)   XCENC  =       -71.84024895
  PAW double counting   =       297.98569623     -158.14432760
  entropy T*S    EENTRO =        -0.00034172
  eigenvalues    EBANDS =        24.65114938
  atomic energy  EATOM  =       824.51874349
  Solvation  Ediel_sol  =         0.00000000
  ---------------------------------------------------
  free energy    TOTEN  =       -43.28017969 eV

  energy without entropy =      -43.27983797  energy(sigma->0) =      -43.28000883


--------------------------------------------------------------------------------------------------------




--------------------------------------- Iteration      1(   4)  ---------------------------------------


     EDDAV:  cpu time    2.6504: real time    2.6593
       DOS:  cpu time    0.0057: real time    0.0057
    --------------------------------------------
      LOOP:  cpu time    2.6560: real time    2.6650

 eigenvalue-minimisations  :  2915
 total energy-change (2. order) :-0.7139068E-01  (-0.7112794E-01)
 number of electron      32.0000059 magnetization 
 augmentation part       32.0000059 magnetization 

 Free energy of the ion-electron system (eV)
  ---------------------------------------------------
  alpha Z        PSCENC =        13.45656811
  Ewald energy   TEWEN  =      -914.25413255
  -Hartree energ DENC   =       -59.65328608
  -exchange      EXHF   =         0.00000000
  -V(xc)+E(xc)   XCENC  =       -71.84024895
  PAW double counting   =       297.98569623     -158.14432760
  entropy T*S    EENTRO =        -0.00032221
  eigenvalues    EBANDS =        24.57973919
  atomic energy  EATOM  =       824.51874349
  Solvation  Ediel_sol  =         0.00000000
  ---------------------------------------------------
  free energy    TOTEN  =       -43.35157037 eV

  energy without entropy =      -43.35124816  energy(sigma->0) =      -43.35140927


--------------------------------------------------------------------------------------------------------




--------------------------------------- Iteration      1(   5)  ---------------------------------------


     EDDAV:  cpu time    2.6587: real time    2.6678
       DOS:  cpu time    0.0057: real time    0.0057
    --------------------------------------------
      LOOP:  cpu time    2.6644: real time    2.6735

 eigenvalue-minimisations  :  2932
 total energy-change (2. order) :-0.1650066E-02  (-0.1649168E-02)
 number of electron      32.0000059 magnetization 
 augmentation part       32.0000059 magnetization 

 Free energy of the ion-electron system (eV)
  ---------------------------------------------------
  alpha Z        PSCENC =        13.45656811
  Ewald energy   TEWEN  =      -914.25413255
  -Hartree energ DENC   =       -59.65328608
  -exchange      EXHF   =         0.00000000
  -V(xc)+E(xc)   XCENC  =       -71.84024895
  PAW double counting   =       297.98569623     -158.14432760
  entropy T*S    EENTRO =        -0.00032671
  eigenvalues    EBANDS =        24.57809362
  atomic energy  EATOM  =       824.51874349
  Solvation  Ediel_sol  =         0.00000000
  ---------------------------------------------------
  free energy    TOTEN  =       -43.35322044 eV

  energy without entropy =      -43.35289373  energy(sigma->0) =      -43.35305708


--------------------------------------------------------------------------------------------------------




--------------------------------------- Iteration      1(   6)  ---------------------------------------


     EDDAV:  cpu time    2.7574: real time    2.7669
       DOS:  cpu time    0.0057: real time    0.0058
    --------------------------------------------
      LOOP:  cpu time    2.7632: real time    2.7727

 eigenvalue-minimisations  :  3069
 total energy-change (2. order) :-0.7038885E-04  (-0.7038432E-04)
 number of electron      32.0000059 magnetization 
 augmentation part       32.0000059 magnetization 

 Free energy of the ion-electron system (eV)
  ---------------------------------------------------
  alpha Z        PSCENC =        13.45656811
  Ewald energy   TEWEN  =      -914.25413255
  -Hartree energ DENC   =       -59.65328608
  -exchange      EXHF   =         0.00000000
  -V(xc)+E(xc)   XCENC  =       -71.84024895
  PAW double counting   =       297.98569623     -158.14432760
  entropy T*S    EENTRO =        -0.00032689
  eigenvalues    EBANDS =        24.57802342
  atomic energy  EATOM  =       824.51874349
  Solvation  Ediel_sol  =         0.00000000
  ---------------------------------------------------
  free energy    TOTEN  =       -43.35329082 eV

  energy without entropy =      -43.35296393  energy(sigma->0) =      -43.35312738


--------------------------------------------------------------------------------------------------------




--------------------------------------- Iteration      1(   7)  ---------------------------------------


     EDDAV:  cpu time    2.6671: real time    2.6762
       DOS:  cpu time    0.0056: real time    0.0056
    --------------------------------------------
      LOOP:  cpu time    2.6727: real time    2.6819

 eigenvalue-minimisations  :  2950
 total energy-change (2. order) :-0.1588906E-05  (-0.1588494E-05)
 number of electron      32.0000059 magnetization 
 augmentation part       32.0000059 magnetization 

 Free energy of the ion-electron system (eV)
  ---------------------------------------------------
  alpha Z        PSCENC =        13.45656811
  Ewald energy   TEWEN  =      -914.25413255
  -Hartree energ DENC   =       -59.65328608
  -exchange      EXHF   =         0.00000000
  -V(xc)+E(xc)   XCENC  =       -71.84024895
  PAW double counting   =       297.98569623     -158.14432760
  entropy T*S    EENTRO =        -0.00032703
  eigenvalues    EBANDS =        24.57802197
  atomic energy  EATOM  =       824.51874349
  Solvation  Ediel_sol  =         0.00000000
  ---------------------------------------------------
  free energy    TOTEN  =       -43.35329241 eV

  energy without entropy =      -43.35296538  energy(sigma->0) =      -43.35312890


--------------------------------------------------------------------------------------------------------




--------------------------------------- Iteration      1(   8)  ---------------------------------------


     EDDAV:  cpu time    2.3580: real time    2.3661
       DOS:  cpu time    0.0057: real time    0.0057
    --------------------------------------------
      LOOP:  cpu time    2.3637: real time    2.3718

 eigenvalue-minimisations  :  2474
 total energy-change (2. order) :-0.7007543E-07  (-0.7065302E-07)
 number of electron      32.0000059 magnetization 
 augmentation part       32.0000059 magnetization 

 Free energy of the ion-electron system (eV)
  ---------------------------------------------------
  alpha Z        PSCENC =        13.45656811
  Ewald energy   TEWEN  =      -914.25413255
  -Hartree energ DENC   =       -59.65328608
  -exchange      EXHF   =         0.00000000
  -V(xc)+E(xc)   XCENC  =       -71.84024895
  PAW double counting   =       297.98569623     -158.14432760
  entropy T*S    EENTRO =        -0.00032704
  eigenvalues    EBANDS =        24.57802191
  atomic energy  EATOM  =       824.51874349
  Solvation  Ediel_sol  =         0.00000000
  ---------------------------------------------------
  free energy    TOTEN  =       -43.35329248 eV

  energy without entropy =      -43.35296544  energy(sigma->0) =      -43.35312896


--------------------------------------------------------------------------------------------------------




 average (electrostatic) potential at core
  the test charge radii are     0.9892
  (the norm of the test charge is              1.0000)
       1 -83.2457       2 -83.2457       3 -83.2457       4 -83.2457       5 -83.2457
       6 -83.2457       7 -83.2457       8 -83.2457
 
 
 
 E-fermi :   6.1160     XC(G=0):  -9.4110     alpha+bet :-11.9845


 k-point     1 :       0.0000    0.0000    0.0000
  band No.  band energies     occupation 
      1      -6.1306      2.00000
      2      -1.9846      2.00000
      3      -1.9846      2.00000
      4      -1.9846      2.00000
      5      -1.9846      2.00000
      6      -1.9846      2.00000
      7      -1.9846      2.00000
      8       2.9801      2.00000
      9       2.9801      2.00000
     10       2.9801      2.00000
     11       2.9801      2.00000
     12       2.9801      2.00000
     13       2.9801      2.00000
     14       5.8330      1.95462
     15       5.8330      1.95462
     16       5.8331      1.95462
     17       6.5442      0.00247
     18       6.5442      0.00247
     19       6.5442      0.00247
     20       6.5442      0.00247
     21       6.5442      0.00247

 k-point     2 :       0.1000    0.0000    0.0000
  band No.  band energies     occupation 
      1      -6.0868      2.00000
      2      -2.7311      2.00000
      3      -1.9702      2.00000
      4      -1.9702      2.00000
      5      -1.9702      2.00000
      6      -1.9702      2.00000
      7      -1.1859      2.00000
      8       2.8555      2.00000
      9       2.8555      2.00000
     10       2.8555      2.00000
     11       2.8555      2.00000
     12       3.0196      2.00000
     13       3.0196      2.00000
     14       5.5527      1.99993
     15       5.6561      1.99886
     16       5.6561      1.99886
     17       6.4240      0.02946
     18       6.7797      0.00000
     19       6.7797      0.00000
     20       6.7797      0.00000
     21       6.7807      0.00000

 k-point     3 :       0.2000    0.0000    0.0000
  band No.  band energies     occupation 
      1      -5.9557      2.00000
      2      -3.4170      2.00000
      3      -1.9314      2.00000
      4      -1.9314      2.00000
      5      -1.9314      2.00000
      6      -1.9314      2.00000
      7      -0.3449      2.00000
      8       2.5707      2.00000
      9       2.5707      2.00000
     10       2.5707      2.00000
     11       2.5707      2.00000
     12       3.1377      2.00000
     13       3.1377      2.00000
     14       4.8946      2.00000
     15       5.2550      2.00000
     16       5.2550      2.00000
     17       6.4154      0.03429
     18       7.1456      0.00000
     19       7.3985      0.00000
     20       7.3985      0.00000
     21       7.3985      0.00000

 k-point     4 :       0.3000    0.0000    0.0000
  band No.  band energies     occupation 
      1      -5.7379      2.00000
      2      -4.0354      2.00000
      3      -1.8809      2.00000
      4      -1.8809      2.00000
      5      -1.8809      2.00000
      6      -1.8809      2.00000
      7       0.5269      2.00000
      8       2.2718      2.00000
      9       2.2718      2.00000
     10       2.2718      2.00000
     11       2.2718      2.00000
     12       3.3328      2.00000
     13       3.3328      2.00000
     14       4.0818      2.00000
     15       4.7924      2.00000
     16       4.7924      2.00000
     17       6.5091      0.00545
     18       7.6356      0.00000
     19       7.6640      0.00000
     20       8.2608      0.00000
     21       8.2608      0.00000

 k-point     5 :       0.4000    0.0000    0.0000
  band No.  band energies     occupation 
      1      -5.4347      2.00000
      2      -4.5806      2.00000
      3      -1.8377      2.00000
      4      -1.8377      2.00000
      5      -1.8377      2.00000
      6      -1.8377      2.00000
      7       1.4177      2.00000
      8       2.0570      2.00000
      9       2.0570      2.00000
     10       2.0570      2.00000
     11       2.0570      2.00000
     12       3.2104      2.00000
     13       3.6026      2.00000
     14       3.6026      2.00000
     15       4.3441      2.00000
     16       4.3441      2.00000
     17       6.6966      0.00004
     18       7.2969      0.00000
     19       8.2498      0.00000
     20       9.2682      0.00000
     21       9.2683      0.00000

 k-point     6 :       0.5000    0.0000    0.0000
  band No.  band energies     occupation 
      1      -5.0481      2.00000
      2      -5.0481      2.00000
      3      -1.8205      2.00000
      4      -1.8205      2.00000
      5      -1.8205      2.00000
      6      -1.8205      2.00000
      7       1.9795      2.00000
      8       1.9795      2.00000
      9       1.9795      2.00000
     10       1.9795      2.00000
     11       2.3167      2.00000
     12       2.3167      2.00000
     13       3.9424      2.00000
     14       3.9424      2.00000
     15       3.9424      2.00000
     16       3.9424      2.00000
     17       6.9650      0.00000
     18       6.9650      0.00000
     19       8.9704      0.00000
     20       8.9704      0.00000
     21      10.1069      0.00000

 k-point     7 :       0.1000    0.1000    0.0000
  band No.  band energies     occupation 
      1      -6.0432      2.00000
      2      -2.7074      2.00000
      3      -2.7074      2.00000
      4      -2.0259      2.00000
      5      -1.8898      2.00000
      6      -1.1852      2.00000
      7      -1.1852      2.00000
      8       2.4990      2.00000
      9       2.8751      2.00000
     10       2.8751      2.00000
     11       2.9213      2.00000
     12       2.9213      2.00000
     13       3.0502      2.00000
     14       5.0943      2.00000
     15       5.4801      1.99999
     16       5.7920      1.97808
     17       6.6259      0.00031
     18       6.6707      0.00009
     19       6.6707      0.00009
     20       7.0044      0.00000
     21       7.0045      0.00000

 k-point     8 :       0.2000    0.1000    0.0000
  band No.  band energies     occupation 
      1      -5.9124      2.00000
      2      -3.3869      2.00000
      3      -2.6393      2.00000
      4      -2.0691      2.00000
      5      -1.7811      2.00000
      6      -1.1892      2.00000
      7      -0.3651      2.00000
      8       2.1275      2.00000
      9       2.5435      2.00000
     10       2.7010      2.00000
     11       2.9786      2.00000
     12       2.9957      2.00000
     13       3.0738      2.00000
     14       4.4449      2.00000
     15       5.0782      2.00000
     16       5.5507      1.99994
     17       6.6696      0.00009
     18       6.9389      0.00000
     19       7.3092      0.00000
     20       7.3507      0.00000
     21       7.5971      0.00000

 k-point     9 :       0.3000    0.1000    0.0000
  band No.  band energies     occupation 
      1      -5.6953      2.00000
      2      -4.0008      2.00000
      3      -2.5360      2.00000
      4      -2.1180      2.00000
      5      -1.6485      2.00000
      6      -1.2127      2.00000
      7       0.4758      2.00000
      8       1.8412      2.00000
      9       2.1809      2.00000
     10       2.4895      2.00000
     11       2.7818      2.00000
     12       3.1635      2.00000
     13       3.3138      2.00000
     14       3.7254      2.00000
     15       4.6132      2.00000
     16       5.0696      2.00000
     17       6.7684      0.00000
     18       7.6291      0.00000
     19       7.8227      0.00000
     20       7.9114      0.00000
     21       8.1866      0.00000

 k-point    10 :       0.4000    0.1000    0.0000
  band No.  band energies     occupation 
      1      -5.3933      2.00000
      2      -4.5428      2.00000
      3      -2.4130      2.00000
      4      -2.1897      2.00000
      5      -1.5056      2.00000
      6      -1.2719      2.00000
      7       1.3211      2.00000
      8       1.6957      2.00000
      9       1.8855      2.00000
     10       2.3767      2.00000
     11       2.5516      2.00000
     12       2.9589      2.00000
     13       3.4268      2.00000
     14       3.6415      2.00000
     15       4.1637      2.00000
     16       4.5415      2.00000
     17       6.9575      0.00000
     18       7.5519      0.00000
     19       8.4187      0.00000
     20       8.5545      0.00000
     21       9.2141      0.00000

 k-point    11 :       0.5000    0.1000    0.0000
  band No.  band energies     occupation 
      1      -5.0082      2.00000
      2      -5.0082      2.00000
      3      -2.2911      2.00000
      4      -2.2911      2.00000
      5      -1.3731      2.00000
      6      -1.3731      2.00000
      7       1.7130      2.00000
      8       1.7130      2.00000
      9       2.1540      2.00000
     10       2.1540      2.00000
     11       2.4003      2.00000
     12       2.4003      2.00000
     13       3.7631      2.00000
     14       3.7631      2.00000
     15       4.0544      2.00000
     16       4.0544      2.00000
     17       7.2248      0.00000
     18       7.2248      0.00000
     19       9.1173      0.00000
     20       9.1174      0.00000
     21       9.5744      0.00000

 k-point    12 :       0.2000    0.2000    0.0000
  band No.  band energies     occupation 
      1      -5.7829      2.00000
      2      -3.2987      2.00000
      3      -3.2987      2.00000
      4      -2.2116      2.00000
      5      -1.6064      2.00000
      6      -0.4307      2.00000
      7      -0.4307      2.00000
      8       1.7678      2.00000
      9       2.6136      2.00000
     10       2.6136      2.00000
     11       2.9399      2.00000
     12       2.9399      2.00000
     13       3.2564      2.00000
     14       3.8025      2.00000
     15       4.6717      2.00000
     16       5.6553      1.99888
     17       6.8646      0.00000
     18       7.3207      0.00000
     19       7.3207      0.00000
     20       7.9106      0.00000
     21       7.9106      0.00000

 k-point    13 :       0.3000    0.2000    0.0000
  band No.  band energies     occupation 
      1      -5.5680      2.00000
      2      -3.8985      2.00000
      3      -3.1585      2.00000
      4      -2.3752      2.00000
      5      -1.4039      2.00000
      6      -0.5516      2.00000
      7       0.3251      2.00000
      8       1.5488      2.00000
      9       2.2067      2.00000
     10       2.7758      2.00000
     11       2.8403      2.00000
     12       3.1355      2.00000
     13       3.2684      2.00000
     14       3.2903      2.00000
     15       4.2025      2.00000
     16       5.3739      2.00000
     17       7.2497      0.00000
     18       7.4253      0.00000
     19       8.2058      0.00000
     20       8.3449      0.00000
     21       8.5203      0.00000

 k-point    14 :       0.4000    0.2000    0.0000
  band No.  band energies     occupation 
      1      -5.2694      2.00000
      2      -4.4307      2.00000
      3      -2.9777      2.00000
      4      -2.5655      2.00000
      5      -1.1790      2.00000
      6      -0.7286      2.00000
      7       1.0616      2.00000
      8       1.4952      2.00000
      9       1.8527      2.00000
     10       2.4597      2.00000
     11       2.8399      2.00000
     12       3.0246      2.00000
     13       3.1189      2.00000
     14       3.7470      2.00000
     15       3.7514      2.00000
     16       4.8614      2.00000
     17       7.6136      0.00000
     18       8.0006      0.00000
     19       8.1849      0.00000
     20       8.8977      0.00000
     21       9.2343      0.00000

 k-point    15 :       0.5000    0.2000    0.0000
  band No.  band energies     occupation 
      1      -4.8892      2.00000
      2      -4.8892      2.00000
      3      -2.7730      2.00000
      4      -2.7730      2.00000
      5      -0.9461      2.00000
      6      -0.9461      2.00000
      7       1.6039      2.00000
      8       1.6039      2.00000
      9       1.7717      2.00000
     10       1.7717      2.00000
     11       2.9464      2.00000
     12       2.9464      2.00000
     13       3.3531      2.00000
     14       3.3531      2.00000
     15       4.2876      2.00000
     16       4.2876      2.00000
     17       7.8730      0.00000
     18       7.8730      0.00000
     19       8.9680      0.00000
     20       8.9681      0.00000
     21       9.5310      0.00000

 k-point    16 :       0.3000    0.3000    0.0000
  band No.  band energies     occupation 
      1      -5.3571      2.00000
      2      -3.7328      2.00000
      3      -3.7328      2.00000
      4      -2.6573      2.00000
      5      -1.1359      2.00000
      6       0.0880      2.00000
      7       0.0880      2.00000
      8       1.4210      2.00000
      9       2.3389      2.00000
     10       2.3389      2.00000
     11       2.5191      2.00000
     12       3.3182      2.00000
     13       3.3182      2.00000
     14       3.5867      2.00000
     15       3.7300      2.00000
     16       5.3877      2.00000
     17       7.2478      0.00000
     18       8.3109      0.00000
     19       8.3109      0.00000
     20       8.9044      0.00000
     21       9.1159      0.00000

 k-point    17 :       0.4000    0.3000    0.0000
  band No.  band energies     occupation 
      1      -5.0645      2.00000
      2      -4.2471      2.00000
      3      -3.5112      2.00000
      4      -2.9543      2.00000
      5      -0.8411      2.00000
      6      -0.2070      2.00000
      7       0.7040      2.00000
      8       1.4571      2.00000
      9       1.9081      2.00000
     10       1.9445      2.00000
     11       2.5683      2.00000
     12       3.2788      2.00000
     13       3.4165      2.00000
     14       3.6552      2.00000
     15       3.8941      2.00000
     16       5.0556      2.00000
     17       7.6915      0.00000
     18       8.4914      0.00000
     19       9.0165      0.00000
     20       9.0569      0.00000
     21       9.3401      0.00000

 k-point    18 :       0.5000    0.3000    0.0000
  band No.  band energies     occupation 
      1      -4.6930      2.00000
      2      -4.6930      2.00000
      3      -3.2460      2.00000
      4      -3.2460      2.00000
      5      -0.5259      2.00000
      6      -0.5259      2.00000
      7       1.3061      2.00000
      8       1.3061      2.00000
      9       1.6401      2.00000
     10       1.6401      2.00000
     11       2.8855      2.00000
     12       2.8855      2.00000
     13       3.5555      2.00000
     14       3.5555      2.00000
     15       4.5070      2.00000
     16       4.5070      2.00000
     17       8.4842      0.00000
     18       8.4842      0.00000
     19       8.7339      0.00000
     20       8.7339      0.00000
     21       9.4566      0.00000

 k-point    19 :       0.4000    0.4000    0.0000
  band No.  band energies     occupation 
      1      -4.7811      2.00000
      2      -3.9972      2.00000
      3      -3.9972      2.00000
      4      -3.3359      2.00000
      5      -0.4812      2.00000
      6       0.3054      2.00000
      7       0.3054      2.00000
      8       1.3577      2.00000
      9       1.5671      2.00000
     10       2.1472      2.00000
     11       2.1472      2.00000
     12       2.8317      2.00000
     13       4.0171      2.00000
     14       4.0433      2.00000
     15       4.0433      2.00000
     16       4.9872      2.00000
     17       7.7455      0.00000
     18       8.7320      0.00000
     19       9.0197      0.00000
     20       9.0197      0.00000
     21       9.4984      0.00000

 k-point    20 :       0.5000    0.4000    0.0000
  band No.  band energies     occupation 
      1      -4.4233      2.00000
      2      -4.4233      2.00000
      3      -3.6893      2.00000
      4      -3.6893      2.00000
      5      -0.0965      2.00000
      6      -0.0965      2.00000
      7       0.8235      2.00000
      8       0.8235      2.00000
      9       1.8045      2.00000
     10       1.8045      2.00000
     11       2.4477      2.00000
     12       2.4477      2.00000
     13       4.1225      2.00000
     14       4.1225      2.00000
     15       4.6151      2.00000
     16       4.6151      2.00000
     17       8.2198      0.00000
     18       8.2198      0.00000
     19       8.7361      0.00000
     20       8.7361      0.00000
     21       9.7114      0.00000

 k-point    21 :       0.5000    0.5000    0.0000
  band No.  band energies     occupation 
      1      -4.0859      2.00000
      2      -4.0859      2.00000
      3      -4.0859      2.00000
      4      -4.0859      2.00000
      5       0.3526      2.00000
      6       0.3526      2.00000
      7       0.3526      2.00000
      8       0.3526      2.00000
      9       2.0796      2.00000
     10       2.0796      2.00000
     11       2.0796      2.00000
     12       2.0796      2.00000
     13       4.5047      2.00000
     14       4.5047      2.00000
     15       4.5047      2.00000
     16       4.5047      2.00000
     17       8.2874      0.00000
     18       8.2874      0.00000
     19       8.2874      0.00000
     20       8.2874      0.00000
     21      10.6293      0.00000

 k-point    22 :       0.1000    0.1000    0.1000
  band No.  band energies     occupation 
      1      -5.9997      2.00000
      2      -2.6877      2.00000
      3      -2.6877      2.00000
      4      -2.6877      2.00000
      5      -1.1858      2.00000
      6      -1.1858      2.00000
      7      -1.1858      2.00000
      8       2.5514      2.00000
      9       2.5514      2.00000
     10       2.5514      2.00000
     11       3.0892      2.00000
     12       3.0892      2.00000
     13       3.0892      2.00000
     14       4.6869      2.00000
     15       5.6332      1.99936
     16       5.6332      1.99936
     17       6.6510      0.00016
     18       6.6510      0.00016
     19       6.6510      0.00016
     20       7.4094      0.00000
     21       7.4094      0.00000

 k-point    23 :       0.2000    0.1000    0.1000
  band No.  band energies     occupation 
      1      -5.8693      2.00000
      2      -3.3587      2.00000
      3      -2.6335      2.00000
      4      -2.6335      2.00000
      5      -1.1907      2.00000
      6      -1.1907      2.00000
      7      -0.3914      2.00000
      8       2.1922      2.00000
      9       2.1922      2.00000
     10       2.7096      2.00000
     11       3.0412      2.00000
     12       3.0412      2.00000
     13       3.2056      2.00000
     14       4.0548      2.00000
     15       5.2614      2.00000
     16       5.4764      1.99999
     17       6.7339      0.00001
     18       6.9799      0.00000
     19       6.9799      0.00000
     20       7.6681      0.00000
     21       8.1785      0.00000

 k-point    24 :       0.3000    0.1000    0.1000
  band No.  band energies     occupation 
      1      -5.6530      2.00000
      2      -3.9673      2.00000
      3      -2.5600      2.00000
      4      -2.5600      2.00000
      5      -1.2056      2.00000
      6      -1.2056      2.00000
      7       0.4118      2.00000
      8       1.9113      2.00000
      9       1.9113      2.00000
     10       2.8492      2.00000
     11       2.8492      2.00000
     12       2.9763      2.00000
     13       3.3819      2.00000
     14       3.3979      2.00000
     15       4.8206      2.00000
     16       4.9923      2.00000
     17       6.8855      0.00000
     18       7.6716      0.00000
     19       7.6716      0.00000
     20       8.0806      0.00000
     21       8.0810      0.00000

 k-point    25 :       0.4000    0.1000    0.1000
  band No.  band energies     occupation 
      1      -5.3521      2.00000
      2      -4.5058      2.00000
      3      -2.4936      2.00000
      4      -2.4936      2.00000
      5      -1.2271      2.00000
      6      -1.2271      2.00000
      7       1.2026      2.00000
      8       1.7465      2.00000
      9       1.7465      2.00000
     10       2.6634      2.00000
     11       2.6634      2.00000
     12       2.6871      2.00000
     13       3.3536      2.00000
     14       3.6630      2.00000
     15       4.3872      2.00000
     16       4.4032      2.00000
     17       7.1082      0.00000
     18       7.7301      0.00000
     19       8.5945      0.00000
     20       8.5945      0.00000
     21       8.6337      0.00000

 k-point    26 :       0.5000    0.1000    0.1000
  band No.  band energies     occupation 
      1      -4.9688      2.00000
      2      -4.9688      2.00000
      3      -2.4662      2.00000
      4      -2.4662      2.00000
      5      -1.2381      2.00000
      6      -1.2381      2.00000
      7       1.6948      2.00000
      8       1.6948      2.00000
      9       1.9630      2.00000
     10       1.9630      2.00000
     11       2.5886      2.00000
     12       2.5886      2.00000
     13       3.8371      2.00000
     14       3.8371      2.00000
     15       3.9958      2.00000
     16       3.9958      2.00000
     17       7.3953      0.00000
     18       7.3953      0.00000
     19       9.2932      0.00000
     20       9.2943      0.00000
     21       9.5105      0.00000

 k-point    27 :       0.2000    0.2000    0.1000
  band No.  band energies     occupation 
      1      -5.7403      2.00000
      2      -3.2769      2.00000
      3      -3.2769      2.00000
      4      -2.6258      2.00000
      5      -1.1901      2.00000
      6      -0.4739      2.00000
      7      -0.4739      2.00000
      8       1.8628      2.00000
      9       2.3852      2.00000
     10       2.3852      2.00000
     11       3.1793      2.00000
     12       3.1793      2.00000
     13       3.2937      2.00000
     14       3.4336      2.00000
     15       4.9691      2.00000
     16       5.5413      1.99995
     17       6.9152      0.00000
     18       7.1007      0.00000
     19       7.1007      0.00000
     20       8.3835      0.00000
     21       8.3860      0.00000

 k-point    28 :       0.3000    0.2000    0.1000
  band No.  band energies     occupation 
      1      -5.5264      2.00000
      2      -3.8687      2.00000
      3      -3.1501      2.00000
      4      -2.6423      2.00000
      5      -1.1690      2.00000
      6      -0.6125      2.00000
      7       0.2288      2.00000
      8       1.6734      2.00000
      9       2.1103      2.00000
     10       2.6994      2.00000
     11       2.7950      2.00000
     12       3.0578      2.00000
     13       3.3105      2.00000
     14       3.4162      2.00000
     15       4.5145      2.00000
     16       5.2772      2.00000
     17       7.2956      0.00000
     18       7.2994      0.00000
     19       7.7964      0.00000
     20       8.4327      0.00000
     21       8.7285      0.00000

 k-point    29 :       0.4000    0.2000    0.1000
  band No.  band energies     occupation 
      1      -5.2291      2.00000
      2      -4.3959      2.00000
      3      -2.9948      2.00000
      4      -2.7114      2.00000
      5      -1.0982      2.00000
      6      -0.7889      2.00000
      7       0.8992      2.00000
      8       1.6346      2.00000
      9       1.8895      2.00000
     10       2.1651      2.00000
     11       2.9885      2.00000
     12       3.1088      2.00000
     13       3.1782      2.00000
     14       3.7644      2.00000
     15       4.0386      2.00000
     16       4.7734      2.00000
     17       7.5545      0.00000
     18       8.0458      0.00000
     19       8.1875      0.00000
     20       8.7130      0.00000
     21       9.2099      0.00000

 k-point    30 :       0.5000    0.2000    0.1000
  band No.  band energies     occupation 
      1      -4.8511      2.00000
      2      -4.8511      2.00000
      3      -2.8374      2.00000
      4      -2.8374      2.00000
      5      -0.9646      2.00000
      6      -0.9646      2.00000
      7       1.5390      2.00000
      8       1.5390      2.00000
      9       1.7208      2.00000
     10       1.7208      2.00000
     11       3.0386      2.00000
     12       3.0386      2.00000
     13       3.5664      2.00000
     14       3.5664      2.00000
     15       4.2304      2.00000
     16       4.2304      2.00000
     17       7.8616      0.00000
     18       7.8616      0.00000
     19       9.0054      0.00000
     20       9.0055      0.00000
     21       9.7830      0.00000

 k-point    31 :       0.3000    0.3000    0.1000
  band No.  band energies     occupation 
      1      -5.3167      2.00000
      2      -3.7101      2.00000
      3      -3.7101      2.00000
      4      -2.7971      2.00000
      5      -1.0711      2.00000
      6      -0.0408      2.00000
      7      -0.0408      2.00000
      8       1.5932      2.00000
      9       2.1909      2.00000
     10       2.4060      2.00000
     11       2.4060      2.00000
     12       3.4179      2.00000
     13       3.4179      2.00000
     14       3.6201      2.00000
     15       4.0626      2.00000
     16       5.3284      2.00000
     17       7.2985      0.00000
     18       7.9957      0.00000
     19       7.9957      0.00000
     20       8.5662      0.00000
     21       9.2112      0.00000

 k-point    32 :       0.4000    0.3000    0.1000
  band No.  band energies     occupation 
      1      -5.0259      2.00000
      2      -4.2165      2.00000
      3      -3.5019      2.00000
      4      -3.0145      2.00000
      5      -0.8939      2.00000
      6      -0.3479      2.00000
      7       0.5072      2.00000
      8       1.6078      2.00000
      9       1.6615      2.00000
     10       2.1096      2.00000
     11       2.7629      2.00000
     12       3.4840      2.00000
     13       3.6005      2.00000
     14       3.6911      2.00000
     15       3.9155      2.00000
     16       5.0145      2.00000
     17       7.7369      0.00000
     18       8.2544      0.00000
     19       8.6893      0.00000
     20       8.9031      0.00000
     21       9.1664      0.00000

 k-point    33 :       0.5000    0.3000    0.1000
  band No.  band energies     occupation 
      1      -4.6576      2.00000
      2      -4.6576      2.00000
      3      -3.2612      2.00000
      4      -3.2612      2.00000
      5      -0.6446      2.00000
      6      -0.6446      2.00000
      7       1.0500      2.00000
      8       1.0500      2.00000
      9       1.8468      2.00000
     10       1.8468      2.00000
     11       3.1631      2.00000
     12       3.1631      2.00000
     13       3.6026      2.00000
     14       3.6026      2.00000
     15       4.4861      2.00000
     16       4.4861      2.00000
     17       8.5217      0.00000
     18       8.5217      0.00000
     19       8.5376      0.00000
     20       8.5376      0.00000
     21       9.4541      0.00000

 k-point    34 :       0.4000    0.4000    0.1000
  band No.  band energies     occupation 
      1      -4.7455      2.00000
      2      -3.9741      2.00000
      3      -3.9741      2.00000
      4      -3.3507      2.00000
      5      -0.6204      2.00000
      6       0.0983      2.00000
      7       0.0983      2.00000
      8       1.0700      2.00000
      9       1.8155      2.00000
     10       2.3989      2.00000
     11       2.3989      2.00000
     12       3.1586      2.00000
     13       4.0428      2.00000
     14       4.0668      2.00000
     15       4.0668      2.00000
     16       4.9717      2.00000
     17       7.7850      0.00000
     18       8.6271      0.00000
     19       9.0081      0.00000
     20       9.0085      0.00000
     21       9.1708      0.00000

 k-point    35 :       0.5000    0.4000    0.1000
  band No.  band energies     occupation 
      1      -4.3924      2.00000
      2      -4.3924      2.00000
      3      -3.6797      2.00000
      4      -3.6797      2.00000
      5      -0.2854      2.00000
      6      -0.2854      2.00000
      7       0.5671      2.00000
      8       0.5671      2.00000
      9       2.0710      2.00000
     10       2.0710      2.00000
     11       2.7518      2.00000
     12       2.7518      2.00000
     13       4.1463      2.00000
     14       4.1463      2.00000
     15       4.6154      2.00000
     16       4.6154      2.00000
     17       8.2476      0.00000
     18       8.2476      0.00000
     19       8.6960      0.00000
     20       8.6960      0.00000
     21       9.4586      0.00000

 k-point    36 :       0.5000    0.5000    0.1000
  band No.  band energies     occupation 
      1      -4.0627      2.00000
      2      -4.0627      2.00000
      3      -4.0627      2.00000
      4      -4.0627      2.00000
      5       0.1185      2.00000
      6       0.1185      2.00000
      7       0.1185      2.00000
      8       0.1185      2.00000
      9       2.3789      2.00000
     10       2.3789      2.00000
     11       2.3789      2.00000
     12       2.3789      2.00000
     13       4.5164      2.00000
     14       4.5164      2.00000
     15       4.5164      2.00000
     16       4.5164      2.00000
     17       8.2946      0.00000
     18       8.2946      0.00000
     19       8.2946      0.00000
     20       8.2946      0.00000
     21      10.3751      0.00000

 k-point    37 :       0.2000    0.2000    0.2000
  band No.  band energies     occupation 
      1      -5.6129      2.00000
      2      -3.2167      2.00000
      3      -3.2167      2.00000
      4      -3.2167      2.00000
      5      -0.5949      2.00000
      6      -0.5949      2.00000
      7      -0.5949      2.00000
      8       2.1470      2.00000
      9       2.1470      2.00000
     10       2.1470      2.00000
     11       2.8243      2.00000
     12       3.4045      2.00000
     13       3.4045      2.00000
     14       3.4045      2.00000
     15       5.2528      2.00000
     16       5.2528      2.00000
     17       7.0645      0.00000
     18       7.0645      0.00000
     19       7.0645      0.00000
     20       8.0583      0.00000
     21       9.2130      0.00000

 k-point    38 :       0.3000    0.2000    0.2000
  band No.  band energies     occupation 
      1      -5.4018      2.00000
      2      -3.7819      2.00000
      3      -3.1344      2.00000
      4      -3.1344      2.00000
      5      -0.7593      2.00000
      6      -0.7593      2.00000
      7      -0.0209      2.00000
      8       2.0269      2.00000
      9       2.0269      2.00000
     10       2.2082      2.00000
     11       2.6082      2.00000
     12       3.4382      2.00000
     13       3.4382      2.00000
     14       3.5868      2.00000
     15       4.8837      2.00000
     16       5.0920      2.00000
     17       7.3027      0.00000
     18       7.4462      0.00000
     19       7.4462      0.00000
     20       8.1363      0.00000
     21       9.0584      0.00000

 k-point    39 :       0.4000    0.2000    0.2000
  band No.  band energies     occupation 
      1      -5.1091      2.00000
      2      -4.2930      2.00000
      3      -3.0596      2.00000
      4      -3.0596      2.00000
      5      -0.9041      2.00000
      6      -0.9041      2.00000
      7       0.5247      2.00000
      8       1.6205      2.00000
      9       1.9976      2.00000
     10       1.9976      2.00000
     11       3.2089      2.00000
     12       3.3623      2.00000
     13       3.3623      2.00000
     14       3.8361      2.00000
     15       4.5016      2.00000
     16       4.5589      2.00000
     17       7.6109      0.00000
     18       8.1781      0.00000
     19       8.1781      0.00000
     20       8.2148      0.00000
     21       9.2281      0.00000

[...]
     19       8.2253      0.00000
     20       8.3846      0.00000
     21       9.1547      0.00000

 k-point    43 :       0.5000    0.3000    0.2000
  band No.  band energies     occupation 
      1      -4.5530      2.00000
      2      -4.5530      2.00000
      3      -3.3204      2.00000
      4      -3.3204      2.00000
      5      -0.8624      2.00000
      6      -0.8624      2.00000
      7       0.5539      2.00000
      8       0.5539      2.00000
      9       2.3266      2.00000
     10       2.3266      2.00000
     11       3.7027      2.00000
     12       3.7027      2.00000
     13       3.7475      2.00000
     14       3.7475      2.00000
     15       4.4185      2.00000
     16       4.4185      2.00000
     17       8.2452      0.00000
     18       8.2452      0.00000
     19       8.6245      0.00000
     20       8.6246      0.00000
     21       9.3132      0.00000

 k-point    44 :       0.4000    0.4000    0.2000
  band No.  band energies     occupation 
      1      -4.6404      2.00000
      2      -3.9104      2.00000
      3      -3.9104      2.00000
      4      -3.4085      2.00000
      5      -0.8692      2.00000
      6      -0.3137      2.00000
      7      -0.3137      2.00000
      8       0.5407      2.00000
      9       2.3997      2.00000
     10       2.9320      2.00000
     11       2.9320      2.00000
     12       3.7877      2.00000
     13       4.1186      2.00000
     14       4.1355      2.00000
     15       4.1355      2.00000
     16       4.9220      2.00000
     17       7.8943      0.00000
     18       8.2560      0.00000
     19       8.5925      0.00000
     20       8.5925      0.00000
     21       9.1232      0.00000

 k-point    45 :       0.5000    0.4000    0.2000
  band No.  band energies     occupation 
      1      -4.3028      2.00000
      2      -4.3028      2.00000
      3      -3.6602      2.00000
      4      -3.6602      2.00000
      5      -0.6461      2.00000
      6      -0.6461      2.00000
      7       0.0805      2.00000
      8       0.0805      2.00000
      9       2.6648      2.00000
     10       2.6648      2.00000
     11       3.3699      2.00000
     12       3.3699      2.00000
     13       4.2158      2.00000
     14       4.2158      2.00000
     15       4.6110      2.00000
     16       4.6110      2.00000
     17       8.3079      0.00000
     18       8.3079      0.00000
     19       8.4604      0.00000
     20       8.4604      0.00000
     21       9.1739      0.00000

 k-point    46 :       0.5000    0.5000    0.2000
  band No.  band energies     occupation 
      1      -3.9987      2.00000
      2      -3.9987      2.00000
      3      -3.9987      2.00000
      4      -3.9987      2.00000
      5      -0.3260      2.00000
      6      -0.3260      2.00000
      7      -0.3260      2.00000
      8      -0.3260      2.00000
      9       3.0142      2.00000
     10       3.0142      2.00000
     11       3.0142      2.00000
     12       3.0142      2.00000
     13       4.5473      2.00000
     14       4.5473      2.00000
     15       4.5473      2.00000
     16       4.5473      2.00000
     17       8.2708      0.00000
     18       8.2708      0.00000
     19       8.2708      0.00000
     20       8.2708      0.00000
     21       9.7374      0.00000

 k-point    47 :       0.3000    0.3000    0.3000
  band No.  band energies     occupation 
      1      -4.9972      2.00000
      2      -3.5615      2.00000
      3      -3.5615      2.00000
      4      -3.5615      2.00000
      5      -0.6606      2.00000
      6      -0.6606      2.00000
      7      -0.6606      2.00000
      8       1.0374      2.00000
      9       2.6986      2.00000
     10       2.6986      2.00000
     11       2.6986      2.00000
     12       3.8803      2.00000
     13       3.8803      2.00000
     14       3.8803      2.00000
     15       4.9177      2.00000
     16       4.9177      2.00000
     17       7.6767      0.00000
     18       7.6767      0.00000
     19       7.6767      0.00000
     20       7.6971      0.00000
     21       9.3716      0.00000

 k-point    48 :       0.4000    0.3000    0.3000
  band No.  band energies     occupation 
      1      -4.7245      2.00000
      2      -3.9901      2.00000
      3      -3.4834      2.00000
      4      -3.4834      2.00000
      5      -0.9019      2.00000
      6      -0.9019      2.00000
      7      -0.3440      2.00000
      8       0.5092      2.00000
      9       2.8220      2.00000
     10       2.8220      2.00000
     11       3.4264      2.00000
     12       3.9812      2.00000
     13       3.9812      2.00000
     14       4.0959      2.00000
     15       4.6370      2.00000
     16       4.7265      2.00000
     17       7.8291      0.00000
     18       7.9423      0.00000
     19       8.0569      0.00000
     20       8.0569      0.00000
     21       9.1648      0.00000

 k-point    49 :       0.5000    0.3000    0.3000
  band No.  band energies     occupation 
      1      -4.3848      2.00000
      2      -4.3848      2.00000
      3      -3.4510      2.00000
      4      -3.4510      2.00000
      5      -0.9917      2.00000
      6      -0.9917      2.00000
      7       0.0465      2.00000
      8       0.0465      2.00000
      9       2.8726      2.00000
     10       2.8726      2.00000
     11       3.9976      2.00000
     12       3.9976      2.00000
     13       4.1474      2.00000
     14       4.1474      2.00000
     15       4.3542      2.00000
     16       4.3542      2.00000
     17       8.0730      0.00000
     18       8.0730      0.00000
     19       8.6227      0.00000
     20       8.6233      0.00000
     21       8.9387      0.00000

 k-point    50 :       0.4000    0.4000    0.3000
  band No.  band energies     occupation 
      1      -4.4714      2.00000
      2      -3.8230      2.00000
      3      -3.8230      2.00000
      4      -3.5372      2.00000
      5      -1.0200      2.00000
      6      -0.7107      2.00000
      7      -0.7107      2.00000
      8       0.0148      2.00000
      9       3.1204      2.00000
     10       3.4805      2.00000
     11       3.4805      2.00000
     12       4.2375      2.00000
     13       4.2452      2.00000
     14       4.2452      2.00000
     15       4.3957      2.00000
     16       4.8330      2.00000
     17       7.7458      0.00000
     18       8.0225      0.00000
     19       8.1985      0.00000
     20       8.1985      0.00000
     21       9.1837      0.00000

 k-point    51 :       0.5000    0.4000    0.3000
  band No.  band energies     occupation 
      1      -4.1641      2.00000
      2      -4.1641      2.00000
      3      -3.6586      2.00000
      4      -3.6586      2.00000
      5      -0.9511      2.00000
      6      -0.9511      2.00000
      7      -0.3981      2.00000
      8      -0.3981      2.00000
      9       3.3517      2.00000
     10       3.3517      2.00000
     11       4.0176      2.00000
     12       4.0176      2.00000
     13       4.3249      2.00000
     14       4.3249      2.00000
     15       4.5873      2.00000
     16       4.5873      2.00000
     17       8.0146      0.00000
     18       8.0146      0.00000
     19       8.2690      0.00000
     20       8.2690      0.00000
     21       9.1031      0.00000

 k-point    52 :       0.5000    0.5000    0.3000
  band No.  band energies     occupation 
      1      -3.9110      2.00000
      2      -3.9110      2.00000
      3      -3.9110      2.00000
      4      -3.9110      2.00000
      5      -0.7423      2.00000
      6      -0.7423      2.00000
      7      -0.7423      2.00000
      8      -0.7423      2.00000
      9       3.7281      2.00000
     10       3.7281      2.00000
     11       3.7281      2.00000
     12       3.7281      2.00000
     13       4.5869      2.00000
     14       4.5869      2.00000
     15       4.5869      2.00000
     16       4.5869      2.00000
     17       8.0506      0.00000
     18       8.0506      0.00000
     19       8.0506      0.00000
     20       8.0506      0.00000
     21       9.2843      0.00000

 k-point    53 :       0.4000    0.4000    0.4000
  band No.  band energies     occupation 
      1      -4.2499      2.00000
      2      -3.7436      2.00000
      3      -3.7436      2.00000
      4      -3.7436      2.00000
      5      -0.9912      2.00000
      6      -0.9912      2.00000
      7      -0.9912      2.00000
      8      -0.4393      2.00000
      9       3.8566      2.00000
     10       3.8566      2.00000
     11       3.8566      2.00000
     12       4.3870      2.00000
     13       4.3870      2.00000
     14       4.3870      2.00000
     15       4.7054      2.00000
     16       4.7054      2.00000
     17       7.4575      0.00000
     18       7.9877      0.00000
     19       7.9877      0.00000
     20       7.9877      0.00000
     21       9.1542      0.00000

 k-point    54 :       0.5000    0.4000    0.4000
  band No.  band energies     occupation 
      1      -3.9960      2.00000
      2      -3.9960      2.00000
      3      -3.7106      2.00000
      4      -3.7106      2.00000
      5      -1.0932      2.00000
      6      -1.0932      2.00000
      7      -0.7862      2.00000
      8      -0.7862      2.00000
      9       3.9743      2.00000
     10       3.9743      2.00000
     11       4.4696      2.00000
     12       4.4696      2.00000
     13       4.4702      2.00000
     14       4.4702      2.00000
     15       4.5502      2.00000
     16       4.5502      2.00000
     17       7.6439      0.00000
     18       7.6439      0.00000
     19       7.9386      0.00000
     20       7.9386      0.00000
     21       9.0646      0.00000

 k-point    55 :       0.5000    0.5000    0.4000
  band No.  band energies     occupation 
      1      -3.8312      2.00000
      2      -3.8312      2.00000
      3      -3.8312      2.00000
      4      -3.8312      2.00000
      5      -1.0326      2.00000
      6      -1.0326      2.00000
      7      -1.0326      2.00000
      8      -1.0326      2.00000
      9       4.3542      2.00000
     10       4.3542      2.00000
     11       4.3542      2.00000
     12       4.3542      2.00000
     13       4.6206      2.00000
     14       4.6206      2.00000
     15       4.6206      2.00000
     16       4.6206      2.00000
     17       7.6148      0.00000
     18       7.6148      0.00000
     19       7.6148      0.00000
     20       7.6148      0.00000
     21       9.1783      0.00000

 k-point    56 :       0.5000    0.5000    0.5000
  band No.  band energies     occupation 
      1      -3.7981      2.00000
      2      -3.7981      2.00000
      3      -3.7981      2.00000
      4      -3.7981      2.00000
      5      -1.1376      2.00000
      6      -1.1376      2.00000
      7      -1.1376      2.00000
      8      -1.1376      2.00000
      9       4.6336      2.00000
     10       4.6336      2.00000
     11       4.6336      2.00000
     12       4.6336      2.00000
     13       4.6336      2.00000
     14       4.6336      2.00000
     15       4.6336      2.00000
     16       4.6336      2.00000
     17       7.3754      0.00000
     18       7.3754      0.00000
     19       7.3754      0.00000
     20       7.3754      0.00000
     21       9.1773      0.00000


--------------------------------------------------------------------------------------------------------


 soft charge-density along one line, spin component           1
         0         1         2         3         4         5         6         7         8         9
 total charge-density along one line
 
 pseudopotential strength for first ion, spin component:           1
 18.414   0.000  -0.001   0.000  -0.000   0.000  -0.000   0.000  -0.000   0.000   0.000   0.000   0.000   0.000   0.000   0.000
 -0.001   0.000   0.006   0.000   0.000   0.000   0.000   0.000   0.000   0.000  -0.000   0.000  -0.000   0.000  -0.000   0.000
 -0.000   0.000   0.000   0.000   4.179   0.000   0.000   0.000   0.000   0.000  -0.005   0.000  -0.000   0.000  -0.000   0.000
 -0.000   0.000   0.000   0.000   0.000   0.000   4.179   0.000   0.000   0.000  -0.000   0.000  -0.005   0.000  -0.000   0.000
 -0.000   0.000   0.000   0.000   0.000   0.000   0.000   0.000   4.179   0.000  -0.000   0.000  -0.000   0.000  -0.005   0.000
  0.000   0.000  -0.000   0.000  -0.005   0.000  -0.000   0.000  -0.000   0.000   0.005   0.000   0.000   0.000   0.000   0.000
  0.000   0.000  -0.000   0.000  -0.000   0.000  -0.005   0.000  -0.000   0.000   0.000   0.000   0.005   0.000   0.000   0.000
  0.000   0.000  -0.000   0.000  -0.000   0.000  -0.000   0.000  -0.005   0.000   0.000   0.000   0.000   0.000   0.005   0.000
 total augmentation occupancy for first ion, spin component:           1
  2.000   0.000   0.000   0.000   0.000   0.000   0.000   0.000
  0.000   0.000   0.000   0.000   0.000   0.000   0.000   0.000
  0.000   0.000   0.667   0.000   0.000   0.000   0.000   0.000
  0.000   0.000   0.000   0.667   0.000   0.000   0.000   0.000
  0.000   0.000   0.000   0.000   0.667   0.000   0.000   0.000
  0.000   0.000   0.000   0.000   0.000   0.000   0.000   0.000
  0.000   0.000   0.000   0.000   0.000   0.000   0.000   0.000
  0.000   0.000   0.000   0.000   0.000   0.000   0.000   0.000


------------------------ aborting loop because EDIFF is reached ----------------------------------------


    CHARGE:  cpu time    0.2050: real time    0.2055
    FORLOC:  cpu time    0.0110: real time    0.0111
    FORNL :  cpu time    1.1247: real time    1.1277
    STRESS:  cpu time    1.1337: real time    1.1371
    FORCOR:  cpu time    0.0680: real time    0.0682
    FORHAR:  cpu time    0.0239: real time    0.0240
    OFIELD:  cpu time    0.0005: real time    0.0005

  FORCE on cell =-STRESS in cart. coord.  units (eV):
  Direction    XX          YY          ZZ          XY          YZ          ZX
  --------------------------------------------------------------------------------------
  Alpha Z    13.45657    13.45657    13.45657
  Ewald    -304.75190  -304.75190  -304.75190     0.00000    -0.00000    -0.00000
  Hartree    19.88368    19.88368    19.88368    -0.00000    -0.00000    -0.00000
  E(xc)    -101.50750  -101.50750  -101.50750    -0.00000    -0.00000    -0.00000
  Local    -117.04385  -117.04385  -117.04385    -0.00000    -0.00000    -0.00000
  n-local   311.54011   314.92895   308.23877    -2.77413    -2.30663    -1.37413
  augment   -46.59032   -46.59032   -46.59032     0.00000     0.00000     0.00000
  Kinetic   219.47242   231.36971   229.69939    -3.46189    -5.23940    -2.31512
  Fock        0.00000     0.00000     0.00000     0.00000     0.00000     0.00000
  -------------------------------------------------------------------------------------
  Total       1.86313     1.86313     1.86313    -0.00000     0.00000    -0.00000
  in kB      18.64463    18.64463    18.64463    -0.00000     0.00000    -0.00000
  external pressure =       18.64 kB  Pullay stress =        0.00 kB


 VOLUME and BASIS-vectors are now :
 -----------------------------------------------------------------------------
  energy-cutoff  :      300.00
  volume of cell :      160.10
      direct lattice vectors                 reciprocal lattice vectors
     5.430000000  0.000000000  0.000000000     0.184162063  0.000000000  0.000000000
     0.000000000  5.430000000  0.000000000     0.000000000  0.184162063  0.000000000
     0.000000000  0.000000000  5.430000000     0.000000000  0.000000000  0.184162063

  length of vectors
     5.430000000  5.430000000  5.430000000     0.184162063  0.184162063  0.184162063


 FORCES acting on ions
    electron-ion (+dipol)            ewald-force                    non-local-force                 convergence-correction
 -----------------------------------------------------------------------------------------------
   0.172E-14 -.375E-14 0.358E-15   -.355E-14 -.711E-14 -.355E-14   0.113E-16 0.607E-17 0.486E-16   -.462E-16 0.224E-15 -.936E-15
   -.199E-13 -.154E-12 0.181E-14   -.355E-14 -.711E-14 -.355E-14   0.356E-16 -.243E-16 0.815E-16   0.731E-15 0.380E-15 -.871E-15
   -.501E-14 -.169E-13 -.132E-13   -.355E-14 -.711E-14 0.355E-14   -.781E-17 0.434E-18 0.442E-16   -.752E-16 0.542E-15 -.462E-15
   -.176E-13 -.506E-15 -.151E-12   -.355E-14 -.711E-14 0.355E-14   0.147E-16 -.390E-17 0.165E-16   0.660E-15 0.397E-16 -.333E-15
   -.605E-14 0.102E-14 0.379E-15   0.270E-14 0.728E-14 0.327E-14   -.304E-16 0.213E-16 -.841E-16   0.503E-15 -.562E-15 0.117E-15
   -.141E-13 -.106E-12 0.967E-13   0.381E-14 0.812E-14 0.327E-14   -.130E-16 -.651E-17 -.633E-16   -.185E-14 -.851E-15 0.254E-15
   -.130E-13 -.287E-13 -.309E-13   0.330E-14 0.677E-14 -.334E-14   -.694E-17 0.173E-17 -.252E-16   0.535E-15 -.718E-15 -.501E-15
   -.164E-13 0.954E-13 -.106E-12   0.441E-14 0.629E-14 -.334E-14   0.694E-17 -.954E-17 -.442E-16   -.188E-14 -.585E-15 -.276E-15
 -----------------------------------------------------------------------------------------------
   -.904E-13 -.213E-12 -.203E-12   0.120E-16 0.458E-16 -.140E-15   0.104E-16 -.147E-16 -.260E-16   -.142E-14 -.153E-14 -.301E-14
 
 
 POSITION                                       TOTAL-FORCE (eV/Angst)
 -----------------------------------------------------------------------------------
      0.00000      0.00000      0.00000         0.000000     -0.000000     -0.000000
      2.71500      2.71500      0.00000         0.000000      0.000000     -0.000000
      0.00000      2.71500      2.71500         0.000000     -0.000000     -0.000000
      2.71500      0.00000      2.71500        -0.000000     -0.000000     -0.000000
      1.35750      1.35750      1.35750        -0.000000      0.000000      0.000000
      4.07250      4.07250      1.35750        -0.000000     -0.000000      0.000000
      1.35750      4.07250      4.07250         0.000000      0.000000      0.000000
      4.07250      1.35750      4.07250         0.000000      0.000000      0.000000
 -----------------------------------------------------------------------------------
    total drift:                               -0.000000     -0.000000     -0.000000


--------------------------------------------------------------------------------------------------------



  FREE ENERGIE OF THE ION-ELECTRON SYSTEM (eV)
  ---------------------------------------------------
  free  energy   TOTEN  =       -43.35329248 eV

  energy  without entropy=      -43.35296544  energy(sigma->0) =      -43.35312896
 


--------------------------------------------------------------------------------------------------------


    POTLOK:  cpu time    0.0634: real time    0.0636


--------------------------------------------------------------------------------------------------------


 writing wavefunctions
     LOOP+:  cpu time   23.7546: real time   23.8437
    4ORBIT:  cpu time    0.0000: real time    0.0000

 total amount of memory used by VASP MPI-rank0    91372. kBytes
=======================================================================

   base      :      30000. kBytes
   nonl-proj :       7141. kBytes
   fftplans  :       7512. kBytes
   grid      :       9289. kBytes
   one-center:         24. kBytes
   wavefun   :      37406. kBytes
 
  
  
 General timing and accounting informations for this job:
 ========================================================
  
                  Total CPU time used (sec):       24.491
                            User time (sec):       24.292
                          System time (sec):        0.198
                         Elapsed time (sec):       24.740
  
                   Maximum memory used (kb):      126828.
                   Average memory used (kb):           0.
  
                          Minor page faults:        39410
                          Major page faults:            0
                 Voluntary context switches:          275
