 running on    1 total cores
 distrk:  each k-point on    1 cores,    1 groups
 distr:  one band on    1 cores,    1 groups
 using from now: INCAR     
 vasp.5.4.4.18Apr17-6-g9f103f2a35 (build May 20 2018 16:52:39) complex          
  
 POSCAR found type information on POSCAR  Si
 POSCAR found :  1 types and       8 ions
 scaLAPACK will be used
 LDA part: xc-table for Pade appr. of Perdew
 WARNING: stress and forces are not correct
 POSCAR, INCAR and KPOINTS ok, starting setup
 FFT: planning ...
 WAVECAR not read
 reading imaginary part of occupancies ...
 charge-density read from file: Si                                      
 entering main loop
       N       E                     dE             d eps       ncg     rms          rms(c)
DAV:   1     0.492267676992E+02    0.49227E+02   -0.87809E+03  2352   0.795E+02
DAV:   2    -0.394209913325E+02   -0.88648E+02   -0.83964E+02  3239   0.136E+02
DAV:   3    -0.432801796905E+02   -0.38592E+01   -0.38024E+01  3030   0.282E+01
DAV:   4    -0.433515703699E+02   -0.71391E-01   -0.71128E-01  2915   0.448E+00
DAV:   5    -0.433532204357E+02   -0.16501E-02   -0.16492E-02  2932   0.601E-01
DAV:   6    -0.433532908245E+02   -0.70389E-04   -0.70384E-04  3069   0.109E-01
DAV:   7    -0.433532924135E+02   -0.15889E-05   -0.15885E-05  2950   0.145E-02
DAV:   8    -0.433532924835E+02   -0.70075E-07   -0.70653E-07  2474   0.248E-03
   1 F= -.43353292E+02 E0= -.43353129E+02  d E =-.327041E-03
 writing wavefunctions
