Au fcc                                  
   4.07820000000000     
     0.000000    0.500000    0.500000
     0.500000    0.000000    0.500000
     0.500000    0.500000    0.000000
   Au
     1
Direct
  0.000000  0.000000  0.000000
 
   24   24   24
  82.078      78.953      70.886      60.635      50.250      40.207      30.379      21.255      13.928      9.1177    
  6.5018      5.1601      4.7373      5.1601      6.5018      9.1177      13.928      21.255      30.379      40.207    
  50.250      60.635      70.886      78.953      78.953      73.388      64.356      54.295      44.362      34.585    
  25.130      16.921      10.979      7.4765      5.6318      4.7824      4.7867      5.6360      7.4720      10.975    
  16.926      25.136      34.584      44.359      54.296      64.352      73.374      78.945      70.886      64.356    
  55.759      46.587      37.288      28.018      19.487      12.785      8.4858      6.1483      4.9190      4.5306    
  4.9189      6.1483      8.4858      12.785      19.487      28.018      37.288      46.587      55.759      64.356    
  70.886      73.374      60.635      54.295      46.587      38.215      29.538      21.202      14.232      9.3997    
  6.6181      5.0965      4.3975      4.3942      5.0933      6.6214      9.4023      14.227      21.197      29.541    
  38.220      46.588      54.296      60.642      64.356      64.352      50.250      44.362      37.288      29.538    
  21.796      15.026      10.046      6.9925      5.2604      4.3379      4.0540      4.3379      5.2604      6.9925    
  10.046      15.026      21.797      29.538      37.288      44.362      50.250      54.296      55.759      54.296    
  40.207      34.585      28.018      21.202      15.026      10.274      7.1998      5.3792      4.3207      3.8484    
  3.8501      4.3225      5.3780      7.1996      10.278      15.027      21.197      28.011      34.584      40.211    
  44.362      46.588      46.587      44.359      30.379      25.130      19.487      14.232      10.046      7.1998    
  5.4201      4.3204      3.7458      3.5699      3.7458      4.3204      5.4201      7.1998      10.046      14.232    
  19.487      25.130      30.379      34.584      37.288      38.220      37.288      34.584      21.255      16.921    
  12.785      9.3997      6.9925      5.3792      4.3204      3.7155      3.4478      3.4470      3.7141      4.3194    
  5.3780      6.9918      9.4023      12.792      16.926      21.253      25.130      28.011      29.538      29.541    
  28.018      25.136      13.928      10.979      8.4858      6.6181      5.2604      4.3207      3.7458      3.4478    
  3.3569      3.4478      3.7458      4.3207      5.2604      6.6181      8.4858      10.979      13.928      16.926    
  19.487      21.197      21.797      21.197      19.487      16.926      9.1177      7.4765      6.1483      5.0965    
  4.3379      3.8484      3.5699      3.4470      3.4478      3.5718      3.8501      4.3378      5.0933      6.1429    
  7.4720      9.1174      10.979      12.792      14.232      15.027      15.026      14.227      12.785      10.975    
  6.5018      5.6318      4.9190      4.3975      4.0540      3.8501      3.7458      3.7141      3.7458      3.8501    
  4.0540      4.3975      4.9190      5.6318      6.5018      7.4720      8.4858      9.4023      10.046      10.278    
  10.046      9.4023      8.4858      7.4720      5.1601      4.7824      4.5306      4.3942      4.3379      4.3225    
  4.3204      4.3194      4.3207      4.3378      4.3975      4.5361      4.7867      5.1601      5.6318      6.1429    
  6.6181      6.9918      7.1998      7.1996      6.9925      6.6214      6.1483      5.6360      4.7373      4.7867    
  4.9189      5.0933      5.2604      5.3780      5.4201      5.3780      5.2604      5.0933      4.9190      4.7867    
  4.7374      4.7867      4.9190      5.0933      5.2604      5.3780      5.4201      5.3780      5.2604      5.0933    
  4.9189      4.7867      5.1601      5.6360      6.1483      6.6214      6.9925      7.1996      7.1998      6.9918    
  6.6181      6.1429      5.6318      5.1601      4.7867      4.5361      4.3975      4.3378      4.3207      4.3194    
  4.3204      4.3225      4.3379      4.3942      4.5306      4.7824      6.5018      7.4720      8.4858      9.4023    
  10.046      10.278      10.046      9.4023      8.4858      7.4720      6.5018      5.6318      4.9190      4.3975    
  4.0540      3.8501      3.7458      3.7141      3.7458      3.8501      4.0540      4.3975      4.9190      5.6318    
  9.1177      10.975      12.785      14.227      15.026      15.027      14.232      12.792      10.979      9.1174    
  7.4720      6.1429      5.0933      4.3378      3.8501      3.5718      3.4478      3.4470      3.5699      3.8484    
  4.3379      5.0965      6.1483      7.4765      13.928      16.926      19.487      21.197      21.797      21.197    
  19.487      16.926      13.928      10.979      8.4858      6.6181      5.2604      4.3207      3.7458      3.4478    
  3.3569      3.4478      3.7458      4.3207      5.2604      6.6181      8.4858      10.979      21.255      25.136    
  28.018      29.541      29.538      28.011      25.130      21.253      16.926      12.792      9.4023      6.9918    
  5.3780      4.3194      3.7141      3.4470      3.4478      3.7155      4.3204      5.3792      6.9925      9.3997    
  12.785      16.921      30.379      34.584      37.288      38.220      37.288      34.584      30.379      25.130    
  19.487      14.232      10.046      7.1998      5.4201      4.3204      3.7458      3.5699      3.7458      4.3204    
  5.4201      7.1998      10.046      14.232      19.487      25.130      40.207      44.359      46.587      46.588    
  44.362      40.211      34.584      28.011      21.197      15.027      10.278      7.1996      5.3780      4.3225    
  3.8501      3.8484      4.3207      5.3792      7.1998      10.274      15.026      21.202      28.018      34.585    
  50.250      54.296      55.759      54.296      50.250      44.362      37.288      29.538      21.797      15.026    
  10.046      6.9925      5.2604      4.3379      4.0540      4.3379      5.2604      6.9925      10.046      15.026    
  21.796      29.538      37.288      44.362      60.635      64.352      64.356      60.642      54.296      46.588    
  38.220      29.541      21.197      14.227      9.4023      6.6214      5.0933      4.3942      4.3975      5.0965    
  6.6181      9.3997      14.232      21.202      29.538      38.215      46.587      54.295      70.886      73.374    
  70.886      64.356      55.759      46.587      37.288      28.018      19.487      12.785      8.4858      6.1483    
  4.9189      4.5306      4.9190      6.1483      8.4858      12.785      19.487      28.018      37.288      46.587    
  55.759      64.356      78.953      78.945      73.374      64.352      54.296      44.359      34.584      25.136    
  16.926      10.975      7.4720      5.6360      4.7867      4.7824      5.6318      7.4765      10.979      16.921    
  25.130      34.585      44.362      54.295      64.356      73.388      78.953      73.388      64.356      54.295    
  44.362      34.585      25.130      16.921      10.979      7.4765      5.6318      4.7824      4.7867      5.6360    
  7.4720      10.975      16.926      25.136      34.584      44.359      54.296      64.352      73.374      78.945    
  73.388      66.366      57.233      47.672      38.151      28.728      20.028      13.141      8.6889      6.2687    
  5.0020      4.6009      5.0020      6.2685      8.6883      13.141      20.031      28.734      38.158      47.672    
  57.220      66.345      73.371      76.072      64.356      57.233      48.842      40.022      31.033      22.377    
  15.042      9.8792      6.8873      5.2733      4.5285      4.5249      5.2697      6.8907      9.8824      15.039    
  22.375      31.040      40.028      48.836      57.221      64.351      68.613      68.613      54.295      47.672    
  40.022      31.826      23.627      16.332      10.846      7.4355      5.5351      4.5236      4.2109      4.5237    
  5.5352      7.4352      10.845      16.330      23.626      31.828      40.025      47.675      54.296      59.017    
  60.760      59.017      44.362      38.151      31.033      23.627      16.784      11.381      7.8179      5.7476    
  4.5537      4.0173      4.0196      4.5559      5.7452      7.8152      11.382      16.787      23.626      31.033    
  38.154      44.362      49.091      51.703      51.707      49.096      34.585      28.728      22.377      16.332    
  11.381      7.9511      5.8593      4.5872      3.9171      3.7111      3.9169      4.5872      5.8601      7.9529    
  11.382      16.332      22.375      28.724      34.583      39.305      42.388      43.462      42.387      39.305    
  25.130      20.028      15.042      10.846      7.8179      5.8593      4.5976      3.8741      3.5538      3.5528    
  3.8732      4.5986      5.8601      7.8165      10.845      15.043      20.030      25.130      29.635      32.969    
  34.735      34.733      32.967      29.635      16.921      13.141      9.8792      7.4355      5.7476      4.5872    
  3.8741      3.5050      3.3927      3.5049      3.8732      4.5850      5.7452      7.4352      9.8824      13.147    
  16.925      20.680      23.833      25.919      26.648      25.923      23.837      20.680      10.979      8.6889    
  6.8873      5.5351      4.5537      3.9171      3.5538      3.3927      3.3929      3.5541      3.9169      4.5534    
  5.5353      6.8874      8.6884      10.979      13.546      16.001      17.922      18.972      18.972      17.921    
  16.000      13.545      7.4765      6.2687      5.2733      4.5236      4.0173      3.7111      3.5528      3.5049    
  3.5541      3.7134      4.0196      4.5236      5.2697      6.2629      7.4720      8.8978      10.417      11.785    
  12.739      13.079      12.734      11.779      10.412      8.8978      5.6318      5.0020      4.5285      4.2109    
  4.0196      3.9169      3.8732      3.8732      3.9169      4.0196      4.2108      4.5285      5.0020      5.6317    
  6.3736      7.1581      7.9183      8.5366      8.8857      8.8856      8.5364      7.9183      7.1582      6.3737    
  4.7824      4.6009      4.5249      4.5237      4.5559      4.5872      4.5986      4.5850      4.5534      4.5236    
  4.5285      4.6067      4.7867      5.0708      5.4279      5.8012      6.1250      6.3439      6.4218      6.3450    
  6.1281      5.8060      5.4318      5.0707      4.7867      5.0020      5.2697      5.5352      5.7452      5.8601    
  5.8601      5.7452      5.5353      5.2697      5.0020      4.7867      4.6613      4.6340      4.6829      4.7687    
  4.8505      4.8988      4.8988      4.8505      4.7687      4.6829      4.6339      4.6613      5.6360      6.2685    
  6.8907      7.4352      7.8152      7.9529      7.8165      7.4352      6.8874      6.2629      5.6317      5.0708    
  4.6340      4.3355      4.1558      4.0603      4.0170      4.0054      4.0180      4.0603      4.1531      4.3306    
  4.6300      5.0707      7.4720      8.6883      9.8824      10.845      11.382      11.382      10.845      9.8824    
  8.6884      7.4720      6.3736      5.4279      4.6829      4.1558      3.8186      3.6267      3.5413      3.5412    
  3.6267      3.8187      4.1558      4.6829      5.4279      6.3737      10.975      13.141      15.039      16.330    
  16.787      16.332      15.043      13.147      10.979      8.8978      7.1581      5.8012      4.7687      4.0603    
  3.6267      3.4005      3.3308      3.3994      3.6253      4.0603      4.7714      5.8060      7.1621      8.8978    
  16.926      20.031      22.375      23.626      23.626      22.375      20.030      16.925      13.546      10.417    
  7.9183      6.1250      4.8505      4.0170      3.5413      3.3308      3.3313      3.5417      4.0166      4.8501    
  6.1254      7.9187      10.416      13.545      25.136      28.734      31.040      31.828      31.033      28.724    
  25.130      20.680      16.001      11.785      8.5366      6.3439      4.8988      4.0054      3.5412      3.3994    
  3.5417      4.0065      4.9001      6.3439      8.5337      11.780      15.997      20.680      34.584      38.158    
  40.028      40.025      38.154      34.583      29.635      23.833      17.922      12.739      8.8857      6.4218    
  4.8988      4.0180      3.6267      3.6253      4.0166      4.9001      6.4231      8.8842      12.737      17.922    
  23.834      29.635      44.359      47.672      48.836      47.675      44.362      39.305      32.969      25.919    
  18.972      13.079      8.8856      6.3450      4.8505      4.0603      3.8187      4.0603      4.8501      6.3439    
  8.8842      13.079      18.974      25.923      32.972      39.305      54.296      57.220      57.221      54.296    
  49.091      42.388      34.735      26.648      18.972      12.734      8.5364      6.1281      4.7687      4.1531    
  4.1558      4.7714      6.1254      8.5337      12.737      18.974      26.645      34.732      42.391      49.096    
  64.352      66.345      64.351      59.017      51.703      43.462      34.733      25.923      17.921      11.779    
  7.9183      5.8060      4.6829      4.3306      4.6829      5.8060      7.9187      11.780      17.922      25.923    
  34.732      43.460      51.701      59.017      73.374      73.371      68.613      60.760      51.707      42.387    
  32.967      23.837      16.000      10.412      7.1582      5.4318      4.6339      4.6300      5.4279      7.1621    
  10.416      15.997      23.834      32.972      42.391      51.701      60.752      68.613      78.945      76.072    
  68.613      59.017      49.096      39.305      29.635      20.680      13.545      8.8978      6.3737      5.0707    
  4.6613      5.0707      6.3737      8.8978      13.545      20.680      29.635      39.305      49.096      59.017    
  68.613      76.072      70.886      64.356      55.759      46.587      37.288      28.018      19.487      12.785    
  8.4858      6.1483      4.9190      4.5306      4.9189      6.1483      8.4858      12.785      19.487      28.018    
  37.288      46.587      55.759      64.356      70.886      73.374      64.356      57.233      48.842      40.022    
  31.033      22.377      15.042      9.8792      6.8873      5.2733      4.5285      4.5249      5.2697      6.8907    
  9.8824      15.039      22.375      31.040      40.028      48.836      57.221      64.351      68.613      68.613    
  55.759      48.842      40.966      32.609      24.256      16.786      11.129      7.5932      5.6321      4.5892    
  4.2660      4.5892      5.6321      7.5932      11.129      16.786      24.256      32.609      40.966      48.842    
  55.759      60.752      62.607      60.752      46.587      40.022      32.609      24.911      17.735      11.991    
  8.1602      5.9467      4.6803      4.1088      4.1113      4.6829      5.9445      8.1577      11.992      17.734    
  24.905      32.606      40.028      46.597      51.707      54.574      54.573      51.701      37.288      31.033    
  24.256      17.735      12.300      8.4755      6.1545      4.7667      4.0311      3.8045      4.0311      4.7667    
  6.1545      8.4755      12.300      17.735      24.256      31.033      37.288      42.392      45.779      46.974    
  45.779      42.391      28.018      22.377      16.786      11.991      8.4755      6.2260      4.8127      3.9969    
  3.6346      3.6332      3.9953      4.8140      6.2285      8.4769      11.992      16.788      22.375      28.012    
  32.967      36.643      38.602      38.601      36.644      32.972      19.487      15.042      11.129      8.1602    
  6.1545      4.8127      3.9854      3.5575      3.4274      3.5575      3.9854      4.8127      6.1545      8.1602    
  11.129      15.042      19.487      23.834      27.449      29.829      30.659      29.829      27.449      23.834    
  12.785      9.8792      7.5932      5.9467      4.7667      3.9969      3.5575      3.3632      3.3637      3.5578    
  3.9953      4.7638      5.9445      7.5936      9.8824      12.790      16.000      19.023      21.361      22.632    
  22.634      21.364      19.024      15.997      8.4858      6.8873      5.6321      4.6803      4.0311      3.6346    
  3.4274      3.3637      3.4274      3.6346      4.0311      4.6803      5.6321      6.8873      8.4858      10.416    
  12.463      14.287      15.546      15.995      15.546      14.287      12.463      10.416      6.1483      5.2733    
  4.5892      4.1088      3.8045      3.6332      3.5575      3.5578      3.6346      3.8072      4.1113      4.5892    
  5.2697      6.1428      7.1582      8.2824      9.3977      10.308      10.820      10.818      10.303      9.3939    
  8.2823      7.1621      4.9190      4.5285      4.2660      4.1113      4.0311      3.9953      3.9854      3.9953    
  4.0311      4.1113      4.2660      4.5285      4.9190      5.4279      6.0084      6.5869      7.0938      7.4486    
  7.5767      7.4485      7.0938      6.5869      6.0084      5.4279      4.5306      4.5249      4.5892      4.6829    
  4.7667      4.8140      4.8127      4.7638      4.6803      4.5892      4.5285      4.5361      4.6340      4.8168    
  5.0517      5.2892      5.4792      5.5840      5.5849      5.4818      5.2932      5.0550      4.8168      4.6300    
  4.9189      5.2697      5.6321      5.9445      6.1545      6.2285      6.1545      5.9445      5.6321      5.2697    
  4.9190      4.6340      4.4451      4.3520      4.3299      4.3443      4.3652      4.3742      4.3652      4.3444    
  4.3299      4.3520      4.4450      4.6339      6.1483      6.8907      7.5932      8.1577      8.4755      8.4769    
  8.1602      7.5936      6.8873      6.1428      5.4279      4.8168      4.3520      4.0344      3.8380      3.7294    
  3.6821      3.6823      3.7292      3.8360      4.0306      4.3487      4.8168      5.4318      8.4858      9.8824    
  11.129      11.992      12.300      11.992      11.129      9.8824      8.4858      7.1582      6.0084      5.0517    
  4.3299      3.8380      3.5356      3.3763      3.3271      3.3763      3.5356      3.8380      4.3299      5.0517    
  6.0084      7.1582      12.785      15.039      16.786      17.734      17.735      16.788      15.042      12.790    
  10.416      8.2824      6.5869      5.2892      4.3443      3.7294      3.3763      3.2187      3.2185      3.3757    
  3.7292      4.3462      5.2933      6.5904      8.2823      10.412      19.487      22.375      24.256      24.905    
  24.256      22.375      19.487      16.000      12.463      9.3977      7.0938      5.4792      4.3652      3.6821    
  3.3271      3.2185      3.3271      3.6821      4.3652      5.4792      7.0938      9.3978      12.463      16.000    
  28.018      31.040      32.609      32.606      31.033      28.012      23.834      19.023      14.287      10.308    
  7.4486      5.5840      4.3742      3.6823      3.3763      3.3757      3.6821      4.3759      5.5849      7.4457    
  10.303      14.285      19.024      23.837      37.288      40.028      40.966      40.028      37.288      32.967    
  27.449      21.361      15.546      10.820      7.5767      5.5849      4.3652      3.7292      3.5356      3.7292    
  4.3652      5.5849      7.5767      10.820      15.546      21.361      27.449      32.967      46.587      48.836    
  48.842      46.597      42.392      36.643      29.829      22.632      15.995      10.818      7.4485      5.4818    
  4.3444      3.8360      3.8380      4.3462      5.4792      7.4457      10.820      15.999      22.634      29.831    
  36.644      42.387      55.759      57.221      55.759      51.707      45.779      38.602      30.659      22.634    
  15.546      10.303      7.0938      5.2932      4.3299      4.0306      4.3299      5.2933      7.0938      10.303    
  15.546      22.634      30.659      38.602      45.779      51.707      64.356      64.351      60.752      54.574    
  46.974      38.601      29.829      21.364      14.287      9.3939      6.5869      5.0550      4.3520      4.3487    
  5.0517      6.5904      9.3978      14.285      21.361      29.831      38.602      46.970      54.573      60.760    
  70.886      68.613      62.607      54.573      45.779      36.644      27.449      19.024      12.463      8.2823    
  6.0084      4.8168      4.4450      4.8168      6.0084      8.2823      12.463      19.024      27.449      36.644    
  45.779      54.573      62.607      68.613      73.374      68.613      60.752      51.701      42.391      32.972    
  23.834      15.997      10.416      7.1621      5.4279      4.6300      4.6339      5.4318      7.1582      10.412    
  16.000      23.837      32.967      42.387      51.707      60.760      68.613      73.371      60.635      54.295    
  46.587      38.215      29.538      21.202      14.232      9.3997      6.6181      5.0965      4.3975      4.3942    
  5.0933      6.6214      9.4023      14.227      21.197      29.541      38.220      46.588      54.296      60.642    
  64.356      64.352      54.295      47.672      40.022      31.826      23.627      16.332      10.846      7.4355    
  5.5351      4.5236      4.2109      4.5237      5.5352      7.4352      10.845      16.330      23.626      31.828    
  40.025      47.675      54.296      59.017      60.760      59.017      46.587      40.022      32.609      24.911    
  17.735      11.991      8.1602      5.9467      4.6803      4.1088      4.1113      4.6829      5.9445      8.1577    
  11.992      17.734      24.905      32.606      40.028      46.597      51.707      54.574      54.573      51.701    
  38.215      31.826      24.911      18.231      12.629      8.6629      6.2572      4.8295      4.0712      3.8374    
  4.0713      4.8300      6.2581      8.6629      12.626      18.225      24.905      31.826      38.225      43.475    
  46.982      48.220      46.970      43.460      29.538      23.627      17.735      12.629      8.8472      6.4272    
  4.9295      4.0630      3.6778      3.6764      4.0617      4.9313      6.4292      8.8459      12.626      17.733    
  23.626      29.538      34.735      38.609      40.684      40.680      38.602      34.732      21.202      16.332    
  11.991      8.6629      6.4272      4.9661      4.0623      3.5940      3.4515      3.5937      4.0619      4.9665    
  6.4292      8.6656      11.992      16.330      21.198      25.919      29.829      32.401      33.298      32.401    
  29.831      25.923      14.232      10.846      8.1602      6.2572      4.9295      4.0623      3.5679      3.3493    
  3.3498      3.5684      4.0619      4.9295      6.2582      8.1607      10.845      14.230      17.922      21.361    
  24.001      25.428      25.428      24.000      21.361      17.922      9.3997      7.4355      5.9467      4.8295    
  4.0630      3.5940      3.3493      3.2745      3.3498      3.5940      4.0618      4.8271      5.9446      7.4355    
  9.4022      11.784      14.287      16.495      18.008      18.546      18.009      16.495      14.285      11.780    
  6.6181      5.5351      4.6803      4.0712      3.6778      3.4515      3.3498      3.3498      3.4514      3.6779    
  4.0713      4.6804      5.5353      6.6182      7.9183      9.3970      10.867      12.061      12.731      12.731    
  12.061      10.868      9.3978      7.9187      5.0965      4.5236      4.1088      3.8374      3.6764      3.5937    
  3.5684      3.5940      3.6779      3.8400      4.1113      4.5237      5.0934      5.8012      6.5870      7.3884    
  8.1131      8.6256      8.8103      8.6230      8.1104      7.3884      6.5904      5.8060      4.3975      4.2109    
  4.1113      4.0713      4.0617      4.0619      4.0619      4.0618      4.0713      4.1113      4.2108      4.3975    
  4.6829      5.0517      5.4601      5.8462      6.1466      6.3120      6.3120      6.1466      5.8463      5.4602    
  5.0517      4.6829      4.3942      4.5237      4.6829      4.8300      4.9313      4.9665      4.9295      4.8271    
  4.6804      4.5237      4.3975      4.3354      4.3519      4.4366      4.5590      4.6808      4.7683      4.8004    
  4.7700      4.6837      4.5616      4.4366      4.3487      4.3306      5.0933      5.5352      5.9445      6.2581    
  6.4292      6.4292      6.2582      5.9446      5.5353      5.0934      4.6829      4.3519      4.1205      3.9810    
  3.9089      3.8771      3.8660      3.8660      3.8771      3.9089      3.9810      4.1205      4.3520      4.6829    
  6.6214      7.4352      8.1577      8.6629      8.8459      8.6656      8.1607      7.4355      6.6182      5.8012    
  5.0517      4.4366      3.9810      3.6731      3.4836      3.3829      3.3516      3.3826      3.4822      3.6704    
  3.9785      4.4366      5.0550      5.8060      9.4023      10.845      11.992      12.626      12.626      11.992    
  10.845      9.4022      7.9183      6.5870      5.4601      4.5590      3.9089      3.4836      3.2357      3.1235    
  3.1236      3.2358      3.4835      3.9089      4.5591      5.4602      6.5869      7.9183      14.227      16.330    
  17.734      18.225      17.733      16.330      14.230      11.784      9.3970      7.3884      5.8462      4.6808    
  3.8771      3.3829      3.1235      3.0434      3.1231      3.3829      3.8785      4.6835      5.8487      7.3884    
  9.3939      11.779      21.197      23.626      24.905      24.905      23.626      21.198      17.922      14.287    
  10.867      8.1131      6.1466      4.7683      3.8660      3.3516      3.1236      3.1231      3.3511      3.8664    
  4.7687      6.1461      8.1127      10.868      14.287      17.921      29.541      31.828      32.606      31.826    
  29.538      25.919      21.361      16.495      12.061      8.6256      6.3120      4.8004      3.8660      3.3826    
  3.2358      3.3829      3.8664      4.8004      6.3107      8.6230      12.059      16.495      21.364      25.923    
  38.220      40.025      40.028      38.225      34.735      29.829      24.001      18.008      12.731      8.8103    
  6.3120      4.7700      3.8771      3.4822      3.4835      3.8785      4.7687      6.3107      8.8117      12.733    
  18.008      24.000      29.829      34.733      46.588      47.675      46.597      43.475      38.609      32.401    
  25.428      18.546      12.731      8.6230      6.1466      4.6837      3.9089      3.6704      3.9089      4.6835    
  6.1461      8.6230      12.733      18.551      25.433      32.401      38.601      43.462      54.296      54.296    
  51.707      46.982      40.684      33.298      25.428      18.009      12.061      8.1104      5.8463      4.5616    
  3.9810      3.9785      4.5591      5.8487      8.1127      12.059      18.008      25.433      33.302      40.680    
  46.974      51.703      60.642      59.017      54.574      48.220      40.680      32.401      24.000      16.495    
  10.868      7.3884      5.4602      4.4366      4.1205      4.4366      5.4602      7.3884      10.868      16.495    
  24.000      32.401      40.680      48.220      54.574      59.017      64.356      60.760      54.573      46.970    
  38.602      29.831      21.361      14.285      9.3978      6.5904      5.0517      4.3487      4.3520      5.0550    
  6.5869      9.3939      14.287      21.364      29.829      38.601      46.974      54.574      60.752      64.351    
  64.352      59.017      51.701      43.460      34.732      25.923      17.922      11.780      7.9187      5.8060    
  4.6829      4.3306      4.6829      5.8060      7.9183      11.779      17.921      25.923      34.733      43.462    
  51.703      59.017      64.351      66.345      50.250      44.362      37.288      29.538      21.796      15.026    
  10.046      6.9925      5.2604      4.3379      4.0540      4.3379      5.2604      6.9925      10.046      15.026    
  21.797      29.538      37.288      44.362      50.250      54.296      55.759      54.296      44.362      38.151    
  31.033      23.627      16.784      11.381      7.8179      5.7476      4.5537      4.0173      4.0196      4.5559    
  5.7452      7.8152      11.382      16.787      23.626      31.033      38.154      44.362      49.091      51.703    
  51.707      49.096      37.288      31.033      24.256      17.735      12.300      8.4755      6.1545      4.7667    
  4.0311      3.8045      4.0311      4.7667      6.1545      8.4755      12.300      17.735      24.256      31.033    
  37.288      42.392      45.779      46.974      45.779      42.391      29.538      23.627      17.735      12.629    
  8.8472      6.4272      4.9295      4.0630      3.6778      3.6764      4.0617      4.9313      6.4292      8.8459    
  12.626      17.733      23.626      29.538      34.735      38.609      40.684      40.680      38.602      34.732    
  21.796      16.784      12.300      8.8472      6.5265      5.0208      4.0890      3.6065      3.4599      3.6065    
  4.0890      5.0208      6.5265      8.8472      12.300      16.784      21.796      26.645      30.659      33.302    
  34.224      33.302      30.659      26.645      15.026      11.381      8.4755      6.4272      5.0208      4.1006    
  3.5756      3.3436      3.3440      3.5758      4.0995      5.0202      6.4292      8.4787      11.382      15.025    
  18.972      22.630      25.428      26.941      26.943      25.433      22.634      18.974      10.046      7.8179    