Au fcc                                  
   4.07820000000000     
     0.000000    0.500000    0.500000
     0.500000    0.000000    0.500000
     0.500000    0.500000    0.000000
   Au
     1
Direct
  0.000000  0.000000  0.000000
 
   24   24   24
 0.82077727495E+02 0.78953294790E+02 0.70886174275E+02 0.60635188119E+02 0.50249835814E+02
 0.40207275429E+02 0.30379322468E+02 0.21254773652E+02 0.13928303752E+02 0.91176802309E+01
 0.65017930013E+01 0.51600931132E+01 0.47373464151E+01 0.51600931132E+01 0.65017930013E+01
 0.91176802309E+01 0.13928303752E+02 0.21254773652E+02 0.30379322468E+02 0.40207275429E+02
 0.50249835814E+02 0.60635188119E+02 0.70886174275E+02 0.78953294790E+02 0.78953294790E+02
 0.73388028987E+02 0.64356488551E+02 0.54295022380E+02 0.44361684719E+02 0.34584547918E+02
 0.25129700436E+02 0.16921001875E+02 0.10979012872E+02 0.74765167407E+01 0.56317520590E+01
 0.47823995318E+01 0.47867064598E+01 0.56360103443E+01 0.74720324330E+01 0.10974585534E+02
 0.16926021419E+02 0.25136421941E+02 0.34583805118E+02 0.44359216253E+02 0.54295984550E+02
 0.64351896361E+02 0.73373802815E+02 0.78944638356E+02 0.70886174275E+02 0.64356488551E+02
 0.55759411846E+02 0.46587205754E+02 0.37287975237E+02 0.28017626074E+02 0.19486813644E+02
 0.12785296372E+02 0.84858158898E+01 0.61482953271E+01 0.49189620779E+01 0.45306050399E+01
 0.49189427453E+01 0.61482716485E+01 0.84858078089E+01 0.12785313835E+02 0.19486848028E+02
 0.28017651665E+02 0.37287965111E+02 0.46587146086E+02 0.55759314672E+02 0.64356387972E+02
 0.70886110384E+02 0.73373802815E+02 0.60635188119E+02 0.54295022380E+02 0.46587205754E+02
 0.38215305882E+02 0.29538183870E+02 0.21202421750E+02 0.14232073922E+02 0.93996646304E+01
 0.66181101499E+01 0.50965048798E+01 0.43974728822E+01 0.43942275748E+01 0.50933300912E+01
 0.66213704332E+01 0.94022918290E+01 0.14227226175E+02 0.21197311831E+02 0.29540795638E+02
 0.38220162433E+02 0.46587532303E+02 0.54295997542E+02 0.60641748388E+02 0.64356387972E+02
 0.64351896361E+02 0.50249835814E+02 0.44361684719E+02 0.37287975237E+02 0.29538183870E+02
 0.21796492031E+02 0.15025629949E+02 0.10045763563E+02 0.69924954781E+01 0.52604199809E+01
 0.43379350648E+01 0.40540149593E+01 0.43379262021E+01 0.52604060559E+01 0.69924826081E+01
 0.10045758215E+02 0.15025635997E+02 0.21796510215E+02 0.29538211885E+02 0.37288007379E+02
 0.44361716066E+02 0.50249860601E+02 0.54295997542E+02 0.55759314672E+02 0.54295984550E+02
 0.40207275429E+02 0.34584547918E+02 0.28017626074E+02 0.21202421750E+02 0.15025629949E+02
 0.10273890092E+02 0.71997639945E+01 0.53791766283E+01 0.43207047801E+01 0.38483717285E+01
 0.38501270169E+01 0.43225373133E+01 0.53780187241E+01 0.71996288668E+01 0.10277548797E+02
 0.15027347474E+02 0.21197299695E+02 0.28011011562E+02 0.34583872817E+02 0.40211047540E+02
 0.44361716066E+02 0.46587532303E+02 0.46587146086E+02 0.44359216253E+02 0.30379322468E+02
 0.25129700436E+02 0.19486813644E+02 0.14232073922E+02 0.10045763563E+02 0.71997639945E+01
 0.54200527888E+01 0.43203873055E+01 0.37458245536E+01 0.35698973828E+01 0.37458423688E+01
 0.43204117306E+01 0.54200691259E+01 0.71997632702E+01 0.10045750325E+02 0.14232064471E+02
 0.19486825047E+02 0.25129743762E+02 0.30379389156E+02 0.34583872817E+02 0.37288007379E+02
 0.38220162433E+02 0.37287965111E+02 0.34583805118E+02 0.21254773652E+02 0.16921001875E+02
 0.12785296372E+02 0.93996646304E+01 0.69924954781E+01 0.53791766283E+01 0.43203873055E+01
 0.37155305391E+01 0.34478220535E+01 0.34470172229E+01 0.37141453772E+01 0.43194198877E+01
 0.53780265738E+01 0.69917783008E+01 0.94022805022E+01 0.12791615900E+02 0.16925992976E+02
 0.21253393478E+02 0.25129743762E+02 0.28011011562E+02 0.29538211885E+02 0.29540795638E+02
 0.28017651665E+02 0.25136421941E+02 0.13928303752E+02 0.10979012872E+02 0.84858158898E+01
 0.66181101499E+01 0.52604199809E+01 0.43207047801E+01 0.37458245536E+01 0.34478220535E+01
 0.33569440406E+01 0.34478261800E+01 0.37458307873E+01 0.43207097015E+01 0.52604192241E+01
 0.66181024207E+01 0.84857977349E+01 0.10978989063E+02 0.13928275651E+02 0.16925992976E+02
 0.19486825047E+02 0.21197299695E+02 0.21796510215E+02 0.21197311831E+02 0.19486848028E+02
 0.16926021419E+02 0.91176802309E+01 0.74765167407E+01 0.61482953271E+01 0.50965048798E+01
 0.43379350648E+01 0.38483717285E+01 0.35698973828E+01 0.34470172229E+01 0.34478261800E+01
 0.35718296540E+01 0.38501090310E+01 0.43377898826E+01 0.50933465085E+01 0.61429217864E+01
 0.74720288500E+01 0.91173949625E+01 0.10978989063E+02 0.12791615900E+02 0.14232064471E+02
 0.15027347474E+02 0.15025635997E+02 0.14227226175E+02 0.12785313835E+02 0.10974585534E+02
 0.65017930013E+01 0.56317520590E+01 0.49189620779E+01 0.43974728822E+01 0.40540149593E+01
 0.38501270169E+01 0.37458423688E+01 0.37141453772E+01 0.37458307873E+01 0.38501090310E+01
 0.40539972214E+01 0.43974631485E+01 0.49189597960E+01 0.56317549884E+01 0.65017967474E+01
 0.74720288500E+01 0.84857977349E+01 0.94022805022E+01 0.10045750325E+02 0.10277548797E+02
 0.10045758215E+02 0.94022918290E+01 0.84858078089E+01 0.74720324330E+01 0.51600931132E+01
 0.47823995318E+01 0.45306050399E+01 0.43942275748E+01 0.43379262021E+01 0.43225373133E+01
 0.43204117306E+01 0.43194198877E+01 0.43207097015E+01 0.43377898826E+01 0.43974631485E+01
 0.45361363370E+01 0.47867238611E+01 0.51600874738E+01 0.56317549884E+01 0.61429217864E+01
 0.66181024207E+01 0.69917783008E+01 0.71997632702E+01 0.71996288668E+01 0.69924826081E+01
 0.66213704332E+01 0.61482716485E+01 0.56360103443E+01 0.47373464151E+01 0.47867064598E+01
 0.49189427453E+01 0.50933300912E+01 0.52604060559E+01 0.53780187241E+01 0.54200691259E+01
 0.53780265738E+01 0.52604192241E+01 0.50933465085E+01 0.49189597960E+01 0.47867238611E+01
 0.47373641272E+01 0.47867238611E+01 0.49189597960E+01 0.50933465085E+01 0.52604192241E+01
 0.53780265738E+01 0.54200691259E+01 0.53780187241E+01 0.52604060559E+01 0.50933300912E+01
 0.49189427453E+01 0.47867064598E+01 0.51600931132E+01 0.56360103443E+01 0.61482716485E+01
 0.66213704332E+01 0.69924826081E+01 0.71996288668E+01 0.71997632702E+01 0.69917783008E+01
 0.66181024207E+01 0.61429217864E+01 0.56317549884E+01 0.51600874738E+01 0.47867238611E+01
 0.45361363370E+01 0.43974631485E+01 0.43377898826E+01 0.43207097015E+01 0.43194198877E+01
 0.43204117306E+01 0.43225373133E+01 0.43379262021E+01 0.43942275748E+01 0.45306050399E+01
 0.47823995318E+01 0.65017930013E+01 0.74720324330E+01 0.84858078089E+01 0.94022918290E+01
 0.10045758215E+02 0.10277548797E+02 0.10045750325E+02 0.94022805022E+01 0.84857977349E+01
 0.74720288500E+01 0.65017967474E+01 0.56317549884E+01 0.49189597960E+01 0.43974631485E+01
 0.40539972214E+01 0.38501090310E+01 0.37458307873E+01 0.37141453772E+01 0.37458423688E+01
 0.38501270169E+01 0.40540149593E+01 0.43974728822E+01 0.49189620779E+01 0.56317520590E+01
 0.91176802309E+01 0.10974585534E+02 0.12785313835E+02 0.14227226175E+02 0.15025635997E+02
 0.15027347474E+02 0.14232064471E+02 0.12791615900E+02 0.10978989063E+02 0.91173949625E+01
 0.74720288500E+01 0.61429217864E+01 0.50933465085E+01 0.43377898826E+01 0.38501090310E+01
 0.35718296540E+01 0.34478261800E+01 0.34470172229E+01 0.35698973828E+01 0.38483717285E+01
 0.43379350648E+01 0.50965048798E+01 0.61482953271E+01 0.74765167407E+01 0.13928303752E+02
 0.16926021419E+02 0.19486848028E+02 0.21197311831E+02 0.21796510215E+02 0.21197299695E+02
 0.19486825047E+02 0.16925992976E+02 0.13928275651E+02 0.10978989063E+02 0.84857977349E+01
 0.66181024207E+01 0.52604192241E+01 0.43207097015E+01 0.37458307873E+01 0.34478261800E+01
 0.33569440406E+01 0.34478220535E+01 0.37458245536E+01 0.43207047801E+01 0.52604199809E+01
 0.66181101499E+01 0.84858158898E+01 0.10979012872E+02 0.21254773652E+02 0.25136421941E+02
 0.28017651665E+02 0.29540795638E+02 0.29538211885E+02 0.28011011562E+02 0.25129743762E+02
 0.21253393478E+02 0.16925992976E+02 0.12791615900E+02 0.94022805022E+01 0.69917783008E+01
 0.53780265738E+01 0.43194198877E+01 0.37141453772E+01 0.34470172229E+01 0.34478220535E+01
 0.37155305391E+01 0.43203873055E+01 0.53791766283E+01 0.69924954781E+01 0.93996646304E+01
 0.12785296372E+02 0.16921001875E+02 0.30379322468E+02 0.34583805118E+02 0.37287965111E+02
 0.38220162433E+02 0.37288007379E+02 0.34583872817E+02 0.30379389156E+02 0.25129743762E+02
 0.19486825047E+02 0.14232064471E+02 0.10045750325E+02 0.71997632702E+01 0.54200691259E+01
 0.43204117306E+01 0.37458423688E+01 0.35698973828E+01 0.37458245536E+01 0.43203873055E+01
 0.54200527888E+01 0.71997639945E+01 0.10045763563E+02 0.14232073922E+02 0.19486813644E+02
 0.25129700436E+02 0.40207275429E+02 0.44359216253E+02 0.46587146086E+02 0.46587532303E+02
 0.44361716066E+02 0.40211047540E+02 0.34583872817E+02 0.28011011562E+02 0.21197299695E+02
 0.15027347474E+02 0.10277548797E+02 0.71996288668E+01 0.53780187241E+01 0.43225373133E+01
 0.38501270169E+01 0.38483717285E+01 0.43207047801E+01 0.53791766283E+01 0.71997639945E+01
 0.10273890092E+02 0.15025629949E+02 0.21202421750E+02 0.28017626074E+02 0.34584547918E+02
 0.50249835814E+02 0.54295984550E+02 0.55759314672E+02 0.54295997542E+02 0.50249860601E+02
 0.44361716066E+02 0.37288007379E+02 0.29538211885E+02 0.21796510215E+02 0.15025635997E+02
 0.10045758215E+02 0.69924826081E+01 0.52604060559E+01 0.43379262021E+01 0.40540149593E+01
 0.43379350648E+01 0.52604199809E+01 0.69924954781E+01 0.10045763563E+02 0.15025629949E+02
 0.21796492031E+02 0.29538183870E+02 0.37287975237E+02 0.44361684719E+02 0.60635188119E+02
 0.64351896361E+02 0.64356387972E+02 0.60641748388E+02 0.54295997542E+02 0.46587532303E+02
 0.38220162433E+02 0.29540795638E+02 0.21197311831E+02 0.14227226175E+02 0.94022918290E+01
 0.66213704332E+01 0.50933300912E+01 0.43942275748E+01 0.43974728822E+01 0.50965048798E+01
 0.66181101499E+01 0.93996646304E+01 0.14232073922E+02 0.21202421750E+02 0.29538183870E+02
 0.38215305882E+02 0.46587205754E+02 0.54295022380E+02 0.70886174275E+02 0.73373802815E+02
 0.70886110384E+02 0.64356387972E+02 0.55759314672E+02 0.46587146086E+02 0.37287965111E+02
 0.28017651665E+02 0.19486848028E+02 0.12785313835E+02 0.84858078089E+01 0.61482716485E+01
 0.49189427453E+01 0.45306050399E+01 0.49189620779E+01 0.61482953271E+01 0.84858158898E+01
 0.12785296372E+02 0.19486813644E+02 0.28017626074E+02 0.37287975237E+02 0.46587205754E+02
 0.55759411846E+02 0.64356488551E+02 0.78953294790E+02 0.78944638356E+02 0.73373802815E+02
 0.64351896361E+02 0.54295984550E+02 0.44359216253E+02 0.34583805118E+02 0.25136421941E+02
 0.16926021419E+02 0.10974585534E+02 0.74720324330E+01 0.56360103443E+01 0.47867064598E+01
 0.47823995318E+01 0.56317520590E+01 0.74765167407E+01 0.10979012872E+02 0.16921001875E+02
 0.25129700436E+02 0.34584547918E+02 0.44361684719E+02 0.54295022380E+02 0.64356488551E+02
 0.73388028987E+02 0.78953294790E+02 0.73388028987E+02 0.64356488551E+02 0.54295022380E+02
 0.44361684719E+02 0.34584547918E+02 0.25129700436E+02 0.16921001875E+02 0.10979012872E+02
 0.74765167407E+01 0.56317520590E+01 0.47823995318E+01 0.47867064598E+01 0.56360103443E+01
 0.74720324330E+01 0.10974585534E+02 0.16926021419E+02 0.25136421941E+02 0.34583805118E+02
 0.44359216253E+02 0.54295984550E+02 0.64351896361E+02 0.73373802815E+02 0.78944638356E+02
 0.73388028987E+02 0.66366014177E+02 0.57232503063E+02 0.47671876831E+02 0.38151080059E+02
 0.28727642943E+02 0.20028232854E+02 0.13141206639E+02 0.86889109413E+01 0.62687258836E+01
 0.50020355319E+01 0.46008975747E+01 0.50020497484E+01 0.62684847779E+01 0.86883020658E+01
 0.13141215971E+02 0.20031088238E+02 0.28734433249E+02 0.38158306690E+02 0.47671804461E+02
 0.57219698647E+02 0.66344699635E+02 0.73371421681E+02 0.76071578470E+02 0.64356488551E+02
 0.57232503063E+02 0.48842146945E+02 0.40021746434E+02 0.31033123097E+02 0.22376895252E+02
 0.15042294300E+02 0.98791565356E+01 0.68873356173E+01 0.52733085398E+01 0.45284749118E+01
 0.45248839124E+01 0.52696731392E+01 0.68906989193E+01 0.98823732629E+01 0.15038914472E+02
 0.22375228595E+02 0.31040226032E+02 0.40027808599E+02 0.48836397041E+02 0.57221347331E+02
 0.64351191790E+02 0.68613084709E+02 0.68613457068E+02 0.54295022380E+02 0.47671876831E+02
 0.40021746434E+02 0.31826288795E+02 0.23627292855E+02 0.16331623859E+02 0.10846268219E+02
 0.74355485190E+01 0.55350891092E+01 0.45236095382E+01 0.42108675434E+01 0.45237264586E+01
 0.55352371393E+01 0.74352232523E+01 0.10844917436E+02 0.16329709287E+02 0.23626472882E+02
 0.31827883283E+02 0.40025114818E+02 0.47674883617E+02 0.54296247921E+02 0.59016730855E+02
 0.60759518625E+02 0.59016746260E+02 0.44361684719E+02 0.38151080059E+02 0.31033123097E+02
 0.23627292855E+02 0.16784121405E+02 0.11380619403E+02 0.78178904007E+01 0.57475688049E+01
 0.45536826212E+01 0.40173137277E+01 0.40195732000E+01 0.45559394710E+01 0.57452004063E+01
 0.78152481621E+01 0.11382416349E+02 0.16786575430E+02 0.23626413866E+02 0.31032713389E+02
 0.38153933312E+02 0.44362306097E+02 0.49091128149E+02 0.51703020106E+02 0.51706600285E+02
 0.49096090306E+02 0.34584547918E+02 0.28727642943E+02 0.22376895252E+02 0.16331623859E+02
 0.11380619403E+02 0.79511393950E+01 0.58592568817E+01 0.45872397121E+01 0.39171339208E+01
 0.37111036141E+01 0.39169056529E+01 0.45872489930E+01 0.58601271418E+01 0.79529430389E+01
 0.11382321757E+02 0.16331625134E+02 0.22374598873E+02 0.28724388628E+02 0.34582524935E+02
 0.39305238388E+02 0.42387870326E+02 0.43462467973E+02 0.42386988645E+02 0.39305179455E+02
 0.25129700436E+02 0.20028232854E+02 0.15042294300E+02 0.10846268219E+02 0.78178904007E+01
 0.58592568817E+01 0.45975958875E+01 0.38741353724E+01 0.35538174334E+01 0.35528309719E+01
 0.38731701880E+01 0.45986007496E+01 0.58601098477E+01 0.78164992386E+01 0.10844783700E+02
 0.15043149278E+02 0.20029820969E+02 0.25129966121E+02 0.29635364650E+02 0.32968557753E+02
 0.34734677914E+02 0.34733314504E+02 0.32966522311E+02 0.29634936095E+02 0.16921001875E+02
 0.13141206639E+02 0.98791565356E+01 0.74355485190E+01 0.57475688049E+01 0.45872397121E+01
 0.38741353724E+01 0.35049738391E+01 0.33926880666E+01 0.35048514157E+01 0.38731646771E+01
 0.45850382051E+01 0.57451874630E+01 0.74352170041E+01 0.98823907475E+01 0.13146829300E+02
 0.16925385816E+02 0.20679845378E+02 0.23833142573E+02 0.25919031450E+02 0.26648331947E+02
 0.25922894208E+02 0.23837040861E+02 0.20679829420E+02 0.10979012872E+02 0.86889109413E+01
 0.68873356173E+01 0.55350891092E+01 0.45536826212E+01 0.39171339208E+01 0.35538174334E+01
 0.33926880666E+01 0.33929264370E+01 0.35540510107E+01 0.39168925030E+01 0.45534410730E+01
 0.55352643462E+01 0.68873696409E+01 0.86883940040E+01 0.10978706604E+02 0.13545930745E+02
 0.16001410090E+02 0.17921941519E+02 0.18972089140E+02 0.18971974562E+02 0.17921337722E+02
 0.16000335995E+02 0.13545281337E+02 0.74765167407E+01 0.62687258836E+01 0.52733085398E+01
 0.45236095382E+01 0.40173137277E+01 0.37111036141E+01 0.35528309719E+01 0.35048514157E+01
 0.35540510107E+01 0.37134176636E+01 0.40195541178E+01 0.45235975348E+01 0.52696951352E+01
 0.62628796989E+01 0.74720391820E+01 0.88978295125E+01 0.10416539289E+02 0.11785467477E+02
 0.12738884045E+02 0.13079031954E+02 0.12734494798E+02 0.11779124997E+02 0.10411966982E+02
 0.88978484523E+01 0.56317520590E+01 0.50020355319E+01 0.45284749118E+01 0.42108675434E+01
 0.40195732000E+01 0.39169056529E+01 0.38731701880E+01 0.38731646771E+01 0.39168925030E+01
 0.40195541178E+01 0.42108440033E+01 0.45284593825E+01 0.50020323541E+01 0.56317408126E+01
 0.63736360311E+01 0.71581354146E+01 0.79183337265E+01 0.85365623457E+01 0.88856514588E+01
 0.88855908703E+01 0.85364484349E+01 0.79182798257E+01 0.71581597735E+01 0.63736724694E+01
 0.47823995318E+01 0.46008975747E+01 0.45248839124E+01 0.45237264586E+01 0.45559394710E+01
 0.45872489930E+01 0.45986007496E+01 0.45850382051E+01 0.45534410730E+01 0.45235975348E+01
 0.45284593825E+01 0.46066577405E+01 0.47867065362E+01 0.50707618317E+01 0.54278888319E+01
 0.58011991023E+01 0.61249869674E+01 0.63438850060E+01 0.64217852460E+01 0.63450326542E+01
 0.61281385965E+01 0.58060137836E+01 0.54317716804E+01 0.50707443356E+01 0.47867064598E+01
 0.50020497484E+01 0.52696731392E+01 0.55352371393E+01 0.57452004063E+01 0.58601271418E+01
 0.58601098477E+01 0.57451874630E+01 0.55352643462E+01 0.52696951352E+01 0.50020323541E+01
 0.47867065362E+01 0.46613436526E+01 0.46340014895E+01 0.46829396228E+01 0.47686724679E+01
 0.48505342409E+01 0.48987817436E+01 0.48987681844E+01 0.48505294734E+01 0.47687004106E+01
 0.46829426984E+01 0.46339410474E+01 0.46612826752E+01 0.56360103443E+01 0.62684847779E+01
 0.68906989193E+01 0.74352232523E+01 0.78152481621E+01 0.79529430389E+01 0.78164992386E+01
 0.74352170041E+01 0.68873696409E+01 0.62628796989E+01 0.56317408126E+01 0.50707618317E+01
 0.46340014895E+01 0.43354764085E+01 0.41557947009E+01 0.40603386531E+01 0.40170327311E+01
 0.40054083124E+01 0.40179728283E+01 0.40603439477E+01 0.41531107062E+01 0.43306433390E+01
 0.46300229549E+01 0.50707443356E+01 0.74720324330E+01 0.86883020658E+01 0.98823732629E+01
 0.10844917436E+02 0.11382416349E+02 0.11382321757E+02 0.10844783700E+02 0.98823907475E+01
 0.86883940040E+01 0.74720391820E+01 0.63736360311E+01 0.54278888319E+01 0.46829396228E+01
 0.41557947009E+01 0.38186386890E+01 0.36267113786E+01 0.35412597936E+01 0.35412365158E+01
 0.36267037624E+01 0.38186944689E+01 0.41558218817E+01 0.46828866054E+01 0.54278566294E+01
 0.63736724694E+01 0.10974585534E+02 0.13141215971E+02 0.15038914472E+02 0.16329709287E+02
 0.16786575430E+02 0.16331625134E+02 0.15043149278E+02 0.13146829300E+02 0.10978706604E+02
 0.88978295125E+01 0.71581354146E+01 0.58011991023E+01 0.47686724679E+01 0.40603386531E+01
 0.36267113786E+01 0.34005277401E+01 0.33308434396E+01 0.33994328970E+01 0.36253401114E+01
 0.40603253047E+01 0.47714087543E+01 0.58060301987E+01 0.71620645242E+01 0.88978484523E+01
 0.16926021419E+02 0.20031088238E+02 0.22375228595E+02 0.23626472882E+02 0.23626413866E+02
 0.22374598873E+02 0.20029820969E+02 0.16925385816E+02 0.13545930745E+02 0.10416539289E+02
 0.79183337265E+01 0.61249869674E+01 0.48505342409E+01 0.40170327311E+01 0.35412597936E+01
 0.33308434396E+01 0.33312716714E+01 0.35416763771E+01 0.40165798519E+01 0.48501040588E+01
 0.61254337023E+01 0.79186982380E+01 0.10415879665E+02 0.13545281337E+02 0.25136421941E+02
 0.28734433249E+02 0.31040226032E+02 0.31827883283E+02 0.31032713389E+02 0.28724388628E+02
 0.25129966121E+02 0.20679845378E+02 0.16001410090E+02 0.11785467477E+02 0.85365623457E+01
 0.63438850060E+01 0.48987817436E+01 0.40054083124E+01 0.35412365158E+01 0.33994328970E+01
 0.35416763771E+01 0.40064886941E+01 0.49000734744E+01 0.63438916437E+01 0.85337375462E+01
 0.11780140741E+02 0.15996669666E+02 0.20679829420E+02 0.34583805118E+02 0.38158306690E+02
 0.40027808599E+02 0.40025114818E+02 0.38153933312E+02 0.34582524935E+02 0.29635364650E+02
 0.23833142573E+02 0.17921941519E+02 0.12738884045E+02 0.88856514588E+01 0.64217852460E+01
 0.48987681844E+01 0.40179728283E+01 0.36267037624E+01 0.36253401114E+01 0.40165798519E+01
 0.49000734744E+01 0.64231215760E+01 0.88841904755E+01 0.12737039787E+02 0.17922417082E+02
 0.23833970553E+02 0.29634936095E+02 0.44359216253E+02 0.47671804461E+02 0.48836397041E+02
 0.47674883617E+02 0.44362306097E+02 0.39305238388E+02 0.32968557753E+02 0.25919031450E+02
 0.18972089140E+02 0.13079031954E+02 0.88855908703E+01 0.63450326542E+01 0.48505294734E+01
 0.40603439477E+01 0.38186944689E+01 0.40603253047E+01 0.48501040588E+01 0.63438916437E+01
 0.88841904755E+01 0.13078740437E+02 0.18974130834E+02 0.25922882996E+02 0.32971696139E+02
 0.39305179455E+02 0.54295984550E+02 0.57219698647E+02 0.57221347331E+02 0.54296247921E+02
 0.49091128149E+02 0.42387870326E+02 0.34734677914E+02 0.26648331947E+02 0.18971974562E+02
 0.12734494798E+02 0.85364484349E+01 0.61281385965E+01 0.47687004106E+01 0.41531107062E+01
 0.41558218817E+01 0.47714087543E+01 0.61254337023E+01 0.85337375462E+01 0.12737039787E+02
 0.18974130834E+02 0.26644799562E+02 0.34731594649E+02 0.42391498746E+02 0.49096090306E+02
 0.64351896361E+02 0.66344699635E+02 0.64351191790E+02 0.59016730855E+02 0.51703020106E+02
 0.43462467973E+02 0.34733314504E+02 0.25922894208E+02 0.17921337722E+02 0.11779124997E+02
 0.79182798257E+01 0.58060137836E+01 0.46829426984E+01 0.43306433390E+01 0.46828866054E+01
 0.58060301987E+01 0.79186982380E+01 0.11780140741E+02 0.17922417082E+02 0.25922882996E+02
 0.34731594649E+02 0.43459921827E+02 0.51701372693E+02 0.59016746260E+02 0.73373802815E+02
 0.73371421681E+02 0.68613084709E+02 0.60759518625E+02 0.51706600285E+02 0.42386988645E+02
 0.32966522311E+02 0.23837040861E+02 0.16000335995E+02 0.10411966982E+02 0.71581597735E+01
 0.54317716804E+01 0.46339410474E+01 0.46300229549E+01 0.54278566294E+01 0.71620645242E+01
 0.10415879665E+02 0.15996669666E+02 0.23833970553E+02 0.32971696139E+02 0.42391498746E+02
 0.51701372693E+02 0.60752338991E+02 0.68613457068E+02 0.78944638356E+02 0.76071578470E+02
 0.68613457068E+02 0.59016746260E+02 0.49096090306E+02 0.39305179455E+02 0.29634936095E+02
 0.20679829420E+02 0.13545281337E+02 0.88978484523E+01 0.63736724694E+01 0.50707443356E+01
 0.46612826752E+01 0.50707443356E+01 0.63736724694E+01 0.88978484523E+01 0.13545281337E+02
 0.20679829420E+02 0.29634936095E+02 0.39305179455E+02 0.49096090306E+02 0.59016746260E+02
 0.68613457068E+02 0.76071578470E+02 0.70886174275E+02 0.64356488551E+02 0.55759411846E+02
 0.46587205754E+02 0.37287975237E+02 0.28017626074E+02 0.19486813644E+02 0.12785296372E+02
 0.84858158898E+01 0.61482953271E+01 0.49189620779E+01 0.45306050399E+01 0.49189427453E+01
 0.61482716485E+01 0.84858078089E+01 0.12785313835E+02 0.19486848028E+02 0.28017651665E+02
 0.37287965111E+02 0.46587146086E+02 0.55759314672E+02 0.64356387972E+02 0.70886110384E+02
 0.73373802815E+02 0.64356488551E+02 0.57232503063E+02 0.48842146945E+02 0.40021746434E+02
 0.31033123097E+02 0.22376895252E+02 0.15042294300E+02 0.98791565356E+01 0.68873356173E+01
 0.52733085398E+01 0.45284749118E+01 0.45248839124E+01 0.52696731392E+01 0.68906989193E+01
 0.98823732629E+01 0.15038914472E+02 0.22375228595E+02 0.31040226032E+02 0.40027808599E+02
 0.48836397041E+02 0.57221347331E+02 0.64351191790E+02 0.68613084709E+02 0.68613457068E+02
 0.55759411846E+02 0.48842146945E+02 0.40966456277E+02 0.32608880453E+02 0.24256058617E+02
 0.16786088142E+02 0.11129337381E+02 0.75932084396E+01 0.56320908679E+01 0.45891822695E+01
 0.42660174663E+01 0.45891566384E+01 0.56320562061E+01 0.75931870962E+01 0.11129342486E+02
 0.16786113693E+02 0.24256082999E+02 0.32608875054E+02 0.40966408634E+02 0.48842063763E+02
 0.55759323096E+02 0.60752282846E+02 0.62607473259E+02 0.60752338991E+02 0.46587205754E+02
 0.40021746434E+02 0.32608880453E+02 0.24911032506E+02 0.17734611434E+02 0.11990690257E+02
 0.81601685851E+01 0.59466729183E+01 0.46802660477E+01 0.41088052952E+01 0.41113158740E+01
 0.46829152704E+01 0.59445064894E+01 0.81576805511E+01 0.11991963506E+02 0.17734300648E+02
 0.24905377242E+02 0.32605506249E+02 0.40027834796E+02 0.46597236803E+02 0.51706615528E+02
 0.54573806497E+02 0.54573020412E+02 0.51701372693E+02 0.37287975237E+02 0.31033123097E+02
 0.24256058617E+02 0.17734611434E+02 0.12299878948E+02 0.84755143796E+01 0.61544770620E+01
 0.47667437190E+01 0.40311180084E+01 0.38045454990E+01 0.40311164476E+01 0.47667394527E+01
 0.61544689058E+01 0.84755031848E+01 0.12299869256E+02 0.17734608323E+02 0.24256068453E+02
 0.31033145057E+02 0.37288005268E+02 0.42391528232E+02 0.45778981132E+02 0.46974079171E+02
 0.45778962629E+02 0.42391498746E+02 0.28017626074E+02 0.22376895252E+02 0.16786088142E+02
 0.11990690257E+02 0.84755143796E+01 0.62260035459E+01 0.48127020316E+01 0.39969210158E+01
 0.36345607513E+01 0.36331705711E+01 0.39953449393E+01 0.48139574565E+01 0.62284713272E+01
 0.84768643233E+01 0.11991951094E+02 0.16787535030E+02 0.22375203614E+02 0.28011788309E+02
 0.32966560342E+02 0.36642923528E+02 0.38602192927E+02 0.38601480872E+02 0.36643710679E+02
 0.32971696139E+02 0.19486813644E+02 0.15042294300E+02 0.11129337381E+02 0.81601685851E+01
 0.61544770620E+01 0.48127020316E+01 0.39853909606E+01 0.35574975678E+01 0.34274179950E+01
 0.35575129238E+01 0.39854136113E+01 0.48127199772E+01 0.61544826573E+01 0.81601599907E+01
 0.11129323761E+02 0.15042285269E+02 0.19486817581E+02 0.23833987998E+02 0.27449303615E+02
 0.29829397354E+02 0.30658570908E+02 0.29829382290E+02 0.27449281559E+02 0.23833970553E+02
 0.12785296372E+02 0.98791565356E+01 0.75932084396E+01 0.59466729183E+01 0.47667437190E+01
 0.39969210158E+01 0.35574975678E+01 0.33632167154E+01 0.33637492873E+01 0.35578410826E+01
 0.39953420305E+01 0.47637768878E+01 0.59445301837E+01 0.75935582473E+01 0.98823576259E+01
 0.12790205907E+02 0.16000307659E+02 0.19023062222E+02 0.21360541204E+02 0.22631619628E+02
 0.22633757609E+02 0.21364189047E+02 0.19023558175E+02 0.15996669666E+02 0.84858158898E+01
 0.68873356173E+01 0.56320908679E+01 0.46802660477E+01 0.40311180084E+01 0.36345607513E+01
 0.34274179950E+01 0.33637492873E+01 0.34274144513E+01 0.36345543525E+01 0.40311113314E+01
 0.46802587436E+01 0.56320832720E+01 0.68873260287E+01 0.84858006698E+01 0.10415861973E+02
 0.12462747849E+02 0.14287193062E+02 0.15546116622E+02 0.15994906543E+02 0.15546126709E+02
 0.14287210282E+02 0.12462767133E+02 0.10415879665E+02 0.61482953271E+01 0.52733085398E+01
 0.45891822695E+01 0.41088052952E+01 0.38045454990E+01 0.36331705711E+01 0.35575129238E+01
 0.35578410826E+01 0.36345543525E+01 0.38071863165E+01 0.41113089313E+01 0.45891564063E+01
 0.52696976969E+01 0.61428314509E+01 0.71581640369E+01 0.82824192003E+01 0.93977495513E+01
 0.10307909648E+02 0.10820045547E+02 0.10817975230E+02 0.10303207547E+02 0.93938590595E+01
 0.82822636416E+01 0.71620645242E+01 0.49189620779E+01 0.45284749118E+01 0.42660174663E+01
 0.41113158740E+01 0.40311164476E+01 0.39953449393E+01 0.39854136113E+01 0.39953420305E+01
 0.40311113314E+01 0.41113089313E+01 0.42660100865E+01 0.45284705717E+01 0.49189610592E+01
 0.54278604573E+01 0.60084166342E+01 0.65869053075E+01 0.70938258096E+01 0.74485546330E+01
 0.75767009943E+01 0.74485490524E+01 0.70938159046E+01 0.65868942283E+01 0.60084072619E+01
 0.54278566294E+01 0.45306050399E+01 0.45248839124E+01 0.45891566384E+01 0.46829152704E+01
 0.47667394527E+01 0.48139574565E+01 0.48127199772E+01 0.47637768878E+01 0.46802587436E+01
 0.45891564063E+01 0.45284705717E+01 0.45360696137E+01 0.46339522285E+01 0.48168024691E+01
 0.50517309407E+01 0.52892318438E+01 0.54791789467E+01 0.55840269197E+01 0.55848722328E+01
 0.54818443718E+01 0.52932471307E+01 0.50550182383E+01 0.48167744420E+01 0.46300229549E+01
 0.49189427453E+01 0.52696731392E+01 0.56320562061E+01 0.59445064894E+01 0.61544689058E+01
 0.62284713272E+01 0.61544826573E+01 0.59445301837E+01 0.56320832720E+01 0.52696976969E+01
 0.49189610592E+01 0.46339522285E+01 0.44450530358E+01 0.43519736730E+01 0.43299138544E+01
 0.43443493080E+01 0.43652282245E+01 0.43741600479E+01 0.43652297056E+01 0.43443517655E+01
 0.43299153505E+01 0.43519737879E+01 0.44450487873E+01 0.46339410474E+01 0.61482716485E+01
 0.68906989193E+01 0.75931870962E+01 0.81576805511E+01 0.84755031848E+01 0.84768643233E+01
 0.81601599907E+01 0.75935582473E+01 0.68873260287E+01 0.61428314509E+01 0.54278604573E+01
 0.48168024691E+01 0.43519736730E+01 0.40344233408E+01 0.38380158040E+01 0.37293538866E+01
 0.36821086387E+01 0.36823254800E+01 0.37291660184E+01 0.38359966023E+01 0.40306319772E+01
 0.43486720082E+01 0.48167744420E+01 0.54317716804E+01 0.84858078089E+01 0.98823732629E+01
 0.11129342486E+02 0.11991963506E+02 0.12299869256E+02 0.11991951094E+02 0.11129323761E+02
 0.98823576259E+01 0.84858006698E+01 0.71581640369E+01 0.60084166342E+01 0.50517309407E+01
 0.43299138544E+01 0.38380158040E+01 0.35355992740E+01 0.33763331865E+01 0.33271388386E+01
 0.33763463237E+01 0.35356186954E+01 0.38380322087E+01 0.43299195161E+01 0.50517274761E+01
 0.60084072619E+01 0.71581597735E+01 0.12785313835E+02 0.15038914472E+02 0.16786113693E+02
 0.17734300648E+02 0.17734608323E+02 0.16787535030E+02 0.15042285269E+02 0.12790205907E+02
 0.10415861973E+02 0.82824192003E+01 0.65869053075E+01 0.52892318438E+01 0.43443493080E+01
 0.37293538866E+01 0.33763331865E+01 0.32187462890E+01 0.32184965204E+01 0.33756735643E+01
 0.37291551428E+01 0.43462085153E+01 0.52932543046E+01 0.65903841663E+01 0.82822636416E+01
 0.10411966982E+02 0.19486848028E+02 0.22375228595E+02 0.24256082999E+02 0.24905377242E+02
 0.24256068453E+02 0.22375203614E+02 0.19486817581E+02 0.16000307659E+02 0.12462747849E+02
 0.93977495513E+01 0.70938258096E+01 0.54791789467E+01 0.43652282245E+01 0.36821086387E+01
 0.33271388386E+01 0.32184965204E+01 0.33271319999E+01 0.36820967833E+01 0.43652157591E+01
 0.54791695905E+01 0.70938244330E+01 0.93977590859E+01 0.12462767133E+02 0.16000335995E+02
 0.28017651665E+02 0.31040226032E+02 0.32608875054E+02 0.32605506249E+02 0.31033145057E+02
 0.28011788309E+02 0.23833987998E+02 0.19023062222E+02 0.14287193062E+02 0.10307909648E+02
 0.74485546330E+01 0.55840269197E+01 0.43741600479E+01 0.36823254800E+01 0.33763463237E+01
 0.33756735643E+01 0.36820967833E+01 0.43758530061E+01 0.55848647573E+01 0.74456522947E+01
 0.10303214230E+02 0.14284583199E+02 0.19023558175E+02 0.23837040861E+02 0.37287965111E+02
 0.40027808599E+02 0.40966408634E+02 0.40027834796E+02 0.37288005268E+02 0.32966560342E+02
 0.27449303615E+02 0.21360541204E+02 0.15546116622E+02 0.10820045547E+02 0.75767009943E+01
 0.55848722328E+01 0.43652297056E+01 0.37291660184E+01 0.35356186954E+01 0.37291551428E+01
 0.43652157591E+01 0.55848647573E+01 0.75767063258E+01 0.10820059627E+02 0.15546129681E+02
 0.21360540141E+02 0.27449281559E+02 0.32966522311E+02 0.46587146086E+02 0.48836397041E+02
 0.48842063763E+02 0.46597236803E+02 0.42391528232E+02 0.36642923528E+02 0.29829397354E+02
 0.22631619628E+02 0.15994906543E+02 0.10817975230E+02 0.74485490524E+01 0.54818443718E+01
 0.43443517655E+01 0.38359966023E+01 0.38380322087E+01 0.43462085153E+01 0.54791695905E+01
 0.74456522947E+01 0.10820059627E+02 0.15999195441E+02 0.22633753799E+02 0.29830630600E+02