   1   1   1   0
  0.1695687E+02  0.2883723E-09  0.2883723E-09  0.2883723E-09  0.5000000E-15
  1.000000000000000E-004
  CAR 
 Au fcc                                  
     27.87379393     -6.34705660  301      5.63650734      1.00000000
     -6.347  0.0000E+00  0.0000E+00
     -6.233  0.0000E+00  0.0000E+00
     -6.119  0.0000E+00  0.0000E+00
     -6.005 -0.1485E-31 -0.1694E-32
     -5.891 -0.1315E-27 -0.1500E-28
     -5.777 -0.5933E-24 -0.6769E-25
     -5.663 -0.1394E-20 -0.1591E-21
     -5.549 -0.1708E-17 -0.1950E-18
     -5.435 -0.1055E-14 -0.1206E-15
     -5.320 -0.3494E-12 -0.3997E-13
     -5.206 -0.6030E-10 -0.6918E-11
     -5.092 -0.5424E-08 -0.6256E-09
     -4.978 -0.2537E-06 -0.2956E-07
     -4.864 -0.6122E-05 -0.7279E-06
     -4.750 -0.7469E-04 -0.9248E-05
     -4.636 -0.4327E-03 -0.5860E-04
     -4.522 -0.8902E-03 -0.1601E-03
     -4.408  0.1572E-02  0.1917E-04
     -4.294  0.1140E-01  0.1320E-02
     -4.180  0.2621E-01  0.4309E-02
     -4.066  0.3921E-01  0.8781E-02
     -3.952  0.4883E-01  0.1435E-01
     -3.838  0.5667E-01  0.2082E-01
     -3.723  0.6464E-01  0.2819E-01
     -3.609  0.7134E-01  0.3633E-01
     -3.495  0.7840E-01  0.4527E-01
     -3.381  0.8693E-01  0.5519E-01
     -3.267  0.9189E-01  0.6567E-01
     -3.153  0.1002E+00  0.7710E-01
     -3.039  0.1101E+00  0.8966E-01
     -2.925  0.1150E+00  0.1028E+00
     -2.811  0.1233E+00  0.1168E+00
     -2.697  0.1376E+00  0.1325E+00
     -2.583  0.1444E+00  0.1490E+00
     -2.469  0.1535E+00  0.1665E+00
     -2.355  0.1731E+00  0.1863E+00
     -2.241  0.1866E+00  0.2076E+00
     -2.126  0.2018E+00  0.2306E+00
     -2.012  0.2294E+00  0.2568E+00
     -1.898  0.2935E+00  0.2902E+00
     -1.784  0.4197E+00  0.3381E+00
     -1.670  0.5647E+00  0.4025E+00
     -1.556  0.6660E+00  0.4785E+00
     -1.442  0.7836E+00  0.5679E+00
     -1.328  0.9770E+00  0.6793E+00
     -1.214  0.1215E+01  0.8180E+00
     -1.100  0.1481E+01  0.9869E+00
     -0.986  0.1723E+01  0.1183E+01
     -0.872  0.1839E+01  0.1393E+01
     -0.758  0.1805E+01  0.1599E+01
     -0.644  0.1709E+01  0.1794E+01
     -0.530  0.1633E+01  0.1980E+01
     -0.415  0.1568E+01  0.2159E+01
     -0.301  0.1435E+01  0.2323E+01
     -0.187  0.1255E+01  0.2466E+01
     -0.073  0.1227E+01  0.2606E+01
      0.041  0.1433E+01  0.2769E+01
      0.155  0.1678E+01  0.2961E+01
      0.269  0.1844E+01  0.3171E+01
      0.383  0.1919E+01  0.3390E+01
      0.497  0.1933E+01  0.3610E+01
      0.611  0.1946E+01  0.3833E+01
      0.725  0.1980E+01  0.4058E+01
      0.839  0.2105E+01  0.4299E+01
      0.953  0.2336E+01  0.4565E+01
      1.067  0.2716E+01  0.4875E+01
      1.182  0.3114E+01  0.5230E+01
      1.296  0.2982E+01  0.5570E+01
      1.410  0.2328E+01  0.5836E+01
      1.524  0.1802E+01  0.6041E+01
      1.638  0.1628E+01  0.6227E+01
      1.752  0.1574E+01  0.6407E+01
      1.866  0.1552E+01  0.6584E+01
      1.980  0.1670E+01  0.6774E+01
      2.094  0.1877E+01  0.6988E+01
      2.208  0.2027E+01  0.7219E+01
      2.322  0.2092E+01  0.7458E+01
      2.436  0.2044E+01  0.7691E+01
      2.550  0.1880E+01  0.7906E+01
      2.664  0.1713E+01  0.8101E+01
      2.779  0.1616E+01  0.8285E+01
      2.893  0.1587E+01  0.8466E+01
      3.007  0.1588E+01  0.8648E+01
      3.121  0.1585E+01  0.8828E+01
      3.235  0.1663E+01  0.9018E+01
      3.349  0.1867E+01  0.9231E+01
      3.463  0.2269E+01  0.9490E+01
      3.577  0.2716E+01  0.9800E+01
      3.691  0.2654E+01  0.1010E+02
      3.805  0.1970E+01  0.1033E+02
      3.919  0.1236E+01  0.1047E+02
      4.033  0.7058E+00  0.1055E+02
      4.147  0.3287E+00  0.1059E+02
      4.261  0.2322E+00  0.1061E+02
      4.375  0.2902E+00  0.1065E+02
      4.490  0.2791E+00  0.1068E+02
      4.604  0.2649E+00  0.1071E+02
      4.718  0.2979E+00  0.1074E+02
      4.832  0.2922E+00  0.1078E+02
      4.946  0.2785E+00  0.1081E+02
      5.060  0.2890E+00  0.1084E+02
      5.174  0.2691E+00  0.1087E+02
      5.288  0.2768E+00  0.1090E+02
      5.402  0.3144E+00  0.1094E+02
      5.516  0.2779E+00  0.1097E+02
      5.630  0.2513E+00  0.1100E+02
      5.744  0.2955E+00  0.1103E+02
      5.858  0.2948E+00  0.1107E+02
      5.972  0.2591E+00  0.1110E+02
      6.087  0.2796E+00  0.1113E+02
      6.201  0.3004E+00  0.1116E+02
      6.315  0.2775E+00  0.1119E+02
      6.429  0.2562E+00  0.1122E+02
      6.543  0.2646E+00  0.1125E+02
      6.657  0.2945E+00  0.1129E+02
      6.771  0.3018E+00  0.1132E+02
      6.885  0.2722E+00  0.1135E+02
      6.999  0.2554E+00  0.1138E+02
      7.113  0.2642E+00  0.1141E+02
      7.227  0.2628E+00  0.1144E+02
      7.341  0.2696E+00  0.1147E+02
      7.455  0.2862E+00  0.1150E+02
      7.569  0.2569E+00  0.1153E+02
      7.683  0.2242E+00  0.1156E+02
      7.798  0.2540E+00  0.1159E+02
      7.912  0.2680E+00  0.1162E+02
      8.026  0.2321E+00  0.1165E+02
      8.140  0.2270E+00  0.1167E+02
      8.254  0.2463E+00  0.1170E+02
      8.368  0.2299E+00  0.1173E+02
      8.482  0.2222E+00  0.1175E+02
      8.596  0.2881E+00  0.1178E+02
      8.710  0.3892E+00  0.1183E+02
      8.824  0.4488E+00  0.1188E+02
      8.938  0.4445E+00  0.1193E+02
      9.052  0.3731E+00  0.1197E+02
      9.166  0.3237E+00  0.1201E+02
      9.280  0.3402E+00  0.1205E+02
      9.395  0.3107E+00  0.1208E+02
      9.509  0.2538E+00  0.1211E+02
      9.623  0.2755E+00  0.1214E+02
      9.737  0.3021E+00  0.1218E+02
      9.851  0.2621E+00  0.1221E+02
      9.965  0.2326E+00  0.1223E+02
     10.079  0.2612E+00  0.1226E+02
     10.193  0.3006E+00  0.1230E+02
     10.307  0.3116E+00  0.1233E+02
     10.421  0.3074E+00  0.1237E+02
     10.535  0.3009E+00  0.1240E+02
     10.649  0.3144E+00  0.1244E+02
     10.763  0.3597E+00  0.1248E+02
     10.877  0.3705E+00  0.1252E+02
     10.992  0.3395E+00  0.1256E+02
     11.106  0.3355E+00  0.1260E+02
     11.220  0.3622E+00  0.1264E+02
     11.334  0.3907E+00  0.1269E+02
     11.448  0.3743E+00  0.1273E+02
     11.562  0.3274E+00  0.1277E+02
     11.676  0.3165E+00  0.1280E+02
     11.790  0.3236E+00  0.1284E+02
     11.904  0.2976E+00  0.1287E+02
     12.018  0.2785E+00  0.1290E+02
     12.132  0.3082E+00  0.1294E+02
     12.246  0.3030E+00  0.1297E+02
     12.360  0.2398E+00  0.1300E+02
     12.474  0.2342E+00  0.1303E+02
     12.588  0.2912E+00  0.1306E+02
     12.703  0.3147E+00  0.1310E+02
     12.817  0.2955E+00  0.1313E+02
     12.931  0.3193E+00  0.1317E+02
     13.045  0.3678E+00  0.1321E+02
     13.159  0.3542E+00  0.1325E+02
     13.273  0.3344E+00  0.1329E+02
     13.387  0.3299E+00  0.1333E+02
     13.501  0.3162E+00  0.1336E+02
     13.615  0.3205E+00  0.1340E+02
     13.729  0.3520E+00  0.1344E+02
     13.843  0.3994E+00  0.1348E+02
     13.957  0.4140E+00  0.1353E+02
     14.071  0.3638E+00  0.1357E+02
     14.185  0.2996E+00  0.1361E+02
     14.300  0.2661E+00  0.1364E+02
     14.414  0.3015E+00  0.1367E+02
     14.528  0.4049E+00  0.1372E+02
     14.642  0.4401E+00  0.1377E+02
     14.756  0.3624E+00  0.1381E+02
     14.870  0.3160E+00  0.1385E+02
     14.984  0.3462E+00  0.1388E+02
     15.098  0.3801E+00  0.1393E+02
     15.212  0.3738E+00  0.1397E+02
     15.326  0.3398E+00  0.1401E+02
     15.440  0.3705E+00  0.1405E+02
     15.554  0.4865E+00  0.1411E+02
     15.668  0.5354E+00  0.1417E+02
     15.782  0.4980E+00  0.1423E+02
     15.896  0.4688E+00  0.1428E+02
     16.011  0.4533E+00  0.1433E+02
     16.125  0.4582E+00  0.1438E+02
     16.239  0.5004E+00  0.1444E+02
     16.353  0.5117E+00  0.1450E+02
     16.467  0.4952E+00  0.1455E+02
     16.581  0.5099E+00  0.1461E+02
     16.695  0.5275E+00  0.1467E+02
     16.809  0.5154E+00  0.1473E+02
     16.923  0.4567E+00  0.1478E+02
     17.037  0.4147E+00  0.1483E+02
     17.151  0.4696E+00  0.1488E+02
     17.265  0.5453E+00  0.1495E+02
     17.379  0.5281E+00  0.1501E+02
     17.493  0.4632E+00  0.1506E+02
     17.608  0.4709E+00  0.1511E+02
     17.722  0.5243E+00  0.1517E+02
     17.836  0.5006E+00  0.1523E+02
     17.950  0.4478E+00  0.1528E+02
     18.064  0.4508E+00  0.1533E+02
     18.178  0.4763E+00  0.1539E+02
     18.292  0.4978E+00  0.1544E+02
     18.406  0.4858E+00  0.1550E+02
     18.520  0.4704E+00  0.1555E+02
     18.634  0.5160E+00  0.1561E+02
     18.748  0.5124E+00  0.1567E+02
     18.862  0.4511E+00  0.1572E+02
     18.976  0.4425E+00  0.1577E+02
     19.090  0.4398E+00  0.1582E+02
     19.205  0.4543E+00  0.1587E+02
     19.319  0.5036E+00  0.1593E+02
     19.433  0.5319E+00  0.1599E+02
     19.547  0.5114E+00  0.1605E+02
     19.661  0.4393E+00  0.1610E+02
     19.775  0.4226E+00  0.1615E+02
     19.889  0.4922E+00  0.1621E+02
     20.003  0.5332E+00  0.1627E+02
     20.117  0.5079E+00  0.1632E+02
     20.231  0.5270E+00  0.1638E+02
     20.345  0.6118E+00  0.1645E+02
     20.459  0.6557E+00  0.1653E+02
     20.573  0.6349E+00  0.1660E+02
     20.687  0.5919E+00  0.1667E+02
     20.801  0.5389E+00  0.1673E+02
     20.916  0.5123E+00  0.1679E+02
     21.030  0.5211E+00  0.1685E+02
     21.144  0.4966E+00  0.1690E+02
     21.258  0.4780E+00  0.1696E+02
     21.372  0.4889E+00  0.1702E+02
     21.486  0.5253E+00  0.1708E+02
     21.600  0.6060E+00  0.1714E+02
     21.714  0.6257E+00  0.1722E+02
     21.828  0.5427E+00  0.1728E+02
     21.942  0.4940E+00  0.1733E+02
     22.056  0.5087E+00  0.1739E+02
     22.170  0.4603E+00  0.1744E+02
     22.284  0.3533E+00  0.1748E+02
     22.398  0.3129E+00  0.1752E+02
     22.513  0.3374E+00  0.1756E+02
     22.627  0.3255E+00  0.1760E+02
     22.741  0.2682E+00  0.1763E+02
     22.855  0.2379E+00  0.1765E+02
     22.969  0.2185E+00  0.1768E+02
     23.083  0.1867E+00  0.1770E+02
     23.197  0.1798E+00  0.1772E+02
     23.311  0.1987E+00  0.1774E+02
     23.425  0.2212E+00  0.1777E+02
     23.539  0.2034E+00  0.1779E+02
     23.653  0.1474E+00  0.1781E+02
     23.767  0.1298E+00  0.1782E+02
     23.881  0.1570E+00  0.1784E+02
     23.995  0.1899E+00  0.1786E+02
     24.110  0.2079E+00  0.1789E+02
     24.224  0.1994E+00  0.1791E+02
     24.338  0.1739E+00  0.1793E+02
     24.452  0.1476E+00  0.1795E+02
     24.566  0.1117E+00  0.1796E+02
     24.680  0.9341E-01  0.1797E+02
     24.794  0.8896E-01  0.1798E+02
     24.908  0.6245E-01  0.1799E+02
     25.022  0.3240E-01  0.1799E+02
     25.136  0.2636E-01  0.1799E+02
     25.250  0.2648E-01  0.1800E+02
     25.364  0.1596E-01  0.1800E+02
     25.478  0.4271E-02  0.1800E+02
     25.592  0.1633E-02  0.1800E+02
     25.706  0.3239E-02  0.1800E+02
     25.821  0.3304E-02  0.1800E+02
     25.935  0.2336E-02  0.1800E+02
     26.049  0.9888E-03  0.1800E+02
     26.163  0.3600E-04  0.1800E+02
     26.277 -0.1074E-03  0.1800E+02
     26.391 -0.3050E-04  0.1800E+02
     26.505 -0.3286E-05  0.1800E+02
     26.619 -0.1631E-06  0.1800E+02
     26.733 -0.3955E-08  0.1800E+02
     26.847 -0.4809E-10  0.1800E+02
     26.961 -0.2971E-12  0.1800E+02
     27.075 -0.9392E-15  0.1800E+02
     27.189 -0.1947E-17  0.1800E+02
     27.303  0.0000E+00  0.1800E+02
     27.418  0.0000E+00  0.1800E+02
     27.532  0.0000E+00  0.1800E+02
     27.646  0.0000E+00  0.1800E+02
     27.760  0.0000E+00  0.1800E+02
     27.874  0.0000E+00  0.1800E+02
     27.87379393     -6.34705660  301      5.63650734      1.00000000
     -6.347  0.0000E+00  0.0000E+00  0.0000E+00
     -6.233  0.0000E+00  0.0000E+00  0.0000E+00
     -6.119  0.0000E+00  0.0000E+00  0.0000E+00
     -6.005 -0.1014E-31 -0.1333E-34 -0.9400E-37
     -5.891 -0.8978E-28 -0.1318E-30 -0.1059E-32
     -5.777 -0.4051E-24 -0.6193E-27 -0.5192E-29
     -5.663 -0.9519E-21 -0.1536E-23 -0.1358E-25
     -5.549 -0.1166E-17 -0.2017E-20 -0.1902E-22
     -5.435 -0.7203E-15 -0.1363E-17 -0.1390E-19
     -5.320 -0.2384E-12 -0.5042E-15 -0.5603E-17
     -5.206 -0.4114E-10 -0.9952E-13 -0.1221E-14
     -5.092 -0.3699E-08 -0.1049E-10 -0.1438E-12
     -4.978 -0.1729E-06 -0.5898E-09 -0.9190E-11
     -4.864 -0.4170E-05 -0.1764E-07 -0.3199E-09
     -4.750 -0.5081E-04 -0.2785E-06 -0.6107E-08
     -4.636 -0.2937E-03 -0.2279E-05 -0.6431E-07
     -4.522 -0.6000E-03 -0.8994E-05 -0.3702E-06
     -4.408  0.1086E-02 -0.1047E-04 -0.1076E-05
     -4.294  0.7758E-02  0.4349E-04 -0.7456E-06
     -4.180  0.1771E-01  0.2171E-03  0.5824E-05
     -4.066  0.2629E-01  0.5254E-03  0.2725E-04
     -3.952  0.3244E-01  0.9348E-03  0.7224E-04
     -3.838  0.3727E-01  0.1422E-02  0.1507E-03
     -3.723  0.4207E-01  0.2002E-02  0.2734E-03
     -3.609  0.4594E-01  0.2599E-02  0.4446E-03
     -3.495  0.4989E-01  0.3315E-02  0.6950E-03
     -3.381  0.5468E-01  0.4131E-02  0.1029E-02
     -3.267  0.5708E-01  0.4829E-02  0.1441E-02
     -3.153  0.6134E-01  0.5820E-02  0.2042E-02
     -3.039  0.6646E-01  0.6904E-02  0.2793E-02
     -2.925  0.6836E-01  0.7707E-02  0.3673E-02
     -2.811  0.7200E-01  0.8859E-02  0.4929E-02
     -2.697  0.7891E-01  0.1045E-01  0.6639E-02
     -2.583  0.8123E-01  0.1141E-01  0.8471E-02
     -2.469  0.8420E-01  0.1267E-01  0.1115E-01
     -2.355  0.9261E-01  0.1479E-01  0.1498E-01
     -2.241  0.9719E-01  0.1628E-01  0.1922E-01
     -2.126  0.1019E+00  0.1794E-01  0.2451E-01
     -2.012  0.1113E+00  0.2042E-01  0.3384E-01
     -1.898  0.1292E+00  0.2341E-01  0.6465E-01
     -1.784  0.1582E+00  0.2643E-01  0.1377E+00
     -1.670  0.1880E+00  0.3003E-01  0.2260E+00
     -1.556  0.2008E+00  0.3351E-01  0.2953E+00
     -1.442  0.2053E+00  0.3770E-01  0.3855E+00
     -1.328  0.2176E+00  0.4452E-01  0.5280E+00
     -1.214  0.2281E+00  0.5187E-01  0.7141E+00
     -1.100  0.2281E+00  0.5741E-01  0.9452E+00
     -0.986  0.2152E+00  0.6005E-01  0.1178E+01
     -0.872  0.1894E+00  0.5978E-01  0.1320E+01
     -0.758  0.1560E+00  0.5808E-01  0.1339E+01
     -0.644  0.1249E+00  0.5740E-01  0.1296E+01
     -0.530  0.1000E+00  0.5905E-01  0.1258E+01
     -0.415  0.7714E-01  0.6143E-01  0.1225E+01
     -0.301  0.5226E-01  0.6061E-01  0.1138E+01
     -0.187  0.2982E-01  0.5760E-01  0.1011E+01
     -0.073  0.1721E-01  0.6259E-01  0.9962E+00
      0.041  0.1516E-01  0.7870E-01  0.1162E+01
      0.155  0.1749E-01  0.9193E-01  0.1362E+01
      0.269  0.1940E-01  0.9306E-01  0.1513E+01
      0.383  0.2149E-01  0.8514E-01  0.1598E+01
      0.497  0.2518E-01  0.7834E-01  0.1625E+01
      0.611  0.2984E-01  0.7905E-01  0.1639E+01
      0.725  0.3557E-01  0.8494E-01  0.1661E+01
      0.839  0.4234E-01  0.9612E-01  0.1758E+01
      0.953  0.4795E-01  0.1091E+00  0.1952E+01
      1.067  0.5112E-01  0.1221E+00  0.2291E+01
      1.182  0.4998E-01  0.1312E+00  0.2660E+01
      1.296  0.4482E-01  0.1244E+00  0.2559E+01
      1.410  0.3949E-01  0.1054E+00  0.1982E+01
      1.524  0.3456E-01  0.9029E-01  0.1517E+01
      1.638  0.3043E-01  0.8733E-01  0.1364E+01
      1.752  0.2746E-01  0.8514E-01  0.1322E+01
      1.866  0.2383E-01  0.7619E-01  0.1321E+01
      1.980  0.2115E-01  0.7180E-01  0.1445E+01
      2.094  0.2178E-01  0.7263E-01  0.1642E+01
      2.208  0.2312E-01  0.6858E-01  0.1792E+01
      2.322  0.2368E-01  0.6216E-01  0.1865E+01
      2.436  0.2380E-01  0.6064E-01  0.1825E+01
      2.550  0.2163E-01  0.5688E-01  0.1682E+01
      2.664  0.1766E-01  0.4802E-01  0.1545E+01
      2.779  0.1462E-01  0.4185E-01  0.1469E+01
      2.893  0.1434E-01  0.4105E-01  0.1446E+01
      3.007  0.1481E-01  0.3938E-01  0.1451E+01
      3.121  0.1347E-01  0.3315E-01  0.1463E+01
      3.235  0.1333E-01  0.3002E-01  0.1547E+01
      3.349  0.1423E-01  0.2923E-01  0.1747E+01
      3.463  0.1547E-01  0.2713E-01  0.2144E+01
      3.577  0.1830E-01  0.2589E-01  0.2581E+01
      3.691  0.1933E-01  0.2316E-01  0.2528E+01
      3.805  0.1734E-01  0.1868E-01  0.1874E+01
      3.919  0.2056E-01  0.2020E-01  0.1153E+01
      4.033  0.2574E-01  0.2518E-01  0.6205E+00
      4.147  0.2366E-01  0.2482E-01  0.2542E+00
      4.261  0.2514E-01  0.2548E-01  0.1571E+00
      4.375  0.3109E-01  0.3107E-01  0.1982E+00
      4.490  0.3051E-01  0.3327E-01  0.1845E+00
      4.604  0.3038E-01  0.3330E-01  0.1710E+00
      4.718  0.3484E-01  0.4040E-01  0.1870E+00
      4.832  0.3536E-01  0.4578E-01  0.1723E+00
      4.946  0.3607E-01  0.4419E-01  0.1607E+00
      5.060  0.3925E-01  0.4448E-01  0.1671E+00
      5.174  0.3743E-01  0.4457E-01  0.1498E+00
      5.288  0.3917E-01  0.4930E-01  0.1477E+00
      5.402  0.4518E-01  0.5753E-01  0.1645E+00
      5.516  0.4123E-01  0.5283E-01  0.1412E+00
      5.630  0.3919E-01  0.4965E-01  0.1227E+00
      5.744  0.4810E-01  0.5757E-01  0.1430E+00
      5.858  0.4879E-01  0.5803E-01  0.1409E+00
      5.972  0.4180E-01  0.5555E-01  0.1182E+00
      6.087  0.4530E-01  0.6344E-01  0.1217E+00
      6.201  0.5225E-01  0.6606E-01  0.1298E+00
      6.315  0.5001E-01  0.6090E-01  0.1184E+00
      6.429  0.4593E-01  0.5969E-01  0.1047E+00
      6.543  0.4862E-01  0.6310E-01  0.1042E+00
      6.657  0.5377E-01  0.7172E-01  0.1136E+00
      6.771  0.5319E-01  0.7762E-01  0.1128E+00
      6.885  0.4943E-01  0.7155E-01  0.9796E-01
      6.999  0.5114E-01  0.6397E-01  0.9085E-01
      7.113  0.5493E-01  0.6457E-01  0.9386E-01
      7.227  0.5353E-01  0.6664E-01  0.9117E-01
      7.341  0.5307E-01  0.7237E-01  0.8949E-01
      7.455  0.5740E-01  0.7752E-01  0.9259E-01
      7.569  0.5625E-01  0.6597E-01  0.8294E-01
      7.683  0.5261E-01  0.5512E-01  0.7169E-01
      7.798  0.5863E-01  0.6553E-01  0.7776E-01
      7.912  0.6263E-01  0.7063E-01  0.7909E-01
      8.026  0.5675E-01  0.5963E-01  0.6766E-01
      8.140  0.5819E-01  0.5601E-01  0.6596E-01
      8.254  0.6485E-01  0.6083E-01  0.6931E-01
      8.368  0.6041E-01  0.5932E-01  0.6095E-01
      8.482  0.6340E-01  0.5438E-01  0.5746E-01
      8.596  0.1029E+00  0.5108E-01  0.7949E-01
      8.710  0.1630E+00  0.4699E-01  0.1117E+00
      8.824  0.1922E+00  0.5196E-01  0.1264E+00
      8.938  0.1804E+00  0.6217E-01  0.1208E+00
      9.052  0.1456E+00  0.6037E-01  0.9529E-01
      9.166  0.1233E+00  0.5786E-01  0.7713E-01
      9.280  0.1262E+00  0.6258E-01  0.8249E-01
      9.395  0.1157E+00  0.5717E-01  0.7438E-01
      9.509  0.9205E-01  0.5111E-01  0.5646E-01
      9.623  0.8983E-01  0.6358E-01  0.6150E-01
      9.737  0.9379E-01  0.7175E-01  0.7030E-01
      9.851  0.8104E-01  0.6245E-01  0.6037E-01
      9.965  0.7021E-01  0.5827E-01  0.5068E-01
     10.079  0.7307E-01  0.7103E-01  0.5554E-01
     10.193  0.8006E-01  0.8525E-01  0.6370E-01
     10.307  0.8413E-01  0.8853E-01  0.6426E-01
     10.421  0.8014E-01  0.9001E-01  0.6257E-01
     10.535  0.7588E-01  0.9057E-01  0.6041E-01
     10.649  0.8466E-01  0.9324E-01  0.5885E-01
     10.763  0.1021E+00  0.1036E+00  0.6619E-01
     10.877  0.1088E+00  0.1019E+00  0.7102E-01
     10.992  0.1016E+00  0.9229E-01  0.6388E-01
     11.106  0.9704E-01  0.9666E-01  0.5939E-01
     11.220  0.1001E+00  0.1081E+00  0.6509E-01
     11.334  0.1140E+00  0.1108E+00  0.7130E-01
     11.448  0.1179E+00  0.9990E-01  0.6601E-01
     11.562  0.1005E+00  0.9082E-01  0.5539E-01
     11.676  0.8688E-01  0.9613E-01  0.5356E-01
     11.790  0.8500E-01  0.1002E+00  0.5621E-01
     11.904  0.8348E-01  0.8817E-01  0.5093E-01
     12.018  0.8198E-01  0.8035E-01  0.4521E-01
     12.132  0.8528E-01  0.9266E-01  0.4947E-01
     12.246  0.8041E-01  0.9383E-01  0.4804E-01
     12.360  0.6459E-01  0.7458E-01  0.3671E-01
     12.474  0.6280E-01  0.7300E-01  0.3605E-01
     12.588  0.7884E-01  0.8960E-01  0.4470E-01
     12.703  0.8683E-01  0.9557E-01  0.4770E-01
     12.817  0.7584E-01  0.9312E-01  0.4681E-01
     12.931  0.7106E-01  0.1055E+00  0.5556E-01
     13.045  0.7754E-01  0.1219E+00  0.6730E-01
     13.159  0.7227E-01  0.1188E+00  0.6531E-01
     13.273  0.6790E-01  0.1144E+00  0.5823E-01
     13.387  0.6929E-01  0.1131E+00  0.5369E-01
     13.501  0.6220E-01  0.1114E+00  0.5276E-01
     13.615  0.5659E-01  0.1162E+00  0.5721E-01
     13.729  0.6217E-01  0.1260E+00  0.6481E-01
     13.843  0.6746E-01  0.1440E+00  0.7490E-01
     13.957  0.6427E-01  0.1531E+00  0.7712E-01
     14.071  0.5695E-01  0.1350E+00  0.6439E-01
     14.185  0.4694E-01  0.1119E+00  0.5111E-01
     14.300  0.3605E-01  0.1040E+00  0.4662E-01
     14.414  0.3822E-01  0.1211E+00  0.5226E-01
     14.528  0.5790E-01  0.1572E+00  0.6783E-01
     14.642  0.6379E-01  0.1665E+00  0.7645E-01
     14.756  0.4486E-01  0.1390E+00  0.6862E-01
     14.870  0.3349E-01  0.1255E+00  0.6165E-01
     14.984  0.4013E-01  0.1390E+00  0.6163E-01
     15.098  0.4883E-01  0.1519E+00  0.5949E-01
     15.212  0.4554E-01  0.1486E+00  0.5861E-01
     15.326  0.3244E-01  0.1352E+00  0.6184E-01
     15.440  0.2649E-01  0.1476E+00  0.7595E-01
     15.554  0.3550E-01  0.1927E+00  0.9953E-01
     15.668  0.4484E-01  0.2134E+00  0.9992E-01
     15.782  0.4297E-01  0.2040E+00  0.8165E-01
     15.896  0.3447E-01  0.1957E+00  0.7605E-01
     16.011  0.2604E-01  0.1899E+00  0.7981E-01
     16.125  0.2457E-01  0.1927E+00  0.8057E-01
     16.239  0.3164E-01  0.2087E+00  0.8424E-01
     16.353  0.3628E-01  0.2102E+00  0.8671E-01
     16.467  0.3356E-01  0.2037E+00  0.8552E-01
     16.581  0.2912E-01  0.2121E+00  0.9207E-01
     16.695  0.2658E-01  0.2174E+00  0.9999E-01
     16.809  0.2600E-01  0.2105E+00  0.9385E-01
     16.923  0.2569E-01  0.1883E+00  0.7536E-01
     17.037  0.2430E-01  0.1728E+00  0.6769E-01
     17.151  0.2413E-01  0.1956E+00  0.8437E-01
     17.265  0.2587E-01  0.2241E+00  0.1030E+00
     17.379  0.2684E-01  0.2119E+00  0.9782E-01
     17.493  0.2564E-01  0.1840E+00  0.8160E-01
     17.608  0.2268E-01  0.1906E+00  0.8320E-01
     17.722  0.2024E-01  0.2153E+00  0.9704E-01
     17.836  0.1983E-01  0.2047E+00  0.9410E-01
     17.950  0.2198E-01  0.1788E+00  0.8114E-01
     18.064  0.2308E-01  0.1753E+00  0.7983E-01
     18.178  0.2038E-01  0.1856E+00  0.8654E-01
     18.292  0.1698E-01  0.1988E+00  0.9297E-01
     18.406  0.1590E-01  0.1967E+00  0.9128E-01
     18.520  0.1826E-01  0.1870E+00  0.8606E-01
     18.634  0.2253E-01  0.1988E+00  0.9159E-01
     18.748  0.2115E-01  0.1943E+00  0.9165E-01
     18.862  0.1583E-01  0.1700E+00  0.8521E-01
     18.976  0.1355E-01  0.1666E+00  0.8651E-01
     19.090  0.1315E-01  0.1651E+00  0.8331E-01
     19.205  0.1455E-01  0.1708E+00  0.8004E-01
     19.319  0.1696E-01  0.1899E+00  0.8576E-01
     19.433  0.1708E-01  0.1980E+00  0.9459E-01
     19.547  0.1498E-01  0.1862E+00  0.9524E-01
     19.661  0.1248E-01  0.1555E+00  0.8170E-01
     19.775  0.1236E-01  0.1421E+00  0.7666E-01
     19.889  0.1450E-01  0.1614E+00  0.8780E-01
     20.003  0.1434E-01  0.1747E+00  0.9638E-01
     20.117  0.1098E-01  0.1624E+00  0.9001E-01
     20.231  0.8213E-02  0.1561E+00  0.8035E-01
     20.345  0.7931E-02  0.1597E+00  0.7850E-01
     20.459  0.1022E-01  0.1539E+00  0.8329E-01
     20.573  0.1279E-01  0.1456E+00  0.8973E-01
     20.687  0.1315E-01  0.1384E+00  0.9008E-01
     20.801  0.1138E-01  0.1290E+00  0.8269E-01
     20.916  0.9454E-02  0.1263E+00  0.7636E-01
     21.030  0.8740E-02  0.1297E+00  0.7489E-01
     21.144  0.7538E-02  0.1202E+00  0.6746E-01
     21.258  0.5858E-02  0.1124E+00  0.6070E-01
     21.372  0.5341E-02  0.1104E+00  0.6036E-01
     21.486  0.7125E-02  0.1116E+00  0.6588E-01
     21.600  0.1066E-01  0.1236E+00  0.7993E-01
     21.714  0.1187E-01  0.1247E+00  0.8425E-01
     21.828  0.9400E-02  0.1046E+00  0.6712E-01
     21.942  0.7360E-02  0.8746E-01  0.5119E-01
     22.056  0.7133E-02  0.8598E-01  0.4835E-01
     22.170  0.6491E-02  0.8820E-01  0.4333E-01
     22.284  0.5140E-02  0.8106E-01  0.3401E-01
     22.398  0.4973E-02  0.7374E-01  0.3210E-01
     22.513  0.5868E-02  0.7836E-01  0.3630E-01
     22.627  0.5831E-02  0.7644E-01  0.3471E-01
     22.741  0.4337E-02  0.6744E-01  0.2592E-01
     22.855  0.3144E-02  0.6961E-01  0.1949E-01
     22.969  0.2658E-02  0.6814E-01  0.1623E-01
     23.083  0.2019E-02  0.5685E-01  0.1391E-01
     23.197  0.1602E-02  0.5378E-01  0.1472E-01
     23.311  0.1955E-02  0.5887E-01  0.1700E-01
     23.425  0.2525E-02  0.6414E-01  0.1902E-01
     23.539  0.2109E-02  0.5926E-01  0.1803E-01
     23.653  0.1108E-02  0.4505E-01  0.1287E-01
     23.767  0.7614E-03  0.4068E-01  0.1042E-01
     23.881  0.9000E-03  0.4833E-01  0.1191E-01
     23.995  0.1029E-02  0.5862E-01  0.1383E-01
     24.110  0.9388E-03  0.6337E-01  0.1424E-01
     24.224  0.7220E-03  0.5816E-01  0.1256E-01
     24.338  0.4998E-03  0.5101E-01  0.1110E-01
     24.452  0.3656E-03  0.4638E-01  0.1049E-01
     24.566  0.2591E-03  0.3587E-01  0.8020E-02
     24.680  0.1243E-03  0.2959E-01  0.6551E-02
     24.794  0.4662E-04  0.2896E-01  0.6688E-02
     24.908  0.2428E-04  0.2074E-01  0.4770E-02
     25.022  0.1674E-04  0.1095E-01  0.2551E-02
     25.136  0.1613E-04  0.9600E-02  0.2727E-02
     25.250  0.1137E-04  0.9959E-02  0.3130E-02
     25.364  0.4445E-05  0.5923E-02  0.1908E-02
     25.478  0.5840E-06  0.1545E-02  0.4692E-03
     25.592 -0.3719E-06  0.7420E-03  0.1822E-03
     25.706 -0.1816E-06  0.1325E-02  0.3743E-03
     25.821 -0.2977E-07  0.1251E-02  0.3905E-03
     25.935 -0.2090E-08  0.9081E-03  0.3062E-03
     26.049 -0.1886E-10  0.4052E-03  0.1402E-03
     26.163  0.3801E-11  0.1869E-04  0.7232E-05
     26.277 -0.5121E-11 -0.4301E-04 -0.1444E-04
     26.391 -0.1553E-11 -0.1236E-04 -0.4176E-05
     26.505 -0.1696E-12 -0.1336E-05 -0.4516E-06
     26.619 -0.8449E-14 -0.6634E-07 -0.2244E-07
     26.733 -0.2051E-15 -0.1609E-08 -0.5443E-09
     26.847 -0.2495E-17 -0.1957E-10 -0.6618E-11
     26.961 -0.1542E-19 -0.1209E-12 -0.4089E-13
     27.075 -0.4874E-22 -0.3822E-15 -0.1293E-15
     27.189 -0.1010E-24 -0.7921E-18 -0.2679E-18
     27.303  0.0000E+00  0.0000E+00  0.0000E+00
     27.418  0.0000E+00  0.0000E+00  0.0000E+00
     27.532  0.0000E+00  0.0000E+00  0.0000E+00
     27.646  0.0000E+00  0.0000E+00  0.0000E+00
     27.760  0.0000E+00  0.0000E+00  0.0000E+00
     27.874  0.0000E+00  0.0000E+00  0.0000E+00
