    1    1    1    1
  0.1695687E+02  0.2883723E-09  0.2883723E-09  0.2883723E-09  0.5000000E-15
  1.000000000000000E-004
  CAR 
 Au fcc                                  
     11    770      9
 
  0.2500000E-01  0.2500000E-01  0.2500000E-01  0.2500000E-03
    1       -4.347057
    2        0.867142
    3        0.882522
    4        0.882522
    5        2.427491
    6        2.427491
    7       20.969518
    8       24.623652
    9       24.835219
 
  0.7500000E-01  0.2500000E-01  0.2500000E-01  0.7500000E-03
    1       -4.229908
    2        0.824262
    3        0.919176
    4        0.933308
    5        2.386370
    6        2.433263
    7       21.095548
    8       23.876847
    9       24.769072
 
  0.1250000E+00  0.2500000E-01  0.2500000E-01  0.7500000E-03
    1       -3.944433
    2        0.740706
    3        1.008787
    4        1.027003
    5        2.330098
    6        2.427309
    7       21.298654
    8       22.487184
    9       24.878283
 
  0.1750000E+00  0.2500000E-01  0.2500000E-01  0.7500000E-03
    1       -3.513145
    2        0.649295
    3        1.116566
    4        1.128310
    5        2.298239
    6        2.445906
    7       20.407411
    8       21.959777
    9       25.103171
 
  0.2250000E+00  0.2500000E-01  0.2500000E-01  0.7500000E-03
    1       -2.985003
    2        0.617272
    3        1.182399
    4        1.183862
    5        2.354247
    6        2.543962
    7       18.565018
    8       22.044522
    9       25.251363
 
  0.2750000E+00  0.2500000E-01  0.2500000E-01  0.7500000E-03
    1       -2.455359
    2        0.751636
    3        1.162062
    4        1.166782
    5        2.536555
    6        2.747091
    7       16.572653
    8       21.830616
    9       25.055988
 
  0.3250000E+00  0.2500000E-01  0.2500000E-01  0.7500000E-03
    1       -2.057673
    2        1.065722
    3        1.088157
    4        1.211807
    5        2.810810
    6        3.024966
    7       14.539404
    8       21.384864
    9       24.515661
 
  0.3750000E+00  0.2500000E-01  0.2500000E-01  0.7500000E-03
    1       -1.855890
    2        0.985158
    3        0.994502
    4        1.983928
    5        3.113461
    6        3.331539
    7       12.548603
    8       20.915062
    9       23.883386
 
  0.4250000E+00  0.2500000E-01  0.2500000E-01  0.7500000E-03
    1       -1.789853
    2        0.902772
    3        0.913983
    4        2.923588
    5        3.383915
    6        3.691378
    7       10.701105
    8       20.542393
    9       23.362134
 
  0.4750000E+00  0.2500000E-01  0.2500000E-01  0.7500000E-03
    1       -1.778642
    2        0.847512
    3        0.865196
    4        3.436448
    5        3.577757
    6        4.373920
    7        9.216597
    8       20.317490
    9       23.076116
 
 -0.4750000E+00  0.2500000E-01  0.2500000E-01  0.7500000E-03
    1       -1.778946
    2        0.830576
    3        0.855079
    4        3.492891
    5        3.648156
    6        4.726902
    7        8.709817
    8       20.260740
    9       23.129211
 
 -0.4250000E+00  0.2500000E-01  0.2500000E-01  0.7500000E-03
    1       -1.779684
    2        0.854492
    3        0.884943
    4        3.290882
    5        3.595466
    6        4.091973
    7        9.647797
    8       20.375551
    9       23.214665
 
 -0.3750000E+00  0.2500000E-01  0.2500000E-01  0.7500000E-03
    1       -1.802754
    2        0.916178
    3        0.949276
    4        2.600283
    5        3.424728
    6        3.448013
    7       11.290420
    8       20.653816
    9       23.588531
 
 -0.3250000E+00  0.2500000E-01  0.2500000E-01  0.7500000E-03
    1       -1.903778
    2        1.004066
    3        1.037726
    4        1.683876
    5        3.071134
    6        3.176265
    7       13.201523
    8       21.070959
    9       24.162274
 
 -0.2750000E+00  0.2500000E-01  0.2500000E-01  0.7500000E-03
    1       -2.168832
    2        0.992122
    3        1.116490
    4        1.125991
    5        2.743353
    6        2.899735
    7       15.216026
    8       21.554391
    9       24.769238
 
 -0.2250000E+00  0.2500000E-01  0.2500000E-01  0.7500000E-03
    1       -2.623977
    2        0.678140
    3        1.173530
    4        1.184423
    5        2.477596
    6        2.654989
    7       17.245651
    8       21.949536
    9       25.178408
 
 -0.1750000E+00  0.2500000E-01  0.2500000E-01  0.7500000E-03
    1       -3.167077
    2        0.613574
    3        1.168856
    4        1.175632
    5        2.325552
    6        2.496248
    7       19.205774
    8       22.052312
    9       25.243470
 
 -0.1250000E+00  0.2500000E-01  0.2500000E-01  0.7500000E-03
    1       -3.670783
    2        0.674452
    3        1.086653
    4        1.096164
    5        2.298237
    6        2.435858
    7       20.919931
    8       21.960858
    9       25.077871
 
 -0.7500000E-01  0.2500000E-01  0.2500000E-01  0.7500000E-03
    1       -4.057239
    2        0.768861
    3        0.981636
    4        0.989915
    5        2.343815
    6        2.435451
    7       21.249909
    8       22.979744
    9       24.878270
 
 -0.2500000E-01  0.2500000E-01  0.2500000E-01  0.7500000E-03
    1       -4.288243
    2        0.838980
    3        0.906930
    4        0.909062
    5        2.395082
    6        2.441154
    7       21.035327
    8       24.300994
    9       24.786186
 
  0.7500000E-01  0.7500000E-01  0.2500000E-01  0.7500000E-03
    1       -4.171402
    2        0.779390
    3        0.960063
    4        0.961995
    5        2.331893
    6        2.468215
    7       21.164295
    8       23.880957
    9       24.650875
 
  0.1250000E+00  0.7500000E-01  0.2500000E-01  0.1500000E-02
    1       -3.942097
    2        0.691404
    3        1.040825
    4        1.056301
    5        2.243109
    6        2.497310
    7       21.378921
    8       22.894694
    9       24.417828
 
  0.1750000E+00  0.7500000E-01  0.2500000E-01  0.1500000E-02
    1       -3.558256
    2        0.588638
    3        1.151273
    4        1.163599
    5        2.171866
    6        2.537516
    7       21.025569
    8       21.956439
    9       24.384262
 
  0.2250000E+00  0.7500000E-01  0.2500000E-01  0.1500000E-02
    1       -3.056907
    2        0.513921
    3        1.217627
    4        1.246594
    5        2.193142
    6        2.634119
    7       19.282285
    8       22.054290
    9       24.357468
 
  0.2750000E+00  0.7500000E-01  0.2500000E-01  0.1500000E-02
    1       -2.514381
    2        0.551922
    3        1.186754
    4        1.260818
    5        2.375558
    6        2.822796
    7       17.314548
    8       21.941902
    9       24.132690
 
  0.3250000E+00  0.7500000E-01  0.2500000E-01  0.1500000E-02
    1       -2.059139
    2        0.815830
    3        1.097833
    4        1.205726
    5        2.698455
    6        3.093420
    7       15.277735
    8       21.570315
    9       23.682886
 
  0.3750000E+00  0.7500000E-01  0.2500000E-01  0.1500000E-02
    1       -1.797341
    2        0.951275
    3        1.115288
    4        1.427002
    5        3.087449
    6        3.428605
    7       13.257069
    8       21.116875
    9       23.183081
 
  0.4250000E+00  0.7500000E-01  0.2500000E-01  0.1500000E-02
    1       -1.700915
    2        0.858729
    3        1.028401
    4        2.150108
    5        3.421313
    6        3.928807
    7       11.340177
    8       20.722698
    9       22.780196
 
  0.4750000E+00  0.7500000E-01  0.2500000E-01  0.1500000E-02
    1       -1.680863
    2        0.793239
    3        0.962835
    4        2.729399
    5        3.599266
    6        4.699043
    7        9.675100
    8       20.454402
    9       22.564074
 
 -0.4750000E+00  0.7500000E-01  0.2500000E-01  0.1500000E-02
    1       -1.680660
    2        0.768902
    3        0.931644
    4        2.987440
    5        3.636452
    6        5.338891
    7        8.700279
    8       20.339725
    9       22.462728
 
 -0.4250000E+00  0.7500000E-01  0.2500000E-01  0.1500000E-02
    1       -1.679142
    2        0.787781
    3        0.940296
    4        2.901360
    5        3.555353
    6        4.992038
    7        9.238230
    8       20.384796
    9       22.374665
 
 -0.3750000E+00  0.7500000E-01  0.2500000E-01  0.1500000E-02
    1       -1.687155
    2        0.845724
    3        0.987738
    4        2.438536
    5        3.347668
    6        4.238931
    7       10.753973
    8       20.583637
    9       22.507179
 
 -0.3250000E+00  0.7500000E-01  0.2500000E-01  0.1500000E-02
    1       -1.748435
    2        0.931538
    3        1.066972
    4        1.710555
    5        3.038657
    6        3.692332
    7       12.608108
    8       20.912341
    9       22.879704
 
 -0.2750000E+00  0.7500000E-01  0.2500000E-01  0.1500000E-02
    1       -1.946193
    2        0.941472
    3        1.125568
    4        1.171816
    5        2.697109
    6        3.294434
    7       14.601859
    8       21.321099
    9       23.429887
 
 -0.2250000E+00  0.7500000E-01  0.2500000E-01  0.1500000E-02
    1       -2.344333
    2        0.624067
    3        1.167185
    4        1.241973
    5        2.394837
    6        2.964828
    7       16.637056
    8       21.703519
    9       24.037840
 
 -0.1750000E+00  0.7500000E-01  0.2500000E-01  0.1500000E-02
    1       -2.875212
    2        0.524549
    3        1.210442
    4        1.254197
    5        2.204977
    6        2.711883
    7       18.628995
    8       21.908540
    9       24.405612
 
 -0.1250000E+00  0.7500000E-01  0.2500000E-01  0.1500000E-02
    1       -3.402143
    2        0.574766
    3        1.172263
    4        1.180742
    5        2.172072
    6        2.560016
    7       20.473450
    8       21.862803
    9       24.371368
 
 -0.7500000E-01  0.7500000E-01  0.2500000E-01  0.1500000E-02
    1       -3.830891
    2        0.677551
    3        1.054816
    4        1.086893
    5        2.240976
    6        2.490675
    7       21.418399
    8       22.295122
    9       24.344808
 
 -0.2500000E-01  0.7500000E-01  0.2500000E-01  0.1500000E-02
    1       -4.114013
    2        0.774052
    3        0.964657
    4        0.983062
    5        2.333487
    6        2.454965
    7       21.212973
    8       23.386887
    9       24.632828
 
  0.1250000E+00  0.1250000E+00  0.2500000E-01  0.7500000E-03
    1       -3.770984
    2        0.581815
    3        1.143985
    4        1.145625
    5        2.121140
    6        2.560231
    7       21.588187
    8       23.002622
    9       24.119875
 
  0.1750000E+00  0.1250000E+00  0.2500000E-01  0.1500000E-02
    1       -3.442279
    2        0.456876
    3        1.263003
    4        1.272352
    5        2.015346
    6        2.623391
    7       21.696299
    8       22.074181
    9       23.714654
 
  0.2250000E+00  0.1250000E+00  0.2500000E-01  0.1500000E-02
    1       -2.983074
    2        0.344089
    3        1.310110
    4        1.391911
    5        2.032650
    6        2.721811
    7       20.102571
    8       22.096097
    9       23.493463
 
  0.2750000E+00  0.1250000E+00  0.2500000E-01  0.1500000E-02
    1       -2.450416
    2        0.297942
    3        1.220124
    4        1.440809
    5        2.275911
    6        2.897690
    7       18.148547
    8       22.006300
    9       23.196370
 
  0.3250000E+00  0.1250000E+00  0.2500000E-01  0.1500000E-02
    1       -1.954929
    2        0.416030
    3        1.062076
    4        1.414040
    5        2.688649
    6        3.156874
    7       16.098472
    8       21.709891
    9       22.722026
 
  0.3750000E+00  0.1250000E+00  0.2500000E-01  0.1500000E-02
    1       -1.632674
    2        0.792925
    3        0.901577
    4        1.339484
    5        3.163541
    6        3.523683
    7       14.044423
    8       21.310301
    9       22.227531
 
  0.4250000E+00  0.1250000E+00  0.2500000E-01  0.1500000E-02
    1       -1.501969
    2        0.767921
    3        1.235454
    4        1.382199
    5        3.485107
    6        4.171707
    7       12.067388
    8       20.904568
    9       21.866148
 
  0.4750000E+00  0.1250000E+00  0.2500000E-01  0.1500000E-02
    1       -1.470463
    2        0.676733
    3        1.165879
    4        1.934462
    5        3.633192
    6        5.083733
    7       10.264448
    8       20.554002
    9       21.683238
 
 -0.4750000E+00  0.1250000E+00  0.2500000E-01  0.1500000E-02
    1       -1.466327
    2        0.635391
    3        1.115296
    4        2.302291
    5        3.642302
    6        6.026437
    7        8.888459
    8       20.287982
    9       21.581190
 
 -0.4250000E+00  0.1250000E+00  0.2500000E-01  0.1500000E-02
    1       -1.459941
    2        0.645597
    3        1.100434
    4        2.374498
    5        3.527896
    6        6.038136
    7        8.929036
    8       20.121852
    9       21.494650
 
 -0.3750000E+00  0.1250000E+00  0.2500000E-01  0.1500000E-02
    1       -1.452493
    2        0.702693
    3        1.125720
    4        2.101396
    5        3.297487
    6        5.198773
    7       10.330032
    8       20.077154
    9       21.595036
 
 -0.3250000E+00  0.1250000E+00  0.2500000E-01  0.1500000E-02
    1       -1.475420
    2        0.791353
    3        1.186329
    4        1.559953
    5        2.978421
    6        4.455904
    7       12.127318
    8       20.165054
    9       21.943470
 
 -0.2750000E+00  0.1250000E+00  0.2500000E-01  0.1500000E-02
    1       -1.605510
    2        0.795463
    3        1.065294
    4        1.291816
    5        2.619816
    6        3.896118
    7       14.080937
    8       20.370396
    9       22.532148
 
 -0.2250000E+00  0.1250000E+00  0.2500000E-01  0.1500000E-02
    1       -1.938167
    2        0.496844
    3        1.104965
    4        1.384831
    5        2.281368
    6        3.437542
    7       16.093105
    8       20.640854
    9       23.326377
 
 -0.1750000E+00  0.1250000E+00  0.2500000E-01  0.1500000E-02
    1       -2.447210
    2        0.390790
    3        1.196823
    4        1.423898
    5        2.051579
    6        3.055420
    7       18.065269
    8       20.933855
    9       24.138762
 
 -0.1250000E+00  0.1250000E+00  0.2500000E-01  0.1500000E-02
    1       -2.988316
    2        0.445724
    3        1.231809
    4        1.329057
    5        2.027910
    6        2.766857
    7       19.840719
    8       21.227379
    9       24.174931
 
 -0.7500000E-01  0.1250000E+00  0.2500000E-01  0.1500000E-02
    1       -3.450126
    2        0.562887
    3        1.176984
    4        1.184464
    5        2.132603
    6        2.579789
    7       21.016795
    8       21.599887
    9       24.102220
 
 -0.2500000E-01  0.1250000E+00  0.2500000E-01  0.1500000E-02
    1       -3.777254
    2        0.679769
    3        1.065866
    4        1.086789
    5        2.262450
    6        2.469268
    7       21.281963
    8       22.084835
    9       24.690869
 
  0.1750000E+00  0.1750000E+00  0.2500000E-01  0.7500000E-03
    1       -3.174013
    2        0.306197
    3        1.418480
    4        1.424807
    5        1.861540
    6        2.697837
    7       22.047722
    8       22.338800
    9       23.083089
 
  0.2250000E+00  0.1750000E+00  0.2500000E-01  0.1500000E-02
    1       -2.773781
    2        0.161398
    3        1.453410
    4        1.593807
    5        1.878124
    6        2.793434
    7       20.988551
    8       21.962709
    9       23.007908
 
  0.2750000E+00  0.1750000E+00  0.2500000E-01  0.1500000E-02
    1       -2.282894
    2        0.054558
    3        1.284077
    4        1.694300
    5        2.204937
    6        2.951220
    7       19.057256
    8       21.594809
    9       22.805649
 
  0.3250000E+00  0.1750000E+00  0.2500000E-01  0.1500000E-02
    1       -1.784490
    2        0.050639
    3        1.076923
    4        1.703259
    5        2.696932
    6        3.199873
    7       16.983802
    8       21.212641
    9       22.246050
 
  0.3750000E+00  0.1750000E+00  0.2500000E-01  0.1500000E-02
    1       -1.416323
    2        0.245037
    3        0.890754
    4        1.646246
    5        3.229088
    6        3.595221
    7       14.892998
    8       20.894894
    9       21.494382
 
  0.4250000E+00  0.1750000E+00  0.2500000E-01  0.1500000E-02
    1       -1.250346
    2        0.547544
    3        0.854360
    4        1.560727
    5        3.532759
    6        4.355940
    7       12.867699
    8       20.672729
    9       20.774523
 
  0.4750000E+00  0.1750000E+00  0.2500000E-01  0.1500000E-02
    1       -1.201274
    2        0.525172
    3        1.251634
    4        1.480430
    5        3.664687
    6        5.381296
    7       10.978681
    8       20.024304
    9       20.724904
 
 -0.4750000E+00  0.1750000E+00  0.2500000E-01  0.1500000E-02
    1       -1.183553
    2        0.469687
    3        1.391845
    4        1.659332
    5        3.659493
    6        6.550475
    7        9.333198
    8       19.410954
    9       20.932844
 
 -0.4250000E+00  0.1750000E+00  0.2500000E-01  0.1500000E-02
    1       -1.161161
    2        0.464344
    3        1.357211
    4        1.834272
    5        3.525150
    6        7.113716
    7        8.726748
    8       18.931232
    9       21.264638
 
 -0.3750000E+00  0.1750000E+00  0.2500000E-01  0.1500000E-02
    1       -1.130807
    2        0.513266
    3        1.355064
    4        1.720603
    5        3.276033
    6        6.191584
    7       10.054185
    8       18.630480
    9       21.557111
 
 -0.3250000E+00  0.1750000E+00  0.2500000E-01  0.1500000E-02
    1       -1.113180
    2        0.601661
    3        1.298458
    4        1.431016
    5        2.944811
    6        5.294151
    7       11.795714
    8       18.532948
    9       21.889508
 
 -0.2750000E+00  0.1750000E+00  0.2500000E-01  0.1500000E-02
    1       -1.174292
    2        0.616638
    3        0.926882
    4        1.486954
    5        2.567901
    6        4.590404
    7       13.673800
    8       18.632811
    9       22.375801
 
 -0.2250000E+00  0.1750000E+00  0.2500000E-01  0.1500000E-02
    1       -1.436587
    2        0.355079
    3        0.973935
    4        1.591794
    5        2.193117
    6        4.008757
    7       15.589771
    8       18.919606
    9       23.060651
 
 -0.1750000E+00  0.1750000E+00  0.2500000E-01  0.1500000E-02
    1       -1.920738
    2        0.269621
    3        1.106748
    4        1.677310
    5        1.900149
    6        3.504876
    7       17.366794
    8       19.449633
    9       23.960286
 
 -0.1250000E+00  0.1750000E+00  0.2500000E-01  0.1500000E-02
    1       -2.468297
    2        0.342892
    3        1.203091
    4        1.503134
    5        1.940393
    6        3.077012
    7       18.608700
    8       20.454708
    9       24.517924
 
 -0.7500000E-01  0.1750000E+00  0.2500000E-01  0.1500000E-02
    1       -2.950259
    2        0.472837
    3        1.224398
    4        1.298540
    5        2.092916
    6        2.746630
    7       19.302105
    8       21.609456
    9       24.217282
 
 -0.2500000E-01  0.1750000E+00  0.2500000E-01  0.1500000E-02
    1       -3.307144
    2        0.595331
    3        1.167678
    4        1.176263
    5        2.243764
    6        2.524499
    7       19.849346
    8       22.005001
    9       24.814907
 
  0.2250000E+00  0.2250000E+00  0.2500000E-01  0.7500000E-03
    1       -2.448736
    2       -0.011974
    3        1.562083
    4        1.792953
    5        1.860153
    6        2.867669
    7       21.240808
    8       21.714820
    9       22.489175
 
  0.2750000E+00  0.2250000E+00  0.2500000E-01  0.1500000E-02
    1       -2.040610
    2       -0.158361
    3        1.419775
    4        1.990441
    5        2.164156
    6        2.994962
    7       19.932166
    8       20.809071
    9       22.448972
 
  0.3250000E+00  0.2250000E+00  0.2500000E-01  0.1500000E-02
    1       -1.606378
    2       -0.243726
    3        1.229240
    4        2.057147
    5        2.686470
    6        3.216819
    7       17.882806
    8       20.271783
    9       21.619278
 
  0.3750000E+00  0.2250000E+00  0.2500000E-01  0.1500000E-02
    1       -1.247544
    2       -0.198200
    3        1.056506
    4        2.027242
    5        3.265080
    6        3.625487
    7       15.766453
    8       19.879683
    9       20.650726
 
  0.4250000E+00  0.2250000E+00  0.2500000E-01  0.1500000E-02
    1       -1.062364
    2        0.014210
    3        0.950365
    4        1.947721
    5        3.565705
    6        4.468715
    7       13.709147
    8       19.586347
    9       19.815457
 
  0.4750000E+00  0.2250000E+00  0.2500000E-01  0.1500000E-02
    1       -0.992179
    2        0.220492
    3        1.000858
    4        1.853537
    5        3.695106
    6        5.576202
    7       11.779332
    8       18.828632
    9       19.744812
 
 -0.4750000E+00  0.2250000E+00  0.2500000E-01  0.1500000E-02
    1       -0.943849
    2        0.282546
    3        1.208681
    4        1.765099
    5        3.686715
    6        6.865177
    7       10.027773
    8       18.061492
    9       20.029552
 
 -0.4250000E+00  0.2250000E+00  0.2500000E-01  0.1500000E-02
    1       -0.881846
    2        0.297357
    3        1.376883
    4        1.695582
    5        3.541787
    6        8.132073
    7        8.676924
    8       17.419560
    9       20.569734
 
 -0.3750000E+00  0.2250000E+00  0.2500000E-01  0.1500000E-02
    1       -0.804190
    2        0.336983
    3        1.347023
    4        1.662376
    5        3.285085
    6        7.149990
    7        9.973277
    8       16.946933
    9       21.273233
 
 -0.3250000E+00  0.2250000E+00  0.2500000E-01  0.1500000E-02
    1       -0.730407
    2        0.415946
    3        1.078714
    4        1.672849
    5        2.949454
    6        6.137035
    7       11.665814
    8       16.700425
    9       21.884016
 
 -0.2750000E+00  0.2250000E+00  0.2500000E-01  0.1500000E-02
    1       -0.717166
    2        0.451991
    3        0.757323
    4        1.716630
    5        2.573629
    6        5.327091
    7       13.417636
    8       16.739031
    9       22.320885
 
 -0.2250000E+00  0.2250000E+00  0.2500000E-01  0.1500000E-02
    1       -0.916401
    2        0.260800
    3        0.807662
    4        1.783360
    5        2.210888
    6        4.644381
    7       15.047780
    8       17.184213
    9       22.770593
 
 -0.1750000E+00  0.2250000E+00  0.2500000E-01  0.1500000E-02
    1       -1.386199
    2        0.239021
    3        0.966623
    4        1.761160
    5        1.999495
    6        4.032604
    7       16.160569
    8       18.337730
    9       23.264483
 
 -0.1250000E+00  0.2250000E+00  0.2500000E-01  0.1500000E-02
    1       -1.927782
    2        0.346968
    3        1.105785
    4        1.526257
    5        2.080627
    6        3.481205
    7       16.814254
    8       19.987916
    9       23.646515
 
 -0.7500000E-01  0.2250000E+00  0.2500000E-01  0.1500000E-02
    1       -2.405551
    2        0.485787
    3        1.185907
    4        1.327507
    5        2.213386
    6        3.016619
    7       17.364866
    8       21.438299
    9       23.932325
 
 -0.2500000E-01  0.2250000E+00  0.2500000E-01  0.1500000E-02
    1       -2.765358
    2        0.596533
    3        1.192325
    4        1.213300
    5        2.344146
    6        2.670956
    7       17.933764
    8       22.004354
    9       24.784877
 
  0.2750000E+00  0.2750000E+00  0.2500000E-01  0.7500000E-03
    1       -1.757411
    2       -0.337128
    3        1.578005
    4        2.229164
    5        2.292497
    6        3.055250
    7       19.932999
    8       20.215988
    9       21.619948
 
  0.3250000E+00  0.2750000E+00  0.2500000E-01  0.1500000E-02
    1       -1.466478
    2       -0.469419
    3        1.590343
    4        2.440206
    5        2.665298
    6        3.218200
    7       18.605613
    8       19.378550
    9       20.498083
 
  0.3750000E+00  0.2750000E+00  0.2500000E-01  0.1500000E-02
    1       -1.208588
    2       -0.522025
    3        1.499125
    4        2.458551
    5        3.265350
    6        3.609411
    7       16.563134
    8       18.871870
    9       19.495852
 
  0.4250000E+00  0.2750000E+00  0.2500000E-01  0.1500000E-02
    1       -1.043195
    2       -0.440406
    3        1.393190
    4        2.391164
    5        3.581399
    6        4.508707
    7       14.517061
    8       18.381246
    9       18.766333
 
  0.4750000E+00  0.2750000E+00  0.2500000E-01  0.1500000E-02
    1       -0.961737
    2       -0.246691
    3        1.312972
    4        2.292282
    5        3.720545
    6        5.683315
    7       12.595157
    8       17.544650
    9       18.697636
 
 -0.4750000E+00  0.2750000E+00  0.2500000E-01  0.1500000E-02
    1       -0.887817
    2       -0.044565
    3        1.268303
    4        2.186956
    5        3.720244
    6        7.029901
    7       10.848660
    8       16.692867
    9       18.975728
 
 -0.4250000E+00  0.2750000E+00  0.2500000E-01  0.1500000E-02
    1       -0.783548
    2        0.113069
    3        1.229773
    4        2.089877
    5        3.578399
    6        8.493978
    7        9.333573
    8       15.917329
    9       19.540730
 
 -0.3750000E+00  0.2750000E+00  0.2500000E-01  0.1500000E-02
    1       -0.645957
    2        0.232692
    3        1.122568
    4        2.013172
    5        3.327880
    6        8.005715
    7       10.130493
    8       15.282629
    9       20.341807
 
 -0.3250000E+00  0.2750000E+00  0.2500000E-01  0.1500000E-02
    1       -0.497005
    2        0.342748
    3        0.880443
    4        1.963236
    5        3.011118
    6        6.957526
    7       11.785639
    8       14.872116
    9       21.270390
 
 -0.2750000E+00  0.2750000E+00  0.2500000E-01  0.1500000E-02
    1       -0.405812
    2        0.432885
    3        0.586749
    4        1.919794
    5        2.685907
    6        6.090706
    7       13.324993
    8       14.903413
    9       22.046608
 
 -0.2250000E+00  0.2750000E+00  0.2500000E-01  0.1500000E-02
    1       -0.571700
    2        0.335930
    3        0.663368
    4        1.831063
    5        2.446114
    6        5.334476
    7       14.089805
    8       16.028779
    9       22.430165
 
 -0.1750000E+00  0.2750000E+00  0.2500000E-01  0.1500000E-02
    1       -1.021560
    2        0.411800
    3        0.834714
    4        1.646367
    5        2.367823
    6        4.626334
    7       14.442965
    8       17.816888
    9       22.621382
 
 -0.1250000E+00  0.2750000E+00  0.2500000E-01  0.1500000E-02
    1       -1.517225
    2        0.561363
    3        0.995261
    4        1.431263
    5        2.404676
    6        3.963752
    7       14.848390
    8       19.666266
    9       22.770516
 
 -0.7500000E-01  0.2750000E+00  0.2500000E-01  0.1500000E-02
    1       -1.946225
    2        0.708422
    3        1.104447
    4        1.263365
    5        2.489054
    6        3.374600
    7       15.342013
    8       21.150481
    9       23.203541
 
 -0.2500000E-01  0.2750000E+00  0.2500000E-01  0.1500000E-02
    1       -2.264909
    2        0.799465
    3        1.141198
    4        1.174791
    5        2.581395
    6        2.912189
    7       15.916900
    8       21.696717
    9       24.422498
 
  0.3250000E+00  0.3250000E+00  0.2500000E-01  0.7500000E-03
    1       -1.361086
    2       -0.637736
    3        2.068962
    4        2.705139
    5        2.817786
    6        3.246641
    7       18.427544
    8       18.769028
    9       19.137542
 
  0.3750000E+00  0.3250000E+00  0.2500000E-01  0.1500000E-02
    1       -1.261452
    2       -0.743929
    3        2.206037
    4        2.908760
    5        3.235798
    6        3.550206
    7       16.960886
    8       18.004691
    9       18.341852
 
  0.4250000E+00  0.3250000E+00  0.2500000E-01  0.1500000E-02
    1       -1.162570
    2       -0.760071
    3        2.103652
    4        2.860025
    5        3.578752
    6        4.489785
    7       15.077358
    8       17.311232
    9       17.795509
 
  0.4750000E+00  0.3250000E+00  0.2500000E-01  0.1500000E-02
    1       -1.082007
    2       -0.654968
    3        1.948494
    4        2.756420
    5        3.743176
    6        5.721699
    7       13.259531
    8       16.424667
    9       17.696256
 
 -0.4750000E+00  0.3250000E+00  0.2500000E-01  0.1500000E-02
    1       -0.999760
    2       -0.454549
    3        1.767129
    4        2.634756
    5        3.760869
    6        7.109721
    7       11.605093
    8       15.515946
    9       17.935108
 
 -0.4250000E+00  0.3250000E+00  0.2500000E-01  0.1500000E-02
    1       -0.883939
    2       -0.211057
    3        1.549850
    4        2.505977
    5        3.636141
    6        8.565524
    7       10.208150
    8       14.637922
    9       18.476448
 
 -0.3750000E+00  0.3250000E+00  0.2500000E-01  0.1500000E-02
    1       -0.727587
    2        0.039674
    3        1.279481
    4        2.374751
    5        3.410568
    6        8.744879
    7       10.421277
    8       13.840079
    9       19.272926
 
 -0.3250000E+00  0.3250000E+00  0.2500000E-01  0.1500000E-02
    1       -0.549782
    2        0.272117
    3        0.954281
    4        2.234433
    5        3.146716
    6        7.777446
    7       12.082705
    8       13.182883
    9       20.248600
 
 -0.2750000E+00  0.3250000E+00  0.2500000E-01  0.1500000E-02
    1       -0.421251
    2        0.416074
    3        0.699883
    4        2.055019
    5        2.922556
    6        6.911714
    7       12.728063
    8       13.881262
    9       21.269270
 