       N       E                     dE             d eps       ncg     rms          rms(c)
DAV:   1     0.237744080503E+02    0.23774E+02   -0.37529E+03 17634   0.571E+02
DAV:   2    -0.448252881143E+01   -0.28257E+02   -0.25946E+02 14169   0.163E+02
DAV:   3    -0.471370419128E+01   -0.23118E+00   -0.23109E+00 16782   0.159E+01
DAV:   4    -0.471417302486E+01   -0.46883E-03   -0.46883E-03 15474   0.668E-01
DAV:   5    -0.471417595542E+01   -0.29306E-05   -0.29306E-05 14226   0.507E-02    0.318E+00
DAV:   6    -0.441774119028E+01    0.29643E+00   -0.98869E-01 14804   0.117E+01    0.808E-01
DAV:   7    -0.439413623136E+01    0.23605E-01   -0.57402E-02 15715   0.243E+00    0.282E-01
DAV:   8    -0.438927147999E+01    0.48648E-02   -0.15392E-03 14170   0.543E-01    0.974E-03
DAV:   9    -0.438927360609E+01   -0.21261E-05   -0.78696E-06  7192   0.246E-02
   1 F= -.43892736E+01 E0= -.43893032E+01  d E =0.887584E-04
 imaginary and real dielectric function
