   4   4   1   0
  0.9063964E+01  0.5107186E-09  0.5107186E-09  0.5107186E-09  0.5000000E-15
  1.000000000000000E-004
  CAR 
 NiO_af2                                 
     16.43572488    -16.69982543  301      3.54047322      1.00000000
    -16.700  0.0000E+00  0.0000E+00  0.0000E+00  0.0000E+00
    -16.589  0.0000E+00  0.0000E+00  0.0000E+00  0.0000E+00
    -16.479  0.0000E+00  0.0000E+00  0.0000E+00  0.0000E+00
    -16.368  0.0000E+00  0.0000E+00  0.0000E+00  0.0000E+00
    -16.258  0.0000E+00  0.0000E+00  0.0000E+00  0.0000E+00
    -16.148  0.0000E+00  0.0000E+00  0.0000E+00  0.0000E+00
    -16.037  0.0000E+00  0.0000E+00  0.0000E+00  0.0000E+00
    -15.927  0.0000E+00  0.0000E+00  0.0000E+00  0.0000E+00
    -15.816  0.0000E+00  0.0000E+00  0.0000E+00  0.0000E+00
    -15.706  0.0000E+00  0.0000E+00  0.0000E+00  0.0000E+00
    -15.595  0.0000E+00  0.0000E+00  0.0000E+00  0.0000E+00
    -15.485  0.0000E+00  0.0000E+00  0.0000E+00  0.0000E+00
    -15.374  0.0000E+00  0.0000E+00  0.0000E+00  0.0000E+00
    -15.264  0.0000E+00  0.0000E+00  0.0000E+00  0.0000E+00
    -15.153  0.0000E+00  0.0000E+00  0.0000E+00  0.0000E+00
    -15.043  0.0000E+00  0.0000E+00  0.0000E+00  0.0000E+00
    -14.933  0.0000E+00  0.0000E+00  0.0000E+00  0.0000E+00
    -14.822  0.0000E+00  0.0000E+00  0.0000E+00  0.0000E+00
    -14.712  0.0000E+00  0.0000E+00  0.0000E+00  0.0000E+00
    -14.601  0.1256E+00  0.1256E+00  0.7634E-02  0.7634E-02
    -14.491  0.1953E+00  0.1953E+00  0.2543E-01  0.2543E-01
    -14.380  0.2595E+00  0.2595E+00  0.5048E-01  0.5048E-01
    -14.270  0.3243E+00  0.3243E+00  0.8260E-01  0.8260E-01
    -14.159  0.3961E+00  0.3961E+00  0.1224E+00  0.1224E+00
    -14.049  0.4825E+00  0.4825E+00  0.1708E+00  0.1708E+00
    -13.939  0.5830E+00  0.5830E+00  0.2290E+00  0.2290E+00
    -13.828  0.7105E+00  0.7105E+00  0.2999E+00  0.2999E+00
    -13.718  0.8766E+00  0.8766E+00  0.3871E+00  0.3871E+00
    -13.607  0.1131E+01  0.1131E+01  0.4970E+00  0.4970E+00
    -13.497  0.1553E+01  0.1553E+01  0.6422E+00  0.6422E+00
    -13.386  0.2770E+01  0.2770E+01  0.8630E+00  0.8630E+00
    -13.276  0.3492E+01  0.3492E+01  0.1202E+01  0.1202E+01
    -13.165  0.7353E+01  0.7353E+01  0.1742E+01  0.1742E+01
    -13.055  0.0000E+00  0.0000E+00  0.2000E+01  0.2000E+01
    -12.944  0.0000E+00  0.0000E+00  0.2000E+01  0.2000E+01
    -12.834  0.0000E+00  0.0000E+00  0.2000E+01  0.2000E+01
    -12.724  0.0000E+00  0.0000E+00  0.2000E+01  0.2000E+01
    -12.613  0.0000E+00  0.0000E+00  0.2000E+01  0.2000E+01
    -12.503  0.0000E+00  0.0000E+00  0.2000E+01  0.2000E+01
    -12.392  0.0000E+00  0.0000E+00  0.2000E+01  0.2000E+01
    -12.282  0.0000E+00  0.0000E+00  0.2000E+01  0.2000E+01
    -12.171  0.0000E+00  0.0000E+00  0.2000E+01  0.2000E+01
    -12.061  0.0000E+00  0.0000E+00  0.2000E+01  0.2000E+01
    -11.950  0.0000E+00  0.0000E+00  0.2000E+01  0.2000E+01
    -11.840  0.0000E+00  0.0000E+00  0.2000E+01  0.2000E+01
    -11.729  0.0000E+00  0.0000E+00  0.2000E+01  0.2000E+01
    -11.619  0.0000E+00  0.0000E+00  0.2000E+01  0.2000E+01
    -11.509  0.0000E+00  0.0000E+00  0.2000E+01  0.2000E+01
    -11.398  0.0000E+00  0.0000E+00  0.2000E+01  0.2000E+01
    -11.288  0.0000E+00  0.0000E+00  0.2000E+01  0.2000E+01
    -11.177  0.0000E+00  0.0000E+00  0.2000E+01  0.2000E+01
    -11.067  0.0000E+00  0.0000E+00  0.2000E+01  0.2000E+01
    -10.956  0.0000E+00  0.0000E+00  0.2000E+01  0.2000E+01
    -10.846  0.0000E+00  0.0000E+00  0.2000E+01  0.2000E+01
    -10.735  0.0000E+00  0.0000E+00  0.2000E+01  0.2000E+01
    -10.625  0.0000E+00  0.0000E+00  0.2000E+01  0.2000E+01
    -10.515  0.0000E+00  0.0000E+00  0.2000E+01  0.2000E+01
    -10.404  0.0000E+00  0.0000E+00  0.2000E+01  0.2000E+01
    -10.294  0.0000E+00  0.0000E+00  0.2000E+01  0.2000E+01
    -10.183  0.0000E+00  0.0000E+00  0.2000E+01  0.2000E+01
    -10.073  0.0000E+00  0.0000E+00  0.2000E+01  0.2000E+01
     -9.962  0.0000E+00  0.0000E+00  0.2000E+01  0.2000E+01
     -9.852  0.0000E+00  0.0000E+00  0.2000E+01  0.2000E+01
     -9.741  0.0000E+00  0.0000E+00  0.2000E+01  0.2000E+01
     -9.631  0.0000E+00  0.0000E+00  0.2000E+01  0.2000E+01
     -9.520  0.0000E+00  0.0000E+00  0.2000E+01  0.2000E+01
     -9.410  0.0000E+00  0.0000E+00  0.2000E+01  0.2000E+01
     -9.300  0.0000E+00  0.0000E+00  0.2000E+01  0.2000E+01
     -9.189  0.0000E+00  0.0000E+00  0.2000E+01  0.2000E+01
     -9.079  0.0000E+00  0.0000E+00  0.2000E+01  0.2000E+01
     -8.968  0.0000E+00  0.0000E+00  0.2000E+01  0.2000E+01
     -8.858  0.0000E+00  0.0000E+00  0.2000E+01  0.2000E+01
     -8.747  0.0000E+00  0.0000E+00  0.2000E+01  0.2000E+01
     -8.637  0.0000E+00  0.0000E+00  0.2000E+01  0.2000E+01
     -8.526  0.0000E+00  0.0000E+00  0.2000E+01  0.2000E+01
     -8.416  0.0000E+00  0.0000E+00  0.2000E+01  0.2000E+01
     -8.305  0.0000E+00  0.0000E+00  0.2000E+01  0.2000E+01
     -8.195  0.0000E+00  0.0000E+00  0.2000E+01  0.2000E+01
     -8.085  0.0000E+00  0.0000E+00  0.2000E+01  0.2000E+01
     -7.974  0.0000E+00  0.0000E+00  0.2000E+01  0.2000E+01
     -7.864  0.0000E+00  0.0000E+00  0.2000E+01  0.2000E+01
     -7.753  0.0000E+00  0.0000E+00  0.2000E+01  0.2000E+01
     -7.643  0.0000E+00  0.0000E+00  0.2000E+01  0.2000E+01
     -7.532  0.0000E+00  0.0000E+00  0.2000E+01  0.2000E+01
     -7.422  0.0000E+00  0.0000E+00  0.2000E+01  0.2000E+01
     -7.311  0.0000E+00  0.0000E+00  0.2000E+01  0.2000E+01
     -7.201  0.0000E+00  0.0000E+00  0.2000E+01  0.2000E+01
     -7.091  0.0000E+00  0.0000E+00  0.2000E+01  0.2000E+01
     -6.980  0.0000E+00  0.0000E+00  0.2000E+01  0.2000E+01
     -6.870  0.0000E+00  0.0000E+00  0.2000E+01  0.2000E+01
     -6.759  0.0000E+00  0.0000E+00  0.2000E+01  0.2000E+01
     -6.649  0.0000E+00  0.0000E+00  0.2000E+01  0.2000E+01
     -6.538  0.0000E+00  0.0000E+00  0.2000E+01  0.2000E+01
     -6.428  0.0000E+00  0.0000E+00  0.2000E+01  0.2000E+01
     -6.317  0.0000E+00  0.0000E+00  0.2000E+01  0.2000E+01
     -6.207  0.0000E+00  0.0000E+00  0.2000E+01  0.2000E+01
     -6.096  0.0000E+00  0.0000E+00  0.2000E+01  0.2000E+01
     -5.986  0.0000E+00  0.0000E+00  0.2000E+01  0.2000E+01
     -5.876  0.0000E+00  0.0000E+00  0.2000E+01  0.2000E+01
     -5.765  0.0000E+00  0.0000E+00  0.2000E+01  0.2000E+01
     -5.655  0.0000E+00  0.0000E+00  0.2000E+01  0.2000E+01
     -5.544  0.0000E+00  0.0000E+00  0.2000E+01  0.2000E+01
     -5.434  0.0000E+00  0.0000E+00  0.2000E+01  0.2000E+01
     -5.323  0.0000E+00  0.0000E+00  0.2000E+01  0.2000E+01
     -5.213  0.0000E+00  0.0000E+00  0.2000E+01  0.2000E+01
     -5.102  0.0000E+00  0.0000E+00  0.2000E+01  0.2000E+01
     -4.992  0.0000E+00  0.0000E+00  0.2000E+01  0.2000E+01
     -4.881  0.0000E+00  0.0000E+00  0.2000E+01  0.2000E+01
     -4.771  0.0000E+00  0.0000E+00  0.2000E+01  0.2000E+01
     -4.661  0.0000E+00  0.0000E+00  0.2000E+01  0.2000E+01
     -4.550  0.0000E+00  0.0000E+00  0.2000E+01  0.2000E+01
     -4.440  0.0000E+00  0.0000E+00  0.2000E+01  0.2000E+01
     -4.329  0.0000E+00  0.0000E+00  0.2000E+01  0.2000E+01
     -4.219  0.0000E+00  0.0000E+00  0.2000E+01  0.2000E+01
     -4.108  0.0000E+00  0.0000E+00  0.2000E+01  0.2000E+01
     -3.998  0.0000E+00  0.0000E+00  0.2000E+01  0.2000E+01
     -3.887  0.0000E+00  0.0000E+00  0.2000E+01  0.2000E+01
     -3.777  0.0000E+00  0.0000E+00  0.2000E+01  0.2000E+01
     -3.667  0.0000E+00  0.0000E+00  0.2000E+01  0.2000E+01
     -3.556  0.0000E+00  0.0000E+00  0.2000E+01  0.2000E+01
     -3.446  0.1940E+00  0.1940E+00  0.2012E+01  0.2012E+01
     -3.335  0.3318E+00  0.3318E+00  0.2041E+01  0.2041E+01
     -3.225  0.1363E+01  0.1363E+01  0.2114E+01  0.2114E+01
     -3.114  0.3047E+01  0.3047E+01  0.2375E+01  0.2375E+01
     -3.004  0.2633E+01  0.2633E+01  0.2725E+01  0.2725E+01
     -2.893  0.1129E+01  0.1129E+01  0.2940E+01  0.2940E+01
     -2.783  0.6281E+01  0.6281E+01  0.3193E+01  0.3193E+01
     -2.672  0.2645E+01  0.2645E+01  0.3951E+01  0.3951E+01
     -2.562  0.2069E+01  0.2069E+01  0.4194E+01  0.4194E+01
     -2.452  0.1245E+01  0.1245E+01  0.4433E+01  0.4433E+01
     -2.341  0.1092E+01  0.1092E+01  0.4557E+01  0.4557E+01
     -2.231  0.1127E+01  0.1127E+01  0.4677E+01  0.4677E+01
     -2.120  0.1251E+01  0.1251E+01  0.4808E+01  0.4808E+01
     -2.010  0.1488E+01  0.1488E+01  0.4958E+01  0.4958E+01
     -1.899  0.1381E+01  0.1381E+01  0.5115E+01  0.5115E+01
     -1.789  0.1836E+01  0.1836E+01  0.5294E+01  0.5294E+01
     -1.678  0.2941E+01  0.2941E+01  0.5540E+01  0.5540E+01
     -1.568  0.3040E+01  0.3040E+01  0.5870E+01  0.5870E+01
     -1.457  0.2188E+01  0.2188E+01  0.6163E+01  0.6163E+01
     -1.347  0.1788E+01  0.1788E+01  0.6404E+01  0.6404E+01
     -1.237  0.1788E+01  0.1788E+01  0.6604E+01  0.6604E+01
     -1.126  0.2148E+01  0.2148E+01  0.6815E+01  0.6815E+01
     -1.016  0.1672E+01  0.1672E+01  0.7154E+01  0.7154E+01
     -0.905  0.1781E+01  0.1781E+01  0.7301E+01  0.7301E+01
     -0.795  0.2688E+01  0.2688E+01  0.7546E+01  0.7546E+01
     -0.684  0.1810E+01  0.1810E+01  0.7862E+01  0.7862E+01
     -0.574  0.1806E+01  0.1806E+01  0.8087E+01  0.8087E+01
     -0.463  0.1699E+01  0.1699E+01  0.8300E+01  0.8300E+01
     -0.353  0.2293E+01  0.2293E+01  0.8508E+01  0.8508E+01
     -0.243  0.2472E+01  0.2472E+01  0.8835E+01  0.8835E+01
     -0.132  0.2351E+00  0.2351E+00  0.8972E+01  0.8972E+01
     -0.022  0.1663E+01  0.1663E+01  0.9072E+01  0.9072E+01
      0.089  0.2915E+01  0.2915E+01  0.9347E+01  0.9347E+01
      0.199  0.3142E+01  0.3142E+01  0.9682E+01  0.9682E+01
      0.310  0.1250E+01  0.1250E+01  0.9951E+01  0.9951E+01
      0.420  0.4206E+00  0.4206E+00  0.1002E+02  0.1002E+02
      0.531  0.8948E+00  0.8948E+00  0.1009E+02  0.1009E+02
      0.641  0.1214E+01  0.1214E+01  0.1021E+02  0.1021E+02
      0.752  0.1739E+01  0.1739E+01  0.1037E+02  0.1037E+02
      0.862  0.2531E+01  0.2531E+01  0.1061E+02  0.1061E+02
      0.972  0.1336E+01  0.1336E+01  0.1084E+02  0.1084E+02
      1.083  0.2306E+01  0.2306E+01  0.1101E+02  0.1101E+02
      1.193  0.3299E+01  0.3299E+01  0.1133E+02  0.1133E+02
      1.304  0.4473E+01  0.4473E+01  0.1182E+02  0.1182E+02
      1.414  0.2639E+01  0.2639E+01  0.1219E+02  0.1219E+02
      1.525  0.3204E+01  0.3204E+01  0.1253E+02  0.1253E+02
      1.635  0.2237E+01  0.2237E+01  0.1284E+02  0.1284E+02
      1.746  0.2159E+01  0.2159E+01  0.1308E+02  0.1308E+02
      1.856  0.1627E+01  0.1627E+01  0.1329E+02  0.1329E+02
      1.967  0.1333E+01  0.1333E+01  0.1345E+02  0.1345E+02
      2.077  0.1396E+01  0.1396E+01  0.1360E+02  0.1360E+02
      2.187  0.1353E+01  0.1353E+01  0.1376E+02  0.1376E+02
      2.298  0.1626E+01  0.1626E+01  0.1392E+02  0.1392E+02
      2.408  0.1711E+01  0.1711E+01  0.1411E+02  0.1411E+02
      2.519  0.2465E+01  0.2465E+01  0.1433E+02  0.1433E+02
      2.629  0.2874E+01  0.2874E+01  0.1465E+02  0.1465E+02
      2.740  0.2777E+01  0.2777E+01  0.1497E+02  0.1497E+02
      2.850  0.2736E+01  0.2736E+01  0.1528E+02  0.1528E+02
      2.961  0.2283E+01  0.2283E+01  0.1555E+02  0.1555E+02
      3.071  0.1495E+01  0.1495E+01  0.1576E+02  0.1576E+02
      3.182  0.8822E+00  0.8822E+00  0.1589E+02  0.1589E+02
      3.292  0.4202E+00  0.4202E+00  0.1595E+02  0.1595E+02
      3.402  0.2407E+00  0.2407E+00  0.1599E+02  0.1599E+02
      3.513  0.0000E+00  0.0000E+00  0.1600E+02  0.1600E+02
      3.623  0.0000E+00  0.0000E+00  0.1600E+02  0.1600E+02
      3.734  0.0000E+00  0.0000E+00  0.1600E+02  0.1600E+02
      3.844  0.0000E+00  0.0000E+00  0.1600E+02  0.1600E+02
      3.955  0.0000E+00  0.0000E+00  0.1600E+02  0.1600E+02
      4.065  0.0000E+00  0.0000E+00  0.1600E+02  0.1600E+02
      4.176  0.0000E+00  0.0000E+00  0.1600E+02  0.1600E+02
      4.286  0.0000E+00  0.0000E+00  0.1600E+02  0.1600E+02
      4.396  0.0000E+00  0.0000E+00  0.1600E+02  0.1600E+02
      4.507  0.0000E+00  0.0000E+00  0.1600E+02  0.1600E+02
      4.617  0.0000E+00  0.0000E+00  0.1600E+02  0.1600E+02
      4.728  0.0000E+00  0.0000E+00  0.1600E+02  0.1600E+02
      4.838  0.0000E+00  0.0000E+00  0.1600E+02  0.1600E+02
      4.949  0.0000E+00  0.0000E+00  0.1600E+02  0.1600E+02
      5.059  0.0000E+00  0.0000E+00  0.1600E+02  0.1600E+02
      5.170  0.0000E+00  0.0000E+00  0.1600E+02  0.1600E+02
      5.280  0.0000E+00  0.0000E+00  0.1600E+02  0.1600E+02
      5.391  0.0000E+00  0.0000E+00  0.1600E+02  0.1600E+02
      5.501  0.0000E+00  0.0000E+00  0.1600E+02  0.1600E+02
      5.611  0.0000E+00  0.0000E+00  0.1600E+02  0.1600E+02
      5.722  0.0000E+00  0.0000E+00  0.1600E+02  0.1600E+02
      5.832  0.0000E+00  0.0000E+00  0.1600E+02  0.1600E+02
      5.943  0.0000E+00  0.0000E+00  0.1600E+02  0.1600E+02
      6.053  0.0000E+00  0.0000E+00  0.1600E+02  0.1600E+02
      6.164  0.0000E+00  0.0000E+00  0.1600E+02  0.1600E+02
      6.274  0.0000E+00  0.0000E+00  0.1600E+02  0.1600E+02
      6.385  0.0000E+00  0.0000E+00  0.1600E+02  0.1600E+02
      6.495  0.0000E+00  0.0000E+00  0.1600E+02  0.1600E+02
      6.606  0.0000E+00  0.0000E+00  0.1600E+02  0.1600E+02
      6.716  0.0000E+00  0.0000E+00  0.1600E+02  0.1600E+02
      6.826  0.0000E+00  0.0000E+00  0.1600E+02  0.1600E+02
      6.937  0.0000E+00  0.0000E+00  0.1600E+02  0.1600E+02
      7.047  0.0000E+00  0.0000E+00  0.1600E+02  0.1600E+02
      7.158  0.4587E-02  0.4587E-02  0.1600E+02  0.1600E+02
      7.268  0.3853E+00  0.3853E+00  0.1602E+02  0.1602E+02
      7.379  0.7643E+00  0.7643E+00  0.1609E+02  0.1609E+02
      7.489  0.1370E+01  0.1370E+01  0.1619E+02  0.1619E+02
      7.600  0.2039E+01  0.2039E+01  0.1640E+02  0.1640E+02
      7.710  0.2226E+01  0.2226E+01  0.1664E+02  0.1664E+02
      7.820  0.4887E+01  0.4887E+01  0.1710E+02  0.1710E+02
      7.931  0.3084E+01  0.3084E+01  0.1755E+02  0.1755E+02
      8.041  0.1620E+01  0.1620E+01  0.1782E+02  0.1782E+02
      8.152  0.1457E+01  0.1457E+01  0.1798E+02  0.1798E+02
      8.262  0.3873E-01  0.3873E-01  0.1802E+02  0.1802E+02
      8.373  0.4159E-01  0.4159E-01  0.1803E+02  0.1803E+02
      8.483  0.4488E-01  0.4488E-01  0.1803E+02  0.1803E+02
      8.594  0.4841E-01  0.4841E-01  0.1804E+02  0.1804E+02
      8.704  0.5240E-01  0.5240E-01  0.1804E+02  0.1804E+02
      8.815  0.5659E-01  0.5659E-01  0.1805E+02  0.1805E+02
      8.925  0.6128E-01  0.6128E-01  0.1805E+02  0.1805E+02
      9.035  0.6634E-01  0.6634E-01  0.1806E+02  0.1806E+02
      9.146  0.7147E-01  0.7147E-01  0.1807E+02  0.1807E+02
      9.256  0.7668E-01  0.7668E-01  0.1808E+02  0.1808E+02
      9.367  0.8230E-01  0.8230E-01  0.1809E+02  0.1809E+02
      9.477  0.8865E-01  0.8865E-01  0.1810E+02  0.1810E+02
      9.588  0.9560E-01  0.9560E-01  0.1811E+02  0.1811E+02
      9.698  0.1037E+00  0.1037E+00  0.1812E+02  0.1812E+02
      9.809  0.1108E+00  0.1108E+00  0.1813E+02  0.1813E+02
      9.919  0.1166E+00  0.1166E+00  0.1814E+02  0.1814E+02
     10.030  0.1277E+00  0.1277E+00  0.1815E+02  0.1815E+02
     10.140  0.1367E+00  0.1367E+00  0.1817E+02  0.1817E+02
     10.250  0.1481E+00  0.1481E+00  0.1818E+02  0.1818E+02
     10.361  0.1609E+00  0.1609E+00  0.1820E+02  0.1820E+02
     10.471  0.1740E+00  0.1740E+00  0.1822E+02  0.1822E+02
     10.582  0.1877E+00  0.1877E+00  0.1824E+02  0.1824E+02
     10.692  0.2066E+00  0.2066E+00  0.1826E+02  0.1826E+02
     10.803  0.2308E+00  0.2308E+00  0.1829E+02  0.1829E+02
     10.913  0.2591E+00  0.2591E+00  0.1831E+02  0.1831E+02
     11.024  0.3375E+00  0.3375E+00  0.1835E+02  0.1835E+02
     11.134  0.3693E+00  0.3693E+00  0.1839E+02  0.1839E+02
     11.244  0.3750E+00  0.3750E+00  0.1843E+02  0.1843E+02
     11.355  0.3881E+00  0.3881E+00  0.1847E+02  0.1847E+02
     11.465  0.3986E+00  0.3986E+00  0.1851E+02  0.1851E+02
     11.576  0.4286E+00  0.4286E+00  0.1856E+02  0.1856E+02
     11.686  0.4963E+00  0.4963E+00  0.1861E+02  0.1861E+02
     11.797  0.5582E+00  0.5582E+00  0.1867E+02  0.1867E+02
     11.907  0.6251E+00  0.6251E+00  0.1873E+02  0.1873E+02
     12.018  0.6946E+00  0.6946E+00  0.1881E+02  0.1881E+02
     12.128  0.6914E+00  0.6914E+00  0.1888E+02  0.1888E+02
     12.239  0.6788E+00  0.6788E+00  0.1896E+02  0.1896E+02
     12.349  0.6676E+00  0.6676E+00  0.1903E+02  0.1903E+02
     12.459  0.6540E+00  0.6540E+00  0.1911E+02  0.1911E+02
     12.570  0.6421E+00  0.6421E+00  0.1918E+02  0.1918E+02
     12.680  0.6308E+00  0.6308E+00  0.1925E+02  0.1925E+02
     12.791  0.5938E+00  0.5938E+00  0.1932E+02  0.1932E+02
     12.901  0.5734E+00  0.5734E+00  0.1938E+02  0.1938E+02
     13.012  0.5597E+00  0.5597E+00  0.1944E+02  0.1944E+02
     13.122  0.5483E+00  0.5483E+00  0.1950E+02  0.1950E+02
     13.233  0.5371E+00  0.5371E+00  0.1956E+02  0.1956E+02
     13.343  0.5020E+00  0.5020E+00  0.1962E+02  0.1962E+02
     13.454  0.4805E+00  0.4805E+00  0.1968E+02  0.1968E+02
     13.564  0.4602E+00  0.4602E+00  0.1973E+02  0.1973E+02
     13.674  0.4413E+00  0.4413E+00  0.1978E+02  0.1978E+02
     13.785  0.4308E+00  0.4308E+00  0.1983E+02  0.1983E+02
     13.895  0.4216E+00  0.4223E+00  0.1987E+02  0.1987E+02
     14.006  0.4226E+00  0.4238E+00  0.1992E+02  0.1992E+02
     14.116  0.3253E+00  0.3279E+00  0.1996E+02  0.1996E+02
     14.227  0.1672E+00  0.1702E+00  0.1999E+02  0.1999E+02
     14.337  0.3973E-01  0.3268E-01  0.2000E+02  0.2000E+02
     14.448  0.0000E+00  0.0000E+00  0.2000E+02  0.2000E+02
     14.558  0.0000E+00  0.0000E+00  0.2000E+02  0.2000E+02
     14.668  0.0000E+00  0.0000E+00  0.2000E+02  0.2000E+02
     14.779  0.0000E+00  0.0000E+00  0.2000E+02  0.2000E+02
     14.889  0.0000E+00  0.0000E+00  0.2000E+02  0.2000E+02
     15.000  0.0000E+00  0.0000E+00  0.2000E+02  0.2000E+02
     15.110  0.0000E+00  0.0000E+00  0.2000E+02  0.2000E+02
     15.221  0.0000E+00  0.0000E+00  0.2000E+02  0.2000E+02
     15.331  0.0000E+00  0.0000E+00  0.2000E+02  0.2000E+02
     15.442  0.0000E+00  0.0000E+00  0.2000E+02  0.2000E+02
     15.552  0.0000E+00  0.0000E+00  0.2000E+02  0.2000E+02
     15.663  0.0000E+00  0.0000E+00  0.2000E+02  0.2000E+02
     15.773  0.0000E+00  0.0000E+00  0.2000E+02  0.2000E+02
     15.883  0.0000E+00  0.0000E+00  0.2000E+02  0.2000E+02
     15.994  0.0000E+00  0.0000E+00  0.2000E+02  0.2000E+02
     16.104  0.0000E+00  0.0000E+00  0.2000E+02  0.2000E+02
     16.215  0.0000E+00  0.0000E+00  0.2000E+02  0.2000E+02
     16.325  0.0000E+00  0.0000E+00  0.2000E+02  0.2000E+02
     16.436  0.0000E+00  0.0000E+00  0.2000E+02  0.2000E+02
     16.43572488    -16.69982543  301      3.54047322      1.00000000
    -16.700  0.0000E+00  0.0000E+00  0.0000E+00  0.0000E+00  0.0000E+00  0.0000E+00  0.0000E+00  0.0000E+00  0.0000E+00  0.0000E+00  0.0000E+00  0.0000E+00  0.0000E+00  0.0000E+00  0.0000E+00  0.0000E+00  0.0000E+00  0.0000E+00
    -16.589  0.0000E+00  0.0000E+00  0.0000E+00  0.0000E+00  0.0000E+00  0.0000E+00  0.0000E+00  0.0000E+00  0.0000E+00  0.0000E+00  0.0000E+00  0.0000E+00  0.0000E+00  0.0000E+00  0.0000E+00  0.0000E+00  0.0000E+00  0.0000E+00
    -16.479  0.0000E+00  0.0000E+00  0.0000E+00  0.0000E+00  0.0000E+00  0.0000E+00  0.0000E+00  0.0000E+00  0.0000E+00  0.0000E+00  0.0000E+00  0.0000E+00  0.0000E+00  0.0000E+00  0.0000E+00  0.0000E+00  0.0000E+00  0.0000E+00
    -16.368  0.0000E+00  0.0000E+00  0.0000E+00  0.0000E+00  0.0000E+00  0.0000E+00  0.0000E+00  0.0000E+00  0.0000E+00  0.0000E+00  0.0000E+00  0.0000E+00  0.0000E+00  0.0000E+00  0.0000E+00  0.0000E+00  0.0000E+00  0.0000E+00
    -16.258  0.0000E+00  0.0000E+00  0.0000E+00  0.0000E+00  0.0000E+00  0.0000E+00  0.0000E+00  0.0000E+00  0.0000E+00  0.0000E+00  0.0000E+00  0.0000E+00  0.0000E+00  0.0000E+00  0.0000E+00  0.0000E+00  0.0000E+00  0.0000E+00
    -16.148  0.0000E+00  0.0000E+00  0.0000E+00  0.0000E+00  0.0000E+00  0.0000E+00  0.0000E+00  0.0000E+00  0.0000E+00  0.0000E+00  0.0000E+00  0.0000E+00  0.0000E+00  0.0000E+00  0.0000E+00  0.0000E+00  0.0000E+00  0.0000E+00
    -16.037  0.0000E+00  0.0000E+00  0.0000E+00  0.0000E+00  0.0000E+00  0.0000E+00  0.0000E+00  0.0000E+00  0.0000E+00  0.0000E+00  0.0000E+00  0.0000E+00  0.0000E+00  0.0000E+00  0.0000E+00  0.0000E+00  0.0000E+00  0.0000E+00
    -15.927  0.0000E+00  0.0000E+00  0.0000E+00  0.0000E+00  0.0000E+00  0.0000E+00  0.0000E+00  0.0000E+00  0.0000E+00  0.0000E+00  0.0000E+00  0.0000E+00  0.0000E+00  0.0000E+00  0.0000E+00  0.0000E+00  0.0000E+00  0.0000E+00
    -15.816  0.0000E+00  0.0000E+00  0.0000E+00  0.0000E+00  0.0000E+00  0.0000E+00  0.0000E+00  0.0000E+00  0.0000E+00  0.0000E+00  0.0000E+00  0.0000E+00  0.0000E+00  0.0000E+00  0.0000E+00  0.0000E+00  0.0000E+00  0.0000E+00
    -15.706  0.0000E+00  0.0000E+00  0.0000E+00  0.0000E+00  0.0000E+00  0.0000E+00  0.0000E+00  0.0000E+00  0.0000E+00  0.0000E+00  0.0000E+00  0.0000E+00  0.0000E+00  0.0000E+00  0.0000E+00  0.0000E+00  0.0000E+00  0.0000E+00
    -15.595  0.0000E+00  0.0000E+00  0.0000E+00  0.0000E+00  0.0000E+00  0.0000E+00  0.0000E+00  0.0000E+00  0.0000E+00  0.0000E+00  0.0000E+00  0.0000E+00  0.0000E+00  0.0000E+00  0.0000E+00  0.0000E+00  0.0000E+00  0.0000E+00
    -15.485  0.0000E+00  0.0000E+00  0.0000E+00  0.0000E+00  0.0000E+00  0.0000E+00  0.0000E+00  0.0000E+00  0.0000E+00  0.0000E+00  0.0000E+00  0.0000E+00  0.0000E+00  0.0000E+00  0.0000E+00  0.0000E+00  0.0000E+00  0.0000E+00
    -15.374  0.0000E+00  0.0000E+00  0.0000E+00  0.0000E+00  0.0000E+00  0.0000E+00  0.0000E+00  0.0000E+00  0.0000E+00  0.0000E+00  0.0000E+00  0.0000E+00  0.0000E+00  0.0000E+00  0.0000E+00  0.0000E+00  0.0000E+00  0.0000E+00
    -15.264  0.0000E+00  0.0000E+00  0.0000E+00  0.0000E+00  0.0000E+00  0.0000E+00  0.0000E+00  0.0000E+00  0.0000E+00  0.0000E+00  0.0000E+00  0.0000E+00  0.0000E+00  0.0000E+00  0.0000E+00  0.0000E+00  0.0000E+00  0.0000E+00
    -15.153  0.0000E+00  0.0000E+00  0.0000E+00  0.0000E+00  0.0000E+00  0.0000E+00  0.0000E+00  0.0000E+00  0.0000E+00  0.0000E+00  0.0000E+00  0.0000E+00  0.0000E+00  0.0000E+00  0.0000E+00  0.0000E+00  0.0000E+00  0.0000E+00
    -15.043  0.0000E+00  0.0000E+00  0.0000E+00  0.0000E+00  0.0000E+00  0.0000E+00  0.0000E+00  0.0000E+00  0.0000E+00  0.0000E+00  0.0000E+00  0.0000E+00  0.0000E+00  0.0000E+00  0.0000E+00  0.0000E+00  0.0000E+00  0.0000E+00
    -14.933  0.0000E+00  0.0000E+00  0.0000E+00  0.0000E+00  0.0000E+00  0.0000E+00  0.0000E+00  0.0000E+00  0.0000E+00  0.0000E+00  0.0000E+00  0.0000E+00  0.0000E+00  0.0000E+00  0.0000E+00  0.0000E+00  0.0000E+00  0.0000E+00
    -14.822  0.0000E+00  0.0000E+00  0.0000E+00  0.0000E+00  0.0000E+00  0.0000E+00  0.0000E+00  0.0000E+00  0.0000E+00  0.0000E+00  0.0000E+00  0.0000E+00  0.0000E+00  0.0000E+00  0.0000E+00  0.0000E+00  0.0000E+00  0.0000E+00
    -14.712  0.0000E+00  0.0000E+00  0.0000E+00  0.0000E+00  0.0000E+00  0.0000E+00  0.0000E+00  0.0000E+00  0.0000E+00  0.0000E+00  0.0000E+00  0.0000E+00  0.0000E+00  0.0000E+00  0.0000E+00  0.0000E+00  0.0000E+00  0.0000E+00
    -14.601  0.7411E-02  0.7210E-02  0.7658E-04  0.7597E-04  0.2999E-04  0.2951E-04  0.1775E-03  0.1747E-03  0.1269E-06  0.1045E-06  0.2963E-07  0.3539E-07  0.3194E-05  0.1380E-05  0.3960E-07  0.5843E-07  0.5136E-05  0.2195E-05
    -14.491  0.1068E-01  0.1040E-01  0.2428E-03  0.2395E-03  0.9970E-04  0.1000E-03  0.5497E-03  0.5365E-03  0.6889E-06  0.5975E-06  0.1906E-06  0.1994E-06  0.1996E-04  0.8287E-05  0.2544E-06  0.2932E-06  0.3471E-04  0.1428E-04
    -14.380  0.1306E-01  0.1274E-01  0.4583E-03  0.4485E-03  0.1969E-03  0.2015E-03  0.1098E-02  0.1063E-02  0.1815E-05  0.1628E-05  0.4511E-06  0.4513E-06  0.6290E-04  0.2479E-04  0.7684E-06  0.8100E-06  0.1109E-03  0.4386E-04
    -14.270  0.1483E-01  0.1454E-01  0.7933E-03  0.7675E-03  0.3384E-03  0.3549E-03  0.1763E-02  0.1695E-02  0.3707E-05  0.3390E-05  0.1048E-05  0.1020E-05  0.1510E-03  0.5588E-04  0.1589E-05  0.1607E-05  0.2681E-03  0.1012E-03
    -14.159  0.1623E-01  0.1608E-01  0.1223E-02  0.1168E-02  0.5140E-03  0.5578E-03  0.2610E-02  0.2494E-02  0.6663E-05  0.6169E-05  0.1924E-05  0.1829E-05  0.3210E-03  0.1102E-03  0.2769E-05  0.2737E-05  0.5536E-03  0.1983E-03
    -14.049  0.1751E-01  0.1763E-01  0.1736E-02  0.1628E-02  0.7317E-03  0.8417E-03  0.3684E-02  0.3518E-02  0.1057E-04  0.9818E-05  0.2887E-05  0.2634E-05  0.6237E-03  0.1896E-03  0.4632E-05  0.4450E-05  0.1052E-02  0.3544E-03
    -13.939  0.1743E-01  0.1946E-01  0.2579E-02  0.2175E-02  0.1361E-02  0.1476E-02  0.4696E-02  0.4372E-02  0.1395E-04  0.1332E-04  0.5624E-05  0.5552E-05  0.1261E-02  0.3003E-03  0.6546E-05  0.6575E-05  0.1928E-02  0.5906E-03
    -13.828  0.1805E-01  0.2017E-01  0.3497E-02  0.3029E-02  0.2267E-02  0.2737E-02  0.5454E-02  0.5332E-02  0.1753E-04  0.1606E-04  0.1064E-04  0.9729E-05  0.2449E-02  0.5494E-03  0.9123E-05  0.8779E-05  0.3251E-02  0.9133E-03
    -13.718  0.1866E-01  0.2042E-01  0.4616E-02  0.4147E-02  0.3539E-02  0.4599E-02  0.6106E-02  0.6389E-02  0.2026E-04  0.1820E-04  0.1697E-04  0.1520E-04  0.4573E-02  0.1033E-02  0.1208E-04  0.1201E-04  0.5242E-02  0.1372E-02
    -13.607  0.1919E-01  0.2008E-01  0.6336E-02  0.6010E-02  0.5361E-02  0.7243E-02  0.6839E-02  0.7931E-02  0.2365E-04  0.2130E-04  0.2507E-04  0.2274E-04  0.8480E-02  0.2072E-02  0.1481E-04  0.1579E-04  0.8809E-02  0.2110E-02
    -13.497  0.2002E-01  0.1889E-01  0.8890E-02  0.9142E-02  0.7921E-02  0.1126E-01  0.7669E-02  0.1039E-01  0.2723E-04  0.2477E-04  0.3393E-04  0.3133E-04  0.1692E-01  0.4396E-02  0.1747E-04  0.1970E-04  0.1508E-01  0.3192E-02
    -13.386  0.2440E-01  0.1598E-01  0.1389E-01  0.1858E-01  0.1227E-01  0.2145E-01  0.9067E-02  0.1900E-01  0.3585E-04  0.2886E-04  0.4553E-04  0.4205E-04  0.4254E-01  0.1044E-01  0.2358E-04  0.2201E-04  0.4242E-01  0.5830E-02
    -13.276  0.1877E-01  0.1004E-01  0.2228E-01  0.2147E-01  0.2001E-01  0.2069E-01  0.1256E-01  0.1706E-01  0.2561E-04  0.2477E-04  0.5396E-04  0.4969E-04  0.7530E-01  0.2900E-01  0.1493E-04  0.1527E-04  0.2407E-01  0.8545E-02
    -13.165  0.8169E-02  0.1139E-01  0.2953E-01  0.3263E-01  0.5852E-01  0.2757E-01  0.4340E-01  0.1547E-01  0.4338E-04  0.3013E-04  0.5018E-04  0.4236E-04  0.7723E-01  0.5289E-01  0.3113E-04  0.2881E-04  0.1314E+00  0.7242E-01
    -13.055  0.0000E+00  0.0000E+00  0.0000E+00  0.0000E+00  0.0000E+00  0.0000E+00  0.0000E+00  0.0000E+00  0.0000E+00  0.0000E+00  0.0000E+00  0.0000E+00  0.0000E+00  0.0000E+00  0.0000E+00  0.0000E+00  0.0000E+00  0.0000E+00
    -12.944  0.0000E+00  0.0000E+00  0.0000E+00  0.0000E+00  0.0000E+00  0.0000E+00  0.0000E+00  0.0000E+00  0.0000E+00  0.0000E+00  0.0000E+00  0.0000E+00  0.0000E+00  0.0000E+00  0.0000E+00  0.0000E+00  0.0000E+00  0.0000E+00
    -12.834  0.0000E+00  0.0000E+00  0.0000E+00  0.0000E+00  0.0000E+00  0.0000E+00  0.0000E+00  0.0000E+00  0.0000E+00  0.0000E+00  0.0000E+00  0.0000E+00  0.0000E+00  0.0000E+00  0.0000E+00  0.0000E+00  0.0000E+00  0.0000E+00
    -12.724  0.0000E+00  0.0000E+00  0.0000E+00  0.0000E+00  0.0000E+00  0.0000E+00  0.0000E+00  0.0000E+00  0.0000E+00  0.0000E+00  0.0000E+00  0.0000E+00  0.0000E+00  0.0000E+00  0.0000E+00  0.0000E+00  0.0000E+00  0.0000E+00
    -12.613  0.0000E+00  0.0000E+00  0.0000E+00  0.0000E+00  0.0000E+00  0.0000E+00  0.0000E+00  0.0000E+00  0.0000E+00  0.0000E+00  0.0000E+00  0.0000E+00  0.0000E+00  0.0000E+00  0.0000E+00  0.0000E+00  0.0000E+00  0.0000E+00
    -12.503  0.0000E+00  0.0000E+00  0.0000E+00  0.0000E+00  0.0000E+00  0.0000E+00  0.0000E+00  0.0000E+00  0.0000E+00  0.0000E+00  0.0000E+00  0.0000E+00  0.0000E+00  0.0000E+00  0.0000E+00  0.0000E+00  0.0000E+00  0.0000E+00
    -12.392  0.0000E+00  0.0000E+00  0.0000E+00  0.0000E+00  0.0000E+00  0.0000E+00  0.0000E+00  0.0000E+00  0.0000E+00  0.0000E+00  0.0000E+00  0.0000E+00  0.0000E+00  0.0000E+00  0.0000E+00  0.0000E+00  0.0000E+00  0.0000E+00
    -12.282  0.0000E+00  0.0000E+00  0.0000E+00  0.0000E+00  0.0000E+00  0.0000E+00  0.0000E+00  0.0000E+00  0.0000E+00  0.0000E+00  0.0000E+00  0.0000E+00  0.0000E+00  0.0000E+00  0.0000E+00  0.0000E+00  0.0000E+00  0.0000E+00
    -12.171  0.0000E+00  0.0000E+00  0.0000E+00  0.0000E+00  0.0000E+00  0.0000E+00  0.0000E+00  0.0000E+00  0.0000E+00  0.0000E+00  0.0000E+00  0.0000E+00  0.0000E+00  0.0000E+00  0.0000E+00  0.0000E+00  0.0000E+00  0.0000E+00
    -12.061  0.0000E+00  0.0000E+00  0.0000E+00  0.0000E+00  0.0000E+00  0.0000E+00  0.0000E+00  0.0000E+00  0.0000E+00  0.0000E+00  0.0000E+00  0.0000E+00  0.0000E+00  0.0000E+00  0.0000E+00  0.0000E+00  0.0000E+00  0.0000E+00
    -11.950  0.0000E+00  0.0000E+00  0.0000E+00  0.0000E+00  0.0000E+00  0.0000E+00  0.0000E+00  0.0000E+00  0.0000E+00  0.0000E+00  0.0000E+00  0.0000E+00  0.0000E+00  0.0000E+00  0.0000E+00  0.0000E+00  0.0000E+00  0.0000E+00
    -11.840  0.0000E+00  0.0000E+00  0.0000E+00  0.0000E+00  0.0000E+00  0.0000E+00  0.0000E+00  0.0000E+00  0.0000E+00  0.0000E+00  0.0000E+00  0.0000E+00  0.0000E+00  0.0000E+00  0.0000E+00  0.0000E+00  0.0000E+00  0.0000E+00
    -11.729  0.0000E+00  0.0000E+00  0.0000E+00  0.0000E+00  0.0000E+00  0.0000E+00  0.0000E+00  0.0000E+00  0.0000E+00  0.0000E+00  0.0000E+00  0.0000E+00  0.0000E+00  0.0000E+00  0.0000E+00  0.0000E+00  0.0000E+00  0.0000E+00
    -11.619  0.0000E+00  0.0000E+00  0.0000E+00  0.0000E+00  0.0000E+00  0.0000E+00  0.0000E+00  0.0000E+00  0.0000E+00  0.0000E+00  0.0000E+00  0.0000E+00  0.0000E+00  0.0000E+00  0.0000E+00  0.0000E+00  0.0000E+00  0.0000E+00
    -11.509  0.0000E+00  0.0000E+00  0.0000E+00  0.0000E+00  0.0000E+00  0.0000E+00  0.0000E+00  0.0000E+00  0.0000E+00  0.0000E+00  0.0000E+00  0.0000E+00  0.0000E+00  0.0000E+00  0.0000E+00  0.0000E+00  0.0000E+00  0.0000E+00
    -11.398  0.0000E+00  0.0000E+00  0.0000E+00  0.0000E+00  0.0000E+00  0.0000E+00  0.0000E+00  0.0000E+00  0.0000E+00  0.0000E+00  0.0000E+00  0.0000E+00  0.0000E+00  0.0000E+00  0.0000E+00  0.0000E+00  0.0000E+00  0.0000E+00
    -11.288  0.0000E+00  0.0000E+00  0.0000E+00  0.0000E+00  0.0000E+00  0.0000E+00  0.0000E+00  0.0000E+00  0.0000E+00  0.0000E+00  0.0000E+00  0.0000E+00  0.0000E+00  0.0000E+00  0.0000E+00  0.0000E+00  0.0000E+00  0.0000E+00
    -11.177  0.0000E+00  0.0000E+00  0.0000E+00  0.0000E+00  0.0000E+00  0.0000E+00  0.0000E+00  0.0000E+00  0.0000E+00  0.0000E+00  0.0000E+00  0.0000E+00  0.0000E+00  0.0000E+00  0.0000E+00  0.0000E+00  0.0000E+00  0.0000E+00