    4    4    1    2
  0.9063964E+01  0.5107186E-09  0.5107186E-09  0.5107186E-09  0.5000000E-15
  1.000000000000000E-004
  CAR 
 NiO_af2                                 
     32    770     20
 
  0.2500000E-01  0.2500000E-01  0.2500000E-01  0.2500000E-03
    1      -14.699825    -14.699825   1.000000   1.000000
    2      -13.242129    -13.242129   1.000000   1.000000
    3       -3.550812     -3.550812   1.000000   1.000000
    4       -2.868770     -2.868770   1.000000   1.000000
    5       -2.868770     -2.868770   1.000000   1.000000
    6       -1.066265     -1.066265   1.000000   1.000000
    7       -1.066265     -1.066265   1.000000   1.000000
    8       -0.783317     -0.783317   1.000000   1.000000
    9        0.089760      0.089760   1.000000   1.000000
   10        0.089760      0.089760   1.000000   1.000000
   11        1.361106      1.361106   1.000000   1.000000
   12        2.689057      2.689057   1.000000   1.000000
   13        2.689057      2.689057   1.000000   1.000000
   14        2.733575      2.733575   1.000000   1.000000
   15        2.796093      2.796093   1.000000   1.000000
   16        2.796093      2.796093   1.000000   1.000000
   17        7.064733      7.064733   0.000000   0.000000
   18        7.866587      7.866587   0.000000   0.000000
   19        7.866587      7.866587   0.000000   0.000000
   20       10.983720     10.983720   0.000000   0.000000
 
  0.7500000E-01  0.2500000E-01  0.2500000E-01  0.7500000E-03
    1      -14.669845    -14.669845   1.000000   1.000000
    2      -13.244311    -13.244311   1.000000   1.000000
    3       -3.500425     -3.500425   1.000000   1.000000
    4       -2.865298     -2.865298   1.000000   1.000000
    5       -2.860958     -2.860958   1.000000   1.000000
    6       -1.084576     -1.084576   1.000000   1.000000
    7       -1.067764     -1.067764   1.000000   1.000000
    8       -0.780688     -0.780688   1.000000   1.000000
    9        0.055797      0.055797   1.000000   1.000000
   10        0.099186      0.099186   1.000000   1.000000
   11        1.352009      1.352009   1.000000   1.000000
   12        2.330462      2.330462   1.000000   1.000000
   13        2.655830      2.655830   1.000000   1.000000
   14        2.731722      2.731722   1.000000   1.000000
   15        2.805167      2.805167   1.000000   1.000000
   16        2.954883      2.954883   1.000000   1.000000
   17        7.257498      7.257498   0.000000   0.000000
   18        7.818127      7.818127   0.000000   0.000000
   19        7.868011      7.868011   0.000000   0.000000
   20       11.148093     11.148093   0.000000   0.000000
 
  0.1250000E+00  0.2500000E-01  0.2500000E-01  0.7500000E-03
    1      -14.586944    -14.586944   1.000000   1.000000
    2      -13.241297    -13.241297   1.000000   1.000000
    3       -3.376795     -3.376795   1.000000   1.000000
    4       -2.845931     -2.845931   1.000000   1.000000
    5       -2.840660     -2.840660   1.000000   1.000000
    6       -1.143871     -1.143871   1.000000   1.000000
    7       -1.069468     -1.069468   1.000000   1.000000
    8       -0.770370     -0.770370   1.000000   1.000000
    9       -0.044983     -0.044983   1.000000   1.000000
   10        0.129595      0.129595   1.000000   1.000000
   11        1.331287      1.331287   1.000000   1.000000
   12        1.887328      1.887328   1.000000   1.000000
   13        2.496223      2.496223   1.000000   1.000000
   14        2.629757      2.629757   1.000000   1.000000
   15        2.897642      2.897642   1.000000   1.000000
   16        2.997910      2.997910   1.000000   1.000000
   17        7.504378      7.504378   0.000000   0.000000
   18        7.862387      7.862387   0.000000   0.000000
   19        7.965157      7.965157   0.000000   0.000000
   20       11.586343     11.586343   0.000000   0.000000
 
  0.1750000E+00  0.2500000E-01  0.2500000E-01  0.7500000E-03
    1      -14.456809    -14.456809   1.000000   1.000000
    2      -13.232264    -13.232264   1.000000   1.000000
    3       -3.227971     -3.227971   1.000000   1.000000
    4       -2.811616     -2.811616   1.000000   1.000000
    5       -2.773418     -2.773418   1.000000   1.000000
    6       -1.253655     -1.253655   1.000000   1.000000
    7       -1.064371     -1.064371   1.000000   1.000000
    8       -0.758288     -0.758288   1.000000   1.000000
    9       -0.212631     -0.212631   1.000000   1.000000
   10        0.176688      0.176688   1.000000   1.000000
   11        1.291040      1.291040   1.000000   1.000000
   12        1.467891      1.467891   1.000000   1.000000
   13        2.326197      2.326197   1.000000   1.000000
   14        2.450049      2.450049   1.000000   1.000000
   15        2.959523      2.959523   1.000000   1.000000
   16        2.964261      2.964261   1.000000   1.000000
   17        7.444095      7.444095   0.000000   0.000000
   18        7.853714      7.853714   0.000000   0.000000
   19        8.620729      8.620729   0.000000   0.000000
   20       12.189867     12.189867   0.000000   0.000000
 
  0.2250000E+00  0.2500000E-01  0.2500000E-01  0.7500000E-03
    1      -14.288386    -14.288386   1.000000   1.000000
    2      -13.218569    -13.218569   1.000000   1.000000
    3       -3.138031     -3.138031   1.000000   1.000000
    4       -2.782439     -2.782439   1.000000   1.000000
    5       -2.579561     -2.579561   1.000000   1.000000
    6       -1.428695     -1.428695   1.000000   1.000000
    7       -1.043063     -1.043063   1.000000   1.000000
    8       -0.756409     -0.756409   1.000000   1.000000
    9       -0.435188     -0.435188   1.000000   1.000000
   10        0.231206      0.231206   1.000000   1.000000
   11        1.088048      1.088048   1.000000   1.000000
   12        1.296852      1.296852   1.000000   1.000000
   13        2.155237      2.155237   1.000000   1.000000
   14        2.227509      2.227509   1.000000   1.000000
   15        2.867340      2.867340   1.000000   1.000000
   16        3.002398      3.002398   1.000000   1.000000
   17        7.400666      7.400666   0.000000   0.000000
   18        7.842623      7.842623   0.000000   0.000000
   19        9.401514      9.401514   0.000000   0.000000
   20       12.860859     12.860859   0.000000   0.000000
 
  0.2750000E+00  0.2500000E-01  0.2500000E-01  0.7500000E-03
    1      -14.096554    -14.096554   1.000000   1.000000
    2      -13.199800    -13.199800   1.000000   1.000000
    3       -3.109226     -3.109226   1.000000   1.000000
    4       -2.759142     -2.759142   1.000000   1.000000
    5       -2.281195     -2.281195   1.000000   1.000000
    6       -1.671081     -1.671081   1.000000   1.000000
    7       -0.997534     -0.997534   1.000000   1.000000
    8       -0.811796     -0.811796   1.000000   1.000000
    9       -0.653141     -0.653141   1.000000   1.000000
   10        0.280797      0.280797   1.000000   1.000000
   11        0.867242      0.867242   1.000000   1.000000
   12        1.269389      1.269389   1.000000   1.000000
   13        1.984798      1.984798   1.000000   1.000000
   14        1.999814      1.999814   1.000000   1.000000
   15        2.746761      2.746761   1.000000   1.000000
   16        3.012468      3.012468   1.000000   1.000000
   17        7.424767      7.424767   0.000000   0.000000
   18        7.833015      7.833015   0.000000   0.000000
   19       10.185585     10.185584   0.000000   0.000000
   20       13.506939     13.506941   0.000000   0.000000
 
  0.3250000E+00  0.2500000E-01  0.2500000E-01  0.7500000E-03
    1      -13.896416    -13.896416   1.000000   1.000000
    2      -13.177595    -13.177595   1.000000   1.000000
    3       -3.091013     -3.091013   1.000000   1.000000
    4       -2.745332     -2.745332   1.000000   1.000000
    5       -2.025115     -2.025115   1.000000   1.000000
    6       -1.877527     -1.877527   1.000000   1.000000
    7       -1.050812     -1.050812   1.000000   1.000000
    8       -0.925435     -0.925435   1.000000   1.000000
    9       -0.722660     -0.722660   1.000000   1.000000
   10        0.309047      0.309047   1.000000   1.000000
   11        0.745791      0.745791   1.000000   1.000000
   12        1.275788      1.275788   1.000000   1.000000
   13        1.752243      1.752243   1.000000   1.000000
   14        1.876697      1.876697   1.000000   1.000000
   15        2.620657      2.620657   1.000000   1.000000
   16        2.995251      2.995251   1.000000   1.000000
   17        7.502910      7.502910   0.000000   0.000000
   18        7.825336      7.825336   0.000000   0.000000
   19       10.922092     10.922092   0.000000   0.000000
   20       13.994165     13.994142   0.000000   0.000000
 
  0.3750000E+00  0.2500000E-01  0.2500000E-01  0.7500000E-03
    1      -13.706981    -13.706981   1.000000   1.000000
    2      -13.156642    -13.156642   1.000000   1.000000
    3       -3.053558     -3.053558   1.000000   1.000000
    4       -2.740986     -2.740986   1.000000   1.000000
    5       -2.255367     -2.255367   1.000000   1.000000
    6       -1.661796     -1.661796   1.000000   1.000000
    7       -1.299791     -1.299791   1.000000   1.000000
    8       -0.832169     -0.832169   1.000000   1.000000
    9       -0.747225     -0.747225   1.000000   1.000000
   10        0.302558      0.302558   1.000000   1.000000
   11        0.688123      0.688123   1.000000   1.000000
   12        1.321262      1.321262   1.000000   1.000000
   13        1.552899      1.552899   1.000000   1.000000
   14        1.798472      1.798472   1.000000   1.000000
   15        2.496648      2.496648   1.000000   1.000000
   16        2.959170      2.959170   1.000000   1.000000
   17        7.608888      7.608888   0.000000   0.000000
   18        7.819493      7.819493   0.000000   0.000000
   19       11.570746     11.570746   0.000000   0.000000
   20       14.013522     14.013559   0.000000   0.000000
 
  0.4250000E+00  0.2500000E-01  0.2500000E-01  0.7500000E-03
    1      -13.546808    -13.546808   1.000000   1.000000
    2      -13.143295    -13.143295   1.000000   1.000000
    3       -2.984393     -2.984393   1.000000   1.000000
    4       -2.742259     -2.742259   1.000000   1.000000
    5       -2.474005     -2.474005   1.000000   1.000000
    6       -1.788303     -1.788303   1.000000   1.000000
    7       -1.215776     -1.215776   1.000000   1.000000
    8       -0.768860     -0.768860   1.000000   1.000000
    9       -0.731164     -0.731164   1.000000   1.000000
   10        0.264240      0.264240   1.000000   1.000000
   11        0.663228      0.663228   1.000000   1.000000
   12        1.330785      1.330785   1.000000   1.000000
   13        1.469517      1.469517   1.000000   1.000000
   14        1.762444      1.762444   1.000000   1.000000
   15        2.378806      2.378806   1.000000   1.000000
   16        2.919020      2.919020   1.000000   1.000000
   17        7.715147      7.715147   0.000000   0.000000
   18        7.814582      7.814582   0.000000   0.000000
   19       12.114378     12.114378   0.000000   0.000000
   20       13.679267     13.679267   0.000000   0.000000
 
  0.4750000E+00  0.2500000E-01  0.2500000E-01  0.7500000E-03
    1      -13.436371    -13.436371   1.000000   1.000000
    2      -13.139914    -13.139914   1.000000   1.000000
    3       -2.908746     -2.908746   1.000000   1.000000
    4       -2.745812     -2.745812   1.000000   1.000000
    5       -2.582825     -2.582825   1.000000   1.000000
    6       -2.044477     -2.044477   1.000000   1.000000
    7       -1.052664     -1.052664   1.000000   1.000000
    8       -0.784787     -0.784787   1.000000   1.000000
    9       -0.648605     -0.648605   1.000000   1.000000
   10        0.218312      0.218312   1.000000   1.000000
   11        0.657735      0.657735   1.000000   1.000000
   12        1.235438      1.235438   1.000000   1.000000
   13        1.542943      1.542943   1.000000   1.000000
   14        1.747842      1.747842   1.000000   1.000000
   15        2.283841      2.283841   1.000000   1.000000
   16        2.890962      2.890962   1.000000   1.000000
   17        7.796361      7.796361   0.000000   0.000000
   18        7.810438      7.810438   0.000000   0.000000
   19       12.535655     12.535655   0.000000   0.000000
   20       13.316200     13.316200   0.000000   0.000000
 
 -0.4750000E+00  0.2500000E-01  0.2500000E-01  0.7500000E-03
    1      -13.393151    -13.393151   1.000000   1.000000
    2      -13.142935    -13.142935   1.000000   1.000000
    3       -2.893599     -2.893599   1.000000   1.000000
    4       -2.747484     -2.747484   1.000000   1.000000
    5       -2.541997     -2.541997   1.000000   1.000000
    6       -2.196405     -2.196405   1.000000   1.000000
    7       -1.020700     -1.020700   1.000000   1.000000
    8       -0.765435     -0.765435   1.000000   1.000000
    9       -0.617060     -0.617060   1.000000   1.000000
   10        0.203815      0.203815   1.000000   1.000000
   11        0.658291      0.658291   1.000000   1.000000
   12        1.183811      1.183811   1.000000   1.000000
   13        1.574092      1.574092   1.000000   1.000000
   14        1.732255      1.732255   1.000000   1.000000
   15        2.261214      2.261214   1.000000   1.000000
   16        2.892631      2.892631   1.000000   1.000000
   17        7.806691      7.806691   0.000000   0.000000
   18        7.834329      7.834329   0.000000   0.000000
   19       12.775931     12.775932   0.000000   0.000000
   20       13.044786     13.044786   0.000000   0.000000
 
 -0.4250000E+00  0.2500000E-01  0.2500000E-01  0.7500000E-03
    1      -13.432975    -13.432975   1.000000   1.000000
    2      -13.144258    -13.144258   1.000000   1.000000
    3       -2.911223     -2.911223   1.000000   1.000000
    4       -2.746626     -2.746626   1.000000   1.000000
    5       -2.512285     -2.512285   1.000000   1.000000
    6       -2.084479     -2.084478   1.000000   1.000000
    7       -1.125687     -1.125687   1.000000   1.000000
    8       -0.729379     -0.729379   1.000000   1.000000
    9       -0.653484     -0.653484   1.000000   1.000000
   10        0.237842      0.237842   1.000000   1.000000
   11        0.656310      0.656310   1.000000   1.000000
   12        1.197028      1.197028   1.000000   1.000000
   13        1.525083      1.525083   1.000000   1.000000
   14        1.707305      1.707305   1.000000   1.000000
   15        2.330333      2.330333   1.000000   1.000000
   16        2.924843      2.924843   1.000000   1.000000
   17        7.802519      7.802519   0.000000   0.000000
   18        7.821364      7.821364   0.000000   0.000000
   19       12.469916     12.469916   0.000000   0.000000
   20       13.241995     13.241994   0.000000   0.000000
 
 -0.3750000E+00  0.2500000E-01  0.2500000E-01  0.7500000E-03
    1      -13.546428    -13.546428   1.000000   1.000000
    2      -13.145674    -13.145674   1.000000   1.000000
    3       -2.943544     -2.943544   1.000000   1.000000
    4       -2.744152     -2.744152   1.000000   1.000000
    5       -2.440006     -2.440006   1.000000   1.000000
    6       -1.805608     -1.805608   1.000000   1.000000
    7       -1.318518     -1.318518   1.000000   1.000000
    8       -0.738058     -0.738058   1.000000   1.000000
    9       -0.711906     -0.711906   1.000000   1.000000
   10        0.296239      0.296239   1.000000   1.000000
   11        0.663407      0.663407   1.000000   1.000000
   12        1.233663      1.233663   1.000000   1.000000
   13        1.483733      1.483733   1.000000   1.000000
   14        1.692029      1.692029   1.000000   1.000000
   15        2.446083      2.446083   1.000000   1.000000
   16        2.978240      2.978240   1.000000   1.000000
   17        7.763838      7.763838   0.000000   0.000000
   18        7.799391      7.799391   0.000000   0.000000
   19       11.996246     11.996246   0.000000   0.000000
   20       13.535843     13.535843   0.000000   0.000000
 
 -0.3250000E+00  0.2500000E-01  0.2500000E-01  0.7500000E-03
    1      -13.711725    -13.711725   1.000000   1.000000
    2      -13.154261    -13.154261   1.000000   1.000000
    3       -2.981070     -2.981070   1.000000   1.000000
    4       -2.742967     -2.742967   1.000000   1.000000
    5       -2.257283     -2.257283   1.000000   1.000000
    6       -1.708489     -1.708489   1.000000   1.000000
    7       -1.358311     -1.358311   1.000000   1.000000
    8       -0.838187     -0.838187   1.000000   1.000000
    9       -0.708722     -0.708722   1.000000   1.000000
   10        0.338710      0.338710   1.000000   1.000000
   11        0.693669      0.693669   1.000000   1.000000
   12        1.221744      1.221744   1.000000   1.000000
   13        1.560695      1.560695   1.000000   1.000000
   14        1.712751      1.712751   1.000000   1.000000
   15        2.574203      2.574203   1.000000   1.000000
   16        3.035414      3.035414   1.000000   1.000000
   17        7.679083      7.679083   0.000000   0.000000
   18        7.797658      7.797658   0.000000   0.000000
   19       11.420204     11.420203   0.000000   0.000000
   20       13.832207     13.832206   0.000000   0.000000
 
 -0.2750000E+00  0.2500000E-01  0.2500000E-01  0.7500000E-03
    1      -13.906233    -13.906233   1.000000   1.000000
    2      -13.167933    -13.167933   1.000000   1.000000
    3       -3.007019     -3.007019   1.000000   1.000000
    4       -2.747836     -2.747836   1.000000   1.000000
    5       -2.080090     -2.080090   1.000000   1.000000
    6       -1.932614     -1.932614   1.000000   1.000000
    7       -1.041498     -1.041498   1.000000   1.000000
    8       -0.930167     -0.930167   1.000000   1.000000
    9       -0.709983     -0.709983   1.000000   1.000000
   10        0.341224      0.341224   1.000000   1.000000
   11        0.761926      0.761926   1.000000   1.000000
   12        1.208636      1.208636   1.000000   1.000000
   13        1.722551      1.722551   1.000000   1.000000
   14        1.785895      1.785895   1.000000   1.000000
   15        2.708240      2.708240   1.000000   1.000000
   16        3.080744      3.080744   1.000000   1.000000
   17        7.589884      7.589884   0.000000   0.000000
   18        7.798727      7.798727   0.000000   0.000000
   19       10.752544     10.752544   0.000000   0.000000
   20       13.951946     13.951908   0.000000   0.000000
 
 -0.2250000E+00  0.2500000E-01  0.2500000E-01  0.7500000E-03
    1      -14.109150    -14.109150   1.000000   1.000000
    2      -13.184704    -13.184704   1.000000   1.000000
    3       -3.028028     -3.028028   1.000000   1.000000
    4       -2.761583     -2.761583   1.000000   1.000000
    5       -2.381064     -2.381064   1.000000   1.000000
    6       -1.693740     -1.693740   1.000000   1.000000
    7       -1.000715     -1.000715   1.000000   1.000000
    8       -0.746644     -0.746644   1.000000   1.000000
    9       -0.686134     -0.686134   1.000000   1.000000
   10        0.305880      0.305880   1.000000   1.000000
   11        0.900239      0.900239   1.000000   1.000000
   12        1.227374      1.227374   1.000000   1.000000
   13        1.910634      1.910634   1.000000   1.000000
   14        1.915026      1.915026   1.000000   1.000000
   15        2.846465      2.846465   1.000000   1.000000
   16        3.104746      3.104746   1.000000   1.000000
   17        7.521704      7.521704   0.000000   0.000000
   18        7.804164      7.804164   0.000000   0.000000
   19       10.014465     10.014465   0.000000   0.000000
   20       13.535205     13.535205   0.000000   0.000000
 
 -0.1750000E+00  0.2500000E-01  0.2500000E-01  0.7500000E-03
    1      -14.302044    -14.302044   1.000000   1.000000
    2      -13.201544    -13.201544   1.000000   1.000000
    3       -3.078117     -3.078117   1.000000   1.000000
    4       -2.784810     -2.784810   1.000000   1.000000
    5       -2.668271     -2.668271   1.000000   1.000000
    6       -1.446896     -1.446896   1.000000   1.000000
    7       -1.044859     -1.044859   1.000000   1.000000
    8       -0.731807     -0.731807   1.000000   1.000000
    9       -0.427413     -0.427413   1.000000   1.000000
   10        0.249097      0.249097   1.000000   1.000000
   11        1.153078      1.153078   1.000000   1.000000
   12        1.265722      1.265722   1.000000   1.000000
   13        2.065937      2.065937   1.000000   1.000000
   14        2.114707      2.114707   1.000000   1.000000
   15        2.974221      2.974221   1.000000   1.000000
   16        3.099674      3.099674   1.000000   1.000000
   17        7.500120      7.500120   0.000000   0.000000
   18        7.814174      7.814174   0.000000   0.000000
   19        9.235730      9.235730   0.000000   0.000000
   20       12.885573     12.885573   0.000000   0.000000
 
 -0.1250000E+00  0.2500000E-01  0.2500000E-01  0.7500000E-03
    1      -14.468671    -14.468671   1.000000   1.000000
    2      -13.215715    -13.215715   1.000000   1.000000
    3       -3.216184     -3.216184   1.000000   1.000000
    4       -2.816542     -2.816542   1.000000   1.000000
    5       -2.813629     -2.813629   1.000000   1.000000
    6       -1.264960     -1.264960   1.000000   1.000000
    7       -1.064798     -1.064798   1.000000   1.000000
    8       -0.745723     -0.745723   1.000000   1.000000
    9       -0.201200     -0.201200   1.000000   1.000000
   10        0.189025      0.189025   1.000000   1.000000
   11        1.306069      1.306069   1.000000   1.000000
   12        1.532537      1.532537   1.000000   1.000000
   13        2.234457      2.234457   1.000000   1.000000
   14        2.308220      2.308220   1.000000   1.000000
   15        3.058409      3.058409   1.000000   1.000000
   16        3.067449      3.067449   1.000000   1.000000
   17        7.540174      7.540174   0.000000   0.000000
   18        7.828625      7.828625   0.000000   0.000000
   19        8.470180      8.470180   0.000000   0.000000
   20       12.206127     12.206127   0.000000   0.000000
 
 -0.7500000E-01  0.2500000E-01  0.2500000E-01  0.7500000E-03
    1      -14.596334    -14.596334   1.000000   1.000000
    2      -13.227958    -13.227958   1.000000   1.000000
    3       -3.391878     -3.391878   1.000000   1.000000
    4       -2.857381     -2.857381   1.000000   1.000000
    5       -2.842192     -2.842192   1.000000   1.000000
    6       -1.149130     -1.149130   1.000000   1.000000
    7       -1.069616     -1.069616   1.000000   1.000000
    8       -0.762729     -0.762730   1.000000   1.000000
    9       -0.038344     -0.038344   1.000000   1.000000
   10        0.137195      0.137195   1.000000   1.000000
   11        1.337853      1.337853   1.000000   1.000000
   12        1.994582      1.994582   1.000000   1.000000
   13        2.398543      2.398543   1.000000   1.000000
   14        2.486508      2.486508   1.000000   1.000000
   15        3.003449      3.003449   1.000000   1.000000
   16        3.060910      3.060910   1.000000   1.000000
   17        7.577829      7.577829   0.000000   0.000000
   18        7.843704      7.843704   0.000000   0.000000
   19        7.851795      7.851796   0.000000   0.000000
   20       11.595078     11.595078   0.000000   0.000000
 
 -0.2500000E-01  0.2500000E-01  0.2500000E-01  0.7500000E-03
    1      -14.674775    -14.674775   1.000000   1.000000
    2      -13.237173    -13.237173   1.000000   1.000000
    3       -3.513462     -3.513462   1.000000   1.000000
    4       -2.867656     -2.867656   1.000000   1.000000
    5       -2.862219     -2.862219   1.000000   1.000000
    6       -1.086363     -1.086363   1.000000   1.000000
    7       -1.067716     -1.067716   1.000000   1.000000
    8       -0.776751     -0.776751   1.000000   1.000000
    9        0.058221      0.058221   1.000000   1.000000
   10        0.102762      0.102762   1.000000   1.000000
   11        1.356084      1.356084   1.000000   1.000000
   12        2.445417      2.445417   1.000000   1.000000
   13        2.552044      2.552044   1.000000   1.000000
   14        2.638149      2.638149   1.000000   1.000000
   15        2.912532      2.912532   1.000000   1.000000
   16        2.950690      2.950690   1.000000   1.000000
   17        7.232434      7.232434   0.000000   0.000000
   18        7.822763      7.822763   0.000000   0.000000
   19        7.857520      7.857520   0.000000   0.000000
   20       11.150892     11.150892   0.000000   0.000000
 
  0.7500000E-01  0.7500000E-01  0.2500000E-01  0.7500000E-03
    1      -14.664808    -14.664808   1.000000   1.000000
    2      -13.252156    -13.252156   1.000000   1.000000
    3       -3.485659     -3.485659   1.000000   1.000000
    4       -2.865368     -2.865368   1.000000   1.000000
    5       -2.859780     -2.859780   1.000000   1.000000
    6       -1.086565     -1.086565   1.000000   1.000000
    7       -1.065655     -1.065655   1.000000   1.000000
    8       -0.783741     -0.783741   1.000000   1.000000
    9        0.050804      0.050804   1.000000   1.000000
   10        0.097805      0.097805   1.000000   1.000000
   11        1.348006      1.348006   1.000000   1.000000
   12        2.456092      2.456091   1.000000   1.000000
   13        2.486810      2.486809   1.000000   1.000000
   14        2.581998      2.581998   1.000000   1.000000
   15        2.914636      2.914636   1.000000   1.000000
   16        3.019770      3.019769   1.000000   1.000000
   17        7.296119      7.296119   0.000000   0.000000
   18        7.829743      7.829743   0.000000   0.000000
   19        7.841751      7.841751   0.000000   0.000000
   20       11.145753     11.145753   0.000000   0.000000
 
  0.1250000E+00  0.7500000E-01  0.2500000E-01  0.1500000E-02
    1      -14.606127    -14.606127   1.000000   1.000000
    2      -13.253763    -13.253763   1.000000   1.000000
    3       -3.391596     -3.391596   1.000000   1.000000
    4       -2.854442     -2.854442   1.000000   1.000000
    5       -2.843549     -2.843549   1.000000   1.000000
    6       -1.122784     -1.122784   1.000000   1.000000
    7       -1.071621     -1.071622   1.000000   1.000000
    8       -0.776669     -0.776669   1.000000   1.000000
    9       -0.018827     -0.018827   1.000000   1.000000
   10        0.115652      0.115652   1.000000   1.000000
   11        1.332014      1.332014   1.000000   1.000000
   12        2.052562      2.052562   1.000000   1.000000
   13        2.407611      2.407611   1.000000   1.000000
   14        2.599275      2.599275   1.000000   1.000000
   15        2.923001      2.923001   1.000000   1.000000
   16        3.084473      3.084473   1.000000   1.000000
   17        7.543236      7.543236   0.000000   0.000000
   18        7.815260      7.815260   0.000000   0.000000
   19        7.881454      7.881454   0.000000   0.000000
   20       11.443201     11.443201   0.000000   0.000000
 
  0.1750000E+00  0.7500000E-01  0.2500000E-01  0.1500000E-02
    1      -14.497501    -14.497501   1.000000   1.000000
    2      -13.250067    -13.250067   1.000000   1.000000
    3       -3.256557     -3.256557   1.000000   1.000000
    4       -2.825466     -2.825466   1.000000   1.000000
    5       -2.797732     -2.797732   1.000000   1.000000
    6       -1.195015     -1.195015   1.000000   1.000000
    7       -1.084227     -1.084227   1.000000   1.000000
    8       -0.762964     -0.762964   1.000000   1.000000
    9       -0.154693     -0.154693   1.000000   1.000000
   10        0.148823      0.148823   1.000000   1.000000
   11        1.299878      1.299878   1.000000   1.000000
   12        1.625093      1.625093   1.000000   1.000000
   13        2.240345      2.240345   1.000000   1.000000
   14        2.678944      2.678944   1.000000   1.000000
   15        2.805624      2.805624   1.000000   1.000000
   16        3.074998      3.074998   1.000000   1.000000
   17        7.492296      7.492296   0.000000   0.000000
   18        7.836125      7.836125   0.000000   0.000000
   19        8.402861      8.402861   0.000000   0.000000
   20       11.954046     11.954046   0.000000   0.000000
 
  0.2250000E+00  0.7500000E-01  0.2500000E-01  0.1500000E-02
    1      -14.346797    -14.346797   1.000000   1.000000
    2      -13.239359    -13.239359   1.000000   1.000000
    3       -3.158503     -3.158503   1.000000   1.000000
    4       -2.796184     -2.796184   1.000000   1.000000
    5       -2.646584     -2.646584   1.000000   1.000000
    6       -1.322834     -1.322834   1.000000   1.000000
    7       -1.089875     -1.089875   1.000000   1.000000
    8       -0.752155     -0.752155   1.000000   1.000000
    9       -0.346789     -0.346789   1.000000   1.000000
   10        0.190124      0.190124   1.000000   1.000000
   11        1.190689      1.190689   1.000000   1.000000
   12        1.337264      1.337264   1.000000   1.000000
   13        2.079055      2.079055   1.000000   1.000000
   14        2.577488      2.577488   1.000000   1.000000
   15        2.723928      2.723928   1.000000   1.000000
   16        3.035026      3.035026   1.000000   1.000000
   17        7.409414      7.409414   0.000000   0.000000
   18        7.836198      7.836198   0.000000   0.000000
   19        9.146384      9.146384   0.000000   0.000000
   20       12.579656     12.579656   0.000000   0.000000
 
  0.2750000E+00  0.7500000E-01  0.2500000E-01  0.1500000E-02
    1      -14.166936    -14.166936   1.000000   1.000000
    2      -13.222006    -13.222006   1.000000   1.000000
    3       -3.128305     -3.128305   1.000000   1.000000
    4       -2.771026     -2.771026   1.000000   1.000000
    5       -2.378684     -2.378684   1.000000   1.000000
    6       -1.525018     -1.525018   1.000000   1.000000