 vasp.5.4.4.18Apr17-6-g9f103f2a35 (build May 20 2018 16:52:39) complex          
  
 executed on             LinuxIFC date 2022.11.07  00:26:58
 running on    1 total cores
 distrk:  each k-point on    1 cores,    1 groups
 distr:  one band on NCORES_PER_BAND=   1 cores,    1 groups


--------------------------------------------------------------------------------------------------------


 INCAR:
 POTCAR:    PAW Ni                                
 POTCAR:    PAW O                                 
 POTCAR:    PAW Ni                                
   VRHFIN =Ni:                                                                  
   LEXCH  = 91                                                                  
   EATOM  =  1079.4692 eV,   79.3388 Ry                                         
                                                                                
   TITEL  = PAW Ni                                                              
   LULTRA =        F    use ultrasoft PP ?                                      
   IUNSCR =        1    unscreen: 0-lin 1-nonlin 2-no                           
   RPACOR =    2.000    partial core radius                                     
   POMASS =   58.690; ZVAL   =   10.000    mass and valenz                      
   RCORE  =    2.300    outmost cutoff radius                                   
   RWIGS  =    2.430; RWIGS  =    1.286    wigner-seitz radius (au A)           
   ENMAX  =  269.561; ENMIN  =  202.171 eV                                      
   RCLOC  =    1.681    cutoff for local pot                                    
   LCOR   =        T    correct aug charges                                     
   LPAW   =        T    paw PP                                                  
   EAUG   =  544.565                                                            
   DEXC   =    -.002                                                            
   RMAX   =    2.808    core radius for proj-oper                               
   RAUG   =    1.300    factor for augmentation sphere                          
   RDEP   =    2.390    core radius for depl-charge                             
   QCUT   =   -4.451; QGAM   =    8.902    optimization parameters              
                                                                                
   Description                                                                  
     l     E      TYP  RCUT    TYP  RCUT                                        
     2   .000     23  2.300                                                     
     2   .000     23  2.300                                                     
     0   .000     23  2.300                                                     
     0   .000     23  2.300                                                     
     1  -.200     23  2.300                                                     
     1   .000     23  2.300                                                     
     3   .000      7   .000                                                     
  local pseudopotential read in
  partial core-charges read in
  atomic valenz-charges read in
  non local Contribution for L=           2  read in
    real space projection operators read in
  non local Contribution for L=           2  read in
    real space projection operators read in
  non local Contribution for L=           0  read in
    real space projection operators read in
  non local Contribution for L=           0  read in
    real space projection operators read in
  non local Contribution for L=           1  read in
    real space projection operators read in
  non local Contribution for L=           1  read in
    real space projection operators read in
    PAW grid and wavefunctions read in
 
   number of l-projection  operators is LMAX  =           6
   number of lm-projection operators is LMMAX =          18
 
 POTCAR:    PAW O                                 
   VRHFIN =O: s2p4                                                              
   LEXCH  = 91                                                                  
   EATOM  =   433.0277 eV,   31.8266 Ry                                         
                                                                                
   TITEL  = PAW O                                                               
   LULTRA =        F    use ultrasoft PP ?                                      
   IUNSCR =        0    unscreen: 0-lin 1-nonlin 2-no                           
   RPACOR =     .000    partial core radius                                     
   POMASS =   16.000; ZVAL   =    6.000    mass and valenz                      
   RCORE  =    1.520    outmost cutoff radius                                   
   RWIGS  =    1.550; RWIGS  =     .820    wigner-seitz radius (au A)           
   ENMAX  =  400.000; ENMIN  =  300.000 eV                                      
   ICORE  =        2    local potential                                         
   LCOR   =        T    correct aug charges                                     
   LPAW   =        T    paw PP                                                  
   EAUG   =  605.392                                                            
   DEXC   =     .000                                                            
   RMAX   =    2.264    core radius for proj-oper                               
   RAUG   =    1.300    factor for augmentation sphere                          
   RDEP   =    1.550    radius for radial grids                                 
   QCUT   =   -5.520; QGAM   =   11.040    optimization parameters              
                                                                                
   Description                                                                  
     l     E      TYP  RCUT    TYP  RCUT                                        
     0   .000     23  1.200                                                     
     0  -.700     23  1.200                                                     
     1   .000     23  1.520                                                     
     1   .600     23  1.520                                                     
     2   .000      7  1.500                                                     
  local pseudopotential read in
  atomic valenz-charges read in
  non local Contribution for L=           0  read in
    real space projection operators read in
  non local Contribution for L=           0  read in
    real space projection operators read in
  non local Contribution for L=           1  read in
    real space projection operators read in
  non local Contribution for L=           1  read in
    real space projection operators read in
    PAW grid and wavefunctions read in
 
   number of l-projection  operators is LMAX  =           4
   number of lm-projection operators is LMMAX =           8
 
  PAW Ni                                :
 energy of atom  1       EATOM=-1079.4692
 kinetic energy error for atom=    0.0101 (will be added to EATOM!!)
  PAW O                                 :
 energy of atom  2       EATOM= -433.0277
 kinetic energy error for atom=    0.1156 (will be added to EATOM!!)
 
 
 POSCAR: NiO AFM                                 
  positions in cartesian coordinates
  velocities in cartesian coordinates
  No initial velocities read in
 exchange correlation table for  LEXCH =        7
   RHO(1)=    0.500       N(1)  =     2000
   RHO(2)=  100.500       N(2)  =     4000
 


--------------------------------------------------------------------------------------------------------


 ion  position               nearest neighbor table
   1  0.000  0.000  0.000-   4 2.08   4 2.08   4 2.08   3 2.08   3 2.08   3 2.08   2 2.95   2 2.95
                             2 2.95   2 2.95   2 2.95   2 2.95
   2  0.500  0.500  0.500-   3 2.08   3 2.08   3 2.08   4 2.08   4 2.08   4 2.08   1 2.95   1 2.95
                             1 2.95   1 2.95   1 2.95   1 2.95
   3  0.250  0.250  0.250-   1 2.08   1 2.08   1 2.08   2 2.08   2 2.08   2 2.08
   4  0.750  0.750  0.750-   2 2.08   2 2.08   2 2.08   1 2.08   1 2.08   1 2.08
 
  LATTYP: Found a trigonal (rhomboedric) cell.
 ALAT       =     5.1071861137
 COS(alpha) =     0.8333333333
  
  Lattice vectors:
  
 A1 = (   4.1700000000,   2.0850000000,   2.0850000000)
 A2 = (   2.0850000000,   4.1700000000,   2.0850000000)
 A3 = (   2.0850000000,   2.0850000000,   4.1700000000)


Analysis of symmetry for initial positions (statically):
=====================================================================
 Subroutine PRICEL returns following result:
 
  LATTYP: Found a face centered cubic cell.
 ALAT       =     4.1700000000
  
  Lattice vectors:
  
 A1 = (   2.0850000000,   0.0000000000,  -2.0850000000)
 A2 = (   0.0000000000,   2.0850000000,  -2.0850000000)
 A3 = (   2.0850000000,   2.0850000000,   0.0000000000)
 
   2 primitive cells build up your supercell.
 

 Routine SETGRP: Setting up the symmetry group for a 
 trigonal (rhombohedral) supercell.


 Subroutine GETGRP returns: Found 12 space group operations
 (whereof 12 operations were pure point group operations)
 out of a pool of 12 trial point group operations.


The static configuration has the point symmetry D_3d.


Analysis of symmetry for dynamics (positions and initial velocities):
=====================================================================
 Subroutine PRICEL returns following result:
 
  LATTYP: Found a face centered cubic cell.
 ALAT       =     4.1700000000
  
  Lattice vectors:
  
 A1 = (   2.0850000000,   0.0000000000,  -2.0850000000)
 A2 = (   0.0000000000,   2.0850000000,  -2.0850000000)
 A3 = (   2.0850000000,   2.0850000000,   0.0000000000)
 
   2 primitive cells build up your supercell.
 

 Routine SETGRP: Setting up the symmetry group for a 
 trigonal (rhombohedral) supercell.


 Subroutine GETGRP returns: Found 12 space group operations
 (whereof 12 operations were pure point group operations)
 out of a pool of 12 trial point group operations.


The dynamic configuration has the point symmetry D_3d.


Analysis of structural, dynamic, and magnetic symmetry:
=====================================================================
 Subroutine PRICEL returns following result:
 
  LATTYP: Found a face centered cubic cell.
 ALAT       =     4.1700000000
  
  Lattice vectors:
  
 A1 = (   2.0850000000,   0.0000000000,  -2.0850000000)
 A2 = (   0.0000000000,   2.0850000000,  -2.0850000000)
 A3 = (   2.0850000000,   2.0850000000,   0.0000000000)
 
   2 primitive cells build up your supercell.
 

 Routine SETGRP: Setting up the symmetry group for a 
 trigonal (rhombohedral) supercell.


 Subroutine GETGRP returns: Found 12 space group operations
 (whereof 12 operations were pure point group operations)
 out of a pool of 12 trial point group operations.


The magnetic configuration has the point symmetry D_3d.


 Subroutine INISYM returns: Found 12 space group operations
 (whereof 12 operations are pure point group operations),
 and found     2 'primitive' translations

 
 
 KPOINTS: 20x20x20                                

Automatic generation of k-mesh.
Space group operators:
 irot       det(A)        alpha          n_x          n_y          n_z        tau_x        tau_y        tau_z
    1     1.000000     0.000000     1.000000     0.000000     0.000000     0.000000     0.000000     0.000000
    2    -1.000000     0.000000     1.000000     0.000000     0.000000     0.000000     0.000000     0.000000
    3     1.000000   180.000000     0.000000     0.707107    -0.707107     0.000000     0.000000     0.000000
    4    -1.000000   180.000000     0.000000     0.707107    -0.707107     0.000000     0.000000     0.000000
    5     1.000000   120.000000    -0.577350    -0.577350    -0.577350     0.000000     0.000000     0.000000
    6    -1.000000   120.000000    -0.577350    -0.577350    -0.577350     0.000000     0.000000     0.000000
    7     1.000000   180.000000     0.707107    -0.707107     0.000000     0.000000     0.000000     0.000000
    8    -1.000000   180.000000     0.707107    -0.707107     0.000000     0.000000     0.000000     0.000000
    9     1.000000   120.000000     0.577350     0.577350     0.577350     0.000000     0.000000     0.000000
   10    -1.000000   120.000000     0.577350     0.577350     0.577350     0.000000     0.000000     0.000000
   11     1.000000   180.000000     0.707107     0.000000    -0.707107     0.000000     0.000000     0.000000
   12    -1.000000   180.000000     0.707107     0.000000    -0.707107     0.000000     0.000000     0.000000
 
 Subroutine IBZKPT returns following result:
 ===========================================
 
 Found    770 irreducible k-points:
 
 Following reciprocal coordinates:
            Coordinates               Weight
  0.025000  0.025000  0.025000      2.000000
  0.075000  0.025000  0.025000      6.000000
  0.125000  0.025000  0.025000      6.000000
  0.175000  0.025000  0.025000      6.000000
  0.225000  0.025000  0.025000      6.000000
  0.275000  0.025000  0.025000      6.000000
  0.325000  0.025000  0.025000      6.000000
  0.375000  0.025000  0.025000      6.000000
  0.425000  0.025000  0.025000      6.000000
  0.475000  0.025000  0.025000      6.000000
 -0.475000  0.025000  0.025000      6.000000
 -0.425000  0.025000  0.025000      6.000000
 -0.375000  0.025000  0.025000      6.000000
 -0.325000  0.025000  0.025000      6.000000
 -0.275000  0.025000  0.025000      6.000000
 -0.225000  0.025000  0.025000      6.000000
 -0.175000  0.025000  0.025000      6.000000
 -0.125000  0.025000  0.025000      6.000000
 -0.075000  0.025000  0.025000      6.000000
 -0.025000  0.025000  0.025000      6.000000
  0.075000  0.075000  0.025000      6.000000
  0.125000  0.075000  0.025000     12.000000
  0.175000  0.075000  0.025000     12.000000
  0.225000  0.075000  0.025000     12.000000
  0.275000  0.075000  0.025000     12.000000
  0.325000  0.075000  0.025000     12.000000
  0.375000  0.075000  0.025000     12.000000
  0.425000  0.075000  0.025000     12.000000
  0.475000  0.075000  0.025000     12.000000
 -0.475000  0.075000  0.025000     12.000000
 -0.425000  0.075000  0.025000     12.000000
 -0.375000  0.075000  0.025000     12.000000
 -0.325000  0.075000  0.025000     12.000000
 -0.275000  0.075000  0.025000     12.000000
 -0.225000  0.075000  0.025000     12.000000
 -0.175000  0.075000  0.025000     12.000000
 -0.125000  0.075000  0.025000     12.000000
 -0.075000  0.075000  0.025000     12.000000
 -0.025000  0.075000  0.025000     12.000000
  0.125000  0.125000  0.025000      6.000000
  0.175000  0.125000  0.025000     12.000000
  0.225000  0.125000  0.025000     12.000000
  0.275000  0.125000  0.025000     12.000000
  0.325000  0.125000  0.025000     12.000000
  0.375000  0.125000  0.025000     12.000000
  0.425000  0.125000  0.025000     12.000000
  0.475000  0.125000  0.025000     12.000000
 -0.475000  0.125000  0.025000     12.000000
 -0.425000  0.125000  0.025000     12.000000
 -0.375000  0.125000  0.025000     12.000000
 -0.325000  0.125000  0.025000     12.000000
 -0.275000  0.125000  0.025000     12.000000
 -0.225000  0.125000  0.025000     12.000000
 -0.175000  0.125000  0.025000     12.000000
 -0.125000  0.125000  0.025000     12.000000
 -0.075000  0.125000  0.025000     12.000000
 -0.025000  0.125000  0.025000     12.000000
  0.175000  0.175000  0.025000      6.000000
  0.225000  0.175000  0.025000     12.000000
  0.275000  0.175000  0.025000     12.000000
  0.325000  0.175000  0.025000     12.000000
  0.375000  0.175000  0.025000     12.000000
  0.425000  0.175000  0.025000     12.000000
  0.475000  0.175000  0.025000     12.000000
 -0.475000  0.175000  0.025000     12.000000
 -0.425000  0.175000  0.025000     12.000000
 -0.375000  0.175000  0.025000     12.000000
 -0.325000  0.175000  0.025000     12.000000
 -0.275000  0.175000  0.025000     12.000000
 -0.225000  0.175000  0.025000     12.000000
 -0.175000  0.175000  0.025000     12.000000
 -0.125000  0.175000  0.025000     12.000000
 -0.075000  0.175000  0.025000     12.000000
 -0.025000  0.175000  0.025000     12.000000
  0.225000  0.225000  0.025000      6.000000
  0.275000  0.225000  0.025000     12.000000
  0.325000  0.225000  0.025000     12.000000
  0.375000  0.225000  0.025000     12.000000
  0.425000  0.225000  0.025000     12.000000
  0.475000  0.225000  0.025000     12.000000
 -0.475000  0.225000  0.025000     12.000000
 -0.425000  0.225000  0.025000     12.000000
 -0.375000  0.225000  0.025000     12.000000
 -0.325000  0.225000  0.025000     12.000000
 -0.275000  0.225000  0.025000     12.000000
 -0.225000  0.225000  0.025000     12.000000
 -0.175000  0.225000  0.025000     12.000000
 -0.125000  0.225000  0.025000     12.000000
 -0.075000  0.225000  0.025000     12.000000
 -0.025000  0.225000  0.025000     12.000000
  0.275000  0.275000  0.025000      6.000000
  0.325000  0.275000  0.025000     12.000000
  0.375000  0.275000  0.025000     12.000000
  0.425000  0.275000  0.025000     12.000000
  0.475000  0.275000  0.025000     12.000000
 -0.475000  0.275000  0.025000     12.000000
 -0.425000  0.275000  0.025000     12.000000
 -0.375000  0.275000  0.025000     12.000000
 -0.325000  0.275000  0.025000     12.000000
 -0.275000  0.275000  0.025000     12.000000
 -0.225000  0.275000  0.025000     12.000000
 -0.175000  0.275000  0.025000     12.000000
 -0.125000  0.275000  0.025000     12.000000
 -0.075000  0.275000  0.025000     12.000000
 -0.025000  0.275000  0.025000     12.000000
  0.325000  0.325000  0.025000      6.000000
  0.375000  0.325000  0.025000     12.000000
  0.425000  0.325000  0.025000     12.000000
  0.475000  0.325000  0.025000     12.000000
 -0.475000  0.325000  0.025000     12.000000
 -0.425000  0.325000  0.025000     12.000000
 -0.375000  0.325000  0.025000     12.000000
 -0.325000  0.325000  0.025000     12.000000
 -0.275000  0.325000  0.025000     12.000000
 -0.225000  0.325000  0.025000     12.000000
 -0.175000  0.325000  0.025000     12.000000
 -0.125000  0.325000  0.025000     12.000000
 -0.075000  0.325000  0.025000     12.000000
 -0.025000  0.325000  0.025000     12.000000
  0.375000  0.375000  0.025000      6.000000
  0.425000  0.375000  0.025000     12.000000
  0.475000  0.375000  0.025000     12.000000
 -0.475000  0.375000  0.025000     12.000000
 -0.425000  0.375000  0.025000     12.000000
 -0.375000  0.375000  0.025000     12.000000
 -0.325000  0.375000  0.025000     12.000000
 -0.275000  0.375000  0.025000     12.000000
 -0.225000  0.375000  0.025000     12.000000
 -0.175000  0.375000  0.025000     12.000000
 -0.125000  0.375000  0.025000     12.000000
 -0.075000  0.375000  0.025000     12.000000
 -0.025000  0.375000  0.025000     12.000000
  0.425000  0.425000  0.025000      6.000000
  0.475000  0.425000  0.025000     12.000000
 -0.475000  0.425000  0.025000     12.000000
 -0.425000  0.425000  0.025000     12.000000
 -0.375000  0.425000  0.025000     12.000000
 -0.325000  0.425000  0.025000     12.000000
 -0.275000  0.425000  0.025000     12.000000
 -0.225000  0.425000  0.025000     12.000000
 -0.175000  0.425000  0.025000     12.000000
 -0.125000  0.425000  0.025000     12.000000
 -0.075000  0.425000  0.025000     12.000000
 -0.025000  0.425000  0.025000     12.000000
  0.475000  0.475000  0.025000      6.000000
 -0.475000  0.475000  0.025000     12.000000
 -0.425000  0.475000  0.025000     12.000000
 -0.375000  0.475000  0.025000     12.000000
 -0.325000  0.475000  0.025000     12.000000
 -0.275000  0.475000  0.025000     12.000000
 -0.225000  0.475000  0.025000     12.000000
 -0.175000  0.475000  0.025000     12.000000
 -0.125000  0.475000  0.025000     12.000000
 -0.075000  0.475000  0.025000     12.000000
 -0.025000  0.475000  0.025000     12.000000
 -0.475000 -0.475000  0.025000      6.000000
 -0.425000 -0.475000  0.025000     12.000000
 -0.375000 -0.475000  0.025000     12.000000
 -0.325000 -0.475000  0.025000     12.000000
 -0.275000 -0.475000  0.025000     12.000000
 -0.225000 -0.475000  0.025000     12.000000
 -0.175000 -0.475000  0.025000     12.000000
 -0.125000 -0.475000  0.025000     12.000000
 -0.075000 -0.475000  0.025000     12.000000
 -0.425000 -0.425000  0.025000      6.000000
 -0.375000 -0.425000  0.025000     12.000000
 -0.325000 -0.425000  0.025000     12.000000
 -0.275000 -0.425000  0.025000     12.000000
 -0.225000 -0.425000  0.025000     12.000000
 -0.175000 -0.425000  0.025000     12.000000
 -0.125000 -0.425000  0.025000     12.000000
 -0.075000 -0.425000  0.025000     12.000000
 -0.375000 -0.375000  0.025000      6.000000
 -0.325000 -0.375000  0.025000     12.000000
 -0.275000 -0.375000  0.025000     12.000000
 -0.225000 -0.375000  0.025000     12.000000
 -0.175000 -0.375000  0.025000     12.000000
 -0.125000 -0.375000  0.025000     12.000000
 -0.075000 -0.375000  0.025000     12.000000
 -0.325000 -0.325000  0.025000      6.000000
 -0.275000 -0.325000  0.025000     12.000000
 -0.225000 -0.325000  0.025000     12.000000
 -0.175000 -0.325000  0.025000     12.000000
 -0.125000 -0.325000  0.025000     12.000000
 -0.075000 -0.325000  0.025000     12.000000
 -0.275000 -0.275000  0.025000      6.000000
 -0.225000 -0.275000  0.025000     12.000000
 -0.175000 -0.275000  0.025000     12.000000
 -0.125000 -0.275000  0.025000     12.000000
 -0.075000 -0.275000  0.025000     12.000000
 -0.225000 -0.225000  0.025000      6.000000
 -0.175000 -0.225000  0.025000     12.000000
 -0.125000 -0.225000  0.025000     12.000000
 -0.075000 -0.225000  0.025000     12.000000
 -0.175000 -0.175000  0.025000      6.000000
 -0.125000 -0.175000  0.025000     12.000000
 -0.075000 -0.175000  0.025000     12.000000
 -0.125000 -0.125000  0.025000      6.000000
 -0.075000 -0.125000  0.025000     12.000000
 -0.075000 -0.075000  0.025000      6.000000
  0.075000  0.075000  0.075000      2.000000
  0.125000  0.075000  0.075000      6.000000
  0.175000  0.075000  0.075000      6.000000
  0.225000  0.075000  0.075000      6.000000
  0.275000  0.075000  0.075000      6.000000
  0.325000  0.075000  0.075000      6.000000
  0.375000  0.075000  0.075000      6.000000
  0.425000  0.075000  0.075000      6.000000
  0.475000  0.075000  0.075000      6.000000
 -0.475000  0.075000  0.075000      6.000000
 -0.425000  0.075000  0.075000      6.000000
 -0.375000  0.075000  0.075000      6.000000
 -0.325000  0.075000  0.075000      6.000000
 -0.275000  0.075000  0.075000      6.000000
 -0.225000  0.075000  0.075000      6.000000
 -0.175000  0.075000  0.075000      6.000000
 -0.125000  0.075000  0.075000      6.000000
 -0.075000  0.075000  0.075000      6.000000
  0.125000  0.125000  0.075000      6.000000
  0.175000  0.125000  0.075000     12.000000
  0.225000  0.125000  0.075000     12.000000
  0.275000  0.125000  0.075000     12.000000
  0.325000  0.125000  0.075000     12.000000
  0.375000  0.125000  0.075000     12.000000
  0.425000  0.125000  0.075000     12.000000
  0.475000  0.125000  0.075000     12.000000
 -0.475000  0.125000  0.075000     12.000000
 -0.425000  0.125000  0.075000     12.000000
 -0.375000  0.125000  0.075000     12.000000
 -0.325000  0.125000  0.075000     12.000000
 -0.275000  0.125000  0.075000     12.000000
 -0.225000  0.125000  0.075000     12.000000
 -0.175000  0.125000  0.075000     12.000000
 -0.125000  0.125000  0.075000     12.000000
 -0.075000  0.125000  0.075000     12.000000
  0.175000  0.175000  0.075000      6.000000
  0.225000  0.175000  0.075000     12.000000
  0.275000  0.175000  0.075000     12.000000
  0.325000  0.175000  0.075000     12.000000
  0.375000  0.175000  0.075000     12.000000
  0.425000  0.175000  0.075000     12.000000
  0.475000  0.175000  0.075000     12.000000
 -0.475000  0.175000  0.075000     12.000000
 -0.425000  0.175000  0.075000     12.000000
 -0.375000  0.175000  0.075000     12.000000
 -0.325000  0.175000  0.075000     12.000000
 -0.275000  0.175000  0.075000     12.000000
 -0.225000  0.175000  0.075000     12.000000
 -0.175000  0.175000  0.075000     12.000000
 -0.125000  0.175000  0.075000     12.000000
 -0.075000  0.175000  0.075000     12.000000
  0.225000  0.225000  0.075000      6.000000
  0.275000  0.225000  0.075000     12.000000
  0.325000  0.225000  0.075000     12.000000
  0.375000  0.225000  0.075000     12.000000
  0.425000  0.225000  0.075000     12.000000
  0.475000  0.225000  0.075000     12.000000
 -0.475000  0.225000  0.075000     12.000000
 -0.425000  0.225000  0.075000     12.000000
 -0.375000  0.225000  0.075000     12.000000
 -0.325000  0.225000  0.075000     12.000000
 -0.275000  0.225000  0.075000     12.000000
 -0.225000  0.225000  0.075000     12.000000
 -0.175000  0.225000  0.075000     12.000000
 -0.125000  0.225000  0.075000     12.000000
 -0.075000  0.225000  0.075000     12.000000
  0.275000  0.275000  0.075000      6.000000
  0.325000  0.275000  0.075000     12.000000
  0.375000  0.275000  0.075000     12.000000
  0.425000  0.275000  0.075000     12.000000
  0.475000  0.275000  0.075000     12.000000
 -0.475000  0.275000  0.075000     12.000000
 -0.425000  0.275000  0.075000     12.000000
 -0.375000  0.275000  0.075000     12.000000
 -0.325000  0.275000  0.075000     12.000000
 -0.275000  0.275000  0.075000     12.000000
 -0.225000  0.275000  0.075000     12.000000
 -0.175000  0.275000  0.075000     12.000000
 -0.125000  0.275000  0.075000     12.000000
 -0.075000  0.275000  0.075000     12.000000
  0.325000  0.325000  0.075000      6.000000
  0.375000  0.325000  0.075000     12.000000
  0.425000  0.325000  0.075000     12.000000
  0.475000  0.325000  0.075000     12.000000
 -0.475000  0.325000  0.075000     12.000000
 -0.425000  0.325000  0.075000     12.000000
 -0.375000  0.325000  0.075000     12.000000
 -0.325000  0.325000  0.075000     12.000000
 -0.275000  0.325000  0.075000     12.000000
 -0.225000  0.325000  0.075000     12.000000
 -0.175000  0.325000  0.075000     12.000000
 -0.125000  0.325000  0.075000     12.000000
 -0.075000  0.325000  0.075000     12.000000
  0.375000  0.375000  0.075000      6.000000
  0.425000  0.375000  0.075000     12.000000
  0.475000  0.375000  0.075000     12.000000
 -0.475000  0.375000  0.075000     12.000000
 -0.425000  0.375000  0.075000     12.000000
 -0.375000  0.375000  0.075000     12.000000
 -0.325000  0.375000  0.075000     12.000000
 -0.275000  0.375000  0.075000     12.000000
 -0.225000  0.375000  0.075000     12.000000
 -0.175000  0.375000  0.075000     12.000000
 -0.125000  0.375000  0.075000     12.000000
 -0.075000  0.375000  0.075000     12.000000
  0.425000  0.425000  0.075000      6.000000
  0.475000  0.425000  0.075000     12.000000
 -0.475000  0.425000  0.075000     12.000000
 -0.425000  0.425000  0.075000     12.000000
 -0.375000  0.425000  0.075000     12.000000
 -0.325000  0.425000  0.075000     12.000000
 -0.275000  0.425000  0.075000     12.000000
 -0.225000  0.425000  0.075000     12.000000
 -0.175000  0.425000  0.075000     12.000000
 -0.125000  0.425000  0.075000     12.000000
 -0.075000  0.425000  0.075000     12.000000
  0.475000  0.475000  0.075000      6.000000
 -0.475000  0.475000  0.075000     12.000000
 -0.425000  0.475000  0.075000     12.000000
 -0.375000  0.475000  0.075000     12.000000
 -0.325000  0.475000  0.075000     12.000000
 -0.275000  0.475000  0.075000     12.000000
 -0.225000  0.475000  0.075000     12.000000
 -0.175000  0.475000  0.075000     12.000000
 -0.125000  0.475000  0.075000     12.000000
 -0.075000  0.475000  0.075000     12.000000
 -0.475000 -0.475000  0.075000      6.000000
 -0.425000 -0.475000  0.075000     12.000000
 -0.375000 -0.475000  0.075000     12.000000
 -0.325000 -0.475000  0.075000     12.000000
 -0.275000 -0.475000  0.075000     12.000000
 -0.225000 -0.475000  0.075000     12.000000
 -0.175000 -0.475000  0.075000     12.000000
 -0.125000 -0.475000  0.075000     12.000000
 -0.425000 -0.425000  0.075000      6.000000
 -0.375000 -0.425000  0.075000     12.000000
 -0.325000 -0.425000  0.075000     12.000000
 -0.275000 -0.425000  0.075000     12.000000
 -0.225000 -0.425000  0.075000     12.000000
 -0.175000 -0.425000  0.075000     12.000000
 -0.125000 -0.425000  0.075000     12.000000
 -0.375000 -0.375000  0.075000      6.000000
 -0.325000 -0.375000  0.075000     12.000000
 -0.275000 -0.375000  0.075000     12.000000
 -0.225000 -0.375000  0.075000     12.000000
 -0.175000 -0.375000  0.075000     12.000000
 -0.125000 -0.375000  0.075000     12.000000
 -0.325000 -0.325000  0.075000      6.000000
 -0.275000 -0.325000  0.075000     12.000000
 -0.225000 -0.325000  0.075000     12.000000
 -0.175000 -0.325000  0.075000     12.000000
 -0.125000 -0.325000  0.075000     12.000000
 -0.275000 -0.275000  0.075000      6.000000
 -0.225000 -0.275000  0.075000     12.000000
 -0.175000 -0.275000  0.075000     12.000000
 -0.125000 -0.275000  0.075000     12.000000
 -0.225000 -0.225000  0.075000      6.000000
 -0.175000 -0.225000  0.075000     12.000000
 -0.125000 -0.225000  0.075000     12.000000
 -0.175000 -0.175000  0.075000      6.000000
 -0.125000 -0.175000  0.075000     12.000000
 -0.125000 -0.125000  0.075000      6.000000
  0.125000  0.125000  0.125000      2.000000
  0.175000  0.125000  0.125000      6.000000
  0.225000  0.125000  0.125000      6.000000
  0.275000  0.125000  0.125000      6.000000
  0.325000  0.125000  0.125000      6.000000
  0.375000  0.125000  0.125000      6.000000
  0.425000  0.125000  0.125000      6.000000
  0.475000  0.125000  0.125000      6.000000
 -0.475000  0.125000  0.125000      6.000000
 -0.425000  0.125000  0.125000      6.000000
 -0.375000  0.125000  0.125000      6.000000
 -0.325000  0.125000  0.125000      6.000000
 -0.275000  0.125000  0.125000      6.000000
 -0.225000  0.125000  0.125000      6.000000
 -0.175000  0.125000  0.125000      6.000000
 -0.125000  0.125000  0.125000      6.000000
  0.175000  0.175000  0.125000      6.000000
  0.225000  0.175000  0.125000     12.000000
  0.275000  0.175000  0.125000     12.000000
  0.325000  0.175000  0.125000     12.000000
  0.375000  0.175000  0.125000     12.000000
  0.425000  0.175000  0.125000     12.000000
  0.475000  0.175000  0.125000     12.000000
 -0.475000  0.175000  0.125000     12.000000
 -0.425000  0.175000  0.125000     12.000000
 -0.375000  0.175000  0.125000     12.000000
 -0.325000  0.175000  0.125000     12.000000
 -0.275000  0.175000  0.125000     12.000000
 -0.225000  0.175000  0.125000     12.000000
 -0.175000  0.175000  0.125000     12.000000
 -0.125000  0.175000  0.125000     12.000000
  0.225000  0.225000  0.125000      6.000000
  0.275000  0.225000  0.125000     12.000000
  0.325000  0.225000  0.125000     12.000000
  0.375000  0.225000  0.125000     12.000000
  0.425000  0.225000  0.125000     12.000000
  0.475000  0.225000  0.125000     12.000000
 -0.475000  0.225000  0.125000     12.000000
 -0.425000  0.225000  0.125000     12.000000
 -0.375000  0.225000  0.125000     12.000000
 -0.325000  0.225000  0.125000     12.000000
 -0.275000  0.225000  0.125000     12.000000
 -0.225000  0.225000  0.125000     12.000000
 -0.175000  0.225000  0.125000     12.000000
 -0.125000  0.225000  0.125000     12.000000
  0.275000  0.275000  0.125000      6.000000
  0.325000  0.275000  0.125000     12.000000
  0.375000  0.275000  0.125000     12.000000
  0.425000  0.275000  0.125000     12.000000
  0.475000  0.275000  0.125000     12.000000
 -0.475000  0.275000  0.125000     12.000000
 -0.425000  0.275000  0.125000     12.000000
 -0.375000  0.275000  0.125000     12.000000
 -0.325000  0.275000  0.125000     12.000000
 -0.275000  0.275000  0.125000     12.000000
 -0.225000  0.275000  0.125000     12.000000
 -0.175000  0.275000  0.125000     12.000000
 -0.125000  0.275000  0.125000     12.000000
  0.325000  0.325000  0.125000      6.000000
  0.375000  0.325000  0.125000     12.000000
  0.425000  0.325000  0.125000     12.000000
  0.475000  0.325000  0.125000     12.000000
 -0.475000  0.325000  0.125000     12.000000
 -0.425000  0.325000  0.125000     12.000000
 -0.375000  0.325000  0.125000     12.000000
 -0.325000  0.325000  0.125000     12.000000
 -0.275000  0.325000  0.125000     12.000000
 -0.225000  0.325000  0.125000     12.000000
 -0.175000  0.325000  0.125000     12.000000
 -0.125000  0.325000  0.125000     12.000000
  0.375000  0.375000  0.125000      6.000000
  0.425000  0.375000  0.125000     12.000000
  0.475000  0.375000  0.125000     12.000000
 -0.475000  0.375000  0.125000     12.000000
 -0.425000  0.375000  0.125000     12.000000
 -0.375000  0.375000  0.125000     12.000000
 -0.325000  0.375000  0.125000     12.000000
 -0.275000  0.375000  0.125000     12.000000
 -0.225000  0.375000  0.125000     12.000000
 -0.175000  0.375000  0.125000     12.000000
 -0.125000  0.375000  0.125000     12.000000
  0.425000  0.425000  0.125000      6.000000
  0.475000  0.425000  0.125000     12.000000
 -0.475000  0.425000  0.125000     12.000000
 -0.425000  0.425000  0.125000     12.000000
 -0.375000  0.425000  0.125000     12.000000
 -0.325000  0.425000  0.125000     12.000000
 -0.275000  0.425000  0.125000     12.000000
 -0.225000  0.425000  0.125000     12.000000
 -0.175000  0.425000  0.125000     12.000000
 -0.125000  0.425000  0.125000     12.000000
  0.475000  0.475000  0.125000      6.000000
 -0.475000  0.475000  0.125000     12.000000
 -0.425000  0.475000  0.125000     12.000000
 -0.375000  0.475000  0.125000     12.000000
 -0.325000  0.475000  0.125000     12.000000
 -0.275000  0.475000  0.125000     12.000000
 -0.225000  0.475000  0.125000     12.000000
 -0.175000  0.475000  0.125000     12.000000
 -0.125000  0.475000  0.125000     12.000000
 -0.475000 -0.475000  0.125000      6.000000
 -0.425000 -0.475000  0.125000     12.000000
 -0.375000 -0.475000  0.125000     12.000000
 -0.325000 -0.475000  0.125000     12.000000
 -0.275000 -0.475000  0.125000     12.000000
 -0.225000 -0.475000  0.125000     12.000000
 -0.175000 -0.475000  0.125000     12.000000
 -0.425000 -0.425000  0.125000      6.000000
 -0.375000 -0.425000  0.125000     12.000000
 -0.325000 -0.425000  0.125000     12.000000
 -0.275000 -0.425000  0.125000     12.000000
 -0.225000 -0.425000  0.125000     12.000000
 -0.175000 -0.425000  0.125000     12.000000
 -0.375000 -0.375000  0.125000      6.000000
 -0.325000 -0.375000  0.125000     12.000000
 -0.275000 -0.375000  0.125000     12.000000
 -0.225000 -0.375000  0.125000     12.000000
 -0.175000 -0.375000  0.125000     12.000000
 -0.325000 -0.325000  0.125000      6.000000
 -0.275000 -0.325000  0.125000     12.000000
 -0.225000 -0.325000  0.125000     12.000000
 -0.175000 -0.325000  0.125000     12.000000
 -0.275000 -0.275000  0.125000      6.000000
 -0.225000 -0.275000  0.125000     12.000000
 -0.175000 -0.275000  0.125000     12.000000
 -0.225000 -0.225000  0.125000      6.000000
 -0.175000 -0.225000  0.125000     12.000000
 -0.175000 -0.175000  0.125000      6.000000
  0.175000  0.175000  0.175000      2.000000
  0.225000  0.175000  0.175000      6.000000
  0.275000  0.175000  0.175000      6.000000
  0.325000  0.175000  0.175000      6.000000
  0.375000  0.175000  0.175000      6.000000
  0.425000  0.175000  0.175000      6.000000
  0.475000  0.175000  0.175000      6.000000
 -0.475000  0.175000  0.175000      6.000000
 -0.425000  0.175000  0.175000      6.000000
 -0.375000  0.175000  0.175000      6.000000
 -0.325000  0.175000  0.175000      6.000000
 -0.275000  0.175000  0.175000      6.000000
 -0.225000  0.175000  0.175000      6.000000
 -0.175000  0.175000  0.175000      6.000000
  0.225000  0.225000  0.175000      6.000000
  0.275000  0.225000  0.175000     12.000000
  0.325000  0.225000  0.175000     12.000000
  0.375000  0.225000  0.175000     12.000000
  0.425000  0.225000  0.175000     12.000000
  0.475000  0.225000  0.175000     12.000000
 -0.475000  0.225000  0.175000     12.000000
 -0.425000  0.225000  0.175000     12.000000
 -0.375000  0.225000  0.175000     12.000000
 -0.325000  0.225000  0.175000     12.000000
 -0.275000  0.225000  0.175000     12.000000
 -0.225000  0.225000  0.175000     12.000000
 -0.175000  0.225000  0.175000     12.000000
  0.275000  0.275000  0.175000      6.000000
  0.325000  0.275000  0.175000     12.000000
  0.375000  0.275000  0.175000     12.000000
  0.425000  0.275000  0.175000     12.000000
  0.475000  0.275000  0.175000     12.000000
 -0.475000  0.275000  0.175000     12.000000
 -0.425000  0.275000  0.175000     12.000000
 -0.375000  0.275000  0.175000     12.000000
 -0.325000  0.275000  0.175000     12.000000
 -0.275000  0.275000  0.175000     12.000000
 -0.225000  0.275000  0.175000     12.000000
 -0.175000  0.275000  0.175000     12.000000
  0.325000  0.325000  0.175000      6.000000
  0.375000  0.325000  0.175000     12.000000
  0.425000  0.325000  0.175000     12.000000
  0.475000  0.325000  0.175000     12.000000
 -0.475000  0.325000  0.175000     12.000000
 -0.425000  0.325000  0.175000     12.000000
 -0.375000  0.325000  0.175000     12.000000
 -0.325000  0.325000  0.175000     12.000000
 -0.275000  0.325000  0.175000     12.000000
 -0.225000  0.325000  0.175000     12.000000
 -0.175000  0.325000  0.175000     12.000000
  0.375000  0.375000  0.175000      6.000000
  0.425000  0.375000  0.175000     12.000000
  0.475000  0.375000  0.175000     12.000000
 -0.475000  0.375000  0.175000     12.000000
 -0.425000  0.375000  0.175000     12.000000
 -0.375000  0.375000  0.175000     12.000000
 -0.325000  0.375000  0.175000     12.000000
 -0.275000  0.375000  0.175000     12.000000
 -0.225000  0.375000  0.175000     12.000000
 -0.175000  0.375000  0.175000     12.000000
  0.425000  0.425000  0.175000      6.000000
  0.475000  0.425000  0.175000     12.000000
 -0.475000  0.425000  0.175000     12.000000
 -0.425000  0.425000  0.175000     12.000000
 -0.375000  0.425000  0.175000     12.000000
 -0.325000  0.425000  0.175000     12.000000
 -0.275000  0.425000  0.175000     12.000000
 -0.225000  0.425000  0.175000     12.000000
 -0.175000  0.425000  0.175000     12.000000
  0.475000  0.475000  0.175000      6.000000
 -0.475000  0.475000  0.175000     12.000000
 -0.425000  0.475000  0.175000     12.000000
 -0.375000  0.475000  0.175000     12.000000
 -0.325000  0.475000  0.175000     12.000000
 -0.275000  0.475000  0.175000     12.000000
 -0.225000  0.475000  0.175000     12.000000
 -0.175000  0.475000  0.175000     12.000000
 -0.475000 -0.475000  0.175000      6.000000
 -0.425000 -0.475000  0.175000     12.000000
 -0.375000 -0.475000  0.175000     12.000000
 -0.325000 -0.475000  0.175000     12.000000
 -0.275000 -0.475000  0.175000     12.000000
 -0.225000 -0.475000  0.175000     12.000000
 -0.425000 -0.425000  0.175000      6.000000
 -0.375000 -0.425000  0.175000     12.000000
 -0.325000 -0.425000  0.175000     12.000000
 -0.275000 -0.425000  0.175000     12.000000
 -0.225000 -0.425000  0.175000     12.000000
 -0.375000 -0.375000  0.175000      6.000000
 -0.325000 -0.375000  0.175000     12.000000
 -0.275000 -0.375000  0.175000     12.000000
 -0.225000 -0.375000  0.175000     12.000000
 -0.325000 -0.325000  0.175000      6.000000
 -0.275000 -0.325000  0.175000     12.000000
 -0.225000 -0.325000  0.175000     12.000000
 -0.275000 -0.275000  0.175000      6.000000
 -0.225000 -0.275000  0.175000     12.000000
 -0.225000 -0.225000  0.175000      6.000000
  0.225000  0.225000  0.225000      2.000000
  0.275000  0.225000  0.225000      6.000000
  0.325000  0.225000  0.225000      6.000000
  0.375000  0.225000  0.225000      6.000000
  0.425000  0.225000  0.225000      6.000000
  0.475000  0.225000  0.225000      6.000000
 -0.475000  0.225000  0.225000      6.000000
 -0.425000  0.225000  0.225000      6.000000
 -0.375000  0.225000  0.225000      6.000000
 -0.325000  0.225000  0.225000      6.000000
 -0.275000  0.225000  0.225000      6.000000
 -0.225000  0.225000  0.225000      6.000000
  0.275000  0.275000  0.225000      6.000000
  0.325000  0.275000  0.225000     12.000000
  0.375000  0.275000  0.225000     12.000000
  0.425000  0.275000  0.225000     12.000000
  0.475000  0.275000  0.225000     12.000000
 -0.475000  0.275000  0.225000     12.000000
 -0.425000  0.275000  0.225000     12.000000
 -0.375000  0.275000  0.225000     12.000000
 -0.325000  0.275000  0.225000     12.000000
 -0.275000  0.275000  0.225000     12.000000
 -0.225000  0.275000  0.225000     12.000000
  0.325000  0.325000  0.225000      6.000000
  0.375000  0.325000  0.225000     12.000000
  0.425000  0.325000  0.225000     12.000000
  0.475000  0.325000  0.225000     12.000000
 -0.475000  0.325000  0.225000     12.000000
 -0.425000  0.325000  0.225000     12.000000
 -0.375000  0.325000  0.225000     12.000000
 -0.325000  0.325000  0.225000     12.000000
 -0.275000  0.325000  0.225000     12.000000
 -0.225000  0.325000  0.225000     12.000000
  0.375000  0.375000  0.225000      6.000000
  0.425000  0.375000  0.225000     12.000000
  0.475000  0.375000  0.225000     12.000000
 -0.475000  0.375000  0.225000     12.000000
 -0.425000  0.375000  0.225000     12.000000
 -0.375000  0.375000  0.225000     12.000000
 -0.325000  0.375000  0.225000     12.000000
 -0.275000  0.375000  0.225000     12.000000
 -0.225000  0.375000  0.225000     12.000000
  0.425000  0.425000  0.225000      6.000000
  0.475000  0.425000  0.225000     12.000000
 -0.475000  0.425000  0.225000     12.000000
 -0.425000  0.425000  0.225000     12.000000
 -0.375000  0.425000  0.225000     12.000000
 -0.325000  0.425000  0.225000     12.000000
 -0.275000  0.425000  0.225000     12.000000
 -0.225000  0.425000  0.225000     12.000000
  0.475000  0.475000  0.225000      6.000000
 -0.475000  0.475000  0.225000     12.000000
 -0.425000  0.475000  0.225000     12.000000
 -0.375000  0.475000  0.225000     12.000000
 -0.325000  0.475000  0.225000     12.000000
 -0.275000  0.475000  0.225000     12.000000
 -0.225000  0.475000  0.225000     12.000000
 -0.475000 -0.475000  0.225000      6.000000
 -0.425000 -0.475000  0.225000     12.000000
 -0.375000 -0.475000  0.225000     12.000000
 -0.325000 -0.475000  0.225000     12.000000
 -0.275000 -0.475000  0.225000     12.000000
 -0.425000 -0.425000  0.225000      6.000000
 -0.375000 -0.425000  0.225000     12.000000
 -0.325000 -0.425000  0.225000     12.000000
 -0.275000 -0.425000  0.225000     12.000000
 -0.375000 -0.375000  0.225000      6.000000
 -0.325000 -0.375000  0.225000     12.000000
 -0.275000 -0.375000  0.225000     12.000000
 -0.325000 -0.325000  0.225000      6.000000
 -0.275000 -0.325000  0.225000     12.000000
 -0.275000 -0.275000  0.225000      6.000000
  0.275000  0.275000  0.275000      2.000000
  0.325000  0.275000  0.275000      6.000000
  0.375000  0.275000  0.275000      6.000000
  0.425000  0.275000  0.275000      6.000000
  0.475000  0.275000  0.275000      6.000000
 -0.475000  0.275000  0.275000      6.000000
 -0.425000  0.275000  0.275000      6.000000
 -0.375000  0.275000  0.275000      6.000000
 -0.325000  0.275000  0.275000      6.000000
 -0.275000  0.275000  0.275000      6.000000
  0.325000  0.325000  0.275000      6.000000
  0.375000  0.325000  0.275000     12.000000
  0.425000  0.325000  0.275000     12.000000
  0.475000  0.325000  0.275000     12.000000
 -0.475000  0.325000  0.275000     12.000000
 -0.425000  0.325000  0.275000     12.000000
 -0.375000  0.325000  0.275000     12.000000
 -0.325000  0.325000  0.275000     12.000000
 -0.275000  0.325000  0.275000     12.000000
  0.375000  0.375000  0.275000      6.000000
  0.425000  0.375000  0.275000     12.000000
  0.475000  0.375000  0.275000     12.000000
 -0.475000  0.375000  0.275000     12.000000
 -0.425000  0.375000  0.275000     12.000000
 -0.375000  0.375000  0.275000     12.000000
 -0.325000  0.375000  0.275000     12.000000
 -0.275000  0.375000  0.275000     12.000000
  0.425000  0.425000  0.275000      6.000000
  0.475000  0.425000  0.275000     12.000000
 -0.475000  0.425000  0.275000     12.000000
 -0.425000  0.425000  0.275000     12.000000
 -0.375000  0.425000  0.275000     12.000000
 -0.325000  0.425000  0.275000     12.000000
 -0.275000  0.425000  0.275000     12.000000
  0.475000  0.475000  0.275000      6.000000
 -0.475000  0.475000  0.275000     12.000000
 -0.425000  0.475000  0.275000     12.000000
 -0.375000  0.475000  0.275000     12.000000
 -0.325000  0.475000  0.275000     12.000000
 -0.275000  0.475000  0.275000     12.000000
 -0.475000 -0.475000  0.275000      6.000000
 -0.425000 -0.475000  0.275000     12.000000
 -0.375000 -0.475000  0.275000     12.000000
 -0.325000 -0.475000  0.275000     12.000000
 -0.425000 -0.425000  0.275000      6.000000
 -0.375000 -0.425000  0.275000     12.000000
 -0.325000 -0.425000  0.275000     12.000000
 -0.375000 -0.375000  0.275000      6.000000
 -0.325000 -0.375000  0.275000     12.000000
 -0.325000 -0.325000  0.275000      6.000000
  0.325000  0.325000  0.325000      2.000000
  0.375000  0.325000  0.325000      6.000000
  0.425000  0.325000  0.325000      6.000000
  0.475000  0.325000  0.325000      6.000000
 -0.475000  0.325000  0.325000      6.000000
 -0.425000  0.325000  0.325000      6.000000
 -0.375000  0.325000  0.325000      6.000000
 -0.325000  0.325000  0.325000      6.000000
  0.375000  0.375000  0.325000      6.000000
  0.425000  0.375000  0.325000     12.000000
  0.475000  0.375000  0.325000     12.000000
 -0.475000  0.375000  0.325000     12.000000
 -0.425000  0.375000  0.325000     12.000000
 -0.375000  0.375000  0.325000     12.000000
 -0.325000  0.375000  0.325000     12.000000
  0.425000  0.425000  0.325000      6.000000
  0.475000  0.425000  0.325000     12.000000
 -0.475000  0.425000  0.325000     12.000000
 -0.425000  0.425000  0.325000     12.000000
 -0.375000  0.425000  0.325000     12.000000
 -0.325000  0.425000  0.325000     12.000000
  0.475000  0.475000  0.325000      6.000000
 -0.475000  0.475000  0.325000     12.000000
 -0.425000  0.475000  0.325000     12.000000
 -0.375000  0.475000  0.325000     12.000000
 -0.325000  0.475000  0.325000     12.000000
 -0.475000 -0.475000  0.325000      6.000000
 -0.425000 -0.475000  0.325000     12.000000
 -0.375000 -0.475000  0.325000     12.000000
 -0.425000 -0.425000  0.325000      6.000000
 -0.375000 -0.425000  0.325000     12.000000
 -0.375000 -0.375000  0.325000      6.000000
  0.375000  0.375000  0.375000      2.000000
  0.425000  0.375000  0.375000      6.000000
  0.475000  0.375000  0.375000      6.000000
 -0.475000  0.375000  0.375000      6.000000
 -0.425000  0.375000  0.375000      6.000000
 -0.375000  0.375000  0.375000      6.000000
  0.425000  0.425000  0.375000      6.000000
  0.475000  0.425000  0.375000     12.000000
 -0.475000  0.425000  0.375000     12.000000
 -0.425000  0.425000  0.375000     12.000000
 -0.375000  0.425000  0.375000     12.000000
  0.475000  0.475000  0.375000      6.000000
 -0.475000  0.475000  0.375000     12.000000
 -0.425000  0.475000  0.375000     12.000000
 -0.375000  0.475000  0.375000     12.000000
 -0.475000 -0.475000  0.375000      6.000000
 -0.425000 -0.475000  0.375000     12.000000
 -0.425000 -0.425000  0.375000      6.000000
  0.425000  0.425000  0.425000      2.000000
  0.475000  0.425000  0.425000      6.000000
 -0.475000  0.425000  0.425000      6.000000
 -0.425000  0.425000  0.425000      6.000000
  0.475000  0.475000  0.425000      6.000000
 -0.475000  0.475000  0.425000     12.000000
 -0.425000  0.475000  0.425000     12.000000
 -0.475000 -0.475000  0.425000      6.000000
  0.475000  0.475000  0.475000      2.000000
 -0.475000  0.475000  0.475000      6.000000
 
 Following cartesian coordinates:
            Coordinates               Weight
  0.012500  0.012500  0.012500      2.000000
  0.087500 -0.012500 -0.012500      6.000000
  0.162500 -0.037500 -0.037500      6.000000
  0.237500 -0.062500 -0.062500      6.000000
  0.312500 -0.087500 -0.087500      6.000000
  0.387500 -0.112500 -0.112500      6.000000
  0.462500 -0.137500 -0.137500      6.000000
  0.537500 -0.162500 -0.162500      6.000000
  0.612500 -0.187500 -0.187500      6.000000
  0.687500 -0.212500 -0.212500      6.000000
 -0.737500  0.262500  0.262500      6.000000
 -0.662500  0.237500  0.237500      6.000000
 -0.587500  0.212500  0.212500      6.000000
 -0.512500  0.187500  0.187500      6.000000
 -0.437500  0.162500  0.162500      6.000000
 -0.362500  0.137500  0.137500      6.000000
 -0.287500  0.112500  0.112500      6.000000
 -0.212500  0.087500  0.087500      6.000000
 -0.137500  0.062500  0.062500      6.000000
 -0.062500  0.037500  0.037500      6.000000
  0.062500  0.062500 -0.037500      6.000000
  0.137500  0.037500 -0.062500     12.000000
  0.212500  0.012500 -0.087500     12.000000
  0.287500 -0.012500 -0.112500     12.000000
  0.362500 -0.037500 -0.137500     12.000000
  0.437500 -0.062500 -0.162500     12.000000
  0.512500 -0.087500 -0.187500     12.000000
  0.587500 -0.112500 -0.212500     12.000000
  0.662500 -0.137500 -0.237500     12.000000
 -0.762500  0.337500  0.237500     12.000000
 -0.687500  0.312500  0.212500     12.000000
 -0.612500  0.287500  0.187500     12.000000
 -0.537500  0.262500  0.162500     12.000000
 -0.462500  0.237500  0.137500     12.000000
 -0.387500  0.212500  0.112500     12.000000
 -0.312500  0.187500  0.087500     12.000000
 -0.237500  0.162500  0.062500     12.000000
 -0.162500  0.137500  0.037500     12.000000
 -0.087500  0.112500  0.012500     12.000000
  0.112500  0.112500 -0.087500      6.000000
  0.187500  0.087500 -0.112500     12.000000
  0.262500  0.062500 -0.137500     12.000000
  0.337500  0.037500 -0.162500     12.000000
  0.412500  0.012500 -0.187500     12.000000
  0.487500 -0.012500 -0.212500     12.000000
  0.562500 -0.037500 -0.237500     12.000000
  0.637500 -0.062500 -0.262500     12.000000
 -0.787500  0.412500  0.212500     12.000000
 -0.712500  0.387500  0.187500     12.000000
 -0.637500  0.362500  0.162500     12.000000
 -0.562500  0.337500  0.137500     12.000000
 -0.487500  0.312500  0.112500     12.000000
 -0.412500  0.287500  0.087500     12.000000
 -0.337500  0.262500  0.062500     12.000000
 -0.262500  0.237500  0.037500     12.000000
 -0.187500  0.212500  0.012500     12.000000
 -0.112500  0.187500 -0.012500     12.000000
  0.162500  0.162500 -0.137500      6.000000
  0.237500  0.137500 -0.162500     12.000000
  0.312500  0.112500 -0.187500     12.000000
  0.387500  0.087500 -0.212500     12.000000
  0.462500  0.062500 -0.237500     12.000000
  0.537500  0.037500 -0.262500     12.000000
  0.612500  0.012500 -0.287500     12.000000
 -0.812500  0.487500  0.187500     12.000000
 -0.737500  0.462500  0.162500     12.000000
 -0.662500  0.437500  0.137500     12.000000
 -0.587500  0.412500  0.112500     12.000000
 -0.512500  0.387500  0.087500     12.000000
 -0.437500  0.362500  0.062500     12.000000
 -0.362500  0.337500  0.037500     12.000000
 -0.287500  0.312500  0.012500     12.000000
 -0.212500  0.287500 -0.012500     12.000000
 -0.137500  0.262500 -0.037500     12.000000
  0.212500  0.212500 -0.187500      6.000000
  0.287500  0.187500 -0.212500     12.000000
  0.362500  0.162500 -0.237500     12.000000
  0.437500  0.137500 -0.262500     12.000000
  0.512500  0.112500 -0.287500     12.000000
  0.587500  0.087500 -0.312500     12.000000
 -0.837500  0.562500  0.162500     12.000000
 -0.762500  0.537500  0.137500     12.000000
 -0.687500  0.512500  0.112500     12.000000
 -0.612500  0.487500  0.087500     12.000000
 -0.537500  0.462500  0.062500     12.000000
 -0.462500  0.437500  0.037500     12.000000
 -0.387500  0.412500  0.012500     12.000000
 -0.312500  0.387500 -0.012500     12.000000
 -0.237500  0.362500 -0.037500     12.000000
 -0.162500  0.337500 -0.062500     12.000000
  0.262500  0.262500 -0.237500      6.000000
  0.337500  0.237500 -0.262500     12.000000
  0.412500  0.212500 -0.287500     12.000000
  0.487500  0.187500 -0.312500     12.000000
  0.562500  0.162500 -0.337500     12.000000
 -0.862500  0.637500  0.137500     12.000000
 -0.787500  0.612500  0.112500     12.000000
 -0.712500  0.587500  0.087500     12.000000
 -0.637500  0.562500  0.062500     12.000000
 -0.562500  0.537500  0.037500     12.000000
 -0.487500  0.512500  0.012500     12.000000
 -0.412500  0.487500 -0.012500     12.000000
 -0.337500  0.462500 -0.037500     12.000000
 -0.262500  0.437500 -0.062500     12.000000
 -0.187500  0.412500 -0.087500     12.000000
  0.312500  0.312500 -0.287500      6.000000
  0.387500  0.287500 -0.312500     12.000000
  0.462500  0.262500 -0.337500     12.000000
  0.537500  0.237500 -0.362500     12.000000
 -0.887500  0.712500  0.112500     12.000000
 -0.812500  0.687500  0.087500     12.000000
 -0.737500  0.662500  0.062500     12.000000
 -0.662500  0.637500  0.037500     12.000000
 -0.587500  0.612500  0.012500     12.000000
 -0.512500  0.587500 -0.012500     12.000000
 -0.437500  0.562500 -0.037500     12.000000
 -0.362500  0.537500 -0.062500     12.000000
 -0.287500  0.512500 -0.087500     12.000000
 -0.212500  0.487500 -0.112500     12.000000
  0.362500  0.362500 -0.337500      6.000000
  0.437500  0.337500 -0.362500     12.000000
  0.512500  0.312500 -0.387500     12.000000
 -0.912500  0.787500  0.087500     12.000000
 -0.837500  0.762500  0.062500     12.000000
 -0.762500  0.737500  0.037500     12.000000
 -0.687500  0.712500  0.012500     12.000000
 -0.612500  0.687500 -0.012500     12.000000
 -0.537500  0.662500 -0.037500     12.000000
 -0.462500  0.637500 -0.062500     12.000000
 -0.387500  0.612500 -0.087500     12.000000
 -0.312500  0.587500 -0.112500     12.000000
 -0.237500  0.562500 -0.137500     12.000000
  0.412500  0.412500 -0.387500      6.000000
  0.487500  0.387500 -0.412500     12.000000
 -0.937500  0.862500  0.062500     12.000000
 -0.862500  0.837500  0.037500     12.000000
 -0.787500  0.812500  0.012500     12.000000
 -0.712500  0.787500 -0.012500     12.000000
 -0.637500  0.762500 -0.037500     12.000000
 -0.562500  0.737500 -0.062500     12.000000
 -0.487500  0.712500 -0.087500     12.000000
 -0.412500  0.687500 -0.112500     12.000000
 -0.337500  0.662500 -0.137500     12.000000
 -0.262500  0.637500 -0.162500     12.000000
  0.462500  0.462500 -0.437500      6.000000
 -0.962500  0.937500  0.037500     12.000000
 -0.887500  0.912500  0.012500     12.000000
 -0.812500  0.887500 -0.012500     12.000000
 -0.737500  0.862500 -0.037500     12.000000
 -0.662500  0.837500 -0.062500     12.000000
 -0.587500  0.812500 -0.087500     12.000000
 -0.512500  0.787500 -0.112500     12.000000
 -0.437500  0.762500 -0.137500     12.000000
 -0.362500  0.737500 -0.162500     12.000000
 -0.287500  0.712500 -0.187500     12.000000
 -0.487500 -0.487500  0.512500      6.000000
 -0.412500 -0.512500  0.487500     12.000000
 -0.337500 -0.537500  0.462500     12.000000
 -0.262500 -0.562500  0.437500     12.000000
 -0.187500 -0.587500  0.412500     12.000000
 -0.112500 -0.612500  0.387500     12.000000
 -0.037500 -0.637500  0.362500     12.000000
  0.037500 -0.662500  0.337500     12.000000
  0.112500 -0.687500  0.312500     12.000000
 -0.437500 -0.437500  0.462500      6.000000
 -0.362500 -0.462500  0.437500     12.000000
 -0.287500 -0.487500  0.412500     12.000000
 -0.212500 -0.512500  0.387500     12.000000
 -0.137500 -0.537500  0.362500     12.000000
 -0.062500 -0.562500  0.337500     12.000000
  0.012500 -0.587500  0.312500     12.000000
  0.087500 -0.612500  0.287500     12.000000
 -0.387500 -0.387500  0.412500      6.000000
 -0.312500 -0.412500  0.387500     12.000000
 -0.237500 -0.437500  0.362500     12.000000
 -0.162500 -0.462500  0.337500     12.000000
 -0.087500 -0.487500  0.312500     12.000000
 -0.012500 -0.512500  0.287500     12.000000
  0.062500 -0.537500  0.262500     12.000000
 -0.337500 -0.337500  0.362500      6.000000
 -0.262500 -0.362500  0.337500     12.000000
 -0.187500 -0.387500  0.312500     12.000000
 -0.112500 -0.412500  0.287500     12.000000
 -0.037500 -0.437500  0.262500     12.000000
  0.037500 -0.462500  0.237500     12.000000
 -0.287500 -0.287500  0.312500      6.000000
 -0.212500 -0.312500  0.287500     12.000000
 -0.137500 -0.337500  0.262500     12.000000
 -0.062500 -0.362500  0.237500     12.000000
  0.012500 -0.387500  0.212500     12.000000
 -0.237500 -0.237500  0.262500      6.000000
 -0.162500 -0.262500  0.237500     12.000000
 -0.087500 -0.287500  0.212500     12.000000
 -0.012500 -0.312500  0.187500     12.000000
 -0.187500 -0.187500  0.212500      6.000000
 -0.112500 -0.212500  0.187500     12.000000
 -0.037500 -0.237500  0.162500     12.000000
 -0.137500 -0.137500  0.162500      6.000000
 -0.062500 -0.162500  0.137500     12.000000
 -0.087500 -0.087500  0.112500      6.000000
  0.037500  0.037500  0.037500      2.000000
  0.112500  0.012500  0.012500      6.000000
  0.187500 -0.012500 -0.012500      6.000000
  0.262500 -0.037500 -0.037500      6.000000
  0.337500 -0.062500 -0.062500      6.000000
  0.412500 -0.087500 -0.087500      6.000000
  0.487500 -0.112500 -0.112500      6.000000
  0.562500 -0.137500 -0.137500      6.000000
  0.637500 -0.162500 -0.162500      6.000000
 -0.787500  0.312500  0.312500      6.000000
 -0.712500  0.287500  0.287500      6.000000
 -0.637500  0.262500  0.262500      6.000000
 -0.562500  0.237500  0.237500      6.000000
 -0.487500  0.212500  0.212500      6.000000
 -0.412500  0.187500  0.187500      6.000000
 -0.337500  0.162500  0.162500      6.000000
 -0.262500  0.137500  0.137500      6.000000
 -0.187500  0.112500  0.112500      6.000000
  0.087500  0.087500 -0.012500      6.000000
  0.162500  0.062500 -0.037500     12.000000
  0.237500  0.037500 -0.062500     12.000000
  0.312500  0.012500 -0.087500     12.000000
  0.387500 -0.012500 -0.112500     12.000000
  0.462500 -0.037500 -0.137500     12.000000
  0.537500 -0.062500 -0.162500     12.000000
  0.612500 -0.087500 -0.187500     12.000000
 -0.812500  0.387500  0.287500     12.000000
 -0.737500  0.362500  0.262500     12.000000
 -0.662500  0.337500  0.237500     12.000000
 -0.587500  0.312500  0.212500     12.000000
 -0.512500  0.287500  0.187500     12.000000
 -0.437500  0.262500  0.162500     12.000000
 -0.362500  0.237500  0.137500     12.000000
 -0.287500  0.212500  0.112500     12.000000
 -0.212500  0.187500  0.087500     12.000000
  0.137500  0.137500 -0.062500      6.000000
  0.212500  0.112500 -0.087500     12.000000
  0.287500  0.087500 -0.112500     12.000000
  0.362500  0.062500 -0.137500     12.000000
  0.437500  0.037500 -0.162500     12.000000
  0.512500  0.012500 -0.187500     12.000000
  0.587500 -0.012500 -0.212500     12.000000
 -0.837500  0.462500  0.262500     12.000000
 -0.762500  0.437500  0.237500     12.000000
 -0.687500  0.412500  0.212500     12.000000
 -0.612500  0.387500  0.187500     12.000000
 -0.537500  0.362500  0.162500     12.000000
 -0.462500  0.337500  0.137500     12.000000
 -0.387500  0.312500  0.112500     12.000000
 -0.312500  0.287500  0.087500     12.000000
 -0.237500  0.262500  0.062500     12.000000
  0.187500  0.187500 -0.112500      6.000000
  0.262500  0.162500 -0.137500     12.000000
  0.337500  0.137500 -0.162500     12.000000
  0.412500  0.112500 -0.187500     12.000000
  0.487500  0.087500 -0.212500     12.000000
  0.562500  0.062500 -0.237500     12.000000
 -0.862500  0.537500  0.237500     12.000000
 -0.787500  0.512500  0.212500     12.000000
 -0.712500  0.487500  0.187500     12.000000
 -0.637500  0.462500  0.162500     12.000000
 -0.562500  0.437500  0.137500     12.000000
 -0.487500  0.412500  0.112500     12.000000
 -0.412500  0.387500  0.087500     12.000000
 -0.337500  0.362500  0.062500     12.000000
 -0.262500  0.337500  0.037500     12.000000
  0.237500  0.237500 -0.162500      6.000000
  0.312500  0.212500 -0.187500     12.000000
  0.387500  0.187500 -0.212500     12.000000
  0.462500  0.162500 -0.237500     12.000000
  0.537500  0.137500 -0.262500     12.000000
 -0.887500  0.612500  0.212500     12.000000
 -0.812500  0.587500  0.187500     12.000000
 -0.737500  0.562500  0.162500     12.000000
 -0.662500  0.537500  0.137500     12.000000
 -0.587500  0.512500  0.112500     12.000000
 -0.512500  0.487500  0.087500     12.000000
 -0.437500  0.462500  0.062500     12.000000
 -0.362500  0.437500  0.037500     12.000000
 -0.287500  0.412500  0.012500     12.000000
  0.287500  0.287500 -0.212500      6.000000
  0.362500  0.262500 -0.237500     12.000000
  0.437500  0.237500 -0.262500     12.000000
  0.512500  0.212500 -0.287500     12.000000
 -0.912500  0.687500  0.187500     12.000000
 -0.837500  0.662500  0.162500     12.000000
 -0.762500  0.637500  0.137500     12.000000
 -0.687500  0.612500  0.112500     12.000000
 -0.612500  0.587500  0.087500     12.000000
 -0.537500  0.562500  0.062500     12.000000
 -0.462500  0.537500  0.037500     12.000000
 -0.387500  0.512500  0.012500     12.000000
 -0.312500  0.487500 -0.012500     12.000000
  0.337500  0.337500 -0.262500      6.000000
  0.412500  0.312500 -0.287500     12.000000
  0.487500  0.287500 -0.312500     12.000000
 -0.937500  0.762500  0.162500     12.000000
 -0.862500  0.737500  0.137500     12.000000
 -0.787500  0.712500  0.112500     12.000000
 -0.712500  0.687500  0.087500     12.000000
 -0.637500  0.662500  0.062500     12.000000
 -0.562500  0.637500  0.037500     12.000000
 -0.487500  0.612500  0.012500     12.000000
 -0.412500  0.587500 -0.012500     12.000000
 -0.337500  0.562500 -0.037500     12.000000
  0.387500  0.387500 -0.312500      6.000000
  0.462500  0.362500 -0.337500     12.000000
 -0.962500  0.837500  0.137500     12.000000
 -0.887500  0.812500  0.112500     12.000000
 -0.812500  0.787500  0.087500     12.000000
 -0.737500  0.762500  0.062500     12.000000
 -0.662500  0.737500  0.037500     12.000000
 -0.587500  0.712500  0.012500     12.000000
 -0.512500  0.687500 -0.012500     12.000000
 -0.437500  0.662500 -0.037500     12.000000
 -0.362500  0.637500 -0.062500     12.000000
  0.437500  0.437500 -0.362500      6.000000
 -0.987500  0.912500  0.112500     12.000000
 -0.912500  0.887500  0.087500     12.000000
 -0.837500  0.862500  0.062500     12.000000
 -0.762500  0.837500  0.037500     12.000000
 -0.687500  0.812500  0.012500     12.000000
 -0.612500  0.787500 -0.012500     12.000000
 -0.537500  0.762500 -0.037500     12.000000
 -0.462500  0.737500 -0.062500     12.000000
 -0.387500  0.712500 -0.087500     12.000000
 -0.512500 -0.512500  0.587500      6.000000
 -0.437500 -0.537500  0.562500     12.000000
 -0.362500 -0.562500  0.537500     12.000000
 -0.287500 -0.587500  0.512500     12.000000
 -0.212500 -0.612500  0.487500     12.000000
 -0.137500 -0.637500  0.462500     12.000000
 -0.062500 -0.662500  0.437500     12.000000
  0.012500 -0.687500  0.412500     12.000000
 -0.462500 -0.462500  0.537500      6.000000
 -0.387500 -0.487500  0.512500     12.000000
 -0.312500 -0.512500  0.487500     12.000000
 -0.237500 -0.537500  0.462500     12.000000
 -0.162500 -0.562500  0.437500     12.000000
 -0.087500 -0.587500  0.412500     12.000000
 -0.012500 -0.612500  0.387500     12.000000
 -0.412500 -0.412500  0.487500      6.000000
 -0.337500 -0.437500  0.462500     12.000000
 -0.262500 -0.462500  0.437500     12.000000
 -0.187500 -0.487500  0.412500     12.000000
 -0.112500 -0.512500  0.387500     12.000000
 -0.037500 -0.537500  0.362500     12.000000
 -0.362500 -0.362500  0.437500      6.000000
 -0.287500 -0.387500  0.412500     12.000000
 -0.212500 -0.412500  0.387500     12.000000
 -0.137500 -0.437500  0.362500     12.000000
 -0.062500 -0.462500  0.337500     12.000000
 -0.312500 -0.312500  0.387500      6.000000
 -0.237500 -0.337500  0.362500     12.000000
 -0.162500 -0.362500  0.337500     12.000000
 -0.087500 -0.387500  0.312500     12.000000
 -0.262500 -0.262500  0.337500      6.000000
 -0.187500 -0.287500  0.312500     12.000000
 -0.112500 -0.312500  0.287500     12.000000
 -0.212500 -0.212500  0.287500      6.000000
 -0.137500 -0.237500  0.262500     12.000000
 -0.162500 -0.162500  0.237500      6.000000
  0.062500  0.062500  0.062500      2.000000
  0.137500  0.037500  0.037500      6.000000
  0.212500  0.012500  0.012500      6.000000
  0.287500 -0.012500 -0.012500      6.000000
  0.362500 -0.037500 -0.037500      6.000000
  0.437500 -0.062500 -0.062500      6.000000
  0.512500 -0.087500 -0.087500      6.000000
  0.587500 -0.112500 -0.112500      6.000000
 -0.837500  0.362500  0.362500      6.000000
 -0.762500  0.337500  0.337500      6.000000
 -0.687500  0.312500  0.312500      6.000000
 -0.612500  0.287500  0.287500      6.000000
 -0.537500  0.262500  0.262500      6.000000
 -0.462500  0.237500  0.237500      6.000000
 -0.387500  0.212500  0.212500      6.000000
 -0.312500  0.187500  0.187500      6.000000
  0.112500  0.112500  0.012500      6.000000
  0.187500  0.087500 -0.012500     12.000000
  0.262500  0.062500 -0.037500     12.000000
  0.337500  0.037500 -0.062500     12.000000
  0.412500  0.012500 -0.087500     12.000000
  0.487500 -0.012500 -0.112500     12.000000
  0.562500 -0.037500 -0.137500     12.000000
 -0.862500  0.437500  0.337500     12.000000
 -0.787500  0.412500  0.312500     12.000000
 -0.712500  0.387500  0.287500     12.000000
 -0.637500  0.362500  0.262500     12.000000
 -0.562500  0.337500  0.237500     12.000000
 -0.487500  0.312500  0.212500     12.000000
 -0.412500  0.287500  0.187500     12.000000
 -0.337500  0.262500  0.162500     12.000000
  0.162500  0.162500 -0.037500      6.000000
  0.237500  0.137500 -0.062500     12.000000
  0.312500  0.112500 -0.087500     12.000000
  0.387500  0.087500 -0.112500     12.000000
  0.462500  0.062500 -0.137500     12.000000
  0.537500  0.037500 -0.162500     12.000000
 -0.887500  0.512500  0.312500     12.000000
 -0.812500  0.487500  0.287500     12.000000
 -0.737500  0.462500  0.262500     12.000000
 -0.662500  0.437500  0.237500     12.000000
 -0.587500  0.412500  0.212500     12.000000
 -0.512500  0.387500  0.187500     12.000000
 -0.437500  0.362500  0.162500     12.000000
 -0.362500  0.337500  0.137500     12.000000
  0.212500  0.212500 -0.087500      6.000000
  0.287500  0.187500 -0.112500     12.000000
  0.362500  0.162500 -0.137500     12.000000
  0.437500  0.137500 -0.162500     12.000000
  0.512500  0.112500 -0.187500     12.000000
 -0.912500  0.587500  0.287500     12.000000
 -0.837500  0.562500  0.262500     12.000000
 -0.762500  0.537500  0.237500     12.000000
 -0.687500  0.512500  0.212500     12.000000
 -0.612500  0.487500  0.187500     12.000000
 -0.537500  0.462500  0.162500     12.000000
 -0.462500  0.437500  0.137500     12.000000
 -0.387500  0.412500  0.112500     12.000000
  0.262500  0.262500 -0.137500      6.000000
  0.337500  0.237500 -0.162500     12.000000
  0.412500  0.212500 -0.187500     12.000000
  0.487500  0.187500 -0.212500     12.000000
 -0.937500  0.662500  0.262500     12.000000
 -0.862500  0.637500  0.237500     12.000000
 -0.787500  0.612500  0.212500     12.000000
 -0.712500  0.587500  0.187500     12.000000
 -0.637500  0.562500  0.162500     12.000000
 -0.562500  0.537500  0.137500     12.000000
 -0.487500  0.512500  0.112500     12.000000
 -0.412500  0.487500  0.087500     12.000000
  0.312500  0.312500 -0.187500      6.000000
  0.387500  0.287500 -0.212500     12.000000
  0.462500  0.262500 -0.237500     12.000000
 -0.962500  0.737500  0.237500     12.000000
 -0.887500  0.712500  0.212500     12.000000
 -0.812500  0.687500  0.187500     12.000000
 -0.737500  0.662500  0.162500     12.000000
 -0.662500  0.637500  0.137500     12.000000
 -0.587500  0.612500  0.112500     12.000000
 -0.512500  0.587500  0.087500     12.000000
 -0.437500  0.562500  0.062500     12.000000
  0.362500  0.362500 -0.237500      6.000000
  0.437500  0.337500 -0.262500     12.000000
 -0.987500  0.812500  0.212500     12.000000
 -0.912500  0.787500  0.187500     12.000000
 -0.837500  0.762500  0.162500     12.000000
 -0.762500  0.737500  0.137500     12.000000
 -0.687500  0.712500  0.112500     12.000000
 -0.612500  0.687500  0.087500     12.000000
 -0.537500  0.662500  0.062500     12.000000
 -0.462500  0.637500  0.037500     12.000000
  0.412500  0.412500 -0.287500      6.000000
 -1.012500  0.887500  0.187500     12.000000
 -0.937500  0.862500  0.162500     12.000000
 -0.862500  0.837500  0.137500     12.000000
 -0.787500  0.812500  0.112500     12.000000
 -0.712500  0.787500  0.087500     12.000000
 -0.637500  0.762500  0.062500     12.000000
 -0.562500  0.737500  0.037500     12.000000
 -0.487500  0.712500  0.012500     12.000000
 -0.537500 -0.537500  0.662500      6.000000
 -0.462500 -0.562500  0.637500     12.000000
 -0.387500 -0.587500  0.612500     12.000000
 -0.312500 -0.612500  0.587500     12.000000
 -0.237500 -0.637500  0.562500     12.000000
 -0.162500 -0.662500  0.537500     12.000000
 -0.087500 -0.687500  0.512500     12.000000
 -0.487500 -0.487500  0.612500      6.000000
 -0.412500 -0.512500  0.587500     12.000000
 -0.337500 -0.537500  0.562500     12.000000
 -0.262500 -0.562500  0.537500     12.000000
 -0.187500 -0.587500  0.512500     12.000000
 -0.112500 -0.612500  0.487500     12.000000
 -0.437500 -0.437500  0.562500      6.000000
 -0.362500 -0.462500  0.537500     12.000000
 -0.287500 -0.487500  0.512500     12.000000
 -0.212500 -0.512500  0.487500     12.000000
 -0.137500 -0.537500  0.462500     12.000000
 -0.387500 -0.387500  0.512500      6.000000
 -0.312500 -0.412500  0.487500     12.000000
 -0.237500 -0.437500  0.462500     12.000000
 -0.162500 -0.462500  0.437500     12.000000
 -0.337500 -0.337500  0.462500      6.000000
 -0.262500 -0.362500  0.437500     12.000000
 -0.187500 -0.387500  0.412500     12.000000
 -0.287500 -0.287500  0.412500      6.000000
 -0.212500 -0.312500  0.387500     12.000000
 -0.237500 -0.237500  0.362500      6.000000
  0.087500  0.087500  0.087500      2.000000
  0.162500  0.062500  0.062500      6.000000
  0.237500  0.037500  0.037500      6.000000
  0.312500  0.012500  0.012500      6.000000
  0.387500 -0.012500 -0.012500      6.000000
  0.462500 -0.037500 -0.037500      6.000000
  0.537500 -0.062500 -0.062500      6.000000
 -0.887500  0.412500  0.412500      6.000000
 -0.812500  0.387500  0.387500      6.000000
 -0.737500  0.362500  0.362500      6.000000
 -0.662500  0.337500  0.337500      6.000000
 -0.587500  0.312500  0.312500      6.000000
 -0.512500  0.287500  0.287500      6.000000
 -0.437500  0.262500  0.262500      6.000000
  0.137500  0.137500  0.037500      6.000000
  0.212500  0.112500  0.012500     12.000000
  0.287500  0.087500 -0.012500     12.000000
  0.362500  0.062500 -0.037500     12.000000
  0.437500  0.037500 -0.062500     12.000000
  0.512500  0.012500 -0.087500     12.000000
 -0.912500  0.487500  0.387500     12.000000
 -0.837500  0.462500  0.362500     12.000000
 -0.762500  0.437500  0.337500     12.000000
 -0.687500  0.412500  0.312500     12.000000
 -0.612500  0.387500  0.287500     12.000000
 -0.537500  0.362500  0.262500     12.000000
 -0.462500  0.337500  0.237500     12.000000
  0.187500  0.187500 -0.012500      6.000000
  0.262500  0.162500 -0.037500     12.000000
  0.337500  0.137500 -0.062500     12.000000
  0.412500  0.112500 -0.087500     12.000000
  0.487500  0.087500 -0.112500     12.000000
 -0.937500  0.562500  0.362500     12.000000
 -0.862500  0.537500  0.337500     12.000000
 -0.787500  0.512500  0.312500     12.000000
 -0.712500  0.487500  0.287500     12.000000
 -0.637500  0.462500  0.262500     12.000000
 -0.562500  0.437500  0.237500     12.000000
 -0.487500  0.412500  0.212500     12.000000
  0.237500  0.237500 -0.062500      6.000000
  0.312500  0.212500 -0.087500     12.000000
  0.387500  0.187500 -0.112500     12.000000
  0.462500  0.162500 -0.137500     12.000000
 -0.962500  0.637500  0.337500     12.000000
 -0.887500  0.612500  0.312500     12.000000
 -0.812500  0.587500  0.287500     12.000000
 -0.737500  0.562500  0.262500     12.000000
 -0.662500  0.537500  0.237500     12.000000
 -0.587500  0.512500  0.212500     12.000000
 -0.512500  0.487500  0.187500     12.000000
  0.287500  0.287500 -0.112500      6.000000
  0.362500  0.262500 -0.137500     12.000000
  0.437500  0.237500 -0.162500     12.000000
 -0.987500  0.712500  0.312500     12.000000
 -0.912500  0.687500  0.287500     12.000000
 -0.837500  0.662500  0.262500     12.000000
 -0.762500  0.637500  0.237500     12.000000
 -0.687500  0.612500  0.212500     12.000000
 -0.612500  0.587500  0.187500     12.000000
 -0.537500  0.562500  0.162500     12.000000
  0.337500  0.337500 -0.162500      6.000000
  0.412500  0.312500 -0.187500     12.000000
 -1.012500  0.787500  0.287500     12.000000
 -0.937500  0.762500  0.262500     12.000000
 -0.862500  0.737500  0.237500     12.000000
 -0.787500  0.712500  0.212500     12.000000
 -0.712500  0.687500  0.187500     12.000000
 -0.637500  0.662500  0.162500     12.000000
 -0.562500  0.637500  0.137500     12.000000
  0.387500  0.387500 -0.212500      6.000000
 -1.037500  0.862500  0.262500     12.000000
 -0.962500  0.837500  0.237500     12.000000
 -0.887500  0.812500  0.212500     12.000000
 -0.812500  0.787500  0.187500     12.000000
 -0.737500  0.762500  0.162500     12.000000
 -0.662500  0.737500  0.137500     12.000000
 -0.587500  0.712500  0.112500     12.000000
 -0.562500 -0.562500  0.737500      6.000000
 -0.487500 -0.587500  0.712500     12.000000
 -0.412500 -0.612500  0.687500     12.000000
 -0.337500 -0.637500  0.662500     12.000000
 -0.262500 -0.662500  0.637500     12.000000
 -0.187500 -0.687500  0.612500     12.000000
 -0.512500 -0.512500  0.687500      6.000000
 -0.437500 -0.537500  0.662500     12.000000
 -0.362500 -0.562500  0.637500     12.000000
 -0.287500 -0.587500  0.612500     12.000000
 -0.212500 -0.612500  0.587500     12.000000
 -0.462500 -0.462500  0.637500      6.000000
 -0.387500 -0.487500  0.612500     12.000000
 -0.312500 -0.512500  0.587500     12.000000
 -0.237500 -0.537500  0.562500     12.000000
 -0.412500 -0.412500  0.587500      6.000000
 -0.337500 -0.437500  0.562500     12.000000
 -0.262500 -0.462500  0.537500     12.000000
 -0.362500 -0.362500  0.537500      6.000000
 -0.287500 -0.387500  0.512500     12.000000
 -0.312500 -0.312500  0.487500      6.000000
  0.112500  0.112500  0.112500      2.000000
  0.187500  0.087500  0.087500      6.000000
  0.262500  0.062500  0.062500      6.000000
  0.337500  0.037500  0.037500      6.000000
  0.412500  0.012500  0.012500      6.000000
  0.487500 -0.012500 -0.012500      6.000000
 -0.937500  0.462500  0.462500      6.000000
 -0.862500  0.437500  0.437500      6.000000
 -0.787500  0.412500  0.412500      6.000000
 -0.712500  0.387500  0.387500      6.000000
 -0.637500  0.362500  0.362500      6.000000
 -0.562500  0.337500  0.337500      6.000000
  0.162500  0.162500  0.062500      6.000000
  0.237500  0.137500  0.037500     12.000000
  0.312500  0.112500  0.012500     12.000000
  0.387500  0.087500 -0.012500     12.000000
  0.462500  0.062500 -0.037500     12.000000
 -0.962500  0.537500  0.437500     12.000000
 -0.887500  0.512500  0.412500     12.000000
 -0.812500  0.487500  0.387500     12.000000
 -0.737500  0.462500  0.362500     12.000000
 -0.662500  0.437500  0.337500     12.000000
 -0.587500  0.412500  0.312500     12.000000
  0.212500  0.212500  0.012500      6.000000
  0.287500  0.187500 -0.012500     12.000000
  0.362500  0.162500 -0.037500     12.000000
  0.437500  0.137500 -0.062500     12.000000
 -0.987500  0.612500  0.412500     12.000000
 -0.912500  0.587500  0.387500     12.000000
 -0.837500  0.562500  0.362500     12.000000
 -0.762500  0.537500  0.337500     12.000000
 -0.687500  0.512500  0.312500     12.000000
 -0.612500  0.487500  0.287500     12.000000
  0.262500  0.262500 -0.037500      6.000000
  0.337500  0.237500 -0.062500     12.000000
  0.412500  0.212500 -0.087500     12.000000
 -1.012500  0.687500  0.387500     12.000000
 -0.937500  0.662500  0.362500     12.000000
 -0.862500  0.637500  0.337500     12.000000
 -0.787500  0.612500  0.312500     12.000000
 -0.712500  0.587500  0.287500     12.000000
 -0.637500  0.562500  0.262500     12.000000
  0.312500  0.312500 -0.087500      6.000000
  0.387500  0.287500 -0.112500     12.000000
 -1.037500  0.762500  0.362500     12.000000
 -0.962500  0.737500  0.337500     12.000000
 -0.887500  0.712500  0.312500     12.000000
 -0.812500  0.687500  0.287500     12.000000
 -0.737500  0.662500  0.262500     12.000000
 -0.662500  0.637500  0.237500     12.000000
  0.362500  0.362500 -0.137500      6.000000
 -1.062500  0.837500  0.337500     12.000000
 -0.987500  0.812500  0.312500     12.000000
 -0.912500  0.787500  0.287500     12.000000
 -0.837500  0.762500  0.262500     12.000000
 -0.762500  0.737500  0.237500     12.000000
 -0.687500  0.712500  0.212500     12.000000
 -0.587500 -0.587500  0.812500      6.000000
 -0.512500 -0.612500  0.787500     12.000000
 -0.437500 -0.637500  0.762500     12.000000
 -0.362500 -0.662500  0.737500     12.000000
 -0.287500 -0.687500  0.712500     12.000000
 -0.537500 -0.537500  0.762500      6.000000
 -0.462500 -0.562500  0.737500     12.000000
 -0.387500 -0.587500  0.712500     12.000000
 -0.312500 -0.612500  0.687500     12.000000
 -0.487500 -0.487500  0.712500      6.000000
 -0.412500 -0.512500  0.687500     12.000000
 -0.337500 -0.537500  0.662500     12.000000
 -0.437500 -0.437500  0.662500      6.000000
 -0.362500 -0.462500  0.637500     12.000000
 -0.387500 -0.387500  0.612500      6.000000
  0.137500  0.137500  0.137500      2.000000
  0.212500  0.112500  0.112500      6.000000
  0.287500  0.087500  0.087500      6.000000
  0.362500  0.062500  0.062500      6.000000
  0.437500  0.037500  0.037500      6.000000
 -0.987500  0.512500  0.512500      6.000000
 -0.912500  0.487500  0.487500      6.000000
 -0.837500  0.462500  0.462500      6.000000
 -0.762500  0.437500  0.437500      6.000000
 -0.687500  0.412500  0.412500      6.000000
  0.187500  0.187500  0.087500      6.000000
  0.262500  0.162500  0.062500     12.000000
  0.337500  0.137500  0.037500     12.000000
  0.412500  0.112500  0.012500     12.000000
 -1.012500  0.587500  0.487500     12.000000
 -0.937500  0.562500  0.462500     12.000000
 -0.862500  0.537500  0.437500     12.000000
 -0.787500  0.512500  0.412500     12.000000
 -0.712500  0.487500  0.387500     12.000000
  0.237500  0.237500  0.037500      6.000000
  0.312500  0.212500  0.012500     12.000000
  0.387500  0.187500 -0.012500     12.000000
 -1.037500  0.662500  0.462500     12.000000
 -0.962500  0.637500  0.437500     12.000000
 -0.887500  0.612500  0.412500     12.000000
 -0.812500  0.587500  0.387500     12.000000
 -0.737500  0.562500  0.362500     12.000000
  0.287500  0.287500 -0.012500      6.000000
  0.362500  0.262500 -0.037500     12.000000
 -1.062500  0.737500  0.437500     12.000000
 -0.987500  0.712500  0.412500     12.000000
 -0.912500  0.687500  0.387500     12.000000
 -0.837500  0.662500  0.362500     12.000000
 -0.762500  0.637500  0.337500     12.000000
  0.337500  0.337500 -0.062500      6.000000
 -1.087500  0.812500  0.412500     12.000000
 -1.012500  0.787500  0.387500     12.000000
 -0.937500  0.762500  0.362500     12.000000
 -0.862500  0.737500  0.337500     12.000000
 -0.787500  0.712500  0.312500     12.000000
 -0.612500 -0.612500  0.887500      6.000000
 -0.537500 -0.637500  0.862500     12.000000
 -0.462500 -0.662500  0.837500     12.000000
 -0.387500 -0.687500  0.812500     12.000000
 -0.562500 -0.562500  0.837500      6.000000
 -0.487500 -0.587500  0.812500     12.000000
 -0.412500 -0.612500  0.787500     12.000000
 -0.512500 -0.512500  0.787500      6.000000
 -0.437500 -0.537500  0.762500     12.000000
 -0.462500 -0.462500  0.737500      6.000000
  0.162500  0.162500  0.162500      2.000000
  0.237500  0.137500  0.137500      6.000000
  0.312500  0.112500  0.112500      6.000000
  0.387500  0.087500  0.087500      6.000000
 -1.037500  0.562500  0.562500      6.000000
 -0.962500  0.537500  0.537500      6.000000
 -0.887500  0.512500  0.512500      6.000000
 -0.812500  0.487500  0.487500      6.000000
  0.212500  0.212500  0.112500      6.000000
  0.287500  0.187500  0.087500     12.000000
[...]
     14       2.3404      1.00000
     15       2.9267      1.00000
     16       3.2851      1.00000
     17       7.3887      0.00000
     18       7.7847      0.00000
     19      10.5340      0.00000
     20      10.6455      0.00000

 k-point   768 :      -0.4750   -0.4750    0.4250
  band No.  band energies     occupation 
      1     -13.9856      1.00000
      2     -13.9556      1.00000
      3      -2.9451      1.00000
      4      -2.7759      1.00000
      5      -2.0597      1.00000
      6      -1.3264      1.00000
      7      -1.0958      1.00000
      8      -1.0262      1.00000
      9      -0.3583      1.00000
     10      -0.0411      1.00000
     11       0.9202      1.00000
     12       1.5318      1.00000
     13       2.1318      1.00000
     14       2.2922      1.00000
     15       3.1223      1.00000
     16       3.3892      1.00000
     17       7.4796      0.00000
     18       7.7695      0.00000
     19      10.2042      0.00000
     20      10.3785      0.00000

 k-point   769 :       0.4750    0.4750    0.4750
  band No.  band energies     occupation 
      1     -14.0955      1.00000
      2     -13.9818      1.00000
      3      -2.7974      1.00000
      4      -2.7974      1.00000
      5      -2.1702      1.00000
      6      -1.5178      1.00000
      7      -1.0195      1.00000
      8      -1.0195      1.00000
      9      -0.0920      1.00000
     10      -0.0920      1.00000
     11       0.9973      1.00000
     12       1.5387      1.00000
     13       2.1384      1.00000
     14       2.1384      1.00000
     15       3.5034      1.00000
     16       3.5034      1.00000
     17       7.7262      0.00000
     18       7.7262      0.00000
     19       9.6315      0.00000
     20       9.9520      0.00000

 k-point   770 :      -0.4750    0.4750    0.4750
  band No.  band energies     occupation 
      1     -14.0410      1.00000
      2     -14.0018      1.00000
      3      -2.8416      1.00000
      4      -2.7915      1.00000
      5      -2.1258      1.00000
      6      -1.4721      1.00000
      7      -1.0396      1.00000
      8      -1.0220      1.00000
      9      -0.1657      1.00000
     10      -0.0794      1.00000
     11       0.9704      1.00000
     12       1.5373      1.00000
     13       2.1410      1.00000
     14       2.1792      1.00000
     15       3.4068      1.00000
     16       3.4681      1.00000
     17       7.6405      0.00000
     18       7.7402      0.00000
     19       9.8858      0.00000
     20       9.9868      0.00000


--------------------------------------------------------------------------------------------------------


 soft charge-density along one line, spin component           1
         0         1         2         3         4         5         6         7         8         9
 total charge-density along one line
 
 soft charge-density along one line, spin component           2
         0         1         2         3         4         5         6         7         8         9
 total charge-density along one line
 
 pseudopotential strength for first ion, spin component:           1
 -9.000  -0.000  -0.000  -0.000   0.002   0.000  -0.000  -0.000   0.000   0.000   0.263   0.000   0.000   0.000  -0.001  -0.000
 -0.000   0.000  -9.000  -0.000  -0.001  -0.000  -0.000  -0.000   0.001   0.000   0.000  -0.000   0.263   0.000   0.001   0.000
  0.002  -0.000  -0.001   0.000 -10.052  -0.000  -0.001  -0.000  -0.000  -0.000  -0.001   0.000   0.001  -0.000   0.651   0.000
 -0.000   0.000  -0.000   0.000  -0.001   0.000  -9.000  -0.000  -0.001  -0.000   0.000  -0.000   0.000  -0.000   0.001  -0.000
  0.000  -0.000   0.001  -0.000  -0.000   0.000  -0.001   0.000 -10.052  -0.000  -0.000   0.000  -0.001   0.000  -0.000  -0.000
  0.263   0.000   0.000   0.000  -0.001  -0.000   0.000   0.000  -0.000  -0.000   0.858  -0.000   0.000  -0.000   0.000   0.000
  0.000  -0.000   0.263   0.000   0.001   0.000   0.000   0.000  -0.001  -0.000   0.000   0.000   0.858  -0.000  -0.000  -0.000
 -0.001   0.000   0.001  -0.000   0.651   0.000   0.001   0.000  -0.000   0.000   0.000  -0.000  -0.000   0.000   0.664  -0.000
  0.000  -0.000   0.000  -0.000   0.001  -0.000   0.263   0.000   0.001   0.000   0.000   0.000   0.000   0.000  -0.000   0.000
 -0.000   0.000  -0.001   0.000  -0.000  -0.000   0.001  -0.000   0.651   0.000   0.000  -0.000   0.000  -0.000   0.000   0.000
  0.001   0.000   0.001   0.000  -0.000   0.000   0.001   0.000   0.000   0.000  -0.000   0.000  -0.000   0.000  -0.000   0.000
 -0.000   0.000  -0.000   0.000   0.000   0.000  -0.000   0.000  -0.000   0.000   0.000   0.000   0.000   0.000  -0.000   0.000
 -0.000   0.000   0.000   0.000  -0.000   0.000   0.000   0.000  -0.000   0.000   0.000   0.000  -0.000   0.000   0.000   0.000
  0.000   0.000   0.000   0.000   0.000   0.000  -0.000   0.000  -0.000   0.000   0.000   0.000  -0.000   0.000  -0.000   0.000
  0.000   0.000   0.000   0.000   0.000   0.000   0.000   0.000  -0.000   0.000  -0.000   0.000   0.000   0.000  -0.000   0.000
 -0.000   0.000  -0.000   0.000   0.000   0.000  -0.000   0.000   0.000   0.000   0.000   0.000   0.000   0.000  -0.000   0.000
 -0.000   0.000  -0.000   0.000  -0.000   0.000   0.000   0.000   0.000   0.000   0.000   0.000   0.000   0.000   0.000   0.000
 -0.000   0.000  -0.000   0.000   0.000   0.000  -0.000   0.000   0.000   0.000   0.000   0.000   0.000   0.000  -0.000   0.000
 pseudopotential strength for first ion, spin component:           2
 -8.026   0.000  -0.001  -0.000  -0.010   0.000  -0.001  -0.000   0.000   0.000  -0.163  -0.000   0.001   0.000   0.002  -0.000
 -0.001   0.000  -8.026   0.000   0.005  -0.000  -0.001  -0.000  -0.009   0.000   0.001  -0.000  -0.163  -0.000  -0.001   0.000
 -0.010  -0.000   0.005   0.000  -2.097   0.000   0.005   0.000   0.000   0.000   0.002   0.000  -0.001  -0.000  -1.688  -0.000
 -0.001   0.000  -0.001   0.000   0.005  -0.000  -8.026   0.000   0.009  -0.000   0.001  -0.000   0.001  -0.000  -0.001   0.000
  0.000  -0.000  -0.009  -0.000   0.000  -0.000   0.009   0.000  -2.097   0.000  -0.000   0.000   0.002   0.000  -0.000   0.000
 -0.163  -0.000   0.001   0.000   0.002  -0.000   0.001   0.000  -0.000  -0.000   1.047   0.000  -0.000  -0.000  -0.002   0.000
  0.001  -0.000  -0.163  -0.000  -0.001   0.000   0.001   0.000   0.002  -0.000  -0.000   0.000   1.047   0.000   0.001  -0.000
  0.002   0.000  -0.001  -0.000  -1.688  -0.000  -0.001  -0.000  -0.000  -0.000  -0.002  -0.000   0.001   0.000   2.244   0.000
  0.001  -0.000   0.001  -0.000  -0.001   0.000  -0.163  -0.000  -0.002   0.000  -0.000   0.000  -0.000   0.000   0.001  -0.000
 -0.000   0.000   0.002   0.000  -0.000   0.000  -0.002  -0.000  -1.688  -0.000   0.000  -0.000  -0.002  -0.000   0.000  -0.000
  0.001   0.000   0.001   0.000  -0.000   0.000   0.001   0.000   0.000   0.000  -0.000   0.000  -0.000   0.000  -0.000   0.000
 -0.000   0.000  -0.000   0.000   0.000   0.000  -0.000   0.000  -0.000   0.000   0.000   0.000   0.000   0.000  -0.000   0.000
 -0.000   0.000   0.000   0.000  -0.000   0.000   0.000   0.000  -0.000   0.000   0.000   0.000  -0.000   0.000   0.000   0.000
  0.000   0.000   0.000   0.000   0.000   0.000  -0.000   0.000   0.000   0.000   0.000   0.000  -0.000   0.000  -0.000   0.000
  0.000   0.000   0.000   0.000   0.000   0.000   0.000   0.000  -0.000   0.000  -0.000   0.000   0.000   0.000  -0.000   0.000
  0.000   0.000  -0.000   0.000   0.000   0.000  -0.000   0.000   0.000   0.000  -0.000   0.000   0.000   0.000  -0.000   0.000
 -0.000   0.000  -0.000   0.000  -0.000   0.000   0.000   0.000  -0.000   0.000   0.000   0.000   0.000   0.000   0.000   0.000
 -0.000   0.000  -0.000   0.000  -0.000   0.000  -0.000   0.000   0.000   0.000   0.000   0.000   0.000   0.000   0.000   0.000
 total augmentation occupancy for first ion, spin component:           1
  2.007  -0.000   0.002  -0.000  -0.000  -0.093  -0.000   0.000  -0.000   0.000   0.000   0.000   0.000  -0.000  -0.000  -0.000
 -0.000   2.007  -0.001  -0.000   0.001  -0.000  -0.093  -0.000  -0.000   0.000   0.000   0.000  -0.000   0.000   0.000   0.000
  0.002  -0.001   1.178  -0.001   0.000   0.000  -0.000   0.054  -0.000   0.000   0.000  -0.000   0.000   0.000   0.000   0.000
 -0.000  -0.000  -0.001   2.007  -0.001  -0.000  -0.000  -0.000  -0.093  -0.000   0.000   0.000   0.000  -0.000   0.000  -0.000
 -0.000   0.001  -0.000  -0.001   1.178   0.000   0.000   0.000  -0.000   0.054  -0.000  -0.000   0.000   0.000   0.000   0.000
 -0.093  -0.000   0.000  -0.000   0.000   0.170   0.000   0.000   0.000  -0.000   0.000  -0.000  -0.000   0.000   0.000   0.000
 -0.000  -0.093  -0.000  -0.000   0.000   0.000   0.170  -0.000   0.000   0.000   0.000  -0.000   0.000   0.000   0.000   0.000
  0.000  -0.000   0.054  -0.000   0.000   0.000  -0.000   0.507  -0.000  -0.000  -0.000  -0.000   0.000  -0.000   0.000   0.000
 -0.000  -0.000  -0.000  -0.093  -0.000   0.000   0.000  -0.000   0.170  -0.000   0.000  -0.000   0.000  -0.000   0.000  -0.000
  0.000   0.000   0.000  -0.000   0.054   0.000   0.000   0.000  -0.000   0.507  -0.000   0.000  -0.000   0.000   0.000   0.000
  0.000   0.000   0.000   0.000   0.000   0.000   0.000  -0.000   0.000   0.000   0.847  -0.327   0.000  -0.000   0.000   0.000
  0.000   0.000   0.000   0.000  -0.000  -0.000  -0.000   0.000  -0.000   0.000  -0.327   0.229   0.000  -0.000   0.000   0.000
  0.000   0.000  -0.000   0.000   0.000  -0.000  -0.000  -0.000   0.000   0.000  -0.000  -0.000   0.177   0.000   0.000  -0.021
  0.000   0.000   0.000   0.000   0.000   0.000   0.000  -0.000   0.000   0.000  -0.000   0.000   0.000   0.177   0.000   0.000
  0.000  -0.000  -0.000   0.000  -0.000   0.000   0.000   0.000   0.000   0.000   0.000  -0.000   0.000   0.000   0.177   0.000
 -0.000  -0.000   0.000  -0.000   0.000   0.000   0.000  -0.000   0.000  -0.000  -0.000  -0.000  -0.021   0.000   0.000   0.004
  0.000   0.000   0.000   0.000   0.000   0.000  -0.000  -0.000   0.000   0.000   0.000  -0.000   0.000  -0.021   0.000  -0.000
  0.000  -0.000   0.000   0.000   0.000  -0.000  -0.000   0.000  -0.000  -0.000   0.000   0.000   0.000   0.000  -0.021  -0.000
 total augmentation occupancy for first ion, spin component:           2
 -0.030  -0.000  -0.001  -0.000  -0.000  -0.060  -0.000   0.000  -0.000   0.000   0.000   0.000   0.000   0.000  -0.000  -0.000
 -0.000  -0.030   0.001  -0.000  -0.001  -0.000  -0.060  -0.000  -0.000   0.000   0.000   0.000   0.000   0.000   0.000   0.000
 -0.001   0.001   0.754   0.001   0.000   0.000  -0.000  -0.246  -0.000  -0.000   0.000  -0.000  -0.000   0.000   0.000  -0.000
 -0.000  -0.000   0.001  -0.030   0.001  -0.000  -0.000  -0.000  -0.060  -0.000   0.000   0.000   0.000   0.000  -0.000   0.000
 -0.000  -0.001   0.000   0.001   0.754  -0.000   0.000  -0.000  -0.000  -0.246  -0.000  -0.000   0.000   0.000   0.000   0.000
 -0.060  -0.000   0.000  -0.000  -0.000   0.012  -0.000  -0.001  -0.000   0.000  -0.001  -0.001   0.000   0.000  -0.000   0.000
 -0.000  -0.060  -0.000  -0.000   0.000  -0.000   0.012   0.000  -0.000  -0.001  -0.001  -0.001   0.000  -0.000   0.000  -0.000
  0.000  -0.000  -0.246  -0.000   0.000  -0.001   0.000   0.269   0.000  -0.000  -0.000   0.000  -0.000   0.000   0.000  -0.000
 -0.000  -0.000  -0.000  -0.060  -0.000  -0.000  -0.000   0.000   0.012   0.001  -0.001  -0.001   0.000   0.000  -0.000   0.000
  0.000   0.000   0.000  -0.000  -0.246   0.000  -0.001   0.000   0.001   0.269   0.000  -0.000   0.000   0.000  -0.000  -0.000
  0.000   0.000   0.000   0.000  -0.000  -0.001  -0.001   0.000  -0.001  -0.000   0.010   0.043  -0.000   0.000   0.000   0.000
  0.000   0.000   0.000   0.000   0.000  -0.001  -0.001   0.000  -0.001  -0.000   0.043  -0.036   0.000   0.000   0.000  -0.000
  0.000   0.000   0.000   0.000  -0.000   0.000   0.000  -0.000   0.000   0.000   0.000   0.000  -0.000   0.000   0.000   0.002
  0.000   0.000  -0.000  -0.000   0.000   0.000  -0.000  -0.000   0.000  -0.000   0.000  -0.000   0.000  -0.000   0.000  -0.000
 -0.000   0.000   0.000  -0.000   0.000  -0.000  -0.000   0.000  -0.000  -0.000   0.000  -0.000   0.000   0.000  -0.000  -0.000
  0.000   0.000   0.000   0.000  -0.000  -0.000  -0.000   0.000  -0.000   0.000   0.000   0.000   0.002  -0.000  -0.000  -0.000
  0.000  -0.000  -0.000   0.000   0.000   0.000   0.000   0.000   0.000   0.000   0.000   0.000  -0.000   0.002  -0.000   0.000
  0.000   0.000   0.000   0.000  -0.000   0.000   0.000  -0.000   0.000   0.000   0.000   0.000  -0.000  -0.000   0.002   0.000


------------------------ aborting loop because EDIFF is reached ----------------------------------------


 


 total charge     
 
# of ion       s       p       d       tot
------------------------------------------
    1        0.344   0.427   8.247   9.019
    2        0.344   0.427   8.247   9.019
    3        1.574   3.496   0.000   5.070
    4        1.574   3.496   0.000   5.070
--------------------------------------------------
tot          3.837   7.847  16.494  28.178
 


 magnetization (x)
 
# of ion       s       p       d       tot
------------------------------------------
    1       -0.003  -0.006   1.756   1.747
    2        0.003   0.006  -1.756  -1.747
    3        0.000  -0.000   0.000  -0.000
    4       -0.000  -0.000   0.000  -0.000
--------------------------------------------------
tot          0.000  -0.000   0.000   0.000
 
    CHARGE:  cpu time    7.8223: real time    7.8410
    FORLOC:  cpu time    0.0156: real time    0.0157
    FORNL :  cpu time    8.3930: real time    8.4131
    STRESS:  cpu time    8.3744: real time    8.3945
    FORCOR:  cpu time    0.8502: real time    0.8523
    FORHAR:  cpu time    0.0408: real time    0.0409
    MIXING:  cpu time    0.0105: real time    0.0106
    OFIELD:  cpu time    0.0010: real time    0.0001

  FORCE on cell =-STRESS in cart. coord.  units (eV):
  Direction    XX          YY          ZZ          XY          YZ          ZX
  --------------------------------------------------------------------------------------
  Alpha Z   217.71629   217.71629   217.71629
  Ewald    -868.25805  -868.25805  -868.25805     0.00000    -0.00000    -0.00000
  Hartree   210.82381   210.82381   210.82381    -0.01324    -0.01324    -0.01324
  E(xc)    -171.36578  -171.36578  -171.36578     0.00008     0.00008     0.00008
  Local     183.35617   183.35617   183.35617     0.00255     0.00255     0.00255
  n-local  -109.22373  -111.83363  -109.84081     0.22522     0.30806    -0.53435
  augment   120.44898   120.44898   120.44898    -0.03924    -0.03924    -0.03924
  Kinetic   414.65124   419.45371   415.98748    -0.72036    -0.41582     1.21516
  Fock        0.00000     0.00000     0.00000     0.00000     0.00000     0.00000
  -------------------------------------------------------------------------------------
  Total      -0.88048    -0.88048    -0.88048    -0.04291    -0.04291    -0.04291
  in kB     -38.90897   -38.90897   -38.90897    -1.89624    -1.89624    -1.89624
  external pressure =      -38.91 kB  Pullay stress =        0.00 kB


 VOLUME and BASIS-vectors are now :
 -----------------------------------------------------------------------------
  energy-cutoff  :      400.00
  volume of cell :       36.26
      direct lattice vectors                 reciprocal lattice vectors
     4.170000000  2.085000000  2.085000000     0.359712230 -0.119904077 -0.119904077
     2.085000000  4.170000000  2.085000000    -0.119904077  0.359712230 -0.119904077
     2.085000000  2.085000000  4.170000000    -0.119904077 -0.119904077  0.359712230

  length of vectors
     5.107186114  5.107186114  5.107186114     0.397676833  0.397676833  0.397676833


 FORCES acting on ions
    electron-ion (+dipol)            ewald-force                    non-local-force                 convergence-correction
 -----------------------------------------------------------------------------------------------
   -.782E-13 -.575E-14 -.117E-12   0.000E+00 -.284E-13 -.568E-13   -.132E-22 0.529E-22 -.132E-22   0.200E-13 0.342E-13 0.299E-13
   0.671E-12 0.204E-11 0.207E-11   0.568E-13 0.284E-13 0.000E+00   0.000E+00 -.529E-22 0.000E+00   -.580E-13 -.403E-13 -.361E-13
   -.445E-12 0.633E-12 0.632E-12   -.426E-13 -.131E-13 0.169E-13   -.265E-22 0.662E-23 -.199E-22   0.527E-13 0.220E-13 0.282E-13
   0.241E-11 -.880E-12 -.885E-12   -.152E-13 0.134E-13 0.426E-13   0.265E-22 0.993E-23 -.199E-22   -.311E-13 -.138E-13 -.238E-13
 -----------------------------------------------------------------------------------------------
   0.255E-11 0.179E-11 0.170E-11   -.869E-15 0.280E-15 0.262E-14   -.132E-22 0.165E-22 -.529E-22   -.165E-13 0.220E-14 -.192E-14
 
 
 POSITION                                       TOTAL-FORCE (eV/Angst)
 -----------------------------------------------------------------------------------
      0.00000      0.00000      0.00000        -0.000000     -0.000000      0.000000
      4.17000      4.17000      4.17000        -0.000000      0.000000      0.000000
      2.08500      2.08500      2.08500         0.000000      0.000000     -0.000000
      6.25500      6.25500      6.25500        -0.000000     -0.000000      0.000000
 -----------------------------------------------------------------------------------
    total drift:                                0.000000      0.000000      0.000000


--------------------------------------------------------------------------------------------------------



  FREE ENERGIE OF THE ION-ELECTRON SYSTEM (eV)
  ---------------------------------------------------
  free  energy   TOTEN  =       -19.76212530 eV

  energy  without entropy=      -19.76212530  energy(sigma->0) =      -19.76212530
 


--------------------------------------------------------------------------------------------------------


    POTLOK:  cpu time    0.8888: real time    0.8919


--------------------------------------------------------------------------------------------------------


     LOOP+:  cpu time 1054.0396: real time 1057.0123
    4ORBIT:  cpu time    0.0000: real time    0.0000
 


 total charge     
 
# of ion       s       p       d       tot
------------------------------------------
    1        0.344   0.427   8.247   9.019
    2        0.344   0.427   8.247   9.019
    3        1.574   3.496   0.000   5.070
    4        1.574   3.496   0.000   5.070
--------------------------------------------------
tot          3.837   7.847  16.494  28.178
 


 magnetization (x)
 
# of ion       s       p       d       tot
------------------------------------------
    1       -0.003  -0.006   1.756   1.747
    2        0.003   0.006  -1.756  -1.747
    3        0.000  -0.000   0.000  -0.000
    4       -0.000  -0.000   0.000  -0.000
--------------------------------------------------
tot          0.000  -0.000   0.000   0.000
 
 BZINTS: Fermi energy:  3.540473; 32.000000 electrons
         Band energy: -56.194861;  BLOECHL correction:  0.000000

 total amount of memory used by VASP MPI-rank0   575316. kBytes
=======================================================================

   base      :      30000. kBytes
   nonl-proj :     149287. kBytes
   fftplans  :      11932. kBytes
   grid      :      26693. kBytes
   one-center:        124. kBytes
   wavefun   :     357280. kBytes
 
  
  
 General timing and accounting informations for this job:
 ========================================================
  
                  Total CPU time used (sec):     1066.323
                            User time (sec):     1058.662
                          System time (sec):        7.660
                         Elapsed time (sec):     1069.755
  
                   Maximum memory used (kb):      639256.
                   Average memory used (kb):           0.
  
                          Minor page faults:       107947
                          Major page faults:            0
                 Voluntary context switches:          299
