  16  16   0   0
  0.1798157E+02  0.6601600E-09  0.6601600E-09  0.6601600E-09  0.5000000E-15
  1.000000000000000E-004
  CAR 
 Nb gaussian                             
     10.92186692    -28.06988674  301      4.85372799      1.00000000
    -28.070  0.0000E+00  0.0000E+00
    -27.940  0.0000E+00  0.0000E+00
    -27.810  0.0000E+00  0.0000E+00
    -27.680  0.0000E+00  0.0000E+00
    -27.550  0.0000E+00  0.0000E+00
    -27.420  0.0000E+00  0.0000E+00
    -27.290  0.0000E+00  0.0000E+00
    -27.160  0.1269E-13  0.1649E-14
    -27.030  0.1305E-10  0.1698E-11
    -26.900  0.6006E-08  0.7823E-09
    -26.770  0.1247E-05  0.1629E-06
    -26.640  0.1186E-03  0.1558E-04
    -26.510  0.5271E-02  0.7007E-03
    -26.380  0.1127E+00  0.1535E-01
    -26.250  0.1213E+01  0.1730E+00
    -26.120  0.6979E+01  0.1080E+01
    -25.990  0.2308E+02  0.4079E+01
    -25.860  0.4670E+02  0.1015E+02
    -25.730  0.6121E+02  0.1810E+02
    -25.600  0.5890E+02  0.2576E+02
    -25.470  0.5446E+02  0.3284E+02
    -25.340  0.5908E+02  0.4052E+02
    -25.210  0.6895E+02  0.4948E+02
    -25.081  0.7709E+02  0.5950E+02
    -24.951  0.8351E+02  0.7035E+02
    -24.821  0.8583E+02  0.8151E+02
    -24.691  0.6793E+02  0.9034E+02
    -24.561  0.3332E+02  0.9467E+02
    -24.431  0.8940E+01  0.9583E+02
    -24.301  0.1223E+01  0.9599E+02
    -24.171  0.8163E-01  0.9600E+02
    -24.041  0.2574E-02  0.9600E+02
    -23.911  0.3750E-04  0.9600E+02
    -23.781  0.2481E-06  0.9600E+02
    -23.651  0.7366E-09  0.9600E+02
    -23.521  0.9724E-12  0.9600E+02
    -23.391  0.0000E+00  0.9600E+02
    -23.261  0.0000E+00  0.9600E+02
    -23.131  0.0000E+00  0.9600E+02
    -23.001  0.0000E+00  0.9600E+02
    -22.871  0.0000E+00  0.9600E+02
    -22.741  0.0000E+00  0.9600E+02
    -22.611  0.0000E+00  0.9600E+02
    -22.481  0.0000E+00  0.9600E+02
    -22.351  0.0000E+00  0.9600E+02
    -22.221  0.0000E+00  0.9600E+02
    -22.091  0.0000E+00  0.9600E+02
    -21.961  0.0000E+00  0.9600E+02
    -21.831  0.0000E+00  0.9600E+02
    -21.701  0.0000E+00  0.9600E+02
    -21.571  0.0000E+00  0.9600E+02
    -21.441  0.0000E+00  0.9600E+02
    -21.311  0.0000E+00  0.9600E+02
    -21.181  0.0000E+00  0.9600E+02
    -21.051  0.0000E+00  0.9600E+02
    -20.921  0.0000E+00  0.9600E+02
    -20.791  0.0000E+00  0.9600E+02
    -20.661  0.0000E+00  0.9600E+02
    -20.531  0.0000E+00  0.9600E+02
    -20.402  0.0000E+00  0.9600E+02
    -20.272  0.0000E+00  0.9600E+02
    -20.142  0.0000E+00  0.9600E+02
    -20.012  0.0000E+00  0.9600E+02
    -19.882  0.0000E+00  0.9600E+02
    -19.752  0.0000E+00  0.9600E+02
    -19.622  0.0000E+00  0.9600E+02
    -19.492  0.0000E+00  0.9600E+02
    -19.362  0.0000E+00  0.9600E+02
    -19.232  0.0000E+00  0.9600E+02
    -19.102  0.0000E+00  0.9600E+02
    -18.972  0.0000E+00  0.9600E+02
    -18.842  0.0000E+00  0.9600E+02
    -18.712  0.0000E+00  0.9600E+02
    -18.582  0.0000E+00  0.9600E+02
    -18.452  0.0000E+00  0.9600E+02
    -18.322  0.0000E+00  0.9600E+02
    -18.192  0.0000E+00  0.9600E+02
    -18.062  0.0000E+00  0.9600E+02
    -17.932  0.0000E+00  0.9600E+02
    -17.802  0.0000E+00  0.9600E+02
    -17.672  0.0000E+00  0.9600E+02
    -17.542  0.0000E+00  0.9600E+02
    -17.412  0.0000E+00  0.9600E+02
    -17.282  0.0000E+00  0.9600E+02
    -17.152  0.0000E+00  0.9600E+02
    -17.022  0.0000E+00  0.9600E+02
    -16.892  0.0000E+00  0.9600E+02
    -16.762  0.0000E+00  0.9600E+02
    -16.632  0.0000E+00  0.9600E+02
    -16.502  0.0000E+00  0.9600E+02
    -16.372  0.0000E+00  0.9600E+02
    -16.242  0.0000E+00  0.9600E+02
    -16.112  0.0000E+00  0.9600E+02
    -15.982  0.0000E+00  0.9600E+02
    -15.852  0.0000E+00  0.9600E+02
    -15.722  0.0000E+00  0.9600E+02
    -15.593  0.0000E+00  0.9600E+02
    -15.463  0.0000E+00  0.9600E+02
    -15.333  0.0000E+00  0.9600E+02
    -15.203  0.0000E+00  0.9600E+02
    -15.073  0.0000E+00  0.9600E+02
    -14.943  0.0000E+00  0.9600E+02
    -14.813  0.0000E+00  0.9600E+02
    -14.683  0.0000E+00  0.9600E+02
    -14.553  0.0000E+00  0.9600E+02
    -14.423  0.0000E+00  0.9600E+02
    -14.293  0.0000E+00  0.9600E+02
    -14.163  0.0000E+00  0.9600E+02
    -14.033  0.0000E+00  0.9600E+02
    -13.903  0.0000E+00  0.9600E+02
    -13.773  0.0000E+00  0.9600E+02
    -13.643  0.0000E+00  0.9600E+02
    -13.513  0.0000E+00  0.9600E+02
    -13.383  0.0000E+00  0.9600E+02
    -13.253  0.0000E+00  0.9600E+02
    -13.123  0.0000E+00  0.9600E+02
    -12.993  0.0000E+00  0.9600E+02
    -12.863  0.0000E+00  0.9600E+02
    -12.733  0.0000E+00  0.9600E+02
    -12.603  0.0000E+00  0.9600E+02
    -12.473  0.0000E+00  0.9600E+02
    -12.343  0.0000E+00  0.9600E+02
    -12.213  0.0000E+00  0.9600E+02
    -12.083  0.0000E+00  0.9600E+02
    -11.953  0.0000E+00  0.9600E+02
    -11.823  0.0000E+00  0.9600E+02
    -11.693  0.0000E+00  0.9600E+02
    -11.563  0.0000E+00  0.9600E+02
    -11.433  0.0000E+00  0.9600E+02
    -11.303  0.0000E+00  0.9600E+02
    -11.173  0.0000E+00  0.9600E+02
    -11.043  0.0000E+00  0.9600E+02
    -10.914  0.0000E+00  0.9600E+02
    -10.784  0.0000E+00  0.9600E+02
    -10.654  0.0000E+00  0.9600E+02
    -10.524  0.0000E+00  0.9600E+02
    -10.394  0.0000E+00  0.9600E+02
    -10.264  0.0000E+00  0.9600E+02
    -10.134  0.0000E+00  0.9600E+02
    -10.004  0.0000E+00  0.9600E+02
     -9.874  0.0000E+00  0.9600E+02
     -9.744  0.0000E+00  0.9600E+02
     -9.614  0.0000E+00  0.9600E+02
     -9.484  0.0000E+00  0.9600E+02
     -9.354  0.0000E+00  0.9600E+02
     -9.224  0.0000E+00  0.9600E+02
     -9.094  0.0000E+00  0.9600E+02
     -8.964  0.0000E+00  0.9600E+02
     -8.834  0.0000E+00  0.9600E+02
     -8.704  0.0000E+00  0.9600E+02
     -8.574  0.0000E+00  0.9600E+02
     -8.444  0.0000E+00  0.9600E+02
     -8.314  0.0000E+00  0.9600E+02
     -8.184  0.0000E+00  0.9600E+02
     -8.054  0.0000E+00  0.9600E+02
     -7.924  0.0000E+00  0.9600E+02
     -7.794  0.0000E+00  0.9600E+02
     -7.664  0.0000E+00  0.9600E+02
     -7.534  0.0000E+00  0.9600E+02
     -7.404  0.0000E+00  0.9600E+02
     -7.274  0.0000E+00  0.9600E+02
     -7.144  0.0000E+00  0.9600E+02
     -7.014  0.0000E+00  0.9600E+02
     -6.884  0.0000E+00  0.9600E+02
     -6.754  0.0000E+00  0.9600E+02
     -6.624  0.0000E+00  0.9600E+02
     -6.494  0.0000E+00  0.9600E+02
     -6.364  0.0000E+00  0.9600E+02
     -6.235  0.0000E+00  0.9600E+02
     -6.105  0.0000E+00  0.9600E+02
     -5.975  0.0000E+00  0.9600E+02
     -5.845  0.0000E+00  0.9600E+02
     -5.715  0.0000E+00  0.9600E+02
     -5.585  0.0000E+00  0.9600E+02
     -5.455  0.0000E+00  0.9600E+02
     -5.325  0.0000E+00  0.9600E+02
     -5.195  0.0000E+00  0.9600E+02
     -5.065  0.0000E+00  0.9600E+02
     -4.935  0.0000E+00  0.9600E+02
     -4.805  0.0000E+00  0.9600E+02
     -4.675  0.0000E+00  0.9600E+02
     -4.545  0.0000E+00  0.9600E+02
     -4.415  0.0000E+00  0.9600E+02
     -4.285  0.0000E+00  0.9600E+02
     -4.155  0.0000E+00  0.9600E+02
     -4.025  0.0000E+00  0.9600E+02
     -3.895  0.0000E+00  0.9600E+02
     -3.765  0.0000E+00  0.9600E+02
     -3.635  0.0000E+00  0.9600E+02
     -3.505  0.0000E+00  0.9600E+02
     -3.375  0.0000E+00  0.9600E+02
     -3.245  0.0000E+00  0.9600E+02
     -3.115  0.0000E+00  0.9600E+02
     -2.985  0.0000E+00  0.9600E+02
     -2.855  0.0000E+00  0.9600E+02
     -2.725  0.0000E+00  0.9600E+02
     -2.595  0.0000E+00  0.9600E+02
     -2.465  0.0000E+00  0.9600E+02
     -2.335  0.0000E+00  0.9600E+02
     -2.205  0.2050E-16  0.9600E+02
     -2.075  0.2400E-13  0.9600E+02
     -1.945  0.1428E-10  0.9600E+02
     -1.815  0.3746E-08  0.9600E+02
     -1.685  0.4383E-06  0.9600E+02
     -1.555  0.2331E-04  0.9600E+02
     -1.426  0.5798E-03  0.9600E+02
     -1.296  0.7032E-02  0.9600E+02
     -1.166  0.4397E-01  0.9601E+02
     -1.036  0.1527E+00  0.9603E+02
     -0.906  0.3292E+00  0.9607E+02
     -0.776  0.5164E+00  0.9614E+02
     -0.646  0.6760E+00  0.9622E+02
     -0.516  0.8094E+00  0.9633E+02
     -0.386  0.9552E+00  0.9645E+02
     -0.256  0.1075E+01  0.9659E+02
     -0.126  0.1189E+01  0.9675E+02
      0.004  0.1360E+01  0.9692E+02
      0.134  0.1503E+01  0.9712E+02
      0.264  0.1598E+01  0.9733E+02
      0.394  0.1804E+01  0.9756E+02
      0.524  0.2054E+01  0.9783E+02
      0.654  0.2197E+01  0.9811E+02
      0.784  0.2421E+01  0.9843E+02
      0.914  0.3038E+01  0.9882E+02
      1.044  0.4391E+01  0.9939E+02
      1.174  0.7071E+01  0.1003E+03
      1.304  0.1086E+02  0.1017E+03
      1.434  0.1411E+02  0.1036E+03
      1.564  0.1562E+02  0.1056E+03
      1.694  0.1645E+02  0.1077E+03
      1.824  0.1777E+02  0.1100E+03
      1.954  0.1908E+02  0.1125E+03
      2.084  0.2051E+02  0.1152E+03
      2.214  0.2201E+02  0.1180E+03
      2.344  0.2222E+02  0.1209E+03
      2.474  0.2142E+02  0.1237E+03
      2.604  0.1958E+02  0.1263E+03
      2.734  0.1593E+02  0.1283E+03
      2.864  0.1181E+02  0.1299E+03
      2.994  0.1041E+02  0.1312E+03
      3.124  0.1397E+02  0.1330E+03
      3.253  0.2126E+02  0.1358E+03
      3.383  0.2861E+02  0.1395E+03
      3.513  0.3210E+02  0.1437E+03
      3.643  0.2968E+02  0.1475E+03
      3.773  0.2452E+02  0.1507E+03
      3.903  0.2076E+02  0.1534E+03
      4.033  0.1876E+02  0.1559E+03
      4.163  0.1828E+02  0.1582E+03
      4.293  0.1971E+02  0.1608E+03
      4.423  0.2311E+02  0.1638E+03
      4.553  0.2786E+02  0.1674E+03
      4.683  0.3023E+02  0.1714E+03
      4.813  0.2789E+02  0.1750E+03
      4.943  0.2338E+02  0.1780E+03
      5.073  0.1903E+02  0.1805E+03
      5.203  0.1478E+02  0.1824E+03
      5.333  0.1112E+02  0.1839E+03
      5.463  0.9249E+01  0.1851E+03
      5.593  0.8561E+01  0.1862E+03
      5.723  0.7848E+01  0.1872E+03
      5.853  0.7341E+01  0.1882E+03
      5.983  0.7503E+01  0.1891E+03
      6.113  0.7921E+01  0.1902E+03
      6.243  0.8093E+01  0.1912E+03
      6.373  0.8282E+01  0.1923E+03
      6.503  0.9670E+01  0.1935E+03
      6.633  0.1216E+02  0.1951E+03
      6.763  0.1348E+02  0.1969E+03
      6.893  0.1392E+02  0.1987E+03
      7.023  0.1483E+02  0.2006E+03
      7.153  0.1585E+02  0.2027E+03
      7.283  0.1665E+02  0.2048E+03
      7.413  0.1752E+02  0.2071E+03
      7.543  0.1893E+02  0.2096E+03
      7.673  0.2040E+02  0.2122E+03
      7.803  0.2081E+02  0.2149E+03
      7.932  0.2088E+02  0.2176E+03
      8.062  0.2224E+02  0.2205E+03
      8.192  0.2388E+02  0.2236E+03
      8.322  0.2370E+02  0.2267E+03
      8.452  0.2230E+02  0.2296E+03
      8.582  0.2152E+02  0.2324E+03
      8.712  0.2133E+02  0.2352E+03
      8.842  0.1905E+02  0.2377E+03
      8.972  0.1227E+02  0.2393E+03
      9.102  0.4678E+01  0.2399E+03
      9.232  0.9369E+00  0.2400E+03
      9.362  0.9236E-01  0.2400E+03
      9.492  0.4322E-02  0.2400E+03
      9.622  0.9391E-04  0.2400E+03
      9.752  0.9341E-06  0.2400E+03
      9.882  0.4212E-08  0.2400E+03
     10.012  0.8547E-11  0.2400E+03
     10.142  0.7421E-14  0.2400E+03
     10.272  0.0000E+00  0.2400E+03
     10.402  0.0000E+00  0.2400E+03
     10.532  0.0000E+00  0.2400E+03
     10.662  0.0000E+00  0.2400E+03
     10.792  0.0000E+00  0.2400E+03
     10.922  0.0000E+00  0.2400E+03
