   16   16    1    1
  0.1798157E+02  0.6601600E-09  0.6601600E-09  0.6601600E-09  0.5000000E-15
  1.000000000000000E-004
  CAR 
 Nb gaussian                             
    176     35    120
 
  0.5000000E-01  0.5000000E-01  0.5000000E-01  0.8000000E-02
    1      -26.069887   1.000000
    2      -26.069887   1.000000
    3      -26.069887   1.000000
    4      -26.064699   1.000000
    5      -26.064699   1.000000
    6      -26.064699   1.000000
    7      -25.639368   1.000000
    8      -25.639368   1.000000
    9      -25.627148   1.000000
   10      -25.499383   1.000000
   11      -25.496109   1.000000
   12      -25.496109   1.000000
   13      -25.496109   1.000000
   14      -25.446920   1.000000
   15      -25.446920   1.000000
   16      -25.424747   1.000000
   17      -25.424747   1.000000
   18      -25.424747   1.000000
   19      -25.339494   1.000000
   20      -25.339494   1.000000
   21      -25.285881   1.000000
   22      -25.195491   1.000000
   23      -25.195491   1.000000
   24      -25.195491   1.000000
   25      -25.175264   1.000000
   26      -25.175264   1.000000
   27      -25.175264   1.000000
   28      -25.133180   1.000000
   29      -25.133180   1.000000
   30      -25.133180   1.000000
   31      -25.127198   1.000000
   32      -25.127198   1.000000
   33      -25.127198   1.000000
   34      -25.120896   1.000000
   35      -25.120896   1.000000
   36      -25.120896   1.000000
   37      -25.101774   1.000000
   38      -25.101774   1.000000
   39      -25.101774   1.000000
   40      -24.713189   1.000000
   41      -24.713189   1.000000
   42      -24.713189   1.000000
   43      -24.707136   1.000000
   44      -24.707070   1.000000
   45      -24.707070   1.000000
   46      -24.707070   1.000000
   47      -24.693248   1.000000
   48      -24.693248   1.000000
   49       -1.048640   1.000000
   50        1.110046   1.000000
   51        1.110046   1.000000
   52        1.112320   1.000000
   53        1.112320   1.000000
   54        1.112320   1.000000
   55        1.125504   1.000000
   56        1.125504   1.000000
   57        1.125504   1.000000
   58        2.193145   1.000000
   59        2.193145   1.000000
   60        2.193145   1.000000
   61        2.483179   1.000000
   62        2.483179   1.000000
   63        2.483179   1.000000
   64        3.147600   1.000000
   65        3.147600   1.000000
   66        3.147600   1.000000
   67        3.164551   1.000000
   68        3.164551   1.000000
   69        3.164551   1.000000
   70        3.483127   1.000000
   71        3.519823   1.000000
   72        3.519823   1.000000
   73        3.519823   1.000000
   74        3.623359   1.000000
   75        3.623359   1.000000
   76        3.858098   1.000000
   77        3.858098   1.000000
   78        3.946792   1.000000
   79        4.006638   1.000000
   80        4.006638   1.000000
   81        4.006638   1.000000
   82        5.146065   0.019361
   83        5.146065   0.019361
   84        5.207714   0.006156
   85        5.607370   0.000000
   86        5.607370   0.000000
   87        5.607370   0.000000
   88        5.727662   0.000000
   89        5.727662   0.000000
   90        5.727662   0.000000
   91        5.869153   0.000000
   92        5.869153   0.000000
   93        5.869153   0.000000
   94        5.988157   0.000000
   95        5.988157   0.000000
   96        5.988157   0.000000
   97        7.017990   0.000000
   98        7.017990   0.000000
   99        7.017990   0.000000
  100        7.104697   0.000000
  101        7.104697   0.000000
  102        7.104697   0.000000
  103        7.296301   0.000000
  104        7.296301   0.000000
  105        7.296301   0.000000
  106        7.693511   0.000000
  107        7.693512   0.000000
  108        7.693513   0.000000
  109        8.059967   0.000000
  110        8.059970   0.000000
  111        8.061638   0.000000
  112        8.061639   0.000000
  113        8.061653   0.000000
  114        8.127314   0.000000
  115        8.127314   0.000000
  116        8.127325   0.000000
  117        8.782781   0.000000
  118        8.786452   0.000000
  119        8.806396   0.000000
  120        8.921867   0.000000
 
  0.1500000E+00  0.5000000E-01  0.5000000E-01  0.2400000E-01
    1      -26.054492   1.000000
    2      -26.054492   1.000000
    3      -26.053364   1.000000
    4      -26.048563   1.000000
    5      -26.039083   1.000000
    6      -26.039083   1.000000
    7      -25.647374   1.000000
    8      -25.627391   1.000000
    9      -25.608859   1.000000
   10      -25.578037   1.000000
   11      -25.554304   1.000000
   12      -25.554304   1.000000
   13      -25.553621   1.000000
   14      -25.552747   1.000000
   15      -25.485381   1.000000
   16      -25.485381   1.000000
   17      -25.412335   1.000000
   18      -25.352844   1.000000
   19      -25.341078   1.000000
   20      -25.269619   1.000000
   21      -25.248355   1.000000
   22      -25.233174   1.000000
   23      -25.202909   1.000000
   24      -25.195199   1.000000
   25      -25.195199   1.000000
   26      -25.146979   1.000000
   27      -25.140566   1.000000
   28      -25.140566   1.000000
   29      -25.140110   1.000000
   30      -25.122766   1.000000
   31      -25.122766   1.000000
   32      -25.122415   1.000000
   33      -25.122415   1.000000
   34      -25.121693   1.000000
   35      -25.121693   1.000000
   36      -25.050622   1.000000
   37      -25.050622   1.000000
   38      -25.047601   1.000000
   39      -25.029661   1.000000
   40      -24.738779   1.000000
   41      -24.731042   1.000000
   42      -24.731042   1.000000
   43      -24.729176   1.000000
   44      -24.723995   1.000000
   45      -24.712870   1.000000
   46      -24.712870   1.000000
   47      -24.704514   1.000000
   48      -24.698604   1.000000
   49       -0.944100   1.000000
   50        1.158626   1.000000
   51        1.158626   1.000000
   52        1.166453   1.000000
   53        1.198043   1.000000
   54        1.198043   1.000000
   55        1.201109   1.000000
   56        1.217512   1.000000
   57        1.229550   1.000000
   58        1.793354   1.000000
   59        2.185806   1.000000
   60        2.185806   1.000000
   61        2.471435   1.000000
   62        2.471435   1.000000
   63        2.625579   1.000000
   64        3.063074   1.000000
   65        3.140564   1.000000
   66        3.156048   1.000000
   67        3.204376   1.000000
   68        3.204376   1.000000
   69        3.254651   1.000000
   70        3.254651   1.000000
   71        3.299756   1.000000
   72        3.437845   1.000000
   73        3.514130   1.000000
   74        3.514130   1.000000
   75        3.544304   1.000000
   76        3.699157   1.000000
   77        3.950357   1.000000
   78        3.950357   1.000000
   79        4.141848   1.000000
   80        4.142255   1.000000
   81        4.505279   0.993128
   82        5.106901   0.036711
   83        5.134039   0.023734
   84        5.285280   0.001138
   85        5.319334   0.000497
   86        5.319334   0.000497
   87        5.399286   0.000057
   88        5.544813   0.000001
   89        5.567110   0.000000
   90        5.567110   0.000000
   91        5.929466   0.000000
   92        5.929466   0.000000
   93        6.118893   0.000000
   94        6.118893   0.000000
   95        6.186429   0.000000
   96        6.317341   0.000000
   97        6.575155   0.000000
   98        6.575155   0.000000
   99        6.744716   0.000000
  100        6.744716   0.000000
  101        6.834563   0.000000
  102        6.896660   0.000000
  103        6.920924   0.000000
  104        7.647228   0.000000
  105        7.647229   0.000000
  106        7.912402   0.000000
  107        7.924867   0.000000
  108        7.924869   0.000000
  109        8.042985   0.000000
  110        8.042991   0.000000
  111        8.094700   0.000000
  112        8.094707   0.000000
  113        8.098769   0.000000
  114        8.104906   0.000000
  115        8.114783   0.000000
  116        8.153999   0.000000
  117        8.810071   0.000000
  118        8.876553   0.000000
  119        8.894522   0.000000
  120        8.913198   0.000000
 
  0.2500000E+00  0.5000000E-01  0.5000000E-01  0.2400000E-01
    1      -26.020748   1.000000
    2      -26.019478   1.000000
    3      -26.019478   1.000000
    4      -26.016761   1.000000
    5      -25.994034   1.000000
    6      -25.994034   1.000000
    7      -25.667296   1.000000
    8      -25.654420   1.000000
    9      -25.652862   1.000000
   10      -25.638357   1.000000
   11      -25.638357   1.000000
   12      -25.603707   1.000000
   13      -25.596940   1.000000
   14      -25.582074   1.000000
   15      -25.573725   1.000000
   16      -25.573725   1.000000
   17      -25.378266   1.000000
   18      -25.341349   1.000000
   19      -25.340031   1.000000
   20      -25.319271   1.000000
   21      -25.247565   1.000000
   22      -25.191020   1.000000
   23      -25.191020   1.000000
   24      -25.173271   1.000000
   25      -25.164612   1.000000
   26      -25.149110   1.000000
   27      -25.149110   1.000000
   28      -25.130606   1.000000
   29      -25.120998   1.000000
   30      -25.120998   1.000000
   31      -25.119926   1.000000
   32      -25.119926   1.000000
   33      -25.111598   1.000000
   34      -25.051599   1.000000
   35      -25.051599   1.000000
   36      -24.982704   1.000000
   37      -24.982704   1.000000
   38      -24.977438   1.000000
   39      -24.960720   1.000000
   40      -24.791724   1.000000
   41      -24.760852   1.000000
   42      -24.760434   1.000000
   43      -24.760434   1.000000
   44      -24.757440   1.000000
   45      -24.730676   1.000000
   46      -24.730676   1.000000
   47      -24.726678   1.000000
   48      -24.717478   1.000000
   49       -0.739424   1.000000
   50        1.261218   1.000000
   51        1.261218   1.000000
   52        1.279213   1.000000
   53        1.326893   1.000000
   54        1.326893   1.000000
   55        1.329426   1.000000
   56        1.376028   1.000000
   57        1.421872   1.000000
   58        1.431555   1.000000
   59        2.132278   1.000000
   60        2.132278   1.000000
   61        2.387233   1.000000
   62        2.387233   1.000000
   63        2.606506   1.000000
   64        2.644947   1.000000
   65        3.104908   1.000000
   66        3.128729   1.000000
   67        3.142870   1.000000
   68        3.268101   1.000000
   69        3.299557   1.000000
   70        3.332635   1.000000
   71        3.332635   1.000000
   72        3.415066   1.000000
   73        3.415066   1.000000
   74        3.467109   1.000000
   75        3.603357   1.000000
   76        3.603357   1.000000
   77        3.957498   1.000000
   78        3.957498   1.000000
   79        4.451610   0.997768
   80        4.472386   0.996496
   81        4.920814   0.317619
   82        4.920814   0.317619
   83        4.943818   0.262052
   84        5.075275   0.058607
   85        5.116412   0.031623
   86        5.147618   0.018849
   87        5.147618   0.018849
   88        5.244090   0.002888
   89        5.398628   0.000058
   90        5.499119   0.000003
   91        5.992387   0.000000
   92        5.992387   0.000000
   93        6.171190   0.000000
   94        6.171190   0.000000
   95        6.268566   0.000000
   96        6.268566   0.000000
   97        6.350770   0.000000
   98        6.350770   0.000000
   99        6.512478   0.000000
  100        6.543372   0.000000
  101        6.563129   0.000000
  102        6.573755   0.000000
  103        6.712720   0.000000
  104        7.632734   0.000000
  105        7.728601   0.000000
  106        7.728601   0.000000
  107        7.955757   0.000000
  108        7.955762   0.000000
  109        8.146417   0.000000
  110        8.146420   0.000000
  111        8.169842   0.000000
  112        8.212363   0.000000
  113        8.221261   0.000000
  114        8.522110   0.000000
  115        8.541792   0.000000
  116        8.542616   0.000000
  117        8.779623   0.000000
  118        8.793410   0.000000
  119        8.820855   0.000000
  120        8.897846   0.000000
 
  0.3500000E+00  0.5000000E-01  0.5000000E-01  0.2400000E-01
    1      -25.972724   1.000000
    2      -25.970052   1.000000
    3      -25.966423   1.000000
    4      -25.966423   1.000000
    5      -25.931478   1.000000
    6      -25.931478   1.000000
    7      -25.755593   1.000000
    8      -25.749425   1.000000
    9      -25.729092   1.000000
   10      -25.729092   1.000000
   11      -25.670208   1.000000
   12      -25.670208   1.000000
   13      -25.655599   1.000000
   14      -25.626840   1.000000
   15      -25.568988   1.000000
   16      -25.546000   1.000000
   17      -25.408816   1.000000
   18      -25.385970   1.000000
   19      -25.339247   1.000000
   20      -25.312312   1.000000
   21      -25.209228   1.000000
   22      -25.197927   1.000000
   23      -25.184632   1.000000
   24      -25.184632   1.000000
   25      -25.158309   1.000000
   26      -25.158309   1.000000
   27      -25.148064   1.000000
   28      -25.119886   1.000000
   29      -25.119886   1.000000
   30      -25.118482   1.000000
   31      -25.118482   1.000000
   32      -25.034141   1.000000
   33      -25.022329   1.000000
   34      -24.979061   1.000000
   35      -24.979061   1.000000
   36      -24.914799   1.000000
   37      -24.914799   1.000000
   38      -24.912080   1.000000
   39      -24.896606   1.000000
   40      -24.863721   1.000000
   41      -24.807366   1.000000
   42      -24.806542   1.000000
   43      -24.800743   1.000000
   44      -24.800743   1.000000
   45      -24.760333   1.000000
   46      -24.760333   1.000000
   47      -24.759326   1.000000
   48      -24.748051   1.000000
   49       -0.443289   1.000000
   50        0.842642   1.000000
   51        1.413543   1.000000
   52        1.413543   1.000000
   53        1.447308   1.000000
   54        1.506397   1.000000
   55        1.506397   1.000000
   56        1.617816   1.000000
   57        1.714069   1.000000
   58        1.719310   1.000000
   59        2.000838   1.000000
   60        2.000838   1.000000
   61        2.204751   1.000000
   62        2.204751   1.000000
   63        2.271043   1.000000
   64        2.447429   1.000000
   65        2.828463   1.000000
   66        2.893345   1.000000
   67        3.120576   1.000000
   68        3.134406   1.000000
   69        3.206340   1.000000
   70        3.275847   1.000000
   71        3.529589   1.000000
   72        3.529589   1.000000
   73        3.643698   1.000000
   74        3.643698   1.000000
   75        3.852742   1.000000
   76        3.852742   1.000000
   77        4.110486   1.000000
   78        4.110486   1.000000
   79        4.535393   0.987806
   80        4.535393   0.987806
   81        4.723374   0.821669
   82        4.723374   0.821669
   83        4.820663   0.592432
   84        4.845060   0.524438
   85        5.054902   0.077439
   86        5.099501   0.041116
   87        5.100319   0.040609
   88        5.138587   0.021991
   89        5.381457   0.000095
   90        5.381457   0.000095
   91        5.551712   0.000000
   92        5.558792   0.000000
   93        5.558792   0.000000
   94        5.794190   0.000000
   95        6.111792   0.000000
   96        6.117636   0.000000
   97        6.259866   0.000000
   98        6.631279   0.000000
   99        6.631279   0.000000
  100        6.658180   0.000000
  101        6.658180   0.000000
  102        7.002644   0.000000
  103        7.171820   0.000000
  104        7.247108   0.000000
  105        7.488268   0.000000
  106        7.488268   0.000000
  107        7.723410   0.000000
  108        7.723410   0.000000
  109        8.271062   0.000000
  110        8.301739   0.000000
  111        8.372638   0.000000
  112        8.645487   0.000000
  113        8.663120   0.000000
  114        8.667873   0.000000
  115        8.686505   0.000000
  116        8.695029   0.000000
  117        8.826054   0.000000
  118        8.876123   0.000000
  119        8.876991   0.000000
  120        8.904806   0.000000
 
  0.4500000E+00  0.5000000E-01  0.5000000E-01  0.2400000E-01
    1      -25.910462   1.000000
    2      -25.909723   1.000000
    3      -25.898014   1.000000
    4      -25.898014   1.000000
    5      -25.854181   1.000000
    6      -25.854181   1.000000
    7      -25.837488   1.000000
    8      -25.835447   1.000000
    9      -25.817518   1.000000
   10      -25.817518   1.000000
   11      -25.765661   1.000000
   12      -25.765661   1.000000
   13      -25.653794   1.000000
   14      -25.645047   1.000000
   15      -25.524099   1.000000
   16      -25.500665   1.000000
   17      -25.470265   1.000000
   18      -25.446922   1.000000
   19      -25.296061   1.000000
   20      -25.276212   1.000000
   21      -25.251446   1.000000
   22      -25.236584   1.000000
   23      -25.176655   1.000000
   24      -25.176655   1.000000
   25      -25.167659   1.000000
   26      -25.167659   1.000000
   27      -25.118858   1.000000
   28      -25.118858   1.000000
   29      -25.118257   1.000000
   30      -25.118257   1.000000
   31      -25.047289   1.000000
   32      -24.950602   1.000000
   33      -24.946665   1.000000
   34      -24.939984   1.000000
   35      -24.911356   1.000000
   36      -24.911356   1.000000
   37      -24.870225   1.000000
   38      -24.867599   1.000000
   39      -24.853464   1.000000
   40      -24.853464   1.000000
   41      -24.853034   1.000000
   42      -24.851375   1.000000
   43      -24.851375   1.000000
   44      -24.838852   1.000000
   45      -24.801756   1.000000
   46      -24.801523   1.000000
   47      -24.801523   1.000000
   48      -24.788921   1.000000
   49       -0.068552   1.000000
   50        0.367437   1.000000
   51        1.603230   1.000000
   52        1.603230   1.000000
   53        1.669910   1.000000
   54        1.725806   1.000000
   55        1.725806   1.000000
   56        1.810234   1.000000
   57        1.810234   1.000000
   58        1.902724   1.000000
   59        1.945150   1.000000
   60        1.968365   1.000000
   61        1.968365   1.000000
   62        2.072426   1.000000
   63        2.075417   1.000000
   64        2.194820   1.000000
   65        2.459549   1.000000
   66        2.480359   1.000000
   67        3.124267   1.000000
   68        3.141844   1.000000
   69        3.150231   1.000000
   70        3.179910   1.000000
   71        3.788992   1.000000
   72        3.788992   1.000000
   73        3.931373   1.000000
   74        3.931373   1.000000
   75        4.089751   1.000000
   76        4.089751   1.000000
   77        4.165810   0.999999
   78        4.165810   0.999999
   79        4.412626   0.999093
   80        4.412626   0.999093
   81        4.529382   0.989090
   82        4.529382   0.989090
   83        4.805846   0.632536
   84        4.805846   0.632536
   85        4.989298   0.168875
   86        4.989298   0.168875
   87        5.052926   0.079485
   88        5.077650   0.056669
   89        5.091884   0.046089
   90        5.097969   0.042080
   91        5.231439   0.003783
   92        5.252046   0.002427
   93        5.670094   0.000000
   94        5.680953   0.000000
   95        5.746694   0.000000
   96        5.983235   0.000000
   97        6.285015   0.000000
   98        6.786587   0.000000
   99        6.926778   0.000000
  100        6.926778   0.000000
  101        7.050630   0.000000
  102        7.050630   0.000000
  103        7.216899   0.000000
  104        7.216899   0.000000
  105        7.414268   0.000000
  106        7.414268   0.000000
  107        7.502856   0.000000
  108        7.690002   0.000000
  109        8.055345   0.000000
  110        8.259345   0.000000
  111        8.393689   0.000000
  112        8.413965   0.000000
  113        8.527755   0.000000
  114        8.540042   0.000000
  115        8.559048   0.000000
  116        8.764975   0.000000
  117        8.839152   0.000000
  118        8.860075   0.000000
  119        8.865827   0.000000
  120        8.872178   0.000000
 
  0.1500000E+00  0.1500000E+00  0.5000000E-01  0.2400000E-01
    1      -26.049567   1.000000
    2      -26.038514   1.000000
    3      -26.038514   1.000000
    4      -26.024271   1.000000
    5      -26.024271   1.000000
    6      -26.003478   1.000000
    7      -25.661267   1.000000
    8      -25.629003   1.000000
    9      -25.620649   1.000000
   10      -25.608912   1.000000
   11      -25.608912   1.000000
   12      -25.593636   1.000000
   13      -25.584946   1.000000
   14      -25.580040   1.000000
   15      -25.527996   1.000000
   16      -25.434829   1.000000
   17      -25.403705   1.000000
   18      -25.403705   1.000000
   19      -25.328931   1.000000
   20      -25.268225   1.000000
   21      -25.268225   1.000000
   22      -25.208000   1.000000
   23      -25.194338   1.000000
   24      -25.194338   1.000000
   25      -25.189441   1.000000
   26      -25.159596   1.000000
   27      -25.156088   1.000000
   28      -25.156088   1.000000
   29      -25.139269   1.000000
   30      -25.135667   1.000000
   31      -25.135667   1.000000
   32      -25.131720   1.000000
   33      -25.106629   1.000000
   34      -25.075418   1.000000
   35      -25.049626   1.000000
   36      -25.049626   1.000000
   37      -25.008510   1.000000
   38      -24.980805   1.000000
   39      -24.980805   1.000000
   40      -24.781004   1.000000
   41      -24.760484   1.000000
   42      -24.744176   1.000000
   43      -24.744176   1.000000
   44      -24.728708   1.000000
   45      -24.728708   1.000000
   46      -24.713931   1.000000
   47      -24.706341   1.000000
   48      -24.693910   1.000000
   49       -0.841895   1.000000
   50        1.173388   1.000000
   51        1.237972   1.000000
   52        1.263082   1.000000
   53        1.263082   1.000000
   54        1.276078   1.000000
   55        1.291356   1.000000
   56        1.299531   1.000000
   57        1.299531   1.000000
   58        1.800788   1.000000
   59        1.800788   1.000000
   60        2.194719   1.000000
   61        2.484361   1.000000
   62        2.616937   1.000000
   63        2.616937   1.000000
   64        3.096985   1.000000
   65        3.096985   1.000000
   66        3.124650   1.000000
   67        3.193667   1.000000
   68        3.193667   1.000000
   69        3.227059   1.000000
   70        3.240121   1.000000
   71        3.240121   1.000000
   72        3.300665   1.000000
   73        3.376443   1.000000
   74        3.472863   1.000000
   75        3.589148   1.000000
   76        3.797858   1.000000
   77        3.866311   1.000000
   78        4.152226   1.000000
   79        4.166357   0.999999
   80        4.369071   0.999695
   81        4.369071   0.999695
   82        5.021265   0.118075
   83        5.109736   0.035129
   84        5.124279   0.027868
   85        5.124279   0.027868
   86        5.209401   0.005952
   87        5.405255   0.000048
   88        5.418515   0.000033
   89        5.823352   0.000000
   90        5.823352   0.000000
   91        5.865656   0.000000
   92        5.865656   0.000000
   93        6.017101   0.000000
   94        6.175685   0.000000
   95        6.199677   0.000000
   96        6.371540   0.000000
   97        6.371540   0.000000
   98        6.443033   0.000000
   99        6.443033   0.000000
  100        6.572132   0.000000
  101        6.572132   0.000000
  102        6.573391   0.000000
  103        7.266865   0.000000
  104        7.266865   0.000000
  105        7.687983   0.000000
  106        7.885322   0.000000
  107        7.929577   0.000000
  108        7.966782   0.000000
  109        7.966785   0.000000
  110        8.068728   0.000000
  111        8.113024   0.000000
  112        8.113036   0.000000
  113        8.144433   0.000000
  114        8.280450   0.000000
  115        8.447442   0.000000
  116        8.447969   0.000000
  117        8.717629   0.000000
  118        8.842820   0.000000
  119        8.864826   0.000000
  120        8.882831   0.000000
 
  0.2500000E+00  0.1500000E+00  0.5000000E-01  0.4800000E-01
    1      -26.024867   1.000000
    2      -26.006934   1.000000
    3      -26.004974   1.000000
    4      -25.995102   1.000000
    5      -25.981468   1.000000
    6      -25.949012   1.000000
    7      -25.694190   1.000000
    8      -25.687698   1.000000
    9      -25.676241   1.000000
   10      -25.663366   1.000000
   11      -25.659171   1.000000
   12      -25.648925   1.000000
   13      -25.598459   1.000000
   14      -25.597986   1.000000
   15      -25.544031   1.000000
   16      -25.495221   1.000000
   17      -25.409781   1.000000
   18      -25.339017   1.000000
   19      -25.319319   1.000000
   20      -25.311687   1.000000
   21      -25.264705   1.000000
   22      -25.260743   1.000000
   23      -25.212453   1.000000
   24      -25.185413   1.000000
   25      -25.179218   1.000000
   26      -25.166876   1.000000
   27      -25.159887   1.000000
   28      -25.136795   1.000000
   29      -25.133513   1.000000
   30      -25.122019   1.000000
   31      -25.105575   1.000000
   32      -25.092464   1.000000
   33      -25.065236   1.000000
   34      -25.052453   1.000000
   35      -25.015206   1.000000
   36      -24.980729   1.000000
   37      -24.953129   1.000000
   38      -24.917166   1.000000
   39      -24.914773   1.000000
   40      -24.843536   1.000000
   41      -24.800344   1.000000
   42      -24.770252   1.000000
   43      -24.768728   1.000000
   44      -24.760048   1.000000
   45      -24.743425   1.000000
   46      -24.735415   1.000000
   47      -24.711935   1.000000
   48      -24.701526   1.000000
   49       -0.641953   1.000000
   50        1.238796   1.000000
   51        1.352878   1.000000
   52        1.356757   1.000000
   53        1.363351   1.000000
   54        1.425229   1.000000
   55        1.435652   1.000000
   56        1.445965   1.000000
   57        1.466113   1.000000
   58        1.496086   1.000000
   59        1.790075   1.000000
   60        2.169442   1.000000
   61        2.437906   1.000000
   62        2.513577   1.000000
   63        2.572204   1.000000
   64        2.744144   1.000000
   65        2.950857   1.000000
   66        3.120501   1.000000
   67        3.177582   1.000000
   68        3.219292   1.000000
   69        3.264177   1.000000
   70        3.314232   1.000000
   71        3.321726   1.000000
   72        3.389667   1.000000
   73        3.460983   1.000000
   74        3.501991   1.000000
   75        3.569188   1.000000
   76        3.640628   1.000000
   77        3.820851   1.000000
   78        4.282899   0.999973
   79        4.342615   0.999849
   80        4.401999   0.999299
   81        4.702072   0.858223
   82        4.752783   0.762321
   83        4.934033   0.285072
   84        4.938294   0.274929
   85        4.984451   0.177652
   86        5.079041   0.055557
   87        5.102167   0.039482
   88        5.428993   0.000024
   89        5.586786   0.000000
   90        5.655624   0.000000
   91        5.862012   0.000000
   92        5.902855   0.000000
   93        6.042973   0.000000
   94        6.124649   0.000000
   95        6.195163   0.000000
   96        6.215226   0.000000
   97        6.235060   0.000000
   98        6.263619   0.000000
   99        6.299874   0.000000
  100        6.408016   0.000000
  101        6.462871   0.000000
  102        6.693872   0.000000
  103        6.909017   0.000000
  104        7.433142   0.000000
  105        7.669819   0.000000
  106        7.755508   0.000000
  107        7.775130   0.000000
  108        7.970314   0.000000
  109        8.049980   0.000000
  110        8.060853   0.000000
  111        8.146962   0.000000
  112        8.163455   0.000000
  113        8.344473   0.000000
  114        8.632803   0.000000
  115        8.742663   0.000000
  116        8.752441   0.000000
  117        8.758453   0.000000
  118        8.786866   0.000000
  119        8.861021   0.000000
  120        8.870671   0.000000
 
  0.3500000E+00  0.1500000E+00  0.5000000E-01  0.4800000E-01
    1      -25.981966   1.000000
    2      -25.960601   1.000000
    3      -25.954578   1.000000
    4      -25.952605   1.000000
    5      -25.922289   1.000000
    6      -25.877693   1.000000
    7      -25.771567   1.000000
    8      -25.765137   1.000000
    9      -25.748766   1.000000
   10      -25.736625   1.000000
   11      -25.687188   1.000000
   12      -25.681796   1.000000
   13      -25.674989   1.000000
   14      -25.596079   1.000000
   15      -25.563859   1.000000
   16      -25.501061   1.000000
   17      -25.405613   1.000000
   18      -25.368916   1.000000
   19      -25.331901   1.000000
   20      -25.298164   1.000000
   21      -25.249269   1.000000
   22      -25.225415   1.000000
   23      -25.212889   1.000000
   24      -25.209180   1.000000
   25      -25.198780   1.000000
   26      -25.192581   1.000000
   27      -25.178665   1.000000
   28      -25.137619   1.000000
   29      -25.133317   1.000000
   30      -25.080421   1.000000
   31      -25.056737   1.000000
   32      -25.046692   1.000000
   33      -25.018657   1.000000
   34      -24.990749   1.000000
   35      -24.953749   1.000000
   36      -24.922191   1.000000
   37      -24.916630   1.000000
   38      -24.897010   1.000000
   39      -24.855636   1.000000
   40      -24.854240   1.000000
   41      -24.849923   1.000000
   42      -24.809037   1.000000
   43      -24.806141   1.000000
   44      -24.802611   1.000000
   45      -24.768060   1.000000
   46      -24.767240   1.000000
   47      -24.729875   1.000000