       N       E                     dE             d eps       ncg     rms          rms(c)
DAV:   1     0.132592780023E+04    0.13259E+04   -0.70758E+04  9320   0.112E+03
DAV:   2    -0.104519414579E+03   -0.14304E+04   -0.14025E+04  8440   0.453E+02
DAV:   3    -0.176383107025E+03   -0.71864E+02   -0.67801E+02 12400   0.797E+01
DAV:   4    -0.178346473563E+03   -0.19634E+01   -0.19526E+01 10760   0.144E+01
DAV:   5    -0.178429710787E+03   -0.83237E-01   -0.83154E-01 12080   0.212E+00
DAV:   6    -0.178430710211E+03   -0.99942E-03   -0.99921E-03 10680   0.292E-01
DAV:   7    -0.178430746516E+03   -0.36305E-04   -0.36303E-04 12320   0.489E-02
DAV:   8    -0.178430746905E+03   -0.38944E-06   -0.38969E-06 10520   0.615E-03
DAV:   9    -0.178430746919E+03   -0.13672E-07   -0.13378E-07  9520   0.104E-03
   1 F= -.17843075E+03 E0= -.17818849E+03  d E =-.484512E+00
