 vasp.5.4.4.18Apr17-6-g9f103f2a35 (build May 20 2018 16:52:39) complex          
  
 executed on             LinuxIFC date 2022.11.17  22:01:42
 running on   40 total cores
 distrk:  each k-point on   40 cores,    1 groups
 distr:  one band on NCORES_PER_BAND=   1 cores,   40 groups


--------------------------------------------------------------------------------------------------------


 INCAR:
 POTCAR:    PAW Nb_pv 09Jan2002                   

 ----------------------------------------------------------------------------- 
|                                                                             |
|           W    W    AA    RRRRR   N    N  II  N    N   GGGG   !!!           |
|           W    W   A  A   R    R  NN   N  II  NN   N  G    G  !!!           |
|           W    W  A    A  R    R  N N  N  II  N N  N  G       !!!           |
|           W WW W  AAAAAA  RRRRR   N  N N  II  N  N N  G  GGG   !            |
|           WW  WW  A    A  R   R   N   NN  II  N   NN  G    G                |
|           W    W  A    A  R    R  N    N  II  N    N   GGGG   !!!           |
|                                                                             |
|      For optimal performance we recommend to set                            |
|        NCORE= 4 - approx SQRT( number of cores)                             |
|      NCORE specifies how many cores store one orbital (NPAR=cpu/NCORE).     |
|      This setting can  greatly improve the performance of VASP for DFT.     |
|      The default,   NCORE=1            might be grossly inefficient         |
|      on modern multi-core architectures or massively parallel machines.     |
|      Do your own testing !!!!                                               |
|      Unfortunately you need to use the default for GW and RPA calculations. |
|      (for HF NCORE is supported but not extensively tested yet)             |
|                                                                             |
 ----------------------------------------------------------------------------- 

 POTCAR:    PAW Nb_pv 09Jan2002                   
   VRHFIN =Nb: s1d4                                                             
   LEXCH  = CA                                                                  
   EATOM  =  1046.3740 eV,   76.9063 Ry                                         
                                                                                
   TITEL  = PAW Nb_pv 09Jan2002                                                 
   LULTRA =        F    use ultrasoft PP ?                                      
   IUNSCR =        1    unscreen: 0-lin 1-nonlin 2-no                           
   RPACOR =    2.200    partial core radius                                     
   POMASS =   92.910; ZVAL   =   11.000    mass and valenz                      
   RCORE  =    2.750    outmost cutoff radius                                   
   RWIGS  =    2.840; RWIGS  =    1.503    wigner-seitz radius (au A)           
   ENMAX  =  207.263; ENMIN  =  155.447 eV                                      
   RCLOC  =    2.209    cutoff for local pot                                    
   LCOR   =        T    correct aug charges                                     
   LPAW   =        T    paw PP                                                  
   EAUG   =  352.745                                                            
   DEXC   =    0.000                                                            
   RMAX   =    2.814    core radius for proj-oper                               
   RAUG   =    1.300    factor for augmentation sphere                          
   RDEP   =    2.785    radius for radial grids                                 
   RDEPT  =    2.205    core radius for aug-charge                              
                                                                                
   Atomic configuration                                                         
   11 entries                                                                   
     n  l   j            E        occ.                                          
     1  0  0.50    -18704.9804   2.0000                                         
     2  0  0.50     -2619.6337   2.0000                                         
     2  1  1.50     -2343.2033   6.0000                                         
     3  0  0.50      -436.6391   2.0000                                         
     3  1  1.50      -345.9106   6.0000                                         
     3  2  2.50      -196.5794  10.0000                                         
     4  0  0.50       -58.2950   2.0000                                         
     4  1  1.50       -34.5590   6.0000                                         
     4  2  2.50        -3.2208   4.0000                                         
     5  0  0.50        -4.1880   1.0000                                         
     4  3  2.50        -1.3606   0.0000                                         
   Description                                                                  
     l       E           TYP  RCUT    TYP  RCUT                                 
     1    -34.5590103     23  2.600                                             
     1     -1.3605826     23  2.600                                             
     2     -3.2207521     23  2.600                                             
     2     -1.6263194     23  2.600                                             
     0     -4.1879630     23  2.750                                             
     0     20.4087390     23  2.750                                             
  local pseudopotential read in
  partial core-charges read in
  partial kinetic energy density read in
  atomic valenz-charges read in
  non local Contribution for L=           1  read in
    real space projection operators read in
  non local Contribution for L=           1  read in
    real space projection operators read in
  non local Contribution for L=           2  read in
    real space projection operators read in
  non local Contribution for L=           2  read in
    real space projection operators read in
  non local Contribution for L=           0  read in
    real space projection operators read in
  non local Contribution for L=           0  read in
    real space projection operators read in
    PAW grid and wavefunctions read in
 
   number of l-projection  operators is LMAX  =           6
   number of lm-projection operators is LMMAX =          18
 
  PAW Nb_pv 09Jan2002                   :
 energy of atom  1       EATOM=-1046.3740
 kinetic energy error for atom=    0.0109 (will be added to EATOM!!)
 
 
 POSCAR: sic16 Nb                                
  positions in direct lattice
  No initial velocities read in
 exchange correlation table for  LEXCH =        2
   RHO(1)=    0.500       N(1)  =     2000
   RHO(2)=  100.500       N(2)  =     4000
 


--------------------------------------------------------------------------------------------------------


 ion  position               nearest neighbor table
   1  0.000  0.000  0.000-   2 2.86   4 2.86   6 2.86   8 2.86  10 2.86  12 2.86  14 2.86  16 2.86
                             7 3.30   5 3.30   3 3.30   7 3.30   5 3.30   3 3.30
   2  0.250  0.250  0.250-   1 2.86   3 2.86   5 2.86   7 2.86   9 2.86  11 2.86  13 2.86  15 2.86
                             4 3.30   8 3.30   6 3.30   8 3.30   6 3.30   4 3.30
   3  0.500  0.000  0.000-   2 2.86   4 2.86   6 2.86   8 2.86  10 2.86  12 2.86  14 2.86  16 2.86
                            13 3.30   1 3.30   9 3.30  13 3.30   9 3.30   1 3.30
   4  0.750  0.250  0.250-   1 2.86   3 2.86   5 2.86   7 2.86   9 2.86  11 2.86  13 2.86  15 2.86
                            10 3.30  14 3.30   2 3.30  14 3.30  10 3.30   2 3.30
   5  0.000  0.500  0.000-   2 2.86   4 2.86   6 2.86   8 2.86  10 2.86  12 2.86  14 2.86  16 2.86
                             9 3.30   1 3.30  11 3.30  11 3.30   1 3.30   9 3.30
   6  0.250  0.750  0.250-   1 2.86   3 2.86   5 2.86   7 2.86   9 2.86  11 2.86  13 2.86  15 2.86
                            12 3.30  10 3.30   2 3.30  12 3.30   2 3.30  10 3.30
   7  0.000  0.000  0.500-   2 2.86   4 2.86   6 2.86   8 2.86  10 2.86  12 2.86  14 2.86  16 2.86
                            13 3.30  11 3.30   1 3.30   1 3.30  11 3.30  13 3.30
   8  0.250  0.250  0.750-   1 2.86   3 2.86   5 2.86   7 2.86   9 2.86  11 2.86  13 2.86  15 2.86
                             2 3.30  14 3.30  12 3.30   2 3.30  12 3.30  14 3.30
   9  0.500  0.500  0.000-   2 2.86   4 2.86   6 2.86   8 2.86  10 2.86  12 2.86  14 2.86  16 2.86
                             3 3.30  15 3.30   5 3.30  15 3.30   3 3.30   5 3.30
  10  0.750  0.750  0.250-   1 2.86   3 2.86   5 2.86   7 2.86   9 2.86  11 2.86  13 2.86  15 2.86
                             6 3.30   4 3.30  16 3.30  16 3.30   4 3.30   6 3.30
  11  0.000  0.500  0.500-   2 2.86   4 2.86   6 2.86   8 2.86  10 2.86  12 2.86  14 2.86  16 2.86
                             7 3.30  15 3.30   5 3.30   5 3.30   7 3.30  15 3.30
  12  0.250  0.750  0.750-   1 2.86   3 2.86   5 2.86   7 2.86   9 2.86  11 2.86  13 2.86  15 2.86
                             6 3.30   8 3.30  16 3.30   6 3.30   8 3.30  16 3.30
  13  0.500  0.000  0.500-   2 2.86   4 2.86   6 2.86   8 2.86  10 2.86  12 2.86  14 2.86  16 2.86
                             7 3.30  15 3.30   3 3.30   3 3.30  15 3.30   7 3.30
  14  0.750  0.250  0.750-   1 2.86   3 2.86   5 2.86   7 2.86   9 2.86  11 2.86  13 2.86  15 2.86
                             4 3.30   8 3.30  16 3.30   4 3.30  16 3.30   8 3.30
  15  0.500  0.500  0.500-   2 2.86   4 2.86   6 2.86   8 2.86  10 2.86  12 2.86  14 2.86  16 2.86
                            13 3.30  11 3.30   9 3.30   9 3.30  13 3.30  11 3.30
  16  0.750  0.750  0.750-   1 2.86   3 2.86   5 2.86   7 2.86   9 2.86  11 2.86  13 2.86  15 2.86
                            10 3.30  14 3.30  12 3.30  10 3.30  14 3.30  12 3.30
 
  LATTYP: Found a simple cubic cell.
 ALAT       =     6.6016000000
  
  Lattice vectors:
  
 A1 = (   6.6016000000,   0.0000000000,   0.0000000000)
 A2 = (   0.0000000000,   6.6016000000,   0.0000000000)
 A3 = (   0.0000000000,   0.0000000000,   6.6016000000)


Analysis of symmetry for initial positions (statically):
=====================================================================
 Subroutine PRICEL returns following result:
 
  LATTYP: Found a body centered cubic cell.
 ALAT       =     3.3008000000
  
  Lattice vectors:
  
 A1 = (   1.6504000000,   1.6504000000,   1.6504000000)
 A2 = (   1.6504000000,  -1.6504000000,  -1.6504000000)
 A3 = (  -1.6504000000,   1.6504000000,  -1.6504000000)
 
  16 primitive cells build up your supercell.
 

 Routine SETGRP: Setting up the symmetry group for a 
 simple cubic supercell.


 Subroutine GETGRP returns: Found 48 space group operations
 (whereof 48 operations were pure point group operations)
 out of a pool of 48 trial point group operations.


The static configuration has the point symmetry O_h .


Analysis of symmetry for dynamics (positions and initial velocities):
=====================================================================
 Subroutine PRICEL returns following result:
 
  LATTYP: Found a body centered cubic cell.
 ALAT       =     3.3008000000
  
  Lattice vectors:
  
 A1 = (   1.6504000000,   1.6504000000,   1.6504000000)
 A2 = (   1.6504000000,  -1.6504000000,  -1.6504000000)
 A3 = (  -1.6504000000,   1.6504000000,  -1.6504000000)
 
  16 primitive cells build up your supercell.
 

 Routine SETGRP: Setting up the symmetry group for a 
 simple cubic supercell.


 Subroutine GETGRP returns: Found 48 space group operations
 (whereof 48 operations were pure point group operations)
 out of a pool of 48 trial point group operations.


The dynamic configuration has the point symmetry O_h .


 Subroutine INISYM returns: Found 48 space group operations
 (whereof 48 operations are pure point group operations),
 and found    16 'primitive' translations

 
 
 KPOINTS: 10*10*10                                

Automatic generation of k-mesh.
Space group operators:
 irot       det(A)        alpha          n_x          n_y          n_z        tau_x        tau_y        tau_z
    1     1.000000     0.000000     1.000000     0.000000     0.000000     0.000000     0.000000     0.000000
    2    -1.000000     0.000000     1.000000     0.000000     0.000000     0.000000     0.000000     0.000000
    3     1.000000   120.000000    -0.577350    -0.577350    -0.577350     0.000000     0.000000     0.000000
    4    -1.000000   120.000000    -0.577350    -0.577350    -0.577350     0.000000     0.000000     0.000000
    5     1.000000   120.000000     0.577350     0.577350     0.577350     0.000000     0.000000     0.000000
    6    -1.000000   120.000000     0.577350     0.577350     0.577350     0.000000     0.000000     0.000000
    7     1.000000    90.000000     0.000000     0.000000    -1.000000     0.000000     0.000000     0.000000
    8    -1.000000    90.000000     0.000000     0.000000    -1.000000     0.000000     0.000000     0.000000
    9     1.000000   180.000000     0.000000     0.707107     0.707107     0.000000     0.000000     0.000000
   10    -1.000000   180.000000     0.000000     0.707107     0.707107     0.000000     0.000000     0.000000
   11     1.000000    90.000000     0.000000     1.000000     0.000000     0.000000     0.000000     0.000000
   12    -1.000000    90.000000     0.000000     1.000000     0.000000     0.000000     0.000000     0.000000
   13     1.000000   180.000000     0.000000     0.000000     1.000000     0.000000     0.000000     0.000000
   14    -1.000000   180.000000     0.000000     0.000000     1.000000     0.000000     0.000000     0.000000
   15     1.000000   120.000000    -0.577350     0.577350     0.577350     0.000000     0.000000     0.000000
   16    -1.000000   120.000000    -0.577350     0.577350     0.577350     0.000000     0.000000     0.000000
   17     1.000000   120.000000    -0.577350     0.577350    -0.577350     0.000000     0.000000     0.000000
   18    -1.000000   120.000000    -0.577350     0.577350    -0.577350     0.000000     0.000000     0.000000
   19     1.000000    90.000000     0.000000     0.000000     1.000000     0.000000     0.000000     0.000000
   20    -1.000000    90.000000     0.000000     0.000000     1.000000     0.000000     0.000000     0.000000
   21     1.000000    90.000000    -1.000000     0.000000     0.000000     0.000000     0.000000     0.000000
   22    -1.000000    90.000000    -1.000000     0.000000     0.000000     0.000000     0.000000     0.000000
   23     1.000000   180.000000     0.707107     0.000000     0.707107     0.000000     0.000000     0.000000
   24    -1.000000   180.000000     0.707107     0.000000     0.707107     0.000000     0.000000     0.000000
   25     1.000000   120.000000     0.577350    -0.577350     0.577350     0.000000     0.000000     0.000000
   26    -1.000000   120.000000     0.577350    -0.577350     0.577350     0.000000     0.000000     0.000000
   27     1.000000   120.000000    -0.577350    -0.577350     0.577350     0.000000     0.000000     0.000000
   28    -1.000000   120.000000    -0.577350    -0.577350     0.577350     0.000000     0.000000     0.000000
   29     1.000000   180.000000     1.000000     0.000000     0.000000     0.000000     0.000000     0.000000
   30    -1.000000   180.000000     1.000000     0.000000     0.000000     0.000000     0.000000     0.000000
   31     1.000000    90.000000     0.000000    -1.000000     0.000000     0.000000     0.000000     0.000000
   32    -1.000000    90.000000     0.000000    -1.000000     0.000000     0.000000     0.000000     0.000000
   33     1.000000   180.000000     0.707107     0.707107     0.000000     0.000000     0.000000     0.000000
   34    -1.000000   180.000000     0.707107     0.707107     0.000000     0.000000     0.000000     0.000000
   35     1.000000    90.000000     1.000000     0.000000     0.000000     0.000000     0.000000     0.000000
   36    -1.000000    90.000000     1.000000     0.000000     0.000000     0.000000     0.000000     0.000000
   37     1.000000   120.000000     0.577350    -0.577350    -0.577350     0.000000     0.000000     0.000000
   38    -1.000000   120.000000     0.577350    -0.577350    -0.577350     0.000000     0.000000     0.000000
   39     1.000000   180.000000     0.000000     1.000000     0.000000     0.000000     0.000000     0.000000
   40    -1.000000   180.000000     0.000000     1.000000     0.000000     0.000000     0.000000     0.000000
   41     1.000000   120.000000     0.577350     0.577350    -0.577350     0.000000     0.000000     0.000000
   42    -1.000000   120.000000     0.577350     0.577350    -0.577350     0.000000     0.000000     0.000000
   43     1.000000   180.000000     0.000000    -0.707107     0.707107     0.000000     0.000000     0.000000
   44    -1.000000   180.000000     0.000000    -0.707107     0.707107     0.000000     0.000000     0.000000
   45     1.000000   180.000000     0.707107    -0.707107     0.000000     0.000000     0.000000     0.000000
   46    -1.000000   180.000000     0.707107    -0.707107     0.000000     0.000000     0.000000     0.000000
   47     1.000000   180.000000     0.707107     0.000000    -0.707107     0.000000     0.000000     0.000000
   48    -1.000000   180.000000     0.707107     0.000000    -0.707107     0.000000     0.000000     0.000000
 
 Subroutine IBZKPT returns following result:
 ===========================================
 
 Found     35 irreducible k-points:
 
 Following reciprocal coordinates:
            Coordinates               Weight
  0.050000  0.050000  0.050000      8.000000
  0.150000  0.050000  0.050000     24.000000
  0.250000  0.050000  0.050000     24.000000
  0.350000  0.050000  0.050000     24.000000
  0.450000  0.050000  0.050000     24.000000
  0.150000  0.150000  0.050000     24.000000
  0.250000  0.150000  0.050000     48.000000
  0.350000  0.150000  0.050000     48.000000
  0.450000  0.150000  0.050000     48.000000
  0.250000  0.250000  0.050000     24.000000
  0.350000  0.250000  0.050000     48.000000
  0.450000  0.250000  0.050000     48.000000
  0.350000  0.350000  0.050000     24.000000
  0.450000  0.350000  0.050000     48.000000
  0.450000  0.450000  0.050000     24.000000
  0.150000  0.150000  0.150000      8.000000
  0.250000  0.150000  0.150000     24.000000
  0.350000  0.150000  0.150000     24.000000
  0.450000  0.150000  0.150000     24.000000
  0.250000  0.250000  0.150000     24.000000
  0.350000  0.250000  0.150000     48.000000
  0.450000  0.250000  0.150000     48.000000
  0.350000  0.350000  0.150000     24.000000
  0.450000  0.350000  0.150000     48.000000
  0.450000  0.450000  0.150000     24.000000
  0.250000  0.250000  0.250000      8.000000
  0.350000  0.250000  0.250000     24.000000
  0.450000  0.250000  0.250000     24.000000
  0.350000  0.350000  0.250000     24.000000
  0.450000  0.350000  0.250000     48.000000
  0.450000  0.450000  0.250000     24.000000
  0.350000  0.350000  0.350000      8.000000
  0.450000  0.350000  0.350000     24.000000
  0.450000  0.450000  0.350000     24.000000
  0.450000  0.450000  0.450000      8.000000
 
 Following cartesian coordinates:
            Coordinates               Weight
  0.025000  0.025000  0.025000      8.000000
  0.075000  0.025000  0.025000     24.000000
  0.125000  0.025000  0.025000     24.000000
  0.175000  0.025000  0.025000     24.000000
  0.225000  0.025000  0.025000     24.000000
  0.075000  0.075000  0.025000     24.000000
  0.125000  0.075000  0.025000     48.000000
  0.175000  0.075000  0.025000     48.000000
  0.225000  0.075000  0.025000     48.000000
  0.125000  0.125000  0.025000     24.000000
  0.175000  0.125000  0.025000     48.000000
  0.225000  0.125000  0.025000     48.000000
  0.175000  0.175000  0.025000     24.000000
  0.225000  0.175000  0.025000     48.000000
  0.225000  0.225000  0.025000     24.000000
  0.075000  0.075000  0.075000      8.000000
  0.125000  0.075000  0.075000     24.000000
  0.175000  0.075000  0.075000     24.000000
  0.225000  0.075000  0.075000     24.000000
  0.125000  0.125000  0.075000     24.000000
  0.175000  0.125000  0.075000     48.000000
  0.225000  0.125000  0.075000     48.000000
  0.175000  0.175000  0.075000     24.000000
  0.225000  0.175000  0.075000     48.000000
  0.225000  0.225000  0.075000     24.000000
  0.125000  0.125000  0.125000      8.000000
  0.175000  0.125000  0.125000     24.000000
  0.225000  0.125000  0.125000     24.000000
  0.175000  0.175000  0.125000     24.000000
  0.225000  0.175000  0.125000     48.000000
  0.225000  0.225000  0.125000     24.000000
  0.175000  0.175000  0.175000      8.000000
  0.225000  0.175000  0.175000     24.000000
  0.225000  0.225000  0.175000     24.000000
  0.225000  0.225000  0.225000      8.000000
 


--------------------------------------------------------------------------------------------------------




 Dimension of arrays:
   k-points           NKPTS =     35   k-points in BZ     NKDIM =     35   number of bands    NBANDS=    120
   number of dos      NEDOS =    301   number of ions     NIONS =     16
   non local maximal  LDIM  =      6   non local SUM 2l+1 LMDIM =     18
   total plane-waves  NPLWV =  21952
   max r-space proj   IRMAX =      1   max aug-charges    IRDMAX=   4943
   dimension x,y,z NGX =    28 NGY =   28 NGZ =   28
   dimension x,y,z NGXF=    56 NGYF=   56 NGZF=   56
   support grid    NGXF=    56 NGYF=   56 NGZF=   56
   ions per type =              16
   NGX,Y,Z   is equivalent  to a cutoff of   7.05,  7.05,  7.05 a.u.
   NGXF,Y,Z  is equivalent  to a cutoff of  14.10, 14.10, 14.10 a.u.

 SYSTEM =  Nb gaussian                             
 POSCAR =  sic16 Nb                                

 Startparameter for this run:
   NWRITE =      2    write-flag & timer
   PREC   = normal    normal or accurate (medium, high low for compatibility)
   ISTART =      0    job   : 0-new  1-cont  2-samecut
   ICHARG =     11    charge: 1-file 2-atom 10-const
   ISPIN  =      1    spin polarized calculation?
   LNONCOLLINEAR =      F non collinear calculations
   LSORBIT =      F    spin-orbit coupling
   INIWAV =      1    electr: 0-lowe 1-rand  2-diag
   LASPH  =      F    aspherical Exc in radial PAW
   METAGGA=      F    non-selfconsistent MetaGGA calc.

 Electronic Relaxation 1
   ENCUT  =  300.0 eV  22.05 Ry    4.70 a.u.   9.32  9.32  9.32*2*pi/ulx,y,z
   ENINI  =  300.0     initial cutoff
   ENAUG  =  352.7 eV  augmentation charge cutoff
   NELM   =     60;   NELMIN=  2; NELMDL= -5     # of ELM steps 
   EDIFF  = 0.1E-06   stopping-criterion for ELM
   LREAL  =      F    real-space projection
   NLSPLINE    = F    spline interpolate recip. space projectors
   LCOMPAT=      F    compatible to vasp.4.4
   GGA_COMPAT  = T    GGA compatible to vasp.4.4-vasp.4.6
   LMAXPAW     = -100 max onsite density
   LMAXMIX     =    2 max onsite mixed and CHGCAR
   VOSKOWN=      0    Vosko Wilk Nusair interpolation
   ROPT   =    0.00000
 Ionic relaxation
   EDIFFG = 0.1E-05   stopping-criterion for IOM
   NSW    =      0    number of steps for IOM
   NBLOCK =      1;   KBLOCK =      1    inner block; outer block 
   IBRION =     -1    ionic relax: 0-MD 1-quasi-New 2-CG
   NFREE  =      0    steps in history (QN), initial steepest desc. (CG)
   ISIF   =      2    stress and relaxation
   IWAVPR =     10    prediction:  0-non 1-charg 2-wave 3-comb
   ISYM   =      2    0-nonsym 1-usesym 2-fastsym
   LCORR  =      T    Harris-Foulkes like correction to forces

   POTIM  = 0.5000    time-step for ionic-motion
   TEIN   =    0.0    initial temperature
   TEBEG  =    0.0;   TEEND  =   0.0 temperature during run
   SMASS  =  -3.00    Nose mass-parameter (am)
   estimated Nose-frequenzy (Omega)   =  0.10E-29 period in steps =****** mass=  -0.996E-27a.u.
   SCALEE = 1.0000    scale energy and forces
   NPACO  =    256;   APACO  = 16.0  distance and # of slots for P.C.
   PSTRESS=    0.0 pullay stress

  Mass of Ions in am
   POMASS =  92.91
  Ionic Valenz
   ZVAL   =  11.00
  Atomic Wigner-Seitz radii
   RWIGS  =  -1.00
  virtual crystal weights 
   VCA    =   1.00
   NELECT =     176.0000    total number of electrons
   NUPDOWN=      -1.0000    fix difference up-down

 DOS related values:
   EMIN   =  10.00;   EMAX   =-10.00  energy-range for DOS
   EFERMI =   0.00
   ISMEAR =     0;   SIGMA  =   0.20  broadening in eV -4-tet -1-fermi 0-gaus

 Electronic relaxation 2 (details)
   IALGO  =     38    algorithm
   LDIAG  =      T    sub-space diagonalisation (order eigenvalues)
   LSUBROT=      F    optimize rotation matrix (better conditioning)
   TURBO    =      0    0=normal 1=particle mesh
   IRESTART =      0    0=no restart 2=restart with 2 vectors
   NREBOOT  =      0    no. of reboots
   NMIN     =      0    reboot dimension
   EREF     =   0.00    reference energy to select bands
   IMIX   =      4    mixing-type and parameters
     AMIX     =   0.40;   BMIX     =  1.00
     AMIX_MAG =   1.60;   BMIX_MAG =  1.00
     AMIN     =   0.10
     WC   =   100.;   INIMIX=   1;  MIXPRE=   1;  MAXMIX= -45

 Intra band minimization:
   WEIMIN = 0.0000     energy-eigenvalue tresh-hold
   EBREAK =  0.21E-09  absolut break condition
   DEPER  =   0.30     relativ break condition  

   TIME   =   0.40     timestep for ELM

  volume/ion in A,a.u.               =      17.98       121.35
  Fermi-wavevector in a.u.,A,eV,Ry     =   1.389728  2.626205 26.277534  1.931344
  Thomas-Fermi vector in A             =   2.513731
 
 Write flags
   LWAVE        =      T    write WAVECAR
   LDOWNSAMPLE  =      F    k-point downsampling of WAVECAR
   LCHARG       =      F    write CHGCAR
   LVTOT        =      F    write LOCPOT, total local potential
   LVHAR        =      F    write LOCPOT, Hartree potential only
   LELF         =      F    write electronic localiz. function (ELF)
   LORBIT       =      0    0 simple, 1 ext, 2 COOP (PROOUT), +10 PAW based schemes


 Dipole corrections
   LMONO  =      F    monopole corrections only (constant potential shift)
   LDIPOL =      F    correct potential (dipole corrections)
   IDIPOL =      0    1-x, 2-y, 3-z, 4-all directions 
   EPSILON=  1.0000000 bulk dielectric constant

 Exchange correlation treatment:
   GGA     =    --    GGA type
   LEXCH   =     2    internal setting for exchange type
   VOSKOWN=      0    Vosko Wilk Nusair interpolation
   LHFCALC =     F    Hartree Fock is set to
   LHFONE  =     F    Hartree Fock one center treatment
   AEXX    =    0.0000 exact exchange contribution

 Linear response parameters
   LEPSILON=     F    determine dielectric tensor
   LRPA    =     F    only Hartree local field effects (RPA)
   LNABLA  =     F    use nabla operator in PAW spheres
   LVEL    =     F    velocity operator in full k-point grid
   LINTERFAST=   F  fast interpolation
   KINTER  =     0    interpolate to denser k-point grid
   CSHIFT  =0.1000    complex shift for real part using Kramers Kronig
   OMEGAMAX=  -1.0    maximum frequency
   DEG_THRESHOLD= 0.2000000E-02 threshold for treating states as degnerate
   RTIME   =   -0.100 relaxation time in fs
  (WPLASMAI=    0.000 imaginary part of plasma frequency in eV, 0.658/RTIME)
   DFIELD  = 0.0000000 0.0000000 0.0000000 field for delta impulse in time
 
 Orbital magnetization related:
   ORBITALMAG=     F  switch on orbital magnetization
   LCHIMAG   =     F  perturbation theory with respect to B field
   DQ        =  0.001000  dq finite difference perturbation B field
   LLRAUG    =     F  two centre corrections for induced B field



--------------------------------------------------------------------------------------------------------


 Static calculation
 charge density and potential remain constant during run
 non-spin polarized calculation
 Variant of blocked Davidson
 Davidson routine will perform the subspace rotation
 perform sub-space diagonalisation
    after iterative eigenvector-optimisation
 no mixing
 using additional bands           32
 reciprocal scheme for non local part
 use partial core corrections
 calculate Harris-corrections to forces 
   (improved forces if not selfconsistent)
 use of overlap-Matrix (Vanderbilt PP)
 Gauss-broadening in eV      SIGMA  =   0.20


--------------------------------------------------------------------------------------------------------


  energy-cutoff  :      300.00
  volume of cell :      287.71
      direct lattice vectors                 reciprocal lattice vectors
     6.601600000  0.000000000  0.000000000     0.151478429  0.000000000  0.000000000
     0.000000000  6.601600000  0.000000000     0.000000000  0.151478429  0.000000000
     0.000000000  0.000000000  6.601600000     0.000000000  0.000000000  0.151478429

  length of vectors
     6.601600000  6.601600000  6.601600000     0.151478429  0.151478429  0.151478429


 
 k-points in units of 2pi/SCALE and weight: 10*10*10                                
   0.02500000  0.02500000  0.02500000       0.008
   0.07500000  0.02500000  0.02500000       0.024
   0.12500000  0.02500000  0.02500000       0.024
   0.17500000  0.02500000  0.02500000       0.024
   0.22500000  0.02500000  0.02500000       0.024
   0.07500000  0.07500000  0.02500000       0.024
   0.12500000  0.07500000  0.02500000       0.048
   0.17500000  0.07500000  0.02500000       0.048
   0.22500000  0.07500000  0.02500000       0.048
   0.12500000  0.12500000  0.02500000       0.024
   0.17500000  0.12500000  0.02500000       0.048
   0.22500000  0.12500000  0.02500000       0.048
   0.17500000  0.17500000  0.02500000       0.024
   0.22500000  0.17500000  0.02500000       0.048
   0.22500000  0.22500000  0.02500000       0.024
   0.07500000  0.07500000  0.07500000       0.008
   0.12500000  0.07500000  0.07500000       0.024
   0.17500000  0.07500000  0.07500000       0.024
   0.22500000  0.07500000  0.07500000       0.024
   0.12500000  0.12500000  0.07500000       0.024
   0.17500000  0.12500000  0.07500000       0.048
   0.22500000  0.12500000  0.07500000       0.048
   0.17500000  0.17500000  0.07500000       0.024
   0.22500000  0.17500000  0.07500000       0.048
   0.22500000  0.22500000  0.07500000       0.024
   0.12500000  0.12500000  0.12500000       0.008
   0.17500000  0.12500000  0.12500000       0.024
   0.22500000  0.12500000  0.12500000       0.024
   0.17500000  0.17500000  0.12500000       0.024
   0.22500000  0.17500000  0.12500000       0.048
   0.22500000  0.22500000  0.12500000       0.024
   0.17500000  0.17500000  0.17500000       0.008
   0.22500000  0.17500000  0.17500000       0.024
   0.22500000  0.22500000  0.17500000       0.024
   0.22500000  0.22500000  0.22500000       0.008
 
 k-points in reciprocal lattice and weights: 10*10*10                                
   0.05000000  0.05000000  0.05000000       0.008
   0.15000000  0.05000000  0.05000000       0.024
   0.25000000  0.05000000  0.05000000       0.024
   0.35000000  0.05000000  0.05000000       0.024
   0.45000000  0.05000000  0.05000000       0.024
   0.15000000  0.15000000  0.05000000       0.024
   0.25000000  0.15000000  0.05000000       0.048
   0.35000000  0.15000000  0.05000000       0.048
   0.45000000  0.15000000  0.05000000       0.048
   0.25000000  0.25000000  0.05000000       0.024
   0.35000000  0.25000000  0.05000000       0.048
   0.45000000  0.25000000  0.05000000       0.048
   0.35000000  0.35000000  0.05000000       0.024
   0.45000000  0.35000000  0.05000000       0.048
   0.45000000  0.45000000  0.05000000       0.024
   0.15000000  0.15000000  0.15000000       0.008
   0.25000000  0.15000000  0.15000000       0.024
   0.35000000  0.15000000  0.15000000       0.024
   0.45000000  0.15000000  0.15000000       0.024
   0.25000000  0.25000000  0.15000000       0.024
   0.35000000  0.25000000  0.15000000       0.048
   0.45000000  0.25000000  0.15000000       0.048
   0.35000000  0.35000000  0.15000000       0.024
   0.45000000  0.35000000  0.15000000       0.048
   0.45000000  0.45000000  0.15000000       0.024
   0.25000000  0.25000000  0.25000000       0.008
   0.35000000  0.25000000  0.25000000       0.024
   0.45000000  0.25000000  0.25000000       0.024
   0.35000000  0.35000000  0.25000000       0.024
   0.45000000  0.35000000  0.25000000       0.048
   0.45000000  0.45000000  0.25000000       0.024
   0.35000000  0.35000000  0.35000000       0.008
   0.45000000  0.35000000  0.35000000       0.024
   0.45000000  0.45000000  0.35000000       0.024
   0.45000000  0.45000000  0.45000000       0.008
 
 position of ions in fractional coordinates (direct lattice) 
   0.00000000  0.00000000  0.00000000
   0.25000000  0.25000000  0.25000000
   0.50000000  0.00000000  0.00000000
   0.75000000  0.25000000  0.25000000
   0.00000000  0.50000000  0.00000000
   0.25000000  0.75000000  0.25000000
   0.00000000  0.00000000  0.50000000
   0.25000000  0.25000000  0.75000000
   0.50000000  0.50000000  0.00000000
   0.75000000  0.75000000  0.25000000
   0.00000000  0.50000000  0.50000000
   0.25000000  0.75000000  0.75000000
   0.50000000  0.00000000  0.50000000
   0.75000000  0.25000000  0.75000000
   0.50000000  0.50000000  0.50000000
   0.75000000  0.75000000  0.75000000
 
 position of ions in cartesian coordinates  (Angst):
   0.00000000  0.00000000  0.00000000
   1.65040000  1.65040000  1.65040000
   3.30080000  0.00000000  0.00000000
   4.95120000  1.65040000  1.65040000
   0.00000000  3.30080000  0.00000000
   1.65040000  4.95120000  1.65040000
   0.00000000  0.00000000  3.30080000
   1.65040000  1.65040000  4.95120000
   3.30080000  3.30080000  0.00000000
   4.95120000  4.95120000  1.65040000
   0.00000000  3.30080000  3.30080000
   1.65040000  4.95120000  4.95120000
   3.30080000  0.00000000  3.30080000
   4.95120000  1.65040000  4.95120000
   3.30080000  3.30080000  3.30080000
   4.95120000  4.95120000  4.95120000
 


--------------------------------------------------------------------------------------------------------


 k-point  1 :   0.0500 0.0500 0.0500  plane waves:    3383
 k-point  2 :   0.1500 0.0500 0.0500  plane waves:    3385
 k-point  3 :   0.2500 0.0500 0.0500  plane waves:    3414
 k-point  4 :   0.3500 0.0500 0.0500  plane waves:    3406
 k-point  5 :   0.4500 0.0500 0.0500  plane waves:    3413
 k-point  6 :   0.1500 0.1500 0.0500  plane waves:    3395
 k-point  7 :   0.2500 0.1500 0.0500  plane waves:    3396
 k-point  8 :   0.3500 0.1500 0.0500  plane waves:    3397
 k-point  9 :   0.4500 0.1500 0.0500  plane waves:    3394
 k-point 10 :   0.2500 0.2500 0.0500  plane waves:    3397
 k-point 11 :   0.3500 0.2500 0.0500  plane waves:    3392
 k-point 12 :   0.4500 0.2500 0.0500  plane waves:    3387
 k-point 13 :   0.3500 0.3500 0.0500  plane waves:    3398
 k-point 14 :   0.4500 0.3500 0.0500  plane waves:    3394
 k-point 15 :   0.4500 0.4500 0.0500  plane waves:    3399
 k-point 16 :   0.1500 0.1500 0.1500  plane waves:    3398
 k-point 17 :   0.2500 0.1500 0.1500  plane waves:    3408
 k-point 18 :   0.3500 0.1500 0.1500  plane waves:    3399
 k-point 19 :   0.4500 0.1500 0.1500  plane waves:    3392
 k-point 20 :   0.2500 0.2500 0.1500  plane waves:    3395
 k-point 21 :   0.3500 0.2500 0.1500  plane waves:    3398
 k-point 22 :   0.4500 0.2500 0.1500  plane waves:    3401
 k-point 23 :   0.3500 0.3500 0.1500  plane waves:    3393
 k-point 24 :   0.4500 0.3500 0.1500  plane waves:    3392
 k-point 25 :   0.4500 0.4500 0.1500  plane waves:    3392
 k-point 26 :   0.2500 0.2500 0.2500  plane waves:    3389
 k-point 27 :   0.3500 0.2500 0.2500  plane waves:    3388
 k-point 28 :   0.4500 0.2500 0.2500  plane waves:    3386
 k-point 29 :   0.3500 0.3500 0.2500  plane waves:    3389
 k-point 30 :   0.4500 0.3500 0.2500  plane waves:    3383
 k-point 31 :   0.4500 0.4500 0.2500  plane waves:    3389
 k-point 32 :   0.3500 0.3500 0.3500  plane waves:    3380
 k-point 33 :   0.4500 0.3500 0.3500  plane waves:    3382
 k-point 34 :   0.4500 0.4500 0.3500  plane waves:    3389
 k-point 35 :   0.4500 0.4500 0.4500  plane waves:    3400

 maximum and minimum number of plane-waves per node :      3414     3380

 maximum number of plane-waves:      3414
 maximum index in each direction: 
   IXMAX=    9   IYMAX=    9   IZMAX=    9
   IXMIN=   -9   IYMIN=   -9   IZMIN=   -9


 serial   3D FFT for wavefunctions
 parallel 3D FFT for charge:
    minimum data exchange during FFTs selected (reduces bandwidth)


 total amount of memory used by VASP MPI-rank0    56558. kBytes
=======================================================================

   base      :      30000. kBytes
   nonl-proj :      18218. kBytes
   fftplans  :        572. kBytes
   grid      :       1204. kBytes
   one-center:        248. kBytes
   wavefun   :       6316. kBytes
 
     INWAV:  cpu time    0.0000: real time    0.0000
 initial charge density was supplied:
 number of electron     176.0000833 magnetization 
 keeping initial charge density in first step


--------------------------------------------------------------------------------------------------------


 Maximum index for augmentation-charges          341 (set IRDMAX)


--------------------------------------------------------------------------------------------------------


 First call to EWALD:  gamma=   0.268
 Maximum number of real-space cells 3x 3x 3
 Maximum number of reciprocal cells 3x 3x 3

    FEWALD:  cpu time    0.0019: real time    0.0026


--------------------------------------- Iteration      1(   1)  ---------------------------------------


    POTLOK:  cpu time    0.0062: real time    0.0146
    SETDIJ:  cpu time    0.0069: real time    0.0091
     EDDAV:  cpu time    2.4780: real time    2.5341
       DOS:  cpu time    0.0022: real time    0.0055
    --------------------------------------------
      LOOP:  cpu time    2.4933: real time    2.5633

 eigenvalue-minimisations  :  9320
 total energy-change (2. order) : 0.1325928E+04  (-0.7075779E+04)
 number of electron     176.0000833 magnetization 
 augmentation part      176.0000833 magnetization 

 Free energy of the ion-electron system (eV)
  ---------------------------------------------------
  alpha Z        PSCENC =      1996.84190797
  Ewald energy   TEWEN  =    -15368.17067784
  -Hartree energ DENC   =     -1921.95149132
  -exchange      EXHF   =         0.00000000
  -V(xc)+E(xc)   XCENC  =       422.98878419
  PAW double counting   =     23983.15301354   -23850.05790382
  entropy T*S    EENTRO =        -0.15927052
  eigenvalues    EBANDS =      -678.52678990
  atomic energy  EATOM  =     16741.81022793
  Solvation  Ediel_sol  =         0.00000000
  ---------------------------------------------------
  free energy    TOTEN  =      1325.92780023 eV

  energy without entropy =     1326.08707076  energy(sigma->0) =     1326.00743549


--------------------------------------------------------------------------------------------------------




--------------------------------------- Iteration      1(   2)  ---------------------------------------


     EDDAV:  cpu time    2.1898: real time    2.1982
       DOS:  cpu time    0.0014: real time    0.0013
    --------------------------------------------
      LOOP:  cpu time    2.1912: real time    2.1994

 eigenvalue-minimisations  :  8440
 total energy-change (2. order) :-0.1430447E+04  (-0.1402479E+04)
 number of electron     176.0000833 magnetization 
 augmentation part      176.0000833 magnetization 

 Free energy of the ion-electron system (eV)
  ---------------------------------------------------
  alpha Z        PSCENC =      1996.84190797
  Ewald energy   TEWEN  =    -15368.17067784
  -Hartree energ DENC   =     -1921.95149132
  -exchange      EXHF   =         0.00000000
  -V(xc)+E(xc)   XCENC  =       422.98878419
  PAW double counting   =     23983.15301354   -23850.05790382
  entropy T*S    EENTRO =        -0.25793844
  eigenvalues    EBANDS =     -2108.87533679
  atomic energy  EATOM  =     16741.81022793
  Solvation  Ediel_sol  =         0.00000000
  ---------------------------------------------------
  free energy    TOTEN  =      -104.51941458 eV

  energy without entropy =     -104.26147614  energy(sigma->0) =     -104.39044536


--------------------------------------------------------------------------------------------------------




--------------------------------------- Iteration      1(   3)  ---------------------------------------


     EDDAV:  cpu time    3.4435: real time    3.4568
       DOS:  cpu time    0.0011: real time    0.0011
    --------------------------------------------
      LOOP:  cpu time    3.4454: real time    3.4579

 eigenvalue-minimisations  : 12400
 total energy-change (2. order) :-0.7186369E+02  (-0.6780114E+02)
 number of electron     176.0000833 magnetization 
 augmentation part      176.0000833 magnetization 

 Free energy of the ion-electron system (eV)
  ---------------------------------------------------
  alpha Z        PSCENC =      1996.84190797
  Ewald energy   TEWEN  =    -15368.17067784
  -Hartree energ DENC   =     -1921.95149132
  -exchange      EXHF   =         0.00000000
  -V(xc)+E(xc)   XCENC  =       422.98878419
  PAW double counting   =     23983.15301354   -23850.05790382
  entropy T*S    EENTRO =        -0.47580644
  eigenvalues    EBANDS =     -2180.52116123
  atomic energy  EATOM  =     16741.81022793
  Solvation  Ediel_sol  =         0.00000000
  ---------------------------------------------------
  free energy    TOTEN  =      -176.38310703 eV

  energy without entropy =     -175.90730058  energy(sigma->0) =     -176.14520380


--------------------------------------------------------------------------------------------------------




--------------------------------------- Iteration      1(   4)  ---------------------------------------


     EDDAV:  cpu time    2.9089: real time    2.9217
       DOS:  cpu time    0.0010: real time    0.0010
    --------------------------------------------
      LOOP:  cpu time    2.9090: real time    2.9226

 eigenvalue-minimisations  : 10760
 total energy-change (2. order) :-0.1963367E+01  (-0.1952639E+01)
 number of electron     176.0000833 magnetization 
 augmentation part      176.0000833 magnetization 

 Free energy of the ion-electron system (eV)
  ---------------------------------------------------
  alpha Z        PSCENC =      1996.84190797
  Ewald energy   TEWEN  =    -15368.17067784
  -Hartree energ DENC   =     -1921.95149132
  -exchange      EXHF   =         0.00000000
  -V(xc)+E(xc)   XCENC  =       422.98878419
  PAW double counting   =     23983.15301354   -23850.05790382
  entropy T*S    EENTRO =        -0.48459588
  eigenvalues    EBANDS =     -2182.47573834
  atomic energy  EATOM  =     16741.81022793
  Solvation  Ediel_sol  =         0.00000000
  ---------------------------------------------------
  free energy    TOTEN  =      -178.34647356 eV

  energy without entropy =     -177.86187769  energy(sigma->0) =     -178.10417562


--------------------------------------------------------------------------------------------------------




--------------------------------------- Iteration      1(   5)  ---------------------------------------


     EDDAV:  cpu time    3.4347: real time    3.4541
       DOS:  cpu time    0.0010: real time    0.0010
    --------------------------------------------
      LOOP:  cpu time    3.4357: real time    3.4551

 eigenvalue-minimisations  : 12080
 total energy-change (2. order) :-0.8323722E-01  (-0.8315384E-01)
 number of electron     176.0000833 magnetization 
 augmentation part      176.0000833 magnetization 

 Free energy of the ion-electron system (eV)
  ---------------------------------------------------
  alpha Z        PSCENC =      1996.84190797
  Ewald energy   TEWEN  =    -15368.17067784
  -Hartree energ DENC   =     -1921.95149132
  -exchange      EXHF   =         0.00000000
  -V(xc)+E(xc)   XCENC  =       422.98878419
  PAW double counting   =     23983.15301354   -23850.05790382
  entropy T*S    EENTRO =        -0.48451028
  eigenvalues    EBANDS =     -2182.55906116
  atomic energy  EATOM  =     16741.81022793
  Solvation  Ediel_sol  =         0.00000000
  ---------------------------------------------------
  free energy    TOTEN  =      -178.42971079 eV

  energy without entropy =     -177.94520050  energy(sigma->0) =     -178.18745565


--------------------------------------------------------------------------------------------------------




--------------------------------------- Iteration      1(   6)  ---------------------------------------


     EDDAV:  cpu time    2.9380: real time    2.9878
       DOS:  cpu time    0.0010: real time    0.0010
    --------------------------------------------
      LOOP:  cpu time    2.9390: real time    2.9888

 eigenvalue-minimisations  : 10680
 total energy-change (2. order) :-0.9994243E-03  (-0.9992135E-03)
 number of electron     176.0000833 magnetization 
 augmentation part      176.0000833 magnetization 

 Free energy of the ion-electron system (eV)
  ---------------------------------------------------
  alpha Z        PSCENC =      1996.84190797
  Ewald energy   TEWEN  =    -15368.17067784
  -Hartree energ DENC   =     -1921.95149132
  -exchange      EXHF   =         0.00000000
  -V(xc)+E(xc)   XCENC  =       422.98878419
  PAW double counting   =     23983.15301354   -23850.05790382
  entropy T*S    EENTRO =        -0.48451178
  eigenvalues    EBANDS =     -2182.56005908
  atomic energy  EATOM  =     16741.81022793
  Solvation  Ediel_sol  =         0.00000000
  ---------------------------------------------------
  free energy    TOTEN  =      -178.43071021 eV

  energy without entropy =     -177.94619843  energy(sigma->0) =     -178.18845432


--------------------------------------------------------------------------------------------------------




--------------------------------------- Iteration      1(   7)  ---------------------------------------


     EDDAV:  cpu time    3.5950: real time    3.6121
       DOS:  cpu time    0.0010: real time    0.0010
    --------------------------------------------
      LOOP:  cpu time    3.5960: real time    3.6131

 eigenvalue-minimisations  : 12320
 total energy-change (2. order) :-0.3630456E-04  (-0.3630305E-04)
 number of electron     176.0000833 magnetization 
 augmentation part      176.0000833 magnetization 

 Free energy of the ion-electron system (eV)
  ---------------------------------------------------
  alpha Z        PSCENC =      1996.84190797
  Ewald energy   TEWEN  =    -15368.17067784
  -Hartree energ DENC   =     -1921.95149132
  -exchange      EXHF   =         0.00000000
  -V(xc)+E(xc)   XCENC  =       422.98878419
  PAW double counting   =     23983.15301354   -23850.05790382
  entropy T*S    EENTRO =        -0.48451162
  eigenvalues    EBANDS =     -2182.56009555
  atomic energy  EATOM  =     16741.81022793
  Solvation  Ediel_sol  =         0.00000000
  ---------------------------------------------------
  free energy    TOTEN  =      -178.43074652 eV

  energy without entropy =     -177.94623489  energy(sigma->0) =     -178.18849071


--------------------------------------------------------------------------------------------------------




--------------------------------------- Iteration      1(   8)  ---------------------------------------


     EDDAV:  cpu time    2.9284: real time    2.9421
       DOS:  cpu time    0.0010: real time    0.0010
    --------------------------------------------
      LOOP:  cpu time    2.9294: real time    2.9431

 eigenvalue-minimisations  : 10520
 total energy-change (2. order) :-0.3894420E-06  (-0.3896859E-06)
 number of electron     176.0000833 magnetization 
 augmentation part      176.0000833 magnetization 

 Free energy of the ion-electron system (eV)
  ---------------------------------------------------
  alpha Z        PSCENC =      1996.84190797
  Ewald energy   TEWEN  =    -15368.17067784
  -Hartree energ DENC   =     -1921.95149132
  -exchange      EXHF   =         0.00000000
  -V(xc)+E(xc)   XCENC  =       422.98878419
  PAW double counting   =     23983.15301354   -23850.05790382
  entropy T*S    EENTRO =        -0.48451162
  eigenvalues    EBANDS =     -2182.56009594
  atomic energy  EATOM  =     16741.81022793
  Solvation  Ediel_sol  =         0.00000000
  ---------------------------------------------------
  free energy    TOTEN  =      -178.43074691 eV

  energy without entropy =     -177.94623529  energy(sigma->0) =     -178.18849110


--------------------------------------------------------------------------------------------------------




--------------------------------------- Iteration      1(   9)  ---------------------------------------


     EDDAV:  cpu time    2.8274: real time    2.8400
       DOS:  cpu time    0.0010: real time    0.0010
    --------------------------------------------
      LOOP:  cpu time    2.8284: real time    2.8410

 eigenvalue-minimisations  :  9520
 total energy-change (2. order) :-0.1367152E-07  (-0.1337774E-07)
 number of electron     176.0000833 magnetization 
 augmentation part      176.0000833 magnetization 

 Free energy of the ion-electron system (eV)
  ---------------------------------------------------
  alpha Z        PSCENC =      1996.84190797
  Ewald energy   TEWEN  =    -15368.17067784
  -Hartree energ DENC   =     -1921.95149132
  -exchange      EXHF   =         0.00000000
  -V(xc)+E(xc)   XCENC  =       422.98878419
  PAW double counting   =     23983.15301354   -23850.05790382
  entropy T*S    EENTRO =        -0.48451162
  eigenvalues    EBANDS =     -2182.56009595
  atomic energy  EATOM  =     16741.81022793
  Solvation  Ediel_sol  =         0.00000000
  ---------------------------------------------------
  free energy    TOTEN  =      -178.43074692 eV

  energy without entropy =     -177.94623530  energy(sigma->0) =     -178.18849111


--------------------------------------------------------------------------------------------------------




 average (electrostatic) potential at core
  the test charge radii are     1.2165
  (the norm of the test charge is              1.0000)
       1 -34.9061       2 -34.9061       3 -34.9061       4 -34.9061       5 -34.9061
       6 -34.9061       7 -34.9061       8 -34.9061       9 -34.9061      10 -34.9061
      11 -34.9061      12 -34.9061      13 -34.9061      14 -34.9061      15 -34.9061
      16 -34.9061
 
 
 
 E-fermi :   4.8537     XC(G=0): -12.6480     alpha+bet :-12.9149


 k-point     1 :       0.0500    0.0500    0.0500
  band No.  band energies     occupation 
      1     -26.0699      2.00000
      2     -26.0699      2.00000
      3     -26.0699      2.00000
      4     -26.0647      2.00000
      5     -26.0647      2.00000
      6     -26.0647      2.00000
      7     -25.6394      2.00000
      8     -25.6394      2.00000
      9     -25.6271      2.00000
     10     -25.4994      2.00000
     11     -25.4961      2.00000
     12     -25.4961      2.00000
     13     -25.4961      2.00000
     14     -25.4469      2.00000
     15     -25.4469      2.00000
     16     -25.4247      2.00000
     17     -25.4247      2.00000
     18     -25.4247      2.00000
     19     -25.3395      2.00000
     20     -25.3395      2.00000
     21     -25.2859      2.00000
     22     -25.1955      2.00000
     23     -25.1955      2.00000
     24     -25.1955      2.00000
     25     -25.1753      2.00000
     26     -25.1753      2.00000
     27     -25.1753      2.00000
     28     -25.1332      2.00000
     29     -25.1332      2.00000
     30     -25.1332      2.00000
     31     -25.1272      2.00000
     32     -25.1272      2.00000
     33     -25.1272      2.00000
     34     -25.1209      2.00000
     35     -25.1209      2.00000
     36     -25.1209      2.00000
     37     -25.1018      2.00000
     38     -25.1018      2.00000
     39     -25.1018      2.00000
     40     -24.7132      2.00000
     41     -24.7132      2.00000
     42     -24.7132      2.00000
     43     -24.7071      2.00000
     44     -24.7071      2.00000
     45     -24.7071      2.00000
     46     -24.7071      2.00000
     47     -24.6932      2.00000
     48     -24.6932      2.00000
     49      -1.0486      2.00000
     50       1.1100      2.00000
     51       1.1100      2.00000
     52       1.1123      2.00000
     53       1.1123      2.00000
     54       1.1123      2.00000
     55       1.1255      2.00000
     56       1.1255      2.00000
     57       1.1255      2.00000
     58       2.1931      2.00000
     59       2.1931      2.00000
     60       2.1931      2.00000
     61       2.4832      2.00000
     62       2.4832      2.00000
     63       2.4832      2.00000
     64       3.1476      2.00000
     65       3.1476      2.00000
     66       3.1476      2.00000
     67       3.1646      2.00000
     68       3.1646      2.00000
     69       3.1646      2.00000
     70       3.4831      2.00000
     71       3.5198      2.00000
     72       3.5198      2.00000
     73       3.5198      2.00000
     74       3.6234      2.00000
     75       3.6234      2.00000
     76       3.8581      2.00000
     77       3.8581      2.00000
     78       3.9468      2.00000
     79       4.0066      2.00000
     80       4.0066      2.00000
     81       4.0066      2.00000
     82       5.1461      0.03872
     83       5.1461      0.03872
     84       5.2077      0.01231
     85       5.6074      0.00000
     86       5.6074      0.00000
     87       5.6074      0.00000
     88       5.7277      0.00000
     89       5.7277      0.00000
     90       5.7277      0.00000
     91       5.8692      0.00000
     92       5.8692      0.00000
     93       5.8692      0.00000
     94       5.9882      0.00000
     95       5.9882      0.00000
     96       5.9882      0.00000
     97       7.0180      0.00000
     98       7.0180      0.00000
     99       7.0180      0.00000
    100       7.1047      0.00000
    101       7.1047      0.00000
    102       7.1047      0.00000
    103       7.2963      0.00000
    104       7.2963      0.00000
    105       7.2963      0.00000
    106       7.6935      0.00000
    107       7.6935      0.00000
    108       7.6935      0.00000
    109       8.0600      0.00000
    110       8.0600      0.00000
    111       8.0616      0.00000
    112       8.0616      0.00000
    113       8.0617      0.00000
    114       8.1273      0.00000
    115       8.1273      0.00000
    116       8.1273      0.00000
    117       8.7828      0.00000
    118       8.7865      0.00000
    119       8.8064      0.00000
    120       8.9219      0.00000

 k-point     2 :       0.1500    0.0500    0.0500
  band No.  band energies     occupation 
      1     -26.0545      2.00000
      2     -26.0545      2.00000
      3     -26.0534      2.00000
      4     -26.0486      2.00000
      5     -26.0391      2.00000
      6     -26.0391      2.00000
      7     -25.6474      2.00000
      8     -25.6274      2.00000
      9     -25.6089      2.00000
     10     -25.5780      2.00000
     11     -25.5543      2.00000
     12     -25.5543      2.00000
     13     -25.5536      2.00000
     14     -25.5527      2.00000
     15     -25.4854      2.00000
     16     -25.4854      2.00000
     17     -25.4123      2.00000
     18     -25.3528      2.00000
     19     -25.3411      2.00000
     20     -25.2696      2.00000
     21     -25.2484      2.00000
     22     -25.2332      2.00000
     23     -25.2029      2.00000
     24     -25.1952      2.00000
     25     -25.1952      2.00000
     26     -25.1470      2.00000
     27     -25.1406      2.00000
     28     -25.1406      2.00000
     29     -25.1401      2.00000
     30     -25.1228      2.00000
     31     -25.1228      2.00000
     32     -25.1224      2.00000
     33     -25.1224      2.00000
     34     -25.1217      2.00000
     35     -25.1217      2.00000
     36     -25.0506      2.00000
     37     -25.0506      2.00000
     38     -25.0476      2.00000
     39     -25.0297      2.00000
     40     -24.7388      2.00000
     41     -24.7310      2.00000
     42     -24.7310      2.00000
     43     -24.7292      2.00000
     44     -24.7240      2.00000
     45     -24.7129      2.00000
     46     -24.7129      2.00000
     47     -24.7045      2.00000
     48     -24.6986      2.00000
     49      -0.9441      2.00000
     50       1.1586      2.00000
     51       1.1586      2.00000
     52       1.1665      2.00000
     53       1.1980      2.00000
     54       1.1980      2.00000
     55       1.2011      2.00000
     56       1.2175      2.00000
     57       1.2295      2.00000
     58       1.7934      2.00000
     59       2.1858      2.00000
     60       2.1858      2.00000
     61       2.4714      2.00000
     62       2.4714      2.00000
     63       2.6256      2.00000
     64       3.0631      2.00000
     65       3.1406      2.00000
     66       3.1560      2.00000
     67       3.2044      2.00000
     68       3.2044      2.00000
     69       3.2547      2.00000
     70       3.2547      2.00000
     71       3.2998      2.00000
     72       3.4378      2.00000
     73       3.5141      2.00000
     74       3.5141      2.00000
     75       3.5443      2.00000
     76       3.6992      2.00000
     77       3.9504      2.00000
     78       3.9504      2.00000
     79       4.1418      2.00000
     80       4.1423      2.00000
     81       4.5053      1.98626
     82       5.1069      0.07342
     83       5.1340      0.04747
     84       5.2853      0.00228
     85       5.3193      0.00099
     86       5.3193      0.00099
     87       5.3993      0.00011
     88       5.5448      0.00000
     89       5.5671      0.00000
     90       5.5671      0.00000
     91       5.9295      0.00000
     92       5.9295      0.00000
     93       6.1189      0.00000
     94       6.1189      0.00000
     95       6.1864      0.00000
     96       6.3173      0.00000
     97       6.5752      0.00000
     98       6.5752      0.00000
     99       6.7447      0.00000
    100       6.7447      0.00000
    101       6.8346      0.00000
    102       6.8967      0.00000
    103       6.9209      0.00000
    104       7.6472      0.00000
    105       7.6472      0.00000
    106       7.9124      0.00000
    107       7.9249      0.00000
    108       7.9249      0.00000
    109       8.0430      0.00000
    110       8.0430      0.00000
    111       8.0947      0.00000
    112       8.0947      0.00000
    113       8.0988      0.00000
    114       8.1049      0.00000
    115       8.1148      0.00000
    116       8.1540      0.00000
    117       8.8101      0.00000
    118       8.8766      0.00000
    119       8.8945      0.00000
    120       8.9132      0.00000

 k-point     3 :       0.2500    0.0500    0.0500
  band No.  band energies     occupation 
      1     -26.0207      2.00000
      2     -26.0195      2.00000
      3     -26.0195      2.00000
      4     -26.0168      2.00000
      5     -25.9940      2.00000
      6     -25.9940      2.00000
      7     -25.6673      2.00000
      8     -25.6544      2.00000
      9     -25.6529      2.00000
     10     -25.6384      2.00000
     11     -25.6384      2.00000
     12     -25.6037      2.00000
     13     -25.5969      2.00000
     14     -25.5821      2.00000
     15     -25.5737      2.00000
     16     -25.5737      2.00000
     17     -25.3783      2.00000
     18     -25.3413      2.00000
     19     -25.3400      2.00000
     20     -25.3193      2.00000
     21     -25.2476      2.00000
     22     -25.1910      2.00000
     23     -25.1910      2.00000
     24     -25.1733      2.00000
     25     -25.1646      2.00000
     26     -25.1491      2.00000
     27     -25.1491      2.00000
     28     -25.1306      2.00000
     29     -25.1210      2.00000
     30     -25.1210      2.00000
     31     -25.1199      2.00000
     32     -25.1199      2.00000
     33     -25.1116      2.00000
     34     -25.0516      2.00000
     35     -25.0516      2.00000
     36     -24.9827      2.00000
     37     -24.9827      2.00000
     38     -24.9774      2.00000
     39     -24.9607      2.00000
     40     -24.7917      2.00000
     41     -24.7609      2.00000
     42     -24.7604      2.00000
     43     -24.7604      2.00000
     44     -24.7574      2.00000
     45     -24.7307      2.00000
     46     -24.7307      2.00000
     47     -24.7267      2.00000
     48     -24.7175      2.00000
     49      -0.7394      2.00000
     50       1.2612      2.00000
     51       1.2612      2.00000
     52       1.2792      2.00000
     53       1.3269      2.00000
     54       1.3269      2.00000
     55       1.3294      2.00000
     56       1.3760      2.00000
     57       1.4219      2.00000
     58       1.4316      2.00000
     59       2.1323      2.00000
     60       2.1323      2.00000
     61       2.3872      2.00000
     62       2.3872      2.00000
     63       2.6065      2.00000
     64       2.6449      2.00000
     65       3.1049      2.00000
     66       3.1287      2.00000
     67       3.1429      2.00000
     68       3.2681      2.00000
     69       3.2996      2.00000
     70       3.3326      2.00000
     71       3.3326      2.00000
     72       3.4151      2.00000
     73       3.4151      2.00000
     74       3.4671      2.00000
     75       3.6034      2.00000
     76       3.6034      2.00000
     77       3.9575      2.00000
     78       3.9575      2.00000
     79       4.4516      1.99554
     80       4.4724      1.99299
     81       4.9208      0.63524
     82       4.9208      0.63524
     83       4.9438      0.52410
     84       5.0753      0.11721
     85       5.1164      0.06325
     86       5.1476      0.03770
     87       5.1476      0.03770
     88       5.2441      0.00578
     89       5.3986      0.00012
     90       5.4991      0.00001
     91       5.9924      0.00000
     92       5.9924      0.00000
     93       6.1712      0.00000
     94       6.1712      0.00000
     95       6.2686      0.00000
     96       6.2686      0.00000
     97       6.3508      0.00000
     98       6.3508      0.00000
     99       6.5125      0.00000
    100       6.5434      0.00000
    101       6.5631      0.00000
    102       6.5738      0.00000
    103       6.7127      0.00000
    104       7.6327      0.00000
    105       7.7286      0.00000
    106       7.7286      0.00000
    107       7.9558      0.00000
    108       7.9558      0.00000
    109       8.1464      0.00000
    110       8.1464      0.00000
    111       8.1698      0.00000
    112       8.2124      0.00000
    113       8.2213      0.00000
    114       8.5221      0.00000
    115       8.5418      0.00000
    116       8.5426      0.00000
    117       8.7796      0.00000
    118       8.7934      0.00000
    119       8.8209      0.00000
    120       8.8978      0.00000

 k-point     4 :       0.3500    0.0500    0.0500
  band No.  band energies     occupation 
      1     -25.9727      2.00000
      2     -25.9701      2.00000
      3     -25.9664      2.00000
      4     -25.9664      2.00000
      5     -25.9315      2.00000
      6     -25.9315      2.00000
      7     -25.7556      2.00000
      8     -25.7494      2.00000
      9     -25.7291      2.00000
     10     -25.7291      2.00000
     11     -25.6702      2.00000
     12     -25.6702      2.00000
     13     -25.6556      2.00000
     14     -25.6268      2.00000
     15     -25.5690      2.00000
     16     -25.5460      2.00000
     17     -25.4088      2.00000
     18     -25.3860      2.00000
     19     -25.3392      2.00000
     20     -25.3123      2.00000
     21     -25.2092      2.00000
     22     -25.1979      2.00000
     23     -25.1846      2.00000
     24     -25.1846      2.00000
     25     -25.1583      2.00000
     26     -25.1583      2.00000
     27     -25.1481      2.00000
     28     -25.1199      2.00000
     29     -25.1199      2.00000
     30     -25.1185      2.00000
     31     -25.1185      2.00000
     32     -25.0341      2.00000
     33     -25.0223      2.00000
     34     -24.9791      2.00000
     35     -24.9791      2.00000
     36     -24.9148      2.00000
     37     -24.9148      2.00000
     38     -24.9121      2.00000
     39     -24.8966      2.00000
     40     -24.8637      2.00000
     41     -24.8074      2.00000
     42     -24.8065      2.00000
     43     -24.8007      2.00000
     44     -24.8007      2.00000
     45     -24.7603      2.00000
     46     -24.7603      2.00000
     47     -24.7593      2.00000
     48     -24.7481      2.00000
     49      -0.4433      2.00000
     50       0.8426      2.00000
     51       1.4135      2.00000
     52       1.4135      2.00000
     53       1.4473      2.00000
     54       1.5064      2.00000
     55       1.5064      2.00000
     56       1.6178      2.00000
     57       1.7141      2.00000
     58       1.7193      2.00000
     59       2.0008      2.00000
     60       2.0008      2.00000
     61       2.2048      2.00000
     62       2.2048      2.00000
     63       2.2710      2.00000
     64       2.4474      2.00000
     65       2.8285      2.00000
     66       2.8933      2.00000
     67       3.1206      2.00000
     68       3.1344      2.00000
     69       3.2063      2.00000
     70       3.2758      2.00000
     71       3.5296      2.00000
     72       3.5296      2.00000
     73       3.6437      2.00000
     74       3.6437      2.00000
     75       3.8527      2.00000
     76       3.8527      2.00000
     77       4.1105      2.00000
     78       4.1105      2.00000
     79       4.5354      1.97561
     80       4.5354      1.97561
     81       4.7234      1.64334
     82       4.7234      1.64334
     83       4.8207      1.18486
     84       4.8451      1.04888
     85       5.0549      0.15488
     86       5.0995      0.08223
     87       5.1003      0.08122
     88       5.1386      0.04398
     89       5.3815      0.00019
     90       5.3815      0.00019
     91       5.5517      0.00000
     92       5.5588      0.00000
     93       5.5588      0.00000
     94       5.7942      0.00000
     95       6.1118      0.00000
     96       6.1176      0.00000
     97       6.2599      0.00000
     98       6.6313      0.00000
     99       6.6313      0.00000
    100       6.6582      0.00000
    101       6.6582      0.00000
    102       7.0026      0.00000
    103       7.1718      0.00000
    104       7.2471      0.00000
    105       7.4883      0.00000
    106       7.4883      0.00000
    107       7.7234      0.00000
    108       7.7234      0.00000
    109       8.2711      0.00000
    110       8.3017      0.00000
    111       8.3726      0.00000
    112       8.6455      0.00000
    113       8.6631      0.00000
    114       8.6679      0.00000
    115       8.6865      0.00000
    116       8.6950      0.00000
    117       8.8261      0.00000
    118       8.8761      0.00000
    119       8.8770      0.00000
    120       8.9048      0.00000

 k-point     5 :       0.4500    0.0500    0.0500
  band No.  band energies     occupation 
      1     -25.9105      2.00000
      2     -25.9097      2.00000
      3     -25.8980      2.00000
      4     -25.8980      2.00000
      5     -25.8542      2.00000
      6     -25.8542      2.00000
      7     -25.8375      2.00000
      8     -25.8354      2.00000
      9     -25.8175      2.00000
     10     -25.8175      2.00000
     11     -25.7657      2.00000
     12     -25.7657      2.00000
     13     -25.6538      2.00000
     14     -25.6450      2.00000
     15     -25.5241      2.00000
     16     -25.5007      2.00000
     17     -25.4703      2.00000
     18     -25.4469      2.00000
     19     -25.2961      2.00000
     20     -25.2762      2.00000
     21     -25.2514      2.00000
     22     -25.2366      2.00000
     23     -25.1767      2.00000
     24     -25.1767      2.00000
     25     -25.1677      2.00000
     26     -25.1677      2.00000
     27     -25.1189      2.00000
     28     -25.1189      2.00000
     29     -25.1183      2.00000
     30     -25.1183      2.00000
     31     -25.0473      2.00000
     32     -24.9506      2.00000
     33     -24.9467      2.00000
     34     -24.9400      2.00000
     35     -24.9114      2.00000
     36     -24.9114      2.00000
     37     -24.8702      2.00000
     38     -24.8676      2.00000
     39     -24.8535      2.00000
     40     -24.8535      2.00000
     41     -24.8530      2.00000
     42     -24.8514      2.00000
     43     -24.8514      2.00000
     44     -24.8389      2.00000
     45     -24.8018      2.00000
     46     -24.8015      2.00000
     47     -24.8015      2.00000
     48     -24.7889      2.00000
     49      -0.0686      2.00000
     50       0.3674      2.00000
     51       1.6032      2.00000
     52       1.6032      2.00000
     53       1.6699      2.00000
     54       1.7258      2.00000
     55       1.7258      2.00000
     56       1.8102      2.00000
     57       1.8102      2.00000
     58       1.9027      2.00000
     59       1.9451      2.00000
     60       1.9684      2.00000
     61       1.9684      2.00000
     62       2.0724      2.00000
     63       2.0754      2.00000
     64       2.1948      2.00000
     65       2.4595      2.00000
     66       2.4804      2.00000
     67       3.1243      2.00000
     68       3.1418      2.00000
     69       3.1502      2.00000
     70       3.1799      2.00000
     71       3.7890      2.00000
     72       3.7890      2.00000
     73       3.9314      2.00000
     74       3.9314      2.00000
     75       4.0898      2.00000
     76       4.0898      2.00000
     77       4.1658      2.00000
     78       4.1658      2.00000
     79       4.4126      1.99819
     80       4.4126      1.99819
     81       4.5294      1.97818
     82       4.5294      1.97818
     83       4.8058      1.26507
     84       4.8058      1.26507
     85       4.9893      0.33775
     86       4.9893      0.33775
     87       5.0529      0.15897
     88       5.0777      0.11334
     89       5.0919      0.09218
     90       5.0980      0.08416
     91       5.2314      0.00757
     92       5.2520      0.00485
     93       5.6701      0.00000
     94       5.6810      0.00000
     95       5.7467      0.00000
     96       5.9832      0.00000
     97       6.2850      0.00000
     98       6.7866      0.00000
     99       6.9268      0.00000
    100       6.9268      0.00000
    101       7.0506      0.00000
    102       7.0506      0.00000
    103       7.2169      0.00000
    104       7.2169      0.00000
    105       7.4143      0.00000
    106       7.4143      0.00000
    107       7.5029      0.00000
    108       7.6900      0.00000
    109       8.0553      0.00000
    110       8.2593      0.00000
    111       8.3937      0.00000
    112       8.4140      0.00000
    113       8.5278      0.00000
    114       8.5400      0.00000
    115       8.5590      0.00000
    116       8.7650      0.00000
    117       8.8392      0.00000
    118       8.8601      0.00000
    119       8.8658      0.00000
    120       8.8722      0.00000

 k-point     6 :       0.1500    0.1500    0.0500
  band No.  band energies     occupation 
      1     -26.0496      2.00000
      2     -26.0385      2.00000
      3     -26.0385      2.00000
      4     -26.0243      2.00000
      5     -26.0243      2.00000
      6     -26.0035      2.00000
      7     -25.6613      2.00000
      8     -25.6290      2.00000
      9     -25.6206      2.00000
     10     -25.6089      2.00000
     11     -25.6089      2.00000
     12     -25.5936      2.00000
     13     -25.5849      2.00000
     14     -25.5800      2.00000
     15     -25.5280      2.00000
     16     -25.4348      2.00000
     17     -25.4037      2.00000
     18     -25.4037      2.00000
     19     -25.3289      2.00000
     20     -25.2682      2.00000
     21     -25.2682      2.00000
     22     -25.2080      2.00000
     23     -25.1943      2.00000
     24     -25.1943      2.00000
     25     -25.1894      2.00000
     26     -25.1596      2.00000
     27     -25.1561      2.00000
     28     -25.1561      2.00000
     29     -25.1393      2.00000
     30     -25.1357      2.00000
     31     -25.1357      2.00000
     32     -25.1317      2.00000
     33     -25.1066      2.00000
     34     -25.0754      2.00000
     35     -25.0496      2.00000
     36     -25.0496      2.00000
     37     -25.0085      2.00000
     38     -24.9808      2.00000
     39     -24.9808      2.00000
     40     -24.7810      2.00000
     41     -24.7605      2.00000
     42     -24.7442      2.00000
     43     -24.7442      2.00000
     44     -24.7287      2.00000
     45     -24.7287      2.00000
     46     -24.7139      2.00000
     47     -24.7063      2.00000
     48     -24.6939      2.00000
     49      -0.8419      2.00000
     50       1.1734      2.00000
     51       1.2380      2.00000
     52       1.2631      2.00000
     53       1.2631      2.00000
     54       1.2761      2.00000
     55       1.2914      2.00000
     56       1.2995      2.00000
     57       1.2995      2.00000
     58       1.8008      2.00000
     59       1.8008      2.00000
     60       2.1947      2.00000
     61       2.4844      2.00000
     62       2.6169      2.00000
     63       2.6169      2.00000
     64       3.0970      2.00000
     65       3.0970      2.00000
     66       3.1247      2.00000
     67       3.1937      2.00000
     68       3.1937      2.00000
     69       3.2271      2.00000
     70       3.2401      2.00000
     71       3.2401      2.00000
     72       3.3007      2.00000
     73       3.3764      2.00000
     74       3.4729      2.00000
     75       3.5891      2.00000
     76       3.7979      2.00000
     77       3.8663      2.00000
     78       4.1522      2.00000
     79       4.1664      2.00000
     80       4.3691      1.99939
     81       4.3691      1.99939
     82       5.0213      0.23615
     83       5.1097      0.07026
     84       5.1243      0.05574
     85       5.1243      0.05574
     86       5.2094      0.01190
     87       5.4053      0.00010
     88       5.4185      0.00007
     89       5.8234      0.00000
     90       5.8234      0.00000
     91       5.8657      0.00000
     92       5.8657      0.00000
     93       6.0171      0.00000
     94       6.1757      0.00000
     95       6.1997      0.00000
     96       6.3715      0.00000
     97       6.3715      0.00000
     98       6.4430      0.00000
     99       6.4430      0.00000
    100       6.5721      0.00000
    101       6.5721      0.00000
    102       6.5734      0.00000
    103       7.2669      0.00000
    104       7.2669      0.00000
    105       7.6880      0.00000
    106       7.8853      0.00000
    107       7.9296      0.00000
    108       7.9668      0.00000
    109       7.9668      0.00000
    110       8.0687      0.00000
    111       8.1130      0.00000
    112       8.1130      0.00000
    113       8.1444      0.00000
    114       8.2805      0.00000
    115       8.4474      0.00000
    116       8.4480      0.00000
    117       8.7176      0.00000
    118       8.8428      0.00000
    119       8.8648      0.00000
    120       8.8828      0.00000

 k-point     7 :       0.2500    0.1500    0.0500
  band No.  band energies     occupation 
      1     -26.0249      2.00000
      2     -26.0069      2.00000
      3     -26.0050      2.00000
      4     -25.9951      2.00000
      5     -25.9815      2.00000
      6     -25.9490      2.00000
      7     -25.6942      2.00000
      8     -25.6877      2.00000
      9     -25.6762      2.00000
     10     -25.6634      2.00000
     11     -25.6592      2.00000
     12     -25.6489      2.00000
     13     -25.5985      2.00000
     14     -25.5980      2.00000
     15     -25.5440      2.00000
     16     -25.4952      2.00000
     17     -25.4098      2.00000
     18     -25.3390      2.00000
     19     -25.3193      2.00000
     20     -25.3117      2.00000
     21     -25.2647      2.00000
     22     -25.2607      2.00000
     23     -25.2125      2.00000
     24     -25.1854      2.00000
     25     -25.1792      2.00000
     26     -25.1669      2.00000
     27     -25.1599      2.00000
     28     -25.1368      2.00000
     29     -25.1335      2.00000
     30     -25.1220      2.00000
     31     -25.1056      2.00000
     32     -25.0925      2.00000
     33     -25.0652      2.00000
     34     -25.0525      2.00000
     35     -25.0152      2.00000
     36     -24.9807      2.00000
     37     -24.9531      2.00000
     38     -24.9172      2.00000
     39     -24.9148      2.00000
     40     -24.8435      2.00000
     41     -24.8003      2.00000
     42     -24.7703      2.00000
     43     -24.7687      2.00000
     44     -24.7600      2.00000
     45     -24.7434      2.00000
     46     -24.7354      2.00000
     47     -24.7119      2.00000
     48     -24.7015      2.00000
     49      -0.6420      2.00000
     50       1.2388      2.00000
     51       1.3529      2.00000
     52       1.3568      2.00000
     53       1.3634      2.00000
     54       1.4252      2.00000
     55       1.4357      2.00000
     56       1.4460      2.00000
     57       1.4661      2.00000
     58       1.4961      2.00000
     59       1.7901      2.00000
     60       2.1694      2.00000
     61       2.4379      2.00000
     62       2.5136      2.00000
     63       2.5722      2.00000
     64       2.7441      2.00000
     65       2.9509      2.00000
     66       3.1205      2.00000
     67       3.1776      2.00000
     68       3.2193      2.00000
     69       3.2642      2.00000
     70       3.3142      2.00000
     71       3.3217      2.00000
     72       3.3897      2.00000
     73       3.4610      2.00000
     74       3.5020      2.00000
     75       3.5692      2.00000
     76       3.6406      2.00000
     77       3.8209      2.00000
     78       4.2829      1.99995
     79       4.3426      1.99970
     80       4.4020      1.99860
     81       4.7021      1.71645
     82       4.7528      1.52464
     83       4.9340      0.57014
     84       4.9383      0.54986
     85       4.9845      0.35530
     86       5.0790      0.11111
     87       5.1022      0.07896
     88       5.4290      0.00005
     89       5.5868      0.00000
     90       5.6556      0.00000
     91       5.8620      0.00000
     92       5.9029      0.00000
     93       6.0430      0.00000
     94       6.1246      0.00000
     95       6.1952      0.00000
     96       6.2152      0.00000
     97       6.2351      0.00000
     98       6.2636      0.00000
     99       6.2999      0.00000
    100       6.4080      0.00000
    101       6.4629      0.00000
    102       6.6939      0.00000
    103       6.9090      0.00000
    104       7.4331      0.00000
    105       7.6698      0.00000
    106       7.7555      0.00000
    107       7.7751      0.00000
    108       7.9703      0.00000
    109       8.0500      0.00000
    110       8.0609      0.00000
    111       8.1470      0.00000
    112       8.1635      0.00000
    113       8.3445      0.00000
    114       8.6328      0.00000
    115       8.7427      0.00000
    116       8.7524      0.00000
    117       8.7585      0.00000
    118       8.7869      0.00000
    119       8.8610      0.00000
    120       8.8707      0.00000

 k-point     8 :       0.3500    0.1500    0.0500
  band No.  band energies     occupation 
      1     -25.9820      2.00000
      2     -25.9606      2.00000
[...]
     49       1.1399      2.00000
     50       1.4205      2.00000
     51       1.4205      2.00000
     52       1.6447      2.00000
     53       1.9385      2.00000
     54       2.1613      2.00000
     55       2.1613      2.00000
     56       2.5072      2.00000
     57       2.6123      2.00000
     58       2.6977      2.00000
     59       2.7150      2.00000
     60       2.7150      2.00000
     61       2.8509      2.00000
     62       2.8766      2.00000
     63       2.8766      2.00000
     64       2.9005      2.00000
     65       3.0668      2.00000
     66       3.1253      2.00000
     67       3.1253      2.00000
     68       3.1428      2.00000
     69       3.4554      2.00000
     70       3.4554      2.00000
     71       3.4918      2.00000
     72       3.5007      2.00000
     73       3.5282      2.00000
     74       3.5461      2.00000
     75       3.5461      2.00000
     76       3.5673      2.00000
     77       3.6949      2.00000
     78       3.7095      2.00000
     79       3.8122      2.00000
     80       3.8122      2.00000
     81       3.8295      2.00000
     82       3.8663      2.00000
     83       3.8663      2.00000
     84       3.9061      2.00000
     85       3.9302      2.00000
     86       3.9302      2.00000
     87       3.9466      2.00000
     88       3.9871      2.00000
     89       3.9885      2.00000
     90       4.0240      2.00000
     91       4.0240      2.00000
     92       4.0307      2.00000
     93       4.0820      2.00000
     94       4.2250      1.99999
     95       4.2250      1.99999
     96       4.5165      1.98291
     97       7.7504      0.00000
     98       7.7504      0.00000
     99       7.8140      0.00000
    100       7.8296      0.00000
    101       7.8796      0.00000
    102       7.8822      0.00000
    103       8.0139      0.00000
    104       8.0182      0.00000
    105       8.0182      0.00000
    106       8.0613      0.00000
    107       8.0613      0.00000
    108       8.0849      0.00000
    109       8.0849      0.00000
    110       8.1136      0.00000
    111       8.1951      0.00000
    112       8.2476      0.00000
    113       8.2984      0.00000
    114       8.2985      0.00000
    115       8.3119      0.00000
    116       8.3151      0.00000
    117       8.4479      0.00000
    118       8.4617      0.00000
    119       8.4680      0.00000
    120       8.4713      0.00000

 k-point    35 :       0.4500    0.4500    0.4500
  band No.  band energies     occupation 
      1     -25.7511      2.00000
      2     -25.7511      2.00000
      3     -25.7511      2.00000
      4     -25.7450      2.00000
      5     -25.7450      2.00000
      6     -25.7450      2.00000
      7     -25.6900      2.00000
      8     -25.6900      2.00000
      9     -25.6887      2.00000
     10     -25.6846      2.00000
     11     -25.6846      2.00000
     12     -25.6420      2.00000
     13     -25.6420      2.00000
     14     -25.6420      2.00000
     15     -25.6269      2.00000
     16     -25.6269      2.00000
     17     -25.6269      2.00000
     18     -25.6182      2.00000
     19     -25.6182      2.00000
     20     -25.6182      2.00000
     21     -25.5808      2.00000
     22     -25.5808      2.00000
     23     -25.5808      2.00000
     24     -25.5091      2.00000
     25     -25.0279      2.00000
     26     -24.9781      2.00000
     27     -24.9781      2.00000
     28     -24.9781      2.00000
     29     -24.9355      2.00000
     30     -24.9355      2.00000
     31     -24.9355      2.00000
     32     -24.9203      2.00000
     33     -24.9203      2.00000
     34     -24.9203      2.00000
     35     -24.9071      2.00000
     36     -24.9071      2.00000
     37     -24.9025      2.00000
     38     -24.8923      2.00000
     39     -24.8923      2.00000
     40     -24.8923      2.00000
     41     -24.8412      2.00000
     42     -24.8412      2.00000
     43     -24.8412      2.00000
     44     -24.8304      2.00000
     45     -24.8304      2.00000
     46     -24.8203      2.00000
     47     -24.8203      2.00000
     48     -24.8203      2.00000
     49       1.4257      2.00000
     50       1.7084      2.00000
     51       1.7084      2.00000
     52       1.7084      2.00000
     53       1.9777      2.00000
     54       1.9777      2.00000
     55       1.9777      2.00000
     56       2.3047      2.00000
     57       2.9403      2.00000
     58       2.9403      2.00000
     59       3.0401      2.00000
     60       3.0401      2.00000
     61       3.0401      2.00000
     62       3.0503      2.00000
     63       3.0503      2.00000
     64       3.0503      2.00000
     65       3.1565      2.00000
     66       3.1807      2.00000
     67       3.1807      2.00000
     68       3.1807      2.00000
     69       3.5123      2.00000
     70       3.5123      2.00000
     71       3.5123      2.00000
     72       3.5261      2.00000
     73       3.5261      2.00000
     74       3.5577      2.00000
     75       3.5577      2.00000
     76       3.5666      2.00000
     77       3.5666      2.00000
     78       3.5666      2.00000
     79       3.6299      2.00000
     80       3.6299      2.00000
     81       3.6299      2.00000
     82       3.7482      2.00000
     83       3.7482      2.00000
     84       3.7482      2.00000
     85       3.7867      2.00000
     86       3.7867      2.00000
     87       3.7867      2.00000
     88       3.7897      2.00000
     89       3.7897      2.00000
     90       3.7897      2.00000
     91       3.8287      2.00000
     92       3.8287      2.00000
     93       3.8287      2.00000
     94       3.8864      2.00000
     95       3.8864      2.00000
     96       4.0815      2.00000
     97       7.9326      0.00000
     98       7.9326      0.00000
     99       7.9326      0.00000
    100       8.0352      0.00000
    101       8.0352      0.00000
    102       8.0545      0.00000
    103       8.0545      0.00000
    104       8.0545      0.00000
    105       8.2535      0.00000
    106       8.2535      0.00000
    107       8.2644      0.00000
    108       8.2644      0.00000
    109       8.2644      0.00000
    110       8.2827      0.00000
    111       8.2827      0.00000
    112       8.2828      0.00000
    113       8.2940      0.00000
    114       8.2940      0.00000
    115       8.2941      0.00000
    116       8.3592      0.00000
    117       8.3592      0.00000
    118       8.3593      0.00000
    119       8.5875      0.00000
    120       8.5888      0.00000


--------------------------------------------------------------------------------------------------------


 soft charge-density along one line, spin component           1
         0         1         2         3         4         5         6         7         8         9
 total charge-density along one line
 
 pseudopotential strength for first ion, spin component:           1
-27.829   0.000  -0.000   0.000   0.000   0.000   5.816   0.000   0.000   0.000  -0.000   0.000   0.000   0.000  -0.000   0.000
 -0.000   0.000 -27.829   0.000   0.000   0.000   0.000   0.000   5.816   0.000  -0.000   0.000   0.000   0.000  -0.000   0.000
  0.000   0.000   0.000   0.000 -27.829   0.000  -0.000   0.000  -0.000   0.000   5.816   0.000  -0.000   0.000   0.000   0.000
  5.816   0.000   0.000   0.000  -0.000   0.000   4.386   0.000  -0.000   0.000   0.000   0.000  -0.000   0.000   0.000   0.000
  0.000   0.000   5.816   0.000  -0.000   0.000  -0.000   0.000   4.386   0.000   0.000   0.000  -0.000   0.000   0.000   0.000
 -0.000   0.000  -0.000   0.000   5.816   0.000   0.000   0.000   0.000   0.000   4.386   0.000   0.000   0.000  -0.000   0.000
  0.000   0.000   0.000   0.000  -0.000   0.000  -0.000   0.000  -0.000   0.000   0.000   0.000  -6.228   0.000   0.000   0.000
 -0.000   0.000  -0.000   0.000   0.000   0.000   0.000   0.000   0.000   0.000  -0.000   0.000   0.000   0.000  -6.228   0.000
  0.000   0.000  -0.000   0.000  -0.000   0.000  -0.000   0.000   0.000   0.000   0.000   0.000  -0.000   0.000  -0.000   0.000
  0.000   0.000   0.000   0.000  -0.000   0.000  -0.000   0.000  -0.000   0.000   0.000   0.000  -0.000   0.000   0.000   0.000
  0.000   0.000  -0.000   0.000   0.000   0.000  -0.000   0.000   0.000   0.000  -0.000   0.000   0.000   0.000   0.000   0.000
  0.000   0.000   0.000   0.000  -0.000   0.000  -0.000   0.000  -0.000   0.000   0.000   0.000  -7.057   0.000   0.000   0.000
 -0.000   0.000  -0.000   0.000   0.000   0.000   0.000   0.000   0.000   0.000  -0.000   0.000   0.000   0.000  -7.057   0.000
  0.000   0.000  -0.000   0.000  -0.000   0.000  -0.000   0.000   0.000   0.000   0.000   0.000  -0.000   0.000  -0.000   0.000
  0.000   0.000   0.000   0.000  -0.000   0.000  -0.000   0.000  -0.000   0.000   0.000   0.000  -0.000   0.000   0.000   0.000
  0.000   0.000  -0.000   0.000   0.000   0.000  -0.000   0.000   0.000   0.000  -0.000   0.000   0.000   0.000   0.000   0.000
  0.000   0.000   0.000   0.000  -0.000   0.000  -0.000   0.000  -0.000   0.000   0.000   0.000  -0.000   0.000   0.000   0.000
 -0.000   0.000  -0.000   0.000   0.000   0.000  -0.000   0.000  -0.000   0.000   0.000   0.000   0.000   0.000  -0.000   0.000
 total augmentation occupancy for first ion, spin component:           1
  2.000   0.000   0.000   0.000   0.000   0.000   0.000   0.000   0.000   0.000   0.000   0.000   0.000   0.000   0.000   0.000
  0.000   2.000   0.000   0.000   0.000   0.000   0.000   0.000   0.000   0.000   0.000   0.000   0.000   0.000   0.000   0.000
  0.000   0.000   2.000   0.000   0.000   0.000   0.000   0.000   0.000   0.000   0.000   0.000   0.000   0.000   0.000   0.000
  0.000   0.000   0.000   0.000   0.000   0.000   0.000   0.000   0.000   0.000   0.000   0.000   0.000   0.000   0.000   0.000
  0.000   0.000   0.000   0.000   0.000   0.000   0.000   0.000   0.000   0.000   0.000   0.000   0.000   0.000   0.000   0.000
  0.000   0.000   0.000   0.000   0.000   0.000   0.000   0.000   0.000   0.000   0.000   0.000   0.000   0.000   0.000   0.000
  0.000   0.000   0.000   0.000   0.000   0.000   0.800   0.000   0.000   0.000   0.000   0.000   0.000   0.000   0.000   0.000
  0.000   0.000   0.000   0.000   0.000   0.000   0.000   0.800   0.000   0.000   0.000   0.000   0.000   0.000   0.000   0.000
  0.000   0.000   0.000   0.000   0.000   0.000   0.000   0.000   0.800   0.000   0.000   0.000   0.000   0.000   0.000   0.000
  0.000   0.000   0.000   0.000   0.000   0.000   0.000   0.000   0.000   0.800   0.000   0.000   0.000   0.000   0.000   0.000
  0.000   0.000   0.000   0.000   0.000   0.000   0.000   0.000   0.000   0.000   0.800   0.000   0.000   0.000   0.000   0.000
  0.000   0.000   0.000   0.000   0.000   0.000   0.000   0.000   0.000   0.000   0.000   0.000   0.000   0.000   0.000   0.000
  0.000   0.000   0.000   0.000   0.000   0.000   0.000   0.000   0.000   0.000   0.000   0.000   0.000   0.000   0.000   0.000
  0.000   0.000   0.000   0.000   0.000   0.000   0.000   0.000   0.000   0.000   0.000   0.000   0.000   0.000   0.000   0.000
  0.000   0.000   0.000   0.000   0.000   0.000   0.000   0.000   0.000   0.000   0.000   0.000   0.000   0.000   0.000   0.000
  0.000   0.000   0.000   0.000   0.000   0.000   0.000   0.000   0.000   0.000   0.000   0.000   0.000   0.000   0.000   0.000
  0.000   0.000   0.000   0.000   0.000   0.000   0.000   0.000   0.000   0.000   0.000   0.000   0.000   0.000   0.000   0.000
  0.000   0.000   0.000   0.000   0.000   0.000   0.000   0.000   0.000   0.000   0.000   0.000   0.000   0.000   0.000   0.000


------------------------ aborting loop because EDIFF is reached ----------------------------------------


    CHARGE:  cpu time    0.0579: real time    0.0633
    FORLOC:  cpu time    0.0009: real time    0.0017
    FORNL :  cpu time    0.8560: real time    0.8612
    STRESS:  cpu time    1.3782: real time    1.3883
    FORCOR:  cpu time    0.0032: real time    0.0048
    FORHAR:  cpu time    0.0023: real time    0.0033
    OFIELD:  cpu time    0.0003: real time    0.0014

  FORCE on cell =-STRESS in cart. coord.  units (eV):
  Direction    XX          YY          ZZ          XY          YZ          ZX
  --------------------------------------------------------------------------------------
  Alpha Z  1996.84191  1996.84191  1996.84191
  Ewald   -5122.73989 -5122.73989 -5122.73989     0.00000     0.00000     0.00000
  Hartree   640.92743   640.92743   640.92743    -0.00000    -0.00000    -0.00000
  E(xc)    -750.15749  -750.15749  -750.15749     0.00000     0.00000     0.00000
  Local    1644.68552  1644.68552  1644.68552    -0.00000    -0.00000     0.00000
  n-local  -665.19659  -671.85844  -674.26270    -4.27674    -2.53179    -2.44854
  augment   418.83899   418.83899   418.83899     0.00000    -0.00000     0.00000
  Kinetic  1844.86429  1828.98168  1817.76483   -10.32784    -4.08487    -5.71506
  Fock        0.00000     0.00000     0.00000     0.00000     0.00000     0.00000
  -------------------------------------------------------------------------------------
  Total     -11.50584   -11.50584   -11.50584    -0.00000    -0.00000     0.00000
  in kB     -64.07390   -64.07390   -64.07390    -0.00000    -0.00000     0.00000
  external pressure =      -64.07 kB  Pullay stress =        0.00 kB


 VOLUME and BASIS-vectors are now :
 -----------------------------------------------------------------------------
  energy-cutoff  :      300.00
  volume of cell :      287.71
      direct lattice vectors                 reciprocal lattice vectors
     6.601600000  0.000000000  0.000000000     0.151478429  0.000000000  0.000000000
     0.000000000  6.601600000  0.000000000     0.000000000  0.151478429  0.000000000
     0.000000000  0.000000000  6.601600000     0.000000000  0.000000000  0.151478429

  length of vectors
     6.601600000  6.601600000  6.601600000     0.151478429  0.151478429  0.151478429


 FORCES acting on ions
    electron-ion (+dipol)            ewald-force                    non-local-force                 convergence-correction
 -----------------------------------------------------------------------------------------------
   -.204E-13 -.505E-13 -.255E-13   0.128E-12 0.426E-13 0.711E-13   0.207E-24 0.313E-23 -.504E-24   0.212E-13 0.476E-13 0.218E-13
   0.158E-12 0.495E-13 0.834E-13   0.128E-12 0.840E-13 0.843E-13   0.543E-24 -.248E-23 0.186E-23   -.218E-13 0.255E-13 -.777E-14
   0.211E-12 -.461E-13 -.179E-13   0.426E-13 0.284E-13 0.426E-13   -.176E-23 0.227E-23 -.207E-23   -.624E-13 0.443E-13 0.239E-13
   0.353E-12 -.643E-12 -.605E-12   0.428E-13 0.422E-13 0.698E-13   -.158E-23 0.284E-24 0.103E-23   -.184E-12 0.386E-13 -.664E-14
   -.173E-13 0.245E-12 -.255E-13   0.711E-13 0.000E+00 0.142E-13   -.145E-23 -.103E-23 -.284E-24   0.114E-13 -.987E-13 0.231E-13
   0.158E-12 0.479E-12 0.909E-13   0.663E-13 0.426E-13 -.130E-14   -.207E-23 -.131E-23 -.465E-24   -.191E-13 -.236E-12 -.846E-14
   -.190E-13 -.506E-13 0.220E-12   -.142E-13 -.142E-13 0.142E-13   -.114E-23 -.109E-23 0.414E-24   0.199E-13 0.454E-13 -.861E-13
   0.157E-12 0.555E-13 0.443E-12   -.138E-13 -.235E-14 0.142E-13   -.207E-24 -.517E-24 -.295E-23   -.206E-13 0.247E-13 -.205E-12
   0.204E-12 0.239E-12 -.242E-13   -.142E-13 0.000E+00 0.142E-13   -.341E-23 -.367E-23 -.207E-23   -.565E-13 -.948E-13 0.217E-13
   0.356E-12 0.587E-12 -.130E-11   -.143E-13 0.426E-13 0.180E-13   0.775E-24 0.620E-24 -.414E-24   -.183E-12 -.249E-12 -.440E-14
   -.161E-13 0.247E-12 0.218E-12   -.142E-13 -.426E-13 0.142E-13   0.000E+00 0.124E-23 -.310E-24   0.854E-14 -.973E-13 -.820E-13
   0.157E-12 0.464E-12 0.430E-12   -.117E-13 -.284E-13 0.143E-13   0.620E-24 -.775E-24 -.763E-24   -.166E-13 -.236E-12 -.207E-12
   0.209E-12 -.525E-13 0.213E-12   -.995E-13 0.000E+00 -.568E-13   0.207E-23 -.931E-24 0.140E-23   -.614E-13 0.449E-13 -.788E-13
   0.353E-12 -.134E-11 0.547E-12   -.997E-13 0.147E-13 -.142E-13   -.620E-24 -.134E-23 0.103E-24   -.186E-12 0.344E-13 -.206E-12
   0.202E-12 0.240E-12 0.215E-12   -.128E-12 -.711E-13 -.995E-13   0.158E-23 0.176E-23 0.165E-23   -.558E-13 -.947E-13 -.800E-13
   0.356E-12 0.199E-11 0.195E-11   -.128E-12 -.287E-13 -.285E-13   0.969E-24 0.620E-24 0.165E-23   -.185E-12 -.249E-12 -.208E-12
 -----------------------------------------------------------------------------------------------
   0.280E-11 0.241E-11 0.241E-11   -.582E-13 0.110E-12 0.171E-12   -.547E-23 -.322E-23 -.171E-23   -.991E-12 -.105E-11 -.109E-11
 
 
 POSITION                                       TOTAL-FORCE (eV/Angst)
 -----------------------------------------------------------------------------------
      0.00000      0.00000      0.00000         0.000000     -0.000000      0.000000
      1.65040      1.65040      1.65040         0.000000     -0.000000     -0.000000
      3.30080      0.00000      0.00000        -0.000000     -0.000000      0.000000
      4.95120      1.65040      1.65040         0.000000     -0.000000      0.000000
      0.00000      3.30080      0.00000        -0.000000      0.000000      0.000000
      1.65040      4.95120      1.65040        -0.000000      0.000000      0.000000
      0.00000      0.00000      3.30080        -0.000000     -0.000000      0.000000
      1.65040      1.65040      4.95120        -0.000000     -0.000000      0.000000
      3.30080      3.30080      0.00000         0.000000      0.000000     -0.000000
      4.95120      4.95120      1.65040         0.000000     -0.000000      0.000000
      0.00000      3.30080      3.30080         0.000000     -0.000000     -0.000000
      1.65040      4.95120      4.95120        -0.000000      0.000000     -0.000000
      3.30080      0.00000      3.30080        -0.000000      0.000000     -0.000000
      4.95120      1.65040      4.95120         0.000000      0.000000     -0.000000
      3.30080      3.30080      3.30080         0.000000      0.000000      0.000000
      4.95120      4.95120      4.95120        -0.000000      0.000000      0.000000
 -----------------------------------------------------------------------------------
    total drift:                                0.000000      0.000000      0.000000


--------------------------------------------------------------------------------------------------------



  FREE ENERGIE OF THE ION-ELECTRON SYSTEM (eV)
  ---------------------------------------------------
  free  energy   TOTEN  =      -178.43074692 eV

  energy  without entropy=     -177.94623530  energy(sigma->0) =     -178.18849111
 


--------------------------------------------------------------------------------------------------------


    POTLOK:  cpu time    0.0064: real time    0.0084


--------------------------------------------------------------------------------------------------------


 writing wavefunctions
     LOOP+:  cpu time   29.7783: real time   30.0870
    4ORBIT:  cpu time    0.0000: real time    0.0000

 total amount of memory used by VASP MPI-rank0    56558. kBytes
=======================================================================

   base      :      30000. kBytes
   nonl-proj :      18218. kBytes
   fftplans  :        572. kBytes
   grid      :       1204. kBytes
   one-center:        248. kBytes
   wavefun   :       6316. kBytes
 
  
  
 General timing and accounting informations for this job:
 ========================================================
  
                  Total CPU time used (sec):       32.804
                            User time (sec):       30.742
                          System time (sec):        2.062
                         Elapsed time (sec):       33.373
  
                   Maximum memory used (kb):       94624.
                   Average memory used (kb):           0.
  
                          Minor page faults:        29105
                          Major page faults:           45
                 Voluntary context switches:         1640
