<?xml version="1.0" encoding="ISO-8859-1"?>
<modeling>
 <generator>
  <i name="program" type="string">vasp </i>
  <i name="version" type="string">5.4.4.18Apr17-6-g9f103f2a35  </i>
  <i name="subversion" type="string">(build May 20 2018 16:52:39) complex            parallel </i>
  <i name="platform" type="string">LinuxIFC </i>
  <i name="date" type="string">2022 11 17 </i>
  <i name="time" type="string">22:01:42 </i>
 </generator>
 <incar>
  <i type="string" name="SYSTEM"> Nb gaussian</i>
  <i type="string" name="PREC">normal</i>
  <i type="int" name="ICHARG">    11</i>
  <i name="EDIFF">      0.00000010</i>
  <i name="ENCUT">    300.00000000</i>
  <i type="int" name="ISMEAR">     0</i>
  <i type="logical" name="LCHARG"> F  </i>
  <v type="int" name="KPOINT_BSE">    -1     0     0     0</v>
 </incar>
 <structure name="primitive_cell" >
  <crystal>
   <varray name="basis" >
    <v>       1.65040000       1.65040000       1.65040000 </v>
    <v>       1.65040000      -1.65040000      -1.65040000 </v>
    <v>      -1.65040000       1.65040000      -1.65040000 </v>
   </varray>
   <i name="volume">     17.98157117 </i>
   <varray name="rec_basis" >
    <v>       0.30295686       0.30295686       0.00000000 </v>
    <v>       0.30295686      -0.00000000      -0.30295686 </v>
    <v>      -0.00000000       0.30295686      -0.30295686 </v>
   </varray>
  </crystal>
  <varray name="positions" >
   <v>       0.00000000       0.00000000       0.00000000 </v>
  </varray>
 </structure>
 <varray name="primitive_index" >
  <v type="int" >        1 </v>
 </varray>
 <kpoints>
  <generation param="Monkhorst-Pack">
   <v type="int" name="divisions">      10       10       10 </v>
   <v name="usershift">      0.00000000       0.00000000       0.00000000 </v>
   <v name="genvec1">      0.10000000       0.00000000       0.00000000 </v>
   <v name="genvec2">      0.00000000       0.10000000       0.00000000 </v>
   <v name="genvec3">      0.00000000       0.00000000       0.10000000 </v>
   <v name="shift">      0.50000000       0.50000000       0.50000000 </v>
  </generation>
  <varray name="kpointlist" >
   <v>       0.05000000       0.05000000       0.05000000 </v>
   <v>       0.15000000       0.05000000       0.05000000 </v>
   <v>       0.25000000       0.05000000       0.05000000 </v>
   <v>       0.35000000       0.05000000       0.05000000 </v>
   <v>       0.45000000       0.05000000       0.05000000 </v>
   <v>       0.15000000       0.15000000       0.05000000 </v>
   <v>       0.25000000       0.15000000       0.05000000 </v>
   <v>       0.35000000       0.15000000       0.05000000 </v>
   <v>       0.45000000       0.15000000       0.05000000 </v>
   <v>       0.25000000       0.25000000       0.05000000 </v>
   <v>       0.35000000       0.25000000       0.05000000 </v>
   <v>       0.45000000       0.25000000       0.05000000 </v>
   <v>       0.35000000       0.35000000       0.05000000 </v>
   <v>       0.45000000       0.35000000       0.05000000 </v>
   <v>       0.45000000       0.45000000       0.05000000 </v>
   <v>       0.15000000       0.15000000       0.15000000 </v>
   <v>       0.25000000       0.15000000       0.15000000 </v>
   <v>       0.35000000       0.15000000       0.15000000 </v>
   <v>       0.45000000       0.15000000       0.15000000 </v>
   <v>       0.25000000       0.25000000       0.15000000 </v>
   <v>       0.35000000       0.25000000       0.15000000 </v>
   <v>       0.45000000       0.25000000       0.15000000 </v>
   <v>       0.35000000       0.35000000       0.15000000 </v>
   <v>       0.45000000       0.35000000       0.15000000 </v>
   <v>       0.45000000       0.45000000       0.15000000 </v>
   <v>       0.25000000       0.25000000       0.25000000 </v>
   <v>       0.35000000       0.25000000       0.25000000 </v>
   <v>       0.45000000       0.25000000       0.25000000 </v>
   <v>       0.35000000       0.35000000       0.25000000 </v>
   <v>       0.45000000       0.35000000       0.25000000 </v>
   <v>       0.45000000       0.45000000       0.25000000 </v>
   <v>       0.35000000       0.35000000       0.35000000 </v>
   <v>       0.45000000       0.35000000       0.35000000 </v>
   <v>       0.45000000       0.45000000       0.35000000 </v>
   <v>       0.45000000       0.45000000       0.45000000 </v>
  </varray>
  <varray name="weights" >
   <v>       0.00800000 </v>
   <v>       0.02400000 </v>
   <v>       0.02400000 </v>
   <v>       0.02400000 </v>
   <v>       0.02400000 </v>
   <v>       0.02400000 </v>
   <v>       0.04800000 </v>
   <v>       0.04800000 </v>
   <v>       0.04800000 </v>
   <v>       0.02400000 </v>
   <v>       0.04800000 </v>
   <v>       0.04800000 </v>
   <v>       0.02400000 </v>
   <v>       0.04800000 </v>
   <v>       0.02400000 </v>
   <v>       0.00800000 </v>
   <v>       0.02400000 </v>
   <v>       0.02400000 </v>
   <v>       0.02400000 </v>
   <v>       0.02400000 </v>
   <v>       0.04800000 </v>
   <v>       0.04800000 </v>
   <v>       0.02400000 </v>
   <v>       0.04800000 </v>
   <v>       0.02400000 </v>
   <v>       0.00800000 </v>
   <v>       0.02400000 </v>
   <v>       0.02400000 </v>
   <v>       0.02400000 </v>
   <v>       0.04800000 </v>
   <v>       0.02400000 </v>
   <v>       0.00800000 </v>
   <v>       0.02400000 </v>
   <v>       0.02400000 </v>
   <v>       0.00800000 </v>
  </varray>
 </kpoints>
 <parameters>
  <separator name="general" >
   <i type="string" name="SYSTEM">Nb gaussian</i>
   <i type="logical" name="LCOMPAT"> F  </i>
  </separator>
  <separator name="electronic" >
   <i type="string" name="PREC">normal</i>
   <i name="ENMAX">    300.00000000</i>
   <i name="ENAUG">    352.74500000</i>
   <i name="EDIFF">      0.00000010</i>
   <i type="int" name="IALGO">    38</i>
   <i type="int" name="IWAVPR">    10</i>
   <i type="int" name="NBANDS">   120</i>
   <i name="NELECT">    176.00000000</i>
   <i type="int" name="TURBO">     0</i>
   <i type="int" name="IRESTART">     0</i>
   <i type="int" name="NREBOOT">     0</i>
   <i type="int" name="NMIN">     0</i>
   <i name="EREF">      0.00000000</i>
   <separator name="electronic smearing" >
    <i type="int" name="ISMEAR">     0</i>
    <i name="SIGMA">      0.20000000</i>
    <i name="KSPACING">      0.50000000</i>
    <i type="logical" name="KGAMMA"> T  </i>
   </separator>
   <separator name="electronic projectors" >
    <i type="logical" name="LREAL"> F  </i>
    <v name="ROPT">      0.00000000</v>
    <i type="int" name="LMAXPAW">  -100</i>
    <i type="int" name="LMAXMIX">     2</i>
    <i type="logical" name="NLSPLINE"> F  </i>
   </separator>
   <separator name="electronic startup" >
    <i type="int" name="ISTART">     0</i>
    <i type="int" name="ICHARG">    11</i>
    <i type="int" name="INIWAV">     1</i>
   </separator>
   <separator name="electronic spin" >
    <i type="int" name="ISPIN">     1</i>
    <i type="logical" name="LNONCOLLINEAR"> F  </i>
    <v name="MAGMOM">      1.00000000      1.00000000      1.00000000      1.00000000      1.00000000      1.00000000      1.00000000      1.00000000      1.00000000      1.00000000      1.00000000      1.00000000      1.00000000      1.00000000      1.00000000      1.00000000</v>
    <i name="NUPDOWN">     -1.00000000</i>
    <i type="logical" name="LSORBIT"> F  </i>
    <v name="SAXIS">      0.00000000      0.00000000      1.00000000</v>
    <i type="logical" name="LSPIRAL"> F  </i>
    <v name="QSPIRAL">      0.00000000      0.00000000      0.00000000</v>
    <i type="logical" name="LZEROZ"> F  </i>
   </separator>
   <separator name="electronic exchange-correlation" >
    <i type="logical" name="LASPH"> F  </i>
    <i type="logical" name="LMETAGGA"> F  </i>
   </separator>
   <separator name="electronic convergence" >
    <i type="int" name="NELM">    60</i>
    <i type="int" name="NELMDL">    -5</i>
    <i type="int" name="NELMIN">     2</i>
    <i name="ENINI">    300.00000000</i>
    <separator name="electronic convergence detail" >
     <i type="logical" name="LDIAG"> T  </i>
     <i type="logical" name="LSUBROT"> F  </i>
     <i name="WEIMIN">      0.00000000</i>
     <i name="EBREAK">      0.00000000</i>
     <i name="DEPER">      0.30000000</i>
     <i type="int" name="NRMM">     4</i>
     <i name="TIME">      0.40000000</i>
    </separator>
   </separator>
   <separator name="electronic mixer" >
    <i name="AMIX">      0.40000000</i>
    <i name="BMIX">      1.00000000</i>
    <i name="AMIN">      0.10000000</i>
    <i name="AMIX_MAG">      1.60000000</i>
    <i name="BMIX_MAG">      1.00000000</i>
    <separator name="electronic mixer details" >
     <i type="int" name="IMIX">     4</i>
     <i type="logical" name="MIXFIRST"> F  </i>
     <i type="int" name="MAXMIX">   -45</i>
     <i name="WC">    100.00000000</i>
     <i type="int" name="INIMIX">     1</i>
     <i type="int" name="MIXPRE">     1</i>
     <i type="int" name="MREMOVE">     5</i>
    </separator>
   </separator>
   <separator name="electronic dipolcorrection" >
    <i type="logical" name="LDIPOL"> F  </i>
    <i type="logical" name="LMONO"> F  </i>
    <i type="int" name="IDIPOL">     0</i>
    <i name="EPSILON">      1.00000000</i>
    <v name="DIPOL">   -100.00000000   -100.00000000   -100.00000000</v>
    <i name="EFIELD">      0.00000000</i>
   </separator>
  </separator>
  <separator name="grids" >
   <i type="int" name="NGX">    28</i>
   <i type="int" name="NGY">    28</i>
   <i type="int" name="NGZ">    28</i>
   <i type="int" name="NGXF">    56</i>
   <i type="int" name="NGYF">    56</i>
   <i type="int" name="NGZF">    56</i>
   <i type="logical" name="ADDGRID"> F  </i>
  </separator>
  <separator name="ionic" >
   <i type="int" name="NSW">     0</i>
   <i type="int" name="IBRION">    -1</i>
   <i type="int" name="MDALGO">     0</i>
   <i type="int" name="ISIF">     2</i>
   <i name="PSTRESS">      0.00000000</i>
   <i name="EDIFFG">      0.00000100</i>
   <i type="int" name="NFREE">     0</i>
   <i name="POTIM">      0.50000000</i>
   <i name="SMASS">     -3.00000000</i>
   <i name="SCALEE">      1.00000000</i>
  </separator>
  <separator name="ionic md" >
   <i name="TEBEG">      0.00010000</i>
   <i name="TEEND">      0.00010000</i>
   <i type="int" name="NBLOCK">     1</i>
   <i type="int" name="KBLOCK">     1</i>
   <i type="int" name="NPACO">   256</i>
   <i name="APACO">     16.00000000</i>
  </separator>
  <separator name="symmetry" >
   <i type="int" name="ISYM">     2</i>
   <i name="SYMPREC">      0.00001000</i>
  </separator>
  <separator name="dos" >
   <i type="int" name="LORBIT">     0</i>
   <v name="RWIGS">     -1.00000000</v>
   <i type="int" name="NEDOS">   301</i>
   <i name="EMIN">     10.00000000</i>
   <i name="EMAX">    -10.00000000</i>
   <i name="EFERMI">      0.00000000</i>
  </separator>
  <separator name="writing" >
   <i type="int" name="NWRITE">     2</i>
   <i type="logical" name="LWAVE"> T  </i>
   <i type="logical" name="LDOWNSAMPLE"> F  </i>
   <i type="logical" name="LCHARG"> F  </i>
   <i type="logical" name="LPARD"> F  </i>
   <i type="logical" name="LVTOT"> F  </i>
   <i type="logical" name="LVHAR"> F  </i>
   <i type="logical" name="LELF"> F  </i>
   <i type="logical" name="LOPTICS"> F  </i>
   <v name="STM">      0.00000000      0.00000000      0.00000000      0.00000000      0.00000000      0.00000000      0.00000000</v>
  </separator>
  <separator name="performance" >
   <i type="int" name="NPAR">    40</i>
   <i type="int" name="NSIM">     4</i>
   <i type="int" name="NBLK">    -1</i>
   <i type="logical" name="LPLANE"> T  </i>
   <i type="logical" name="LSCALAPACK"> T  </i>
   <i type="logical" name="LSCAAWARE"> T  </i>
   <i type="logical" name="LSCALU"> F  </i>
   <i type="logical" name="LASYNC"> F  </i>
   <i type="logical" name="LORBITALREAL"> F  </i>
  </separator>
  <separator name="miscellaneous" >
   <i type="int" name="IDIOT">     3</i>
   <i type="int" name="ISPECIAL">     0</i>
   <i type="logical" name="LMUSIC"> F  </i>
   <v name="POMASS">     92.91000000</v>
   <v name="DARWINR">      0.00000000</v>
   <v name="DARWINV">      1.00000000</v>
   <i type="logical" name="LCORR"> T  </i>
  </separator>
  <i type="logical" name="GGA_COMPAT"> T  </i>
  <i type="logical" name="LBERRY"> F  </i>
  <i type="int" name="ICORELEVEL">     0</i>
  <i type="logical" name="LDAU"> F  </i>
  <i type="int" name="I_CONSTRAINED_M">     0</i>
  <separator name="electronic exchange-correlation" >
   <i type="string" name="GGA">--</i>
   <i type="int" name="VOSKOWN">     0</i>
   <i type="logical" name="LHFCALC"> F  </i>
   <i type="string" name="PRECFOCK"></i>
   <i type="logical" name="LSYMGRAD"> F  </i>
   <i type="logical" name="LHFONE"> F  </i>
   <i type="logical" name="LRHFCALC"> F  </i>
   <i type="logical" name="LTHOMAS"> F  </i>
   <i type="logical" name="LMODELHF"> F  </i>
   <i name="ENCUT4O">     -1.00000000</i>
   <i type="int" name="EXXOEP">     0</i>
   <i type="int" name="FOURORBIT">     0</i>
   <i name="AEXX">      0.00000000</i>
   <i name="HFALPHA">      0.00000000</i>
   <i name="MCALPHA">      0.00000000</i>
   <i name="ALDAX">      1.00000000</i>
   <i name="AGGAX">      1.00000000</i>
   <i name="ALDAC">      1.00000000</i>
   <i name="AGGAC">      1.00000000</i>
   <i type="int" name="NKREDX">     1</i>
   <i type="int" name="NKREDY">     1</i>
   <i type="int" name="NKREDZ">     1</i>
   <i type="logical" name="SHIFTRED"> F  </i>
   <i type="logical" name="ODDONLY"> F  </i>
   <i type="logical" name="EVENONLY"> F  </i>
   <i type="int" name="LMAXFOCK">     0</i>
   <i type="int" name="NMAXFOCKAE">     0</i>
   <i type="logical" name="LFOCKAEDFT"> F  </i>
   <i name="HFSCREEN">      0.00000000</i>
   <i name="HFSCREENC">      0.00000000</i>
   <i type="int" name="NBANDSGWLOW">     0</i>
  </separator>
  <separator name="vdW DFT" >
   <i type="logical" name="LUSE_VDW"> F  </i>
   <i name="Zab_VDW">     -0.84910000</i>
   <i name="PARAM1">      0.12340000</i>
   <i name="PARAM2">      1.00000000</i>
   <i name="PARAM3">      0.00000000</i>
  </separator>
  <separator name="model GW" >
   <i type="int" name="MODEL_GW">     0</i>
   <i name="MODEL_EPS0">     10.78894270</i>
   <i name="MODEL_ALPHA">      1.00000000</i>
  </separator>
  <separator name="linear response parameters" >
   <i type="logical" name="LEPSILON"> F  </i>
   <i type="logical" name="LRPA"> F  </i>
   <i type="logical" name="LNABLA"> F  </i>
   <i type="logical" name="LVEL"> F  </i>
   <i type="int" name="KINTER">     0</i>
   <i name="CSHIFT">      0.10000000</i>
   <i name="OMEGAMAX">     -1.00000000</i>
   <i name="DEG_THRESHOLD">      0.00200000</i>
   <i name="RTIME">     -0.10000000</i>
   <i name="WPLASMAI">      0.00000000</i>
   <v name="DFIELD">      0.00000000      0.00000000      0.00000000</v>
   <v name="WPLASMA">      0.00000000      0.00000000      0.00000000      0.00000000      0.00000000      0.00000000      0.00000000      0.00000000      0.00000000</v>
  </separator>
  <separator name="orbital magnetization" >
   <i type="logical" name="NUCIND"> F  </i>
   <v name="MAGPOS">      0.00000000      0.00000000      0.00000000</v>
   <i type="logical" name="LNICSALL"> T  </i>
   <i type="logical" name="ORBITALMAG"> F  </i>
   <i type="logical" name="LMAGBLOCH"> F  </i>
   <i type="logical" name="LCHIMAG"> F  </i>
   <i type="logical" name="LGAUGE"> T  </i>
   <i type="int" name="MAGATOM">     0</i>
   <v name="MAGDIPOL">      0.00000000      0.00000000      0.00000000</v>
   <v name="AVECCONST">      0.00000000      0.00000000      0.00000000</v>
  </separator>
  <separator name="response functions" >
   <i type="logical" name="LADDER"> F  </i>
   <i type="logical" name="LRPAFORCE"> F  </i>
   <i type="logical" name="LFXC"> F  </i>
   <i type="logical" name="LHARTREE"> T  </i>
   <i type="int" name="IBSE">     0</i>
   <v type="int" name="KPOINT">    -1     0     0     0</v>
   <i type="logical" name="LTCTE"> F  </i>
   <i type="logical" name="LTETE"> F  </i>
   <i type="logical" name="LTRIPLET"> F  </i>
   <i type="logical" name="LFXCEPS"> F  </i>
   <i type="logical" name="LFXHEG"> F  </i>
   <i type="int" name="NATURALO">     2</i>
   <i type="logical" name="L2ORDER"> F  </i>
   <i type="logical" name="LMP2LT"> F  </i>
   <i type="logical" name="LUSEW"> F  </i>
   <i name="ENCUTGW">     -2.00000000</i>
   <i name="ENCUTGWSOFT">     -2.00000000</i>
   <i name="ENCUTLF">     -1.00000000</i>
   <i type="int" name="LMAXMP2">    -1</i>
   <i name="SCISSOR">      0.00000000</i>
   <i type="int" name="NOMEGA">     0</i>
   <i type="int" name="NOMEGAR">     0</i>
   <i type="int" name="NBANDSGW">    -1</i>
   <i type="int" name="NBANDSO">    -1</i>
   <i type="int" name="NBANDSV">    -1</i>
   <i type="int" name="NELM">     1</i>
   <i type="int" name="NELMHF">     1</i>
   <i type="int" name="DIM">     3</i>
   <i type="int" name="ANTIRES">     0</i>
   <i name="OMEGAMAX">    -30.00000000</i>
   <i name="OMEGAMIN">    -30.00000000</i>
   <i name="OMEGATL">   -200.00000000</i>
   <i type="int" name="OMEGAGRID">   140</i>
   <i name="CSHIFT">     -0.10000000</i>
   <i type="logical" name="SELFENERGY"> F  </i>
   <i type="logical" name="LSPECTRAL"> F  </i>
   <i type="logical" name="LSPECTRALGW"> F  </i>
   <i type="logical" name="LSINGLES"> F  </i>
   <i type="logical" name="LFERMIGW"> F  </i>
   <i type="logical" name="ODDONLYGW"> F  </i>
   <i type="logical" name="EVENONLYGW"> F  </i>
   <i type="int" name="NKREDLFX">     1</i>
   <i type="int" name="NKREDLFY">     1</i>
   <i type="int" name="NKREDLFZ">     1</i>
   <i type="int" name="MAXMEM">  2800</i>
   <i type="int" name="TELESCOPE">     0</i>
   <i type="int" name="TAUPAR">     1</i>
   <i type="int" name="OMEGAPAR">    -1</i>
   <i name="LAMBDA">      1.00000000</i>
  </separator>
  <separator name="External order field" >
   <i name="OFIELD_KAPPA">      0.00000000</i>
   <v name="OFIELD_K">      0.00000000      0.00000000      0.00000000</v>
   <i name="OFIELD_Q6_NEAR">      0.00000000</i>
   <i name="OFIELD_Q6_FAR">      0.00000000</i>
   <i name="OFIELD_A">      0.00000000</i>
  </separator>
 </parameters>
 <atominfo>
  <atoms>      16 </atoms>
  <types>       1 </types>
  <array name="atoms" >
   <dimension dim="1">ion</dimension>
   <field type="string">element</field>
   <field type="int">atomtype</field>
   <set>
    <rc><c>Nb</c><c>   1</c></rc>
    <rc><c>Nb</c><c>   1</c></rc>
    <rc><c>Nb</c><c>   1</c></rc>
    <rc><c>Nb</c><c>   1</c></rc>
    <rc><c>Nb</c><c>   1</c></rc>
    <rc><c>Nb</c><c>   1</c></rc>
    <rc><c>Nb</c><c>   1</c></rc>
    <rc><c>Nb</c><c>   1</c></rc>
    <rc><c>Nb</c><c>   1</c></rc>
    <rc><c>Nb</c><c>   1</c></rc>
    <rc><c>Nb</c><c>   1</c></rc>
    <rc><c>Nb</c><c>   1</c></rc>
    <rc><c>Nb</c><c>   1</c></rc>
    <rc><c>Nb</c><c>   1</c></rc>
    <rc><c>Nb</c><c>   1</c></rc>
    <rc><c>Nb</c><c>   1</c></rc>
   </set>
  </array>
  <array name="atomtypes" >
   <dimension dim="1">type</dimension>
   <field type="int">atomspertype</field>
   <field type="string">element</field>
   <field>mass</field>
   <field>valence</field>
   <field type="string">pseudopotential</field>
   <set>
    <rc><c>  16</c><c>Nb</c><c>     92.91000000</c><c>     11.00000000</c><c>  PAW Nb_pv 09Jan2002                   </c></rc>
   </set>
  </array>
 </atominfo>
 <structure name="initialpos" >
  <crystal>
   <varray name="basis" >
    <v>       6.60160000       0.00000000       0.00000000 </v>
    <v>       0.00000000       6.60160000       0.00000000 </v>
    <v>       0.00000000       0.00000000       6.60160000 </v>
   </varray>
   <i name="volume">    287.70513869 </i>
   <varray name="rec_basis" >
    <v>       0.15147843       0.00000000       0.00000000 </v>
    <v>       0.00000000       0.15147843       0.00000000 </v>
    <v>       0.00000000       0.00000000       0.15147843 </v>
   </varray>
  </crystal>
  <varray name="positions" >
   <v>       0.00000000       0.00000000       0.00000000 </v>
   <v>       0.25000000       0.25000000       0.25000000 </v>
   <v>       0.50000000       0.00000000       0.00000000 </v>
   <v>       0.75000000       0.25000000       0.25000000 </v>
   <v>       0.00000000       0.50000000       0.00000000 </v>
   <v>       0.25000000       0.75000000       0.25000000 </v>
   <v>       0.00000000       0.00000000       0.50000000 </v>
   <v>       0.25000000       0.25000000       0.75000000 </v>
   <v>       0.50000000       0.50000000       0.00000000 </v>
   <v>       0.75000000       0.75000000       0.25000000 </v>
   <v>       0.00000000       0.50000000       0.50000000 </v>
   <v>       0.25000000       0.75000000       0.75000000 </v>
   <v>       0.50000000       0.00000000       0.50000000 </v>
   <v>       0.75000000       0.25000000       0.75000000 </v>
   <v>       0.50000000       0.50000000       0.50000000 </v>
   <v>       0.75000000       0.75000000       0.75000000 </v>
  </varray>
 </structure>
 <calculation>
  <scstep>
   <time name="dav">    2.48    2.53</time>
   <time name="total">    2.49    2.56</time>
   <energy>
    <i name="alphaZ">   1996.84190797 </i>
    <i name="ewald"> -15368.17067784 </i>
    <i name="hartreedc">  -1921.95149132 </i>
    <i name="XCdc">    422.98878419 </i>
    <i name="pawpsdc">  23983.15301354 </i>
    <i name="pawaedc"> -23850.05790382 </i>
    <i name="eentropy">     -0.15927052 </i>
    <i name="bandstr">   -678.52678990 </i>
    <i name="atom">  16741.81022793 </i>
    <i name="e_fr_energy">   1325.92780023 </i>
    <i name="e_wo_entrp">   1326.08707076 </i>
    <i name="e_0_energy">   1326.00743549 </i>
   </energy>
  </scstep>
  <scstep>
   <time name="dav">    2.19    2.20</time>
   <time name="total">    2.19    2.20</time>
   <energy>
    <i name="e_fr_energy">   -104.51941458 </i>
    <i name="e_wo_entrp">   -104.26147614 </i>
    <i name="e_0_energy">   -104.39044536 </i>
   </energy>
  </scstep>
  <scstep>
   <time name="dav">    3.44    3.46</time>
   <time name="total">    3.45    3.46</time>
   <energy>
    <i name="e_fr_energy">   -176.38310703 </i>
    <i name="e_wo_entrp">   -175.90730058 </i>
    <i name="e_0_energy">   -176.14520380 </i>
   </energy>
  </scstep>
  <scstep>
   <time name="dav">    2.91    2.92</time>
   <time name="total">    2.91    2.92</time>
   <energy>
    <i name="e_fr_energy">   -178.34647356 </i>
    <i name="e_wo_entrp">   -177.86187769 </i>
    <i name="e_0_energy">   -178.10417562 </i>
   </energy>
  </scstep>
  <scstep>
   <time name="dav">    3.43    3.45</time>
   <time name="total">    3.44    3.46</time>
   <energy>
    <i name="e_fr_energy">   -178.42971079 </i>
    <i name="e_wo_entrp">   -177.94520050 </i>
    <i name="e_0_energy">   -178.18745565 </i>
   </energy>
  </scstep>
  <scstep>
   <time name="dav">    2.94    2.99</time>
   <time name="total">    2.94    2.99</time>
   <energy>
    <i name="e_fr_energy">   -178.43071021 </i>
    <i name="e_wo_entrp">   -177.94619843 </i>
    <i name="e_0_energy">   -178.18845432 </i>
   </energy>
  </scstep>
  <scstep>
   <time name="dav">    3.60    3.61</time>
   <time name="total">    3.60    3.61</time>
   <energy>
    <i name="e_fr_energy">   -178.43074652 </i>
    <i name="e_wo_entrp">   -177.94623489 </i>
    <i name="e_0_energy">   -178.18849071 </i>
   </energy>
  </scstep>
  <scstep>
   <time name="dav">    2.93    2.94</time>
   <time name="total">    2.93    2.94</time>
   <energy>
    <i name="e_fr_energy">   -178.43074691 </i>
    <i name="e_wo_entrp">   -177.94623529 </i>
    <i name="e_0_energy">   -178.18849110 </i>
   </energy>
  </scstep>
  <scstep>
   <time name="dav">    2.83    2.84</time>
   <time name="total">    2.83    2.84</time>
   <energy>
    <i name="alphaZ">   1996.84190797 </i>
    <i name="ewald"> -15368.17067784 </i>
    <i name="hartreedc">  -1921.95149132 </i>
    <i name="XCdc">    422.98878419 </i>
    <i name="pawpsdc">  23983.15301354 </i>
    <i name="pawaedc"> -23850.05790382 </i>
    <i name="eentropy">     -0.48451162 </i>
    <i name="bandstr">  -2182.56009595 </i>
    <i name="atom">  16741.81022793 </i>
    <i name="e_fr_energy">   -178.43074692 </i>
    <i name="e_wo_entrp">   -177.94623530 </i>
    <i name="e_0_energy">   -178.18849111 </i>
   </energy>
  </scstep>
  <structure>
   <crystal>
    <varray name="basis" >
     <v>       6.60160000       0.00000000       0.00000000 </v>
     <v>       0.00000000       6.60160000       0.00000000 </v>
     <v>       0.00000000       0.00000000       6.60160000 </v>
    </varray>
    <i name="volume">    287.70513869 </i>
    <varray name="rec_basis" >
     <v>       0.15147843       0.00000000       0.00000000 </v>
     <v>       0.00000000       0.15147843       0.00000000 </v>
     <v>       0.00000000       0.00000000       0.15147843 </v>
    </varray>
   </crystal>
   <varray name="positions" >
    <v>       0.00000000       0.00000000       0.00000000 </v>
    <v>       0.25000000       0.25000000       0.25000000 </v>
    <v>       0.50000000       0.00000000       0.00000000 </v>
    <v>       0.75000000       0.25000000       0.25000000 </v>
    <v>       0.00000000       0.50000000       0.00000000 </v>
    <v>       0.25000000       0.75000000       0.25000000 </v>
    <v>       0.00000000       0.00000000       0.50000000 </v>
    <v>       0.25000000       0.25000000       0.75000000 </v>
    <v>       0.50000000       0.50000000       0.00000000 </v>
    <v>       0.75000000       0.75000000       0.25000000 </v>
    <v>       0.00000000       0.50000000       0.50000000 </v>
    <v>       0.25000000       0.75000000       0.75000000 </v>
    <v>       0.50000000       0.00000000       0.50000000 </v>
    <v>       0.75000000       0.25000000       0.75000000 </v>
    <v>       0.50000000       0.50000000       0.50000000 </v>
    <v>       0.75000000       0.75000000       0.75000000 </v>
   </varray>
  </structure>
  <varray name="forces" >
   <v>       0.00000000      -0.00000000       0.00000000 </v>
   <v>       0.00000000      -0.00000000      -0.00000000 </v>
   <v>      -0.00000000      -0.00000000       0.00000000 </v>
   <v>       0.00000000      -0.00000000       0.00000000 </v>
   <v>      -0.00000000       0.00000000       0.00000000 </v>
   <v>      -0.00000000       0.00000000       0.00000000 </v>
   <v>      -0.00000000      -0.00000000       0.00000000 </v>
   <v>      -0.00000000      -0.00000000       0.00000000 </v>
   <v>       0.00000000       0.00000000      -0.00000000 </v>
   <v>       0.00000000      -0.00000000       0.00000000 </v>
   <v>       0.00000000      -0.00000000      -0.00000000 </v>
   <v>      -0.00000000       0.00000000      -0.00000000 </v>
   <v>      -0.00000000       0.00000000      -0.00000000 </v>
   <v>       0.00000000       0.00000000      -0.00000000 </v>
   <v>       0.00000000       0.00000000       0.00000000 </v>
   <v>      -0.00000000       0.00000000       0.00000000 </v>
  </varray>
  <varray name="stress" >
   <v>     -64.07389991      -0.00000000       0.00000000 </v>
   <v>      -0.00000000     -64.07389991       0.00000000 </v>
   <v>      -0.00000000      -0.00000000     -64.07389991 </v>
  </varray>
  <energy>
   <i name="e_fr_energy">   -178.43074692 </i>
   <i name="e_wo_entrp">   -178.18849111 </i>
   <i name="e_0_energy">     -0.48451162 </i>
  </energy>
  <time name="totalsc">   29.78   30.09</time>
  <eigenvalues>
   <array>
    <dimension dim="1">band</dimension>
    <dimension dim="2">kpoint</dimension>
    <dimension dim="3">spin</dimension>
    <field>eigene</field>
    <field>occ</field>
    <set>
     <set comment="spin 1">
      <set comment="kpoint 1">
       <r>  -26.0699    1.0000 </r>
       <r>  -26.0699    1.0000 </r>
       <r>  -26.0699    1.0000 </r>
       <r>  -26.0647    1.0000 </r>
       <r>  -26.0647    1.0000 </r>
       <r>  -26.0647    1.0000 </r>
       <r>  -25.6394    1.0000 </r>
       <r>  -25.6394    1.0000 </r>
       <r>  -25.6271    1.0000 </r>
       <r>  -25.4994    1.0000 </r>
       <r>  -25.4961    1.0000 </r>
       <r>  -25.4961    1.0000 </r>
       <r>  -25.4961    1.0000 </r>
       <r>  -25.4469    1.0000 </r>
       <r>  -25.4469    1.0000 </r>
       <r>  -25.4247    1.0000 </r>
       <r>  -25.4247    1.0000 </r>
       <r>  -25.4247    1.0000 </r>
       <r>  -25.3395    1.0000 </r>
       <r>  -25.3395    1.0000 </r>
       <r>  -25.2859    1.0000 </r>
       <r>  -25.1955    1.0000 </r>
       <r>  -25.1955    1.0000 </r>
       <r>  -25.1955    1.0000 </r>
       <r>  -25.1753    1.0000 </r>
       <r>  -25.1753    1.0000 </r>
       <r>  -25.1753    1.0000 </r>
       <r>  -25.1332    1.0000 </r>
       <r>  -25.1332    1.0000 </r>
       <r>  -25.1332    1.0000 </r>
       <r>  -25.1272    1.0000 </r>
       <r>  -25.1272    1.0000 </r>
       <r>  -25.1272    1.0000 </r>
       <r>  -25.1209    1.0000 </r>
       <r>  -25.1209    1.0000 </r>
       <r>  -25.1209    1.0000 </r>
       <r>  -25.1018    1.0000 </r>
       <r>  -25.1018    1.0000 </r>
       <r>  -25.1018    1.0000 </r>
       <r>  -24.7132    1.0000 </r>
       <r>  -24.7132    1.0000 </r>
       <r>  -24.7132    1.0000 </r>
       <r>  -24.7071    1.0000 </r>
       <r>  -24.7071    1.0000 </r>
       <r>  -24.7071    1.0000 </r>
       <r>  -24.7071    1.0000 </r>
       <r>  -24.6932    1.0000 </r>
       <r>  -24.6932    1.0000 </r>
       <r>   -1.0486    1.0000 </r>
       <r>    1.1100    1.0000 </r>
       <r>    1.1100    1.0000 </r>
       <r>    1.1123    1.0000 </r>
       <r>    1.1123    1.0000 </r>
       <r>    1.1123    1.0000 </r>
       <r>    1.1255    1.0000 </r>
       <r>    1.1255    1.0000 </r>
       <r>    1.1255    1.0000 </r>
       <r>    2.1931    1.0000 </r>
       <r>    2.1931    1.0000 </r>
       <r>    2.1931    1.0000 </r>
       <r>    2.4832    1.0000 </r>
       <r>    2.4832    1.0000 </r>
       <r>    2.4832    1.0000 </r>
       <r>    3.1476    1.0000 </r>
       <r>    3.1476    1.0000 </r>
       <r>    3.1476    1.0000 </r>
       <r>    3.1646    1.0000 </r>
       <r>    3.1646    1.0000 </r>
       <r>    3.1646    1.0000 </r>
       <r>    3.4831    1.0000 </r>
       <r>    3.5198    1.0000 </r>
       <r>    3.5198    1.0000 </r>
       <r>    3.5198    1.0000 </r>
       <r>    3.6234    1.0000 </r>
       <r>    3.6234    1.0000 </r>
       <r>    3.8581    1.0000 </r>
       <r>    3.8581    1.0000 </r>
       <r>    3.9468    1.0000 </r>
       <r>    4.0066    1.0000 </r>
       <r>    4.0066    1.0000 </r>
       <r>    4.0066    1.0000 </r>
       <r>    5.1461    0.0194 </r>
       <r>    5.1461    0.0194 </r>
       <r>    5.2077    0.0062 </r>
       <r>    5.6074    0.0000 </r>
       <r>    5.6074    0.0000 </r>
       <r>    5.6074    0.0000 </r>
       <r>    5.7277    0.0000 </r>
       <r>    5.7277    0.0000 </r>
       <r>    5.7277    0.0000 </r>
       <r>    5.8692    0.0000 </r>
       <r>    5.8692    0.0000 </r>
       <r>    5.8692    0.0000 </r>
       <r>    5.9882    0.0000 </r>
       <r>    5.9882    0.0000 </r>
       <r>    5.9882    0.0000 </r>
       <r>    7.0180    0.0000 </r>
       <r>    7.0180    0.0000 </r>
       <r>    7.0180    0.0000 </r>
       <r>    7.1047    0.0000 </r>
       <r>    7.1047    0.0000 </r>
       <r>    7.1047    0.0000 </r>
       <r>    7.2963    0.0000 </r>
       <r>    7.2963    0.0000 </r>
       <r>    7.2963    0.0000 </r>
       <r>    7.6935    0.0000 </r>
       <r>    7.6935    0.0000 </r>
       <r>    7.6935    0.0000 </r>
       <r>    8.0600    0.0000 </r>
       <r>    8.0600    0.0000 </r>
       <r>    8.0616    0.0000 </r>
       <r>    8.0616    0.0000 </r>
       <r>    8.0617    0.0000 </r>
       <r>    8.1273    0.0000 </r>
       <r>    8.1273    0.0000 </r>
       <r>    8.1273    0.0000 </r>
       <r>    8.7828    0.0000 </r>
       <r>    8.7865    0.0000 </r>
       <r>    8.8064    0.0000 </r>
       <r>    8.9219    0.0000 </r>
      </set>
      <set comment="kpoint 2">
       <r>  -26.0545    1.0000 </r>
       <r>  -26.0545    1.0000 </r>
       <r>  -26.0534    1.0000 </r>
       <r>  -26.0486    1.0000 </r>
       <r>  -26.0391    1.0000 </r>
       <r>  -26.0391    1.0000 </r>
       <r>  -25.6474    1.0000 </r>
       <r>  -25.6274    1.0000 </r>
       <r>  -25.6089    1.0000 </r>
       <r>  -25.5780    1.0000 </r>
       <r>  -25.5543    1.0000 </r>
       <r>  -25.5543    1.0000 </r>
       <r>  -25.5536    1.0000 </r>
       <r>  -25.5527    1.0000 </r>
       <r>  -25.4854    1.0000 </r>
       <r>  -25.4854    1.0000 </r>
       <r>  -25.4123    1.0000 </r>
       <r>  -25.3528    1.0000 </r>
       <r>  -25.3411    1.0000 </r>
       <r>  -25.2696    1.0000 </r>
       <r>  -25.2484    1.0000 </r>
       <r>  -25.2332    1.0000 </r>
       <r>  -25.2029    1.0000 </r>
       <r>  -25.1952    1.0000 </r>
       <r>  -25.1952    1.0000 </r>
       <r>  -25.1470    1.0000 </r>
       <r>  -25.1406    1.0000 </r>
       <r>  -25.1406    1.0000 </r>
       <r>  -25.1401    1.0000 </r>
       <r>  -25.1228    1.0000 </r>
       <r>  -25.1228    1.0000 </r>
       <r>  -25.1224    1.0000 </r>
       <r>  -25.1224    1.0000 </r>
       <r>  -25.1217    1.0000 </r>
       <r>  -25.1217    1.0000 </r>
       <r>  -25.0506    1.0000 </r>
       <r>  -25.0506    1.0000 </r>
       <r>  -25.0476    1.0000 </r>
       <r>  -25.0297    1.0000 </r>
       <r>  -24.7388    1.0000 </r>
       <r>  -24.7310    1.0000 </r>
       <r>  -24.7310    1.0000 </r>
       <r>  -24.7292    1.0000 </r>
       <r>  -24.7240    1.0000 </r>
       <r>  -24.7129    1.0000 </r>
       <r>  -24.7129    1.0000 </r>
       <r>  -24.7045    1.0000 </r>
       <r>  -24.6986    1.0000 </r>
       <r>   -0.9441    1.0000 </r>
       <r>    1.1586    1.0000 </r>
       <r>    1.1586    1.0000 </r>
       <r>    1.1665    1.0000 </r>
       <r>    1.1980    1.0000 </r>
       <r>    1.1980    1.0000 </r>
       <r>    1.2011    1.0000 </r>
       <r>    1.2175    1.0000 </r>
       <r>    1.2295    1.0000 </r>
       <r>    1.7934    1.0000 </r>
       <r>    2.1858    1.0000 </r>
       <r>    2.1858    1.0000 </r>
       <r>    2.4714    1.0000 </r>
       <r>    2.4714    1.0000 </r>
       <r>    2.6256    1.0000 </r>
       <r>    3.0631    1.0000 </r>
       <r>    3.1406    1.0000 </r>
       <r>    3.1560    1.0000 </r>
       <r>    3.2044    1.0000 </r>
       <r>    3.2044    1.0000 </r>
       <r>    3.2547    1.0000 </r>
       <r>    3.2547    1.0000 </r>
       <r>    3.2998    1.0000 </r>
       <r>    3.4378    1.0000 </r>
       <r>    3.5141    1.0000 </r>
       <r>    3.5141    1.0000 </r>
       <r>    3.5443    1.0000 </r>
       <r>    3.6992    1.0000 </r>
       <r>    3.9504    1.0000 </r>
       <r>    3.9504    1.0000 </r>
       <r>    4.1418    1.0000 </r>
       <r>    4.1423    1.0000 </r>
       <r>    4.5053    0.9931 </r>
       <r>    5.1069    0.0367 </r>
       <r>    5.1340    0.0237 </r>
       <r>    5.2853    0.0011 </r>
       <r>    5.3193    0.0005 </r>
       <r>    5.3193    0.0005 </r>
       <r>    5.3993    0.0001 </r>
       <r>    5.5448    0.0000 </r>
       <r>    5.5671    0.0000 </r>
       <r>    5.5671    0.0000 </r>
       <r>    5.9295    0.0000 </r>
       <r>    5.9295    0.0000 </r>
       <r>    6.1189    0.0000 </r>
       <r>    6.1189    0.0000 </r>
       <r>    6.1864    0.0000 </r>
       <r>    6.3173    0.0000 </r>
       <r>    6.5752    0.0000 </r>
       <r>    6.5752    0.0000 </r>
       <r>    6.7447    0.0000 </r>
       <r>    6.7447    0.0000 </r>
       <r>    6.8346    0.0000 </r>
       <r>    6.8967    0.0000 </r>
       <r>    6.9209    0.0000 </r>
       <r>    7.6472    0.0000 </r>
       <r>    7.6472    0.0000 </r>
       <r>    7.9124    0.0000 </r>
       <r>    7.9249    0.0000 </r>
       <r>    7.9249    0.0000 </r>
       <r>    8.0430    0.0000 </r>
       <r>    8.0430    0.0000 </r>
       <r>    8.0947    0.0000 </r>
       <r>    8.0947    0.0000 </r>
       <r>    8.0988    0.0000 </r>
       <r>    8.1049    0.0000 </r>
       <r>    8.1148    0.0000 </r>
       <r>    8.1540    0.0000 </r>
       <r>    8.8101    0.0000 </r>
       <r>    8.8766    0.0000 </r>
       <r>    8.8945    0.0000 </r>
       <r>    8.9132    0.0000 </r>
      </set>
      <set comment="kpoint 3">
       <r>  -26.0207    1.0000 </r>
       <r>  -26.0195    1.0000 </r>
       <r>  -26.0195    1.0000 </r>
       <r>  -26.0168    1.0000 </r>
       <r>  -25.9940    1.0000 </r>
       <r>  -25.9940    1.0000 </r>
       <r>  -25.6673    1.0000 </r>
       <r>  -25.6544    1.0000 </r>
       <r>  -25.6529    1.0000 </r>
       <r>  -25.6384    1.0000 </r>
       <r>  -25.6384    1.0000 </r>
       <r>  -25.6037    1.0000 </r>
       <r>  -25.5969    1.0000 </r>
       <r>  -25.5821    1.0000 </r>
       <r>  -25.5737    1.0000 </r>
       <r>  -25.5737    1.0000 </r>
       <r>  -25.3783    1.0000 </r>
       <r>  -25.3413    1.0000 </r>
       <r>  -25.3400    1.0000 </r>
       <r>  -25.3193    1.0000 </r>
       <r>  -25.2476    1.0000 </r>
       <r>  -25.1910    1.0000 </r>
       <r>  -25.1910    1.0000 </r>
       <r>  -25.1733    1.0000 </r>
       <r>  -25.1646    1.0000 </r>
       <r>  -25.1491    1.0000 </r>
       <r>  -25.1491    1.0000 </r>
       <r>  -25.1306    1.0000 </r>
       <r>  -25.1210    1.0000 </r>
       <r>  -25.1210    1.0000 </r>
       <r>  -25.1199    1.0000 </r>
       <r>  -25.1199    1.0000 </r>
       <r>  -25.1116    1.0000 </r>
       <r>  -25.0516    1.0000 </r>
       <r>  -25.0516    1.0000 </r>
       <r>  -24.9827    1.0000 </r>
       <r>  -24.9827    1.0000 </r>
       <r>  -24.9774    1.0000 </r>
       <r>  -24.9607    1.0000 </r>
       <r>  -24.7917    1.0000 </r>
       <r>  -24.7609    1.0000 </r>
       <r>  -24.7604    1.0000 </r>
       <r>  -24.7604    1.0000 </r>
       <r>  -24.7574    1.0000 </r>
       <r>  -24.7307    1.0000 </r>
       <r>  -24.7307    1.0000 </r>
       <r>  -24.7267    1.0000 </r>
       <r>  -24.7175    1.0000 </r>
       <r>   -0.7394    1.0000 </r>
       <r>    1.2612    1.0000 </r>
       <r>    1.2612    1.0000 </r>
       <r>    1.2792    1.0000 </r>
       <r>    1.3269    1.0000 </r>
       <r>    1.3269    1.0000 </r>
       <r>    1.3294    1.0000 </r>
       <r>    1.3760    1.0000 </r>
       <r>    1.4219    1.0000 </r>
       <r>    1.4316    1.0000 </r>
       <r>    2.1323    1.0000 </r>
       <r>    2.1323    1.0000 </r>
       <r>    2.3872    1.0000 </r>
       <r>    2.3872    1.0000 </r>
       <r>    2.6065    1.0000 </r>
       <r>    2.6449    1.0000 </r>
       <r>    3.1049    1.0000 </r>
       <r>    3.1287    1.0000 </r>
       <r>    3.1429    1.0000 </r>
       <r>    3.2681    1.0000 </r>
       <r>    3.2996    1.0000 </r>
       <r>    3.3326    1.0000 </r>
       <r>    3.3326    1.0000 </r>
       <r>    3.4151    1.0000 </r>
       <r>    3.4151    1.0000 </r>
       <r>    3.4671    1.0000 </r>
       <r>    3.6034    1.0000 </r>
       <r>    3.6034    1.0000 </r>
       <r>    3.9575    1.0000 </r>
       <r>    3.9575    1.0000 </r>
       <r>    4.4516    0.9978 </r>
       <r>    4.4724    0.9965 </r>
       <r>    4.9208    0.3176 </r>
       <r>    4.9208    0.3176 </r>
       <r>    4.9438    0.2621 </r>
       <r>    5.0753    0.0586 </r>
       <r>    5.1164    0.0316 </r>
       <r>    5.1476    0.0188 </r>
       <r>    5.1476    0.0188 </r>
       <r>    5.2441    0.0029 </r>
       <r>    5.3986    0.0001 </r>
       <r>    5.4991    0.0000 </r>
       <r>    5.9924    0.0000 </r>
       <r>    5.9924    0.0000 </r>
       <r>    6.1712    0.0000 </r>
       <r>    6.1712    0.0000 </r>
       <r>    6.2686    0.0000 </r>
       <r>    6.2686    0.0000 </r>
       <r>    6.3508    0.0000 </r>
       <r>    6.3508    0.0000 </r>
       <r>    6.5125    0.0000 </r>
       <r>    6.5434    0.0000 </r>
       <r>    6.5631    0.0000 </r>
       <r>    6.5738    0.0000 </r>
       <r>    6.7127    0.0000 </r>
       <r>    7.6327    0.0000 </r>
       <r>    7.7286    0.0000 </r>
       <r>    7.7286    0.0000 </r>
       <r>    7.9558    0.0000 </r>
       <r>    7.9558    0.0000 </r>
       <r>    8.1464    0.0000 </r>
       <r>    8.1464    0.0000 </r>
       <r>    8.1698    0.0000 </r>
       <r>    8.2124    0.0000 </r>
       <r>    8.2213    0.0000 </r>
       <r>    8.5221    0.0000 </r>
       <r>    8.5418    0.0000 </r>
       <r>    8.5426    0.0000 </r>
       <r>    8.7796    0.0000 </r>
       <r>    8.7934    0.0000 </r>
       <r>    8.8209    0.0000 </r>
       <r>    8.8978    0.0000 </r>
      </set>
      <set comment="kpoint 4">
       <r>  -25.9727    1.0000 </r>
       <r>  -25.9701    1.0000 </r>
       <r>  -25.9664    1.0000 </r>
       <r>  -25.9664    1.0000 </r>
       <r>  -25.9315    1.0000 </r>
       <r>  -25.9315    1.0000 </r>
       <r>  -25.7556    1.0000 </r>
       <r>  -25.7494    1.0000 </r>
       <r>  -25.7291    1.0000 </r>
       <r>  -25.7291    1.0000 </r>
       <r>  -25.6702    1.0000 </r>
       <r>  -25.6702    1.0000 </r>
       <r>  -25.6556    1.0000 </r>
       <r>  -25.6268    1.0000 </r>
       <r>  -25.5690    1.0000 </r>
       <r>  -25.5460    1.0000 </r>
       <r>  -25.4088    1.0000 </r>
       <r>  -25.3860    1.0000 </r>
       <r>  -25.3392    1.0000 </r>
       <r>  -25.3123    1.0000 </r>
       <r>  -25.2092    1.0000 </r>
       <r>  -25.1979    1.0000 </r>
       <r>  -25.1846    1.0000 </r>
       <r>  -25.1846    1.0000 </r>
       <r>  -25.1583    1.0000 </r>
       <r>  -25.1583    1.0000 </r>
       <r>  -25.1481    1.0000 </r>
       <r>  -25.1199    1.0000 </r>
       <r>  -25.1199    1.0000 </r>
       <r>  -25.1185    1.0000 </r>
       <r>  -25.1185    1.0000 </r>
       <r>  -25.0341    1.0000 </r>
       <r>  -25.0223    1.0000 </r>
       <r>  -24.9791    1.0000 </r>
       <r>  -24.9791    1.0000 </r>
       <r>  -24.9148    1.0000 </r>
       <r>  -24.9148    1.0000 </r>
       <r>  -24.9121    1.0000 </r>
       <r>  -24.8966    1.0000 </r>
       <r>  -24.8637    1.0000 </r>
       <r>  -24.8074    1.0000 </r>
       <r>  -24.8065    1.0000 </r>
       <r>  -24.8007    1.0000 </r>
       <r>  -24.8007    1.0000 </r>
       <r>  -24.7603    1.0000 </r>
       <r>  -24.7603    1.0000 </r>
       <r>  -24.7593    1.0000 </r>
       <r>  -24.7481    1.0000 </r>
       <r>   -0.4433    1.0000 </r>
       <r>    0.8426    1.0000 </r>
       <r>    1.4135    1.0000 </r>
       <r>    1.4135    1.0000 </r>
       <r>    1.4473    1.0000 </r>
       <r>    1.5064    1.0000 </r>
       <r>    1.5064    1.0000 </r>
       <r>    1.6178    1.0000 </r>
       <r>    1.7141    1.0000 </r>
       <r>    1.7193    1.0000 </r>
       <r>    2.0008    1.0000 </r>
       <r>    2.0008    1.0000 </r>
       <r>    2.2048    1.0000 </r>
       <r>    2.2048    1.0000 </r>
       <r>    2.2710    1.0000 </r>
       <r>    2.4474    1.0000 </r>
       <r>    2.8285    1.0000 </r>
       <r>    2.8933    1.0000 </r>
       <r>    3.1206    1.0000 </r>
       <r>    3.1344    1.0000 </r>
       <r>    3.2063    1.0000 </r>
       <r>    3.2758    1.0000 </r>
       <r>    3.5296    1.0000 </r>
       <r>    3.5296    1.0000 </r>
       <r>    3.6437    1.0000 </r>
       <r>    3.6437    1.0000 </r>
       <r>    3.8527    1.0000 </r>
       <r>    3.8527    1.0000 </r>
       <r>    4.1105    1.0000 </r>
       <r>    4.1105    1.0000 </r>
       <r>    4.5354    0.9878 </r>
       <r>    4.5354    0.9878 </r>
       <r>    4.7234    0.8217 </r>
       <r>    4.7234    0.8217 </r>
       <r>    4.8207    0.5924 </r>
       <r>    4.8451    0.5244 </r>
       <r>    5.0549    0.0774 </r>
       <r>    5.0995    0.0411 </r>
       <r>    5.1003    0.0406 </r>
       <r>    5.1386    0.0220 </r>
       <r>    5.3815    0.0001 </r>
       <r>    5.3815    0.0001 </r>
       <r>    5.5517    0.0000 </r>
       <r>    5.5588    0.0000 </r>
       <r>    5.5588    0.0000 </r>
       <r>    5.7942    0.0000 </r>
       <r>    6.1118    0.0000 </r>
       <r>    6.1176    0.0000 </r>
       <r>    6.2599    0.0000 </r>
       <r>    6.6313    0.0000 </r>
       <r>    6.6313    0.0000 </r>
       <r>    6.6582    0.0000 </r>
       <r>    6.6582    0.0000 </r>
       <r>    7.0026    0.0000 </r>
       <r>    7.1718    0.0000 </r>
       <r>    7.2471    0.0000 </r>
       <r>    7.4883    0.0000 </r>
       <r>    7.4883    0.0000 </r>
       <r>    7.7234    0.0000 </r>
       <r>    7.7234    0.0000 </r>
       <r>    8.2711    0.0000 </r>
       <r>    8.3017    0.0000 </r>
       <r>    8.3726    0.0000 </r>
       <r>    8.6455    0.0000 </r>
       <r>    8.6631    0.0000 </r>
       <r>    8.6679    0.0000 </r>
       <r>    8.6865    0.0000 </r>
       <r>    8.6950    0.0000 </r>
       <r>    8.8261    0.0000 </r>
       <r>    8.8761    0.0000 </r>
       <r>    8.8770    0.0000 </r>
       <r>    8.9048    0.0000 </r>
      </set>
      <set comment="kpoint 5">
       <r>  -25.9105    1.0000 </r>
       <r>  -25.9097    1.0000 </r>
       <r>  -25.8980    1.0000 </r>
       <r>  -25.8980    1.0000 </r>
       <r>  -25.8542    1.0000 </r>
       <r>  -25.8542    1.0000 </r>
       <r>  -25.8375    1.0000 </r>
       <r>  -25.8354    1.0000 </r>
       <r>  -25.8175    1.0000 </r>
       <r>  -25.8175    1.0000 </r>
       <r>  -25.7657    1.0000 </r>
       <r>  -25.7657    1.0000 </r>
       <r>  -25.6538    1.0000 </r>
       <r>  -25.6450    1.0000 </r>
       <r>  -25.5241    1.0000 </r>
       <r>  -25.5007    1.0000 </r>
       <r>  -25.4703    1.0000 </r>
       <r>  -25.4469    1.0000 </r>
       <r>  -25.2961    1.0000 </r>
       <r>  -25.2762    1.0000 </r>
       <r>  -25.2514    1.0000 </r>
       <r>  -25.2366    1.0000 </r>
       <r>  -25.1767    1.0000 </r>
       <r>  -25.1767    1.0000 </r>
       <r>  -25.1677    1.0000 </r>
       <r>  -25.1677    1.0000 </r>
       <r>  -25.1189    1.0000 </r>
       <r>  -25.1189    1.0000 </r>
       <r>  -25.1183    1.0000 </r>
       <r>  -25.1183    1.0000 </r>
       <r>  -25.0473    1.0000 </r>
       <r>  -24.9506    1.0000 </r>
       <r>  -24.9467    1.0000 </r>
       <r>  -24.9400    1.0000 </r>
       <r>  -24.9114    1.0000 </r>
       <r>  -24.9114    1.0000 </r>
       <r>  -24.8702    1.0000 </r>
       <r>  -24.8676    1.0000 </r>
       <r>  -24.8535    1.0000 </r>
       <r>  -24.8535    1.0000 </r>
       <r>  -24.8530    1.0000 </r>
       <r>  -24.8514    1.0000 </r>
       <r>  -24.8514    1.0000 </r>
       <r>  -24.8389    1.0000 </r>
       <r>  -24.8018    1.0000 </r>
       <r>  -24.8015    1.0000 </r>
       <r>  -24.8015    1.0000 </r>
       <r>  -24.7889    1.0000 </r>
       <r>   -0.0686    1.0000 </r>
       <r>    0.3674    1.0000 </r>
       <r>    1.6032    1.0000 </r>
       <r>    1.6032    1.0000 </r>
       <r>    1.6699    1.0000 </r>
       <r>    1.7258    1.0000 </r>
       <r>    1.7258    1.0000 </r>
       <r>    1.8102    1.0000 </r>
       <r>    1.8102    1.0000 </r>
       <r>    1.9027    1.0000 </r>
       <r>    1.9451    1.0000 </r>
       <r>    1.9684    1.0000 </r>
       <r>    1.9684    1.0000 </r>
       <r>    2.0724    1.0000 </r>
       <r>    2.0754    1.0000 </r>
       <r>    2.1948    1.0000 </r>
       <r>    2.4595    1.0000 </r>
       <r>    2.4804    1.0000 </r>
       <r>    3.1243    1.0000 </r>
       <r>    3.1418    1.0000 </r>
       <r>    3.1502    1.0000 </r>
       <r>    3.1799    1.0000 </r>
       <r>    3.7890    1.0000 </r>
       <r>    3.7890    1.0000 </r>
       <r>    3.9314    1.0000 </r>
       <r>    3.9314    1.0000 </r>
       <r>    4.0898    1.0000 </r>
       <r>    4.0898    1.0000 </r>
       <r>    4.1658    1.0000 </r>
       <r>    4.1658    1.0000 </r>
       <r>    4.4126    0.9991 </r>
       <r>    4.4126    0.9991 </r>
       <r>    4.5294    0.9891 </r>
       <r>    4.5294    0.9891 </r>
       <r>    4.8058    0.6325 </r>
       <r>    4.8058    0.6325 </r>
       <r>    4.9893    0.1689 </r>
       <r>    4.9893    0.1689 </r>
       <r>    5.0529    0.0795 </r>
       <r>    5.0777    0.0567 </r>
       <r>    5.0919    0.0461 </r>
       <r>    5.0980    0.0421 </r>
       <r>    5.2314    0.0038 </r>
       <r>    5.2520    0.0024 </r>
       <r>    5.6701    0.0000 </r>
       <r>    5.6810    0.0000 </r>
       <r>    5.7467    0.0000 </r>
       <r>    5.9832    0.0000 </r>
       <r>    6.2850    0.0000 </r>
       <r>    6.7866    0.0000 </r>
       <r>    6.9268    0.0000 </r>
       <r>    6.9268    0.0000 </r>
       <r>    7.0506    0.0000 </r>
       <r>    7.0506    0.0000 </r>
       <r>    7.2169    0.0000 </r>
       <r>    7.2169    0.0000 </r>
       <r>    7.4143    0.0000 </r>
       <r>    7.4143    0.0000 </r>
       <r>    7.5029    0.0000 </r>
       <r>    7.6900    0.0000 </r>
       <r>    8.0553    0.0000 </r>
       <r>    8.2593    0.0000 </r>
       <r>    8.3937    0.0000 </r>
       <r>    8.4140    0.0000 </r>
       <r>    8.5278    0.0000 </r>
       <r>    8.5400    0.0000 </r>
       <r>    8.5590    0.0000 </r>
       <r>    8.7650    0.0000 </r>
       <r>    8.8392    0.0000 </r>
       <r>    8.8601    0.0000 </r>
       <r>    8.8658    0.0000 </r>
       <r>    8.8722    0.0000 </r>
      </set>
      <set comment="kpoint 6">
       <r>  -26.0496    1.0000 </r>
       <r>  -26.0385    1.0000 </r>
       <r>  -26.0385    1.0000 </r>
       <r>  -26.0243    1.0000 </r>
       <r>  -26.0243    1.0000 </r>
       <r>  -26.0035    1.0000 </r>
       <r>  -25.6613    1.0000 </r>
       <r>  -25.6290    1.0000 </r>
       <r>  -25.6206    1.0000 </r>
       <r>  -25.6089    1.0000 </r>
       <r>  -25.6089    1.0000 </r>
       <r>  -25.5936    1.0000 </r>
       <r>  -25.5849    1.0000 </r>
       <r>  -25.5800    1.0000 </r>
       <r>  -25.5280    1.0000 </r>
       <r>  -25.4348    1.0000 </r>
       <r>  -25.4037    1.0000 </r>
       <r>  -25.4037    1.0000 </r>
       <r>  -25.3289    1.0000 </r>
       <r>  -25.2682    1.0000 </r>
       <r>  -25.2682    1.0000 </r>
       <r>  -25.2080    1.0000 </r>
       <r>  -25.1943    1.0000 </r>
       <r>  -25.1943    1.0000 </r>
       <r>  -25.1894    1.0000 </r>
       <r>  -25.1596    1.0000 </r>
       <r>  -25.1561    1.0000 </r>
       <r>  -25.1561    1.0000 </r>
       <r>  -25.1393    1.0000 </r>
       <r>  -25.1357    1.0000 </r>
       <r>  -25.1357    1.0000 </r>
       <r>  -25.1317    1.0000 </r>
       <r>  -25.1066    1.0000 </r>
       <r>  -25.0754    1.0000 </r>
       <r>  -25.0496    1.0000 </r>
       <r>  -25.0496    1.0000 </r>
       <r>  -25.0085    1.0000 </r>
       <r>  -24.9808    1.0000 </r>
       <r>  -24.9808    1.0000 </r>
       <r>  -24.7810    1.0000 </r>
       <r>  -24.7605    1.0000 </r>
       <r>  -24.7442    1.0000 </r>
       <r>  -24.7442    1.0000 </r>
       <r>  -24.7287    1.0000 </r>
       <r>  -24.7287    1.0000 </r>
       <r>  -24.7139    1.0000 </r>
       <r>  -24.7063    1.0000 </r>
       <r>  -24.6939    1.0000 </r>
       <r>   -0.8419    1.0000 </r>
       <r>    1.1734    1.0000 </r>
       <r>    1.2380    1.0000 </r>
       <r>    1.2631    1.0000 </r>
       <r>    1.2631    1.0000 </r>
       <r>    1.2761    1.0000 </r>
       <r>    1.2914    1.0000 </r>
       <r>    1.2995    1.0000 </r>
       <r>    1.2995    1.0000 </r>
       <r>    1.8008    1.0000 </r>
       <r>    1.8008    1.0000 </r>
       <r>    2.1947    1.0000 </r>
       <r>    2.4844    1.0000 </r>
       <r>    2.6169    1.0000 </r>
       <r>    2.6169    1.0000 </r>
       <r>    3.0970    1.0000 </r>
       <r>    3.0970    1.0000 </r>
       <r>    3.1247    1.0000 </r>
       <r>    3.1937    1.0000 </r>
       <r>    3.1937    1.0000 </r>
       <r>    3.2271    1.0000 </r>
       <r>    3.2401    1.0000 </r>
       <r>    3.2401    1.0000 </r>
       <r>    3.3007    1.0000 </r>
       <r>    3.3764    1.0000 </r>
       <r>    3.4729    1.0000 </r>
       <r>    3.5891    1.0000 </r>
       <r>    3.7979    1.0000 </r>
       <r>    3.8663    1.0000 </r>
       <r>    4.1522    1.0000 </r>
       <r>    4.1664    1.0000 </r>
       <r>    4.3691    0.9997 </r>
       <r>    4.3691    0.9997 </r>
       <r>    5.0213    0.1181 </r>
       <r>    5.1097    0.0351 </r>
       <r>    5.1243    0.0279 </r>
       <r>    5.1243    0.0279 </r>
       <r>    5.2094    0.0060 </r>
       <r>    5.4053    0.0000 </r>
       <r>    5.4185    0.0000 </r>
       <r>    5.8234    0.0000 </r>
       <r>    5.8234    0.0000 </r>
       <r>    5.8657    0.0000 </r>
       <r>    5.8657    0.0000 </r>
       <r>    6.0171    0.0000 </r>
       <r>    6.1757    0.0000 </r>
       <r>    6.1997    0.0000 </r>
       <r>    6.3715    0.0000 </r>
       <r>    6.3715    0.0000 </r>
       <r>    6.4430    0.0000 </r>
       <r>    6.4430    0.0000 </r>
       <r>    6.5721    0.0000 </r>
       <r>    6.5721    0.0000 </r>
       <r>    6.5734    0.0000 </r>
       <r>    7.2669    0.0000 </r>
       <r>    7.2669    0.0000 </r>
       <r>    7.6880    0.0000 </r>
       <r>    7.8853    0.0000 </r>
       <r>    7.9296    0.0000 </r>
       <r>    7.9668    0.0000 </r>
       <r>    7.9668    0.0000 </r>
       <r>    8.0687    0.0000 </r>
       <r>    8.1130    0.0000 </r>
       <r>    8.1130    0.0000 </r>
       <r>    8.1444    0.0000 </r>
       <r>    8.2805    0.0000 </r>
       <r>    8.4474    0.0000 </r>
       <r>    8.4480    0.0000 </r>
       <r>    8.7176    0.0000 </r>
       <r>    8.8428    0.0000 </r>
       <r>    8.8648    0.0000 </r>
       <r>    8.8828    0.0000 </r>
      </set>
      <set comment="kpoint 7">
       <r>  -26.0249    1.0000 </r>
       <r>  -26.0069    1.0000 </r>
       <r>  -26.0050    1.0000 </r>
       <r>  -25.9951    1.0000 </r>
       <r>  -25.9815    1.0000 </r>
       <r>  -25.9490    1.0000 </r>
       <r>  -25.6942    1.0000 </r>
       <r>  -25.6877    1.0000 </r>
       <r>  -25.6762    1.0000 </r>
       <r>  -25.6634    1.0000 </r>
       <r>  -25.6592    1.0000 </r>
       <r>  -25.6489    1.0000 </r>
       <r>  -25.5985    1.0000 </r>
       <r>  -25.5980    1.0000 </r>
       <r>  -25.5440    1.0000 </r>
       <r>  -25.4952    1.0000 </r>
       <r>  -25.4098    1.0000 </r>
       <r>  -25.3390    1.0000 </r>
       <r>  -25.3193    1.0000 </r>
       <r>  -25.3117    1.0000 </r>
       <r>  -25.2647    1.0000 </r>
       <r>  -25.2607    1.0000 </r>
       <r>  -25.2125    1.0000 </r>
       <r>  -25.1854    1.0000 </r>
       <r>  -25.1792    1.0000 </r>
       <r>  -25.1669    1.0000 </r>
       <r>  -25.1599    1.0000 </r>
       <r>  -25.1368    1.0000 </r>
       <r>  -25.1335    1.0000 </r>
       <r>  -25.1220    1.0000 </r>
       <r>  -25.1056    1.0000 </r>
       <r>  -25.0925    1.0000 </r>
       <r>  -25.0652    1.0000 </r>
       <r>  -25.0525    1.0000 </r>
       <r>  -25.0152    1.0000 </r>
       <r>  -24.9807    1.0000 </r>
       <r>  -24.9531    1.0000 </r>
       <r>  -24.9172    1.0000 </r>
       <r>  -24.9148    1.0000 </r>
       <r>  -24.8435    1.0000 </r>
       <r>  -24.8003    1.0000 </r>
       <r>  -24.7703    1.0000 </r>
       <r>  -24.7687    1.0000 </r>
       <r>  -24.7600    1.0000 </r>
       <r>  -24.7434    1.0000 </r>
       <r>  -24.7354    1.0000 </r>
       <r>  -24.7119    1.0000 </r>
       <r>  -24.7015    1.0000 </r>
       <r>   -0.6420    1.0000 </r>
       <r>    1.2388    1.0000 </r>
       <r>    1.3529    1.0000 </r>
       <r>    1.3568    1.0000 </r>
       <r>    1.3634    1.0000 </r>
       <r>    1.4252    1.0000 </r>
       <r>    1.4357    1.0000 </r>
       <r>    1.4460    1.0000 </r>
       <r>    1.4661    1.0000 </r>
       <r>    1.4961    1.0000 </r>
       <r>    1.7901    1.0000 </r>
       <r>    2.1694    1.0000 </r>
       <r>    2.4379    1.0000 </r>
       <r>    2.5136    1.0000 </r>
       <r>    2.5722    1.0000 </r>
       <r>    2.7441    1.0000 </r>
       <r>    2.9509    1.0000 </r>
       <r>    3.1205    1.0000 </r>
       <r>    3.1776    1.0000 </r>
       <r>    3.2193    1.0000 </r>
       <r>    3.2642    1.0000 </r>
       <r>    3.3142    1.0000 </r>
       <r>    3.3217    1.0000 </r>
       <r>    3.3897    1.0000 </r>
       <r>    3.4610    1.0000 </r>
       <r>    3.5020    1.0000 </r>
       <r>    3.5692    1.0000 </r>
       <r>    3.6406    1.0000 </r>
       <r>    3.8209    1.0000 </r>
       <r>    4.2829    1.0000 </r>
       <r>    4.3426    0.9998 </r>
       <r>    4.4020    0.9993 </r>
       <r>    4.7021    0.8582 </r>
       <r>    4.7528    0.7623 </r>
       <r>    4.9340    0.2851 </r>
       <r>    4.9383    0.2749 </r>
       <r>    4.9845    0.1777 </r>
       <r>    5.0790    0.0556 </r>
       <r>    5.1022    0.0395 </r>
       <r>    5.4290    0.0000 </r>
       <r>    5.5868    0.0000 </r>
       <r>    5.6556    0.0000 </r>
       <r>    5.8620    0.0000 </r>
       <r>    5.9029    0.0000 </r>
       <r>    6.0430    0.0000 </r>
       <r>    6.1246    0.0000 </r>
       <r>    6.1952    0.0000 </r>
       <r>    6.2152    0.0000 </r>
       <r>    6.2351    0.0000 </r>
       <r>    6.2636    0.0000 </r>
       <r>    6.2999    0.0000 </r>
       <r>    6.4080    0.0000 </r>
       <r>    6.4629    0.0000 </r>
       <r>    6.6939    0.0000 </r>
       <r>    6.9090    0.0000 </r>
       <r>    7.4331    0.0000 </r>
       <r>    7.6698    0.0000 </r>
       <r>    7.7555    0.0000 </r>
       <r>    7.7751    0.0000 </r>
       <r>    7.9703    0.0000 </r>
       <r>    8.0500    0.0000 </r>
       <r>    8.0609    0.0000 </r>
       <r>    8.1470    0.0000 </r>
       <r>    8.1635    0.0000 </r>
       <r>    8.3445    0.0000 </r>
       <r>    8.6328    0.0000 </r>
       <r>    8.7427    0.0000 </r>
       <r>    8.7524    0.0000 </r>
       <r>    8.7585    0.0000 </r>
       <r>    8.7869    0.0000 </r>
       <r>    8.8610    0.0000 </r>
       <r>    8.8707    0.0000 </r>
      </set>
      <set comment="kpoint 8">
       <r>  -25.9820    1.0000 </r>
       <r>  -25.9606    1.0000 </r>
       <r>  -25.9546    1.0000 </r>
       <r>  -25.9526    1.0000 </r>
       <r>  -25.9223    1.0000 </r>
       <r>  -25.8777    1.0000 </r>
       <r>  -25.7716    1.0000 </r>
       <r>  -25.7651    1.0000 </r>
       <r>  -25.7488    1.0000 </r>
       <r>  -25.7366    1.0000 </r>
       <r>  -25.6872    1.0000 </r>
       <r>  -25.6818    1.0000 </r>
       <r>  -25.6750    1.0000 </r>
       <r>  -25.5961    1.0000 </r>
       <r>  -25.5639    1.0000 </r>
       <r>  -25.5011    1.0000 </r>
       <r>  -25.4056    1.0000 </r>
       <r>  -25.3689    1.0000 </r>
       <r>  -25.3319    1.0000 </r>
       <r>  -25.2982    1.0000 </r>
       <r>  -25.2493    1.0000 </r>
       <r>  -25.2254    1.0000 </r>
       <r>  -25.2129    1.0000 </r>
       <r>  -25.2092    1.0000 </r>
       <r>  -25.1988    1.0000 </r>
       <r>  -25.1926    1.0000 </r>
       <r>  -25.1787    1.0000 </r>
       <r>  -25.1376    1.0000 </r>
       <r>  -25.1333    1.0000 </r>
       <r>  -25.0804    1.0000 </r>
       <r>  -25.0567    1.0000 </r>
       <r>  -25.0467    1.0000 </r>
       <r>  -25.0187    1.0000 </r>
       <r>  -24.9907    1.0000 </r>
       <r>  -24.9537    1.0000 </r>
       <r>  -24.9222    1.0000 </r>
       <r>  -24.9166    1.0000 </r>
       <r>  -24.8970    1.0000 </r>
       <r>  -24.8556    1.0000 </r>
       <r>  -24.8542    1.0000 </r>
       <r>  -24.8499    1.0000 </r>
       <r>  -24.8090    1.0000 </r>
       <r>  -24.8061    1.0000 </r>
       <r>  -24.8026    1.0000 </r>
       <r>  -24.7681    1.0000 </r>
       <r>  -24.7672    1.0000 </r>
       <r>  -24.7299    1.0000 </r>
       <r>  -24.7230    1.0000 </r>
       <r>   -0.3533    1.0000 </r>
       <r>    0.8902    1.0000 </r>
       <r>    1.3463    1.0000 </r>
       <r>    1.5117    1.0000 </r>
       <r>    1.5167    1.0000 </r>
       <r>    1.6007    1.0000 </r>
       <r>    1.6241    1.0000 </r>
       <r>    1.6872    1.0000 </r>
       <r>    1.7312    1.0000 </r>
       <r>    1.7550    1.0000 </r>
       <r>    1.7727    1.0000 </r>
       <r>    2.0651    1.0000 </r>
       <r>    2.2793    1.0000 </r>
       <r>    2.2968    1.0000 </r>
       <r>    2.3192    1.0000 </r>
       <r>    2.5178    1.0000 </r>
       <r>    2.7388    1.0000 </r>
       <r>    2.8593    1.0000 </r>
       <r>    3.1643    1.0000 </r>
       <r>    3.2038    1.0000 </r>
       <r>    3.2875    1.0000 </r>
       <r>    3.4204    1.0000 </r>
       <r>    3.4854    1.0000 </r>
       <r>    3.4947    1.0000 </r>
       <r>    3.5777    1.0000 </r>
       <r>    3.5927    1.0000 </r>
       <r>    3.6827    1.0000 </r>
       <r>    3.8279    1.0000 </r>
       <r>    3.8864    1.0000 </r>
       <r>    4.2686    1.0000 </r>
       <r>    4.4701    0.9967 </r>
       <r>    4.6526    0.9225 </r>
       <r>    4.6638    0.9104 </r>
       <r>    4.7336    0.8022 </r>
       <r>    4.7736    0.7145 </r>
       <r>    4.8573    0.4898 </r>
       <r>    4.8756    0.4385 </r>
       <r>    4.9229    0.3124 </r>
       <r>    4.9787    0.1884 </r>
       <r>    5.0436    0.0897 </r>
       <r>    5.0916    0.0463 </r>
       <r>    5.3332    0.0003 </r>
       <r>    5.4707    0.0000 </r>
       <r>    5.5819    0.0000 </r>
       <r>    5.7856    0.0000 </r>
       <r>    5.8644    0.0000 </r>
       <r>    5.8755    0.0000 </r>
       <r>    6.1040    0.0000 </r>
       <r>    6.5793    0.0000 </r>
       <r>    6.5933    0.0000 </r>
       <r>    6.6215    0.0000 </r>
       <r>    6.6719    0.0000 </r>
       <r>    6.6827    0.0000 </r>
       <r>    6.6844    0.0000 </r>
       <r>    7.0949    0.0000 </r>
       <r>    7.1859    0.0000 </r>
       <r>    7.3294    0.0000 </r>
       <r>    7.5386    0.0000 </r>
       <r>    7.7349    0.0000 </r>
       <r>    7.8472    0.0000 </r>
       <r>    8.1689    0.0000 </r>
       <r>    8.1754    0.0000 </r>
       <r>    8.2501    0.0000 </r>
       <r>    8.2887    0.0000 </r>
       <r>    8.3021    0.0000 </r>
       <r>    8.6172    0.0000 </r>
       <r>    8.6344    0.0000 </r>
       <r>    8.6898    0.0000 </r>
       <r>    8.7621    0.0000 </r>
       <r>    8.8386    0.0000 </r>
       <r>    8.8585    0.0000 </r>
       <r>    8.8670    0.0000 </r>
      </set>
      <set comment="kpoint 9">
       <r>  -25.9233    1.0000 </r>
       <r>  -25.9008    1.0000 </r>
       <r>  -25.8984    1.0000 </r>
       <r>  -25.8903    1.0000 </r>
       <r>  -25.8518    1.0000 </r>
       <r>  -25.8498    1.0000 </r>
       <r>  -25.8348    1.0000 </r>
       <r>  -25.8294    1.0000 </r>
       <r>  -25.8160    1.0000 </r>
       <r>  -25.7925    1.0000 </r>
       <r>  -25.7679    1.0000 </r>
       <r>  -25.6971    1.0000 </r>
       <r>  -25.6921    1.0000 </r>
       <r>  -25.6888    1.0000 </r>
       <r>  -25.5196    1.0000 </r>
       <r>  -25.4663    1.0000 </r>
       <r>  -25.4511    1.0000 </r>
       <r>  -25.3944    1.0000 </r>
       <r>  -25.3215    1.0000 </r>
       <r>  -25.2722    1.0000 </r>
       <r>  -25.2666    1.0000 </r>
       <r>  -25.2346    1.0000 </r>
       <r>  -25.2297    1.0000 </r>
       <r>  -25.2175    1.0000 </r>
       <r>  -25.2012    1.0000 </r>
       <r>  -25.1905    1.0000 </r>
       <r>  -25.1363    1.0000 </r>
       <r>  -25.1346    1.0000 </r>
       <r>  -25.1117    1.0000 </r>
       <r>  -25.0705    1.0000 </r>
       <r>  -25.0627    1.0000 </r>
       <r>  -25.0131    1.0000 </r>
       <r>  -24.9745    1.0000 </r>
       <r>  -24.9374    1.0000 </r>
       <r>  -24.9211    1.0000 </r>
       <r>  -24.9084    1.0000 </r>
       <r>  -24.8962    1.0000 </r>
       <r>  -24.8658    1.0000 </r>
       <r>  -24.8598    1.0000 </r>
       <r>  -24.8588    1.0000 </r>
       <r>  -24.8459    1.0000 </r>
       <r>  -24.8454    1.0000 </r>
       <r>  -24.8087    1.0000 </r>
       <r>  -24.8024    1.0000 </r>
       <r>  -24.8024    1.0000 </r>
       <r>  -24.8010    1.0000 </r>
       <r>  -24.7602    1.0000 </r>
       <r>  -24.7566    1.0000 </r>
       <r>    0.0108    1.0000 </r>
       <r>    0.4327    1.0000 </r>
       <r>    1.4811    1.0000 </r>
       <r>    1.6200    1.0000 </r>
       <r>    1.6950    1.0000 </r>
       <r>    1.7314    1.0000 </r>
       <r>    1.8158    1.0000 </r>
       <r>    1.8457    1.0000 </r>
       <r>    1.8919    1.0000 </r>
       <r>    1.9716    1.0000 </r>
       <r>    1.9943    1.0000 </r>
       <r>    2.0530    1.0000 </r>
       <r>    2.0850    1.0000 </r>
       <r>    2.1038    1.0000 </r>
       <r>    2.1094    1.0000 </r>
       <r>    2.2629    1.0000 </r>
       <r>    2.4464    1.0000 </r>
       <r>    2.4964    1.0000 </r>
       <r>    3.1661    1.0000 </r>
       <r>    3.1982    1.0000 </r>
       <r>    3.2125    1.0000 </r>
       <r>    3.2733    1.0000 </r>
       <r>    3.7133    1.0000 </r>
       <r>    3.7152    1.0000 </r>
       <r>    3.8144    1.0000 </r>
       <r>    3.8918    1.0000 </r>
       <r>    3.9029    1.0000 </r>
       <r>    3.9942    1.0000 </r>
       <r>    3.9961    1.0000 </r>
       <r>    4.1341    1.0000 </r>
       <r>    4.5515    0.9837 </r>
       <r>    4.5635    0.9799 </r>
       <r>    4.5842    0.9717 </r>
       <r>    4.6114    0.9567 </r>
       <r>    4.6629    0.9114 </r>
       <r>    4.8269    0.5752 </r>
       <r>    4.8391    0.5411 </r>
       <r>    4.8409    0.5362 </r>
       <r>    4.9530    0.2412 </r>
       <r>    4.9722    0.2011 </r>
       <r>    5.0089    0.1362 </r>
       <r>    5.0453    0.0878 </r>
       <r>    5.0691    0.0639 </r>
       <r>    5.1040    0.0384 </r>
       <r>    5.4577    0.0000 </r>
       <r>    5.4895    0.0000 </r>
       <r>    6.0167    0.0000 </r>
       <r>    6.2809    0.0000 </r>
       <r>    6.4917    0.0000 </r>
       <r>    6.7601    0.0000 </r>
       <r>    6.9215    0.0000 </r>
       <r>    6.9591    0.0000 </r>
       <r>    6.9801    0.0000 </r>
       <r>    7.0597    0.0000 </r>
       <r>    7.0882    0.0000 </r>
       <r>    7.1234    0.0000 </r>
       <r>    7.2697    0.0000 </r>
       <r>    7.4234    0.0000 </r>
       <r>    7.5230    0.0000 </r>
       <r>    7.5712    0.0000 </r>
       <r>    7.6108    0.0000 </r>
       <r>    8.1089    0.0000 </r>
       <r>    8.3122    0.0000 </r>
       <r>    8.3659    0.0000 </r>
       <r>    8.4665    0.0000 </r>
       <r>    8.4967    0.0000 </r>
       <r>    8.4982    0.0000 </r>
       <r>    8.7119    0.0000 </r>
       <r>    8.8162    0.0000 </r>
       <r>    8.8358    0.0000 </r>
       <r>    8.8504    0.0000 </r>
       <r>    8.8800    0.0000 </r>
      </set>
      <set comment="kpoint 10">
       <r>  -26.0107    1.0000 </r>
       <r>  -25.9765    1.0000 </r>
       <r>  -25.9765    1.0000 </r>
       <r>  -25.9570    1.0000 </r>
       <r>  -25.9570    1.0000 </r>
       <r>  -25.8858    1.0000 </r>
       <r>  -25.7324    1.0000 </r>
       <r>  -25.7216    1.0000 </r>
       <r>  -25.7216    1.0000 </r>
       <r>  -25.7026    1.0000 </r>
       <r>  -25.7011    1.0000 </r>
       <r>  -25.6990    1.0000 </r>
       <r>  -25.6444    1.0000 </r>
       <r>  -25.5768    1.0000 </r>
       <r>  -25.4979    1.0000 </r>
       <r>  -25.4118    1.0000 </r>
       <r>  -25.4051    1.0000 </r>
       <r>  -25.4051    1.0000 </r>
       <r>  -25.3284    1.0000 </r>
       <r>  -25.3284    1.0000 </r>
       <r>  -25.3088    1.0000 </r>
       <r>  -25.2319    1.0000 </r>
       <r>  -25.2094    1.0000 </r>
       <r>  -25.2000    1.0000 </r>
       <r>  -25.2000    1.0000 </r>
       <r>  -25.1924    1.0000 </r>
       <r>  -25.1924    1.0000 </r>
       <r>  -25.1588    1.0000 </r>
       <r>  -25.1588    1.0000 </r>
       <r>  -25.1523    1.0000 </r>
       <r>  -25.0673    1.0000 </r>
       <r>  -25.0484    1.0000 </r>
       <r>  -25.0085    1.0000 </r>
       <r>  -24.9871    1.0000 </r>
       <r>  -24.9871    1.0000 </r>
       <r>  -24.9670    1.0000 </r>
       <r>  -24.9169    1.0000 </r>
       <r>  -24.9125    1.0000 </r>
       <r>  -24.8568    1.0000 </r>
       <r>  -24.8568    1.0000 </r>
       <r>  -24.8494    1.0000 </r>
       <r>  -24.7861    1.0000 </r>
       <r>  -24.7861    1.0000 </r>
       <r>  -24.7689    1.0000 </r>
       <r>  -24.7689    1.0000 </r>
       <r>  -24.7556    1.0000 </r>
       <r>  -24.7050    1.0000 </r>
       <r>  -24.6951    1.0000 </r>
       <r>   -0.4519    1.0000 </r>
       <r>    1.2551    1.0000 </r>
       <r>    1.3940    1.0000 </r>
       <r>    1.3940    1.0000 </r>
       <r>    1.4737    1.0000 </r>
       <r>    1.5609    1.0000 </r>
       <r>    1.5609    1.0000 </r>
       <r>    1.5829    1.0000 </r>
       <r>    1.6028    1.0000 </r>
       <r>    1.6134    1.0000 </r>
       <r>    1.6134    1.0000 </r>
       <r>    2.2015    1.0000 </r>
       <r>    2.4716    1.0000 </r>
       <r>    2.4716    1.0000 </r>
       <r>    2.4743    1.0000 </r>
       <r>    2.8132    1.0000 </r>
       <r>    2.9657    1.0000 </r>
       <r>    2.9716    1.0000 </r>
       <r>    2.9716    1.0000 </r>
       <r>    3.2856    1.0000 </r>
       <r>    3.2856    1.0000 </r>
       <r>    3.3491    1.0000 </r>
       <r>    3.3491    1.0000 </r>
       <r>    3.3814    1.0000 </r>
       <r>    3.4163    1.0000 </r>
       <r>    3.5346    1.0000 </r>
       <r>    3.6932    1.0000 </r>
       <r>    3.6953    1.0000 </r>
       <r>    3.7924    1.0000 </r>
       <r>    4.2890    1.0000 </r>
       <r>    4.3838    0.9996 </r>
       <r>    4.5167    0.9914 </r>
       <r>    4.5167    0.9914 </r>
       <r>    4.6635    0.9107 </r>
       <r>    4.6635    0.9107 </r>
       <r>    4.7955    0.6596 </r>
       <r>    4.8335    0.5570 </r>
       <r>    4.9608    0.2246 </r>
       <r>    5.0266    0.1107 </r>
       <r>    5.2150    0.0053 </r>
       <r>    5.7247    0.0000 </r>
       <r>    5.7247    0.0000 </r>
       <r>    5.7620    0.0000 </r>
       <r>    5.7620    0.0000 </r>
       <r>    5.8006    0.0000 </r>
       <r>    5.8006    0.0000 </r>
       <r>    5.8202    0.0000 </r>
       <r>    5.8426    0.0000 </r>
       <r>    6.3033    0.0000 </r>
       <r>    6.3033    0.0000 </r>
       <r>    6.4743    0.0000 </r>
       <r>    6.5697    0.0000 </r>
       <r>    6.6341    0.0000 </r>
       <r>    6.6341    0.0000 </r>
       <r>    7.1394    0.0000 </r>
       <r>    7.3765    0.0000 </r>
       <r>    7.3765    0.0000 </r>
       <r>    7.6534    0.0000 </r>
       <r>    7.8694    0.0000 </r>
       <r>    7.8694    0.0000 </r>
       <r>    8.0177    0.0000 </r>
       <r>    8.0177    0.0000 </r>
       <r>    8.0467    0.0000 </r>
       <r>    8.0911    0.0000 </r>
       <r>    8.1976    0.0000 </r>
       <r>    8.5895    0.0000 </r>
       <r>    8.6165    0.0000 </r>
       <r>    8.6653    0.0000 </r>
       <r>    8.6697    0.0000 </r>
       <r>    8.7912    0.0000 </r>
       <r>    8.8231    0.0000 </r>
       <r>    8.8643    0.0000 </r>
      </set>
      <set comment="kpoint 11">
       <r>  -25.9784    1.0000 </r>
       <r>  -25.9352    1.0000 </r>
       <r>  -25.9317    1.0000 </r>
       <r>  -25.9219    1.0000 </r>
       <r>  -25.9047    1.0000 </r>
       <r>  -25.8067    1.0000 </r>
       <r>  -25.7974    1.0000 </r>
       <r>  -25.7789    1.0000 </r>
       <r>  -25.7589    1.0000 </r>
       <r>  -25.7531    1.0000 </r>
       <r>  -25.7406    1.0000 </r>
       <r>  -25.7249    1.0000 </r>
       <r>  -25.7053    1.0000 </r>
       <r>  -25.5441    1.0000 </r>
       <r>  -25.5088    1.0000 </r>
       <r>  -25.4459    1.0000 </r>
       <r>  -25.3922    1.0000 </r>
       <r>  -25.3857    1.0000 </r>
       <r>  -25.3121    1.0000 </r>
       <r>  -25.3067    1.0000 </r>
       <r>  -25.2916    1.0000 </r>
       <r>  -25.2611    1.0000 </r>
       <r>  -25.2441    1.0000 </r>
       <r>  -25.2403    1.0000 </r>
       <r>  -25.2388    1.0000 </r>
       <r>  -25.2153    1.0000 </r>
       <r>  -25.1922    1.0000 </r>
       <r>  -25.1611    1.0000 </r>
       <r>  -25.1602    1.0000 </r>
       <r>  -25.1161    1.0000 </r>
       <r>  -25.0450    1.0000 </r>
       <r>  -25.0044    1.0000 </r>
       <r>  -24.9966    1.0000 </r>
       <r>  -24.9809    1.0000 </r>
       <r>  -24.9505    1.0000 </r>
       <r>  -24.9264    1.0000 </r>
       <r>  -24.9189    1.0000 </r>
       <r>  -24.9067    1.0000 </r>
       <r>  -24.8719    1.0000 </r>
       <r>  -24.8132    1.0000 </r>
       <r>  -24.8087    1.0000 </r>
       <r>  -24.8066    1.0000 </r>
       <r>  -24.8034    1.0000 </r>
       <r>  -24.8033    1.0000 </r>
       <r>  -24.7855    1.0000 </r>
       <r>  -24.7842    1.0000 </r>
       <r>  -24.7105    1.0000 </r>
       <r>  -24.7031    1.0000 </r>
       <r>   -0.1789    1.0000 </r>
       <r>    0.9730    1.0000 </r>
       <r>    1.2997    1.0000 </r>
       <r>    1.4147    1.0000 </r>
       <r>    1.6303    1.0000 </r>
       <r>    1.6987    1.0000 </r>
       <r>    1.7598    1.0000 </r>
       <r>    1.7787    1.0000 </r>
       <r>    1.8383    1.0000 </r>
       <r>    1.8414    1.0000 </r>
       <r>    1.8733    1.0000 </r>
       <r>    2.1627    1.0000 </r>
       <r>    2.2866    1.0000 </r>
       <r>    2.3262    1.0000 </r>
       <r>    2.3923    1.0000 </r>
       <r>    2.6621    1.0000 </r>
       <r>    2.7110    1.0000 </r>
       <r>    2.7774    1.0000 </r>
       <r>    3.2598    1.0000 </r>
       <r>    3.3022    1.0000 </r>
       <r>    3.3153    1.0000 </r>
       <r>    3.4270    1.0000 </r>
       <r>    3.4391    1.0000 </r>
       <r>    3.4815    1.0000 </r>
       <r>    3.5104    1.0000 </r>
       <r>    3.5118    1.0000 </r>
       <r>    3.5552    1.0000 </r>
       <r>    3.6722    1.0000 </r>
       <r>    4.0794    1.0000 </r>
       <r>    4.2533    1.0000 </r>
       <r>    4.4555    0.9976 </r>
       <r>    4.5478    0.9847 </r>
       <r>    4.5639    0.9798 </r>
       <r>    4.5755    0.9754 </r>
       <r>    4.6671    0.9066 </r>
       <r>    4.6774    0.8937 </r>
       <r>    4.7190    0.8297 </r>
       <r>    4.7401    0.7892 </r>
       <r>    4.7647    0.7355 </r>
       <r>    4.9645    0.2167 </r>
       <r>    5.2232    0.0045 </r>
       <r>    5.2920    0.0010 </r>
       <r>    5.2934    0.0009 </r>
       <r>    5.4343    0.0000 </r>
       <r>    5.4708    0.0000 </r>
       <r>    5.4776    0.0000 </r>
       <r>    6.0809    0.0000 </r>
       <r>    6.1474    0.0000 </r>
       <r>    6.5031    0.0000 </r>
       <r>    6.5984    0.0000 </r>
       <r>    6.7594    0.0000 </r>
       <r>    6.7773    0.0000 </r>
       <r>    6.8179    0.0000 </r>
       <r>    6.8943    0.0000 </r>
       <r>    6.9051    0.0000 </r>
       <r>    7.0166    0.0000 </r>
       <r>    7.4536    0.0000 </r>
       <r>    7.6287    0.0000 </r>
       <r>    7.6428    0.0000 </r>
       <r>    7.7828    0.0000 </r>
       <r>    7.8883    0.0000 </r>
       <r>    7.8910    0.0000 </r>
       <r>    8.0068    0.0000 </r>
       <r>    8.1089    0.0000 </r>
       <r>    8.1898    0.0000 </r>
       <r>    8.2754    0.0000 </r>
       <r>    8.5217    0.0000 </r>
       <r>    8.5403    0.0000 </r>
       <r>    8.5939    0.0000 </r>
       <r>    8.8460    0.0000 </r>
       <r>    8.8564    0.0000 </r>
       <r>    8.8664    0.0000 </r>
      </set>
      <set comment="kpoint 12">
       <r>  -25.9300    1.0000 </r>
       <r>  -25.8829    1.0000 </r>
       <r>  -25.8782    1.0000 </r>
       <r>  -25.8761    1.0000 </r>
       <r>  -25.8685    1.0000 </r>
       <r>  -25.8421    1.0000 </r>
       <r>  -25.8292    1.0000 </r>
       <r>  -25.8225    1.0000 </r>
       <r>  -25.8146    1.0000 </r>
       <r>  -25.7736    1.0000 </r>
       <r>  -25.7461    1.0000 </r>
       <r>  -25.7402    1.0000 </r>
       <r>  -25.7148    1.0000 </r>
       <r>  -25.6139    1.0000 </r>
       <r>  -25.5015    1.0000 </r>
       <r>  -25.4504    1.0000 </r>
       <r>  -25.3888    1.0000 </r>
       <r>  -25.3433    1.0000 </r>
       <r>  -25.3269    1.0000 </r>
       <r>  -25.2938    1.0000 </r>
       <r>  -25.2911    1.0000 </r>
       <r>  -25.2664    1.0000 </r>
       <r>  -25.2639    1.0000 </r>
       <r>  -25.2384    1.0000 </r>
       <r>  -25.2290    1.0000 </r>
       <r>  -25.2290    1.0000 </r>
       <r>  -25.2040    1.0000 </r>
       <r>  -25.1637    1.0000 </r>
       <r>  -25.1626    1.0000 </r>
       <r>  -25.1016    1.0000 </r>
       <r>  -25.0415    1.0000 </r>
       <r>  -25.0256    1.0000 </r>
       <r>  -25.0095    1.0000 </r>
       <r>  -24.9711    1.0000 </r>
       <r>  -24.9149    1.0000 </r>
       <r>  -24.8967    1.0000 </r>
       <r>  -24.8754    1.0000 </r>
       <r>  -24.8718    1.0000 </r>
       <r>  -24.8558    1.0000 </r>
       <r>  -24.8503    1.0000 </r>
       <r>  -24.8384    1.0000 </r>
       <r>  -24.8360    1.0000 </r>
       <r>  -24.8245    1.0000 </r>
       <r>  -24.8065    1.0000 </r>
       <r>  -24.7600    1.0000 </r>
       <r>  -24.7588    1.0000 </r>
       <r>  -24.7288    1.0000 </r>
       <r>  -24.7248    1.0000 </r>
       <r>    0.1626    1.0000 </r>
       <r>    0.5541    1.0000 </r>
       <r>    1.3558    1.0000 </r>
       <r>    1.4009    1.0000 </r>
       <r>    1.8248    1.0000 </r>
       <r>    1.8660    1.0000 </r>
       <r>    1.9536    1.0000 </r>
       <r>    1.9816    1.0000 </r>
       <r>    2.0360    1.0000 </r>
       <r>    2.0509    1.0000 </r>
       <r>    2.1293    1.0000 </r>
       <r>    2.1481    1.0000 </r>
       <r>    2.1683    1.0000 </r>
       <r>    2.1706    1.0000 </r>
       <r>    2.2013    1.0000 </r>
       <r>    2.4304    1.0000 </r>
       <r>    2.4509    1.0000 </r>
       <r>    2.5036    1.0000 </r>
       <r>    3.2575    1.0000 </r>
       <r>    3.3062    1.0000 </r>
       <r>    3.3175    1.0000 </r>
       <r>    3.3936    1.0000 </r>
       <r>    3.6034    1.0000 </r>
       <r>    3.6353    1.0000 </r>
       <r>    3.6497    1.0000 </r>
       <r>    3.6946    1.0000 </r>
       <r>    3.7040    1.0000 </r>
       <r>    3.7185    1.0000 </r>
       <r>    3.9562    1.0000 </r>
       <r>    4.1874    1.0000 </r>
       <r>    4.4519    0.9978 </r>
       <r>    4.5500    0.9841 </r>
       <r>    4.5936    0.9671 </r>
       <r>    4.6204    0.9505 </r>
       <r>    4.6492    0.9259 </r>
       <r>    4.7260    0.8169 </r>
       <r>    4.7616    0.7425 </r>
       <r>    4.8093    0.6233 </r>
       <r>    4.8308    0.5644 </r>
       <r>    4.8456    0.5228 </r>
       <r>    4.8520    0.5048 </r>
       <r>    4.8551    0.4962 </r>
       <r>    4.8998    0.3722 </r>
       <r>    5.0314    0.1045 </r>
       <r>    5.1176    0.0310 </r>
       <r>    5.1684    0.0130 </r>
       <r>    6.3668    0.0000 </r>
       <r>    6.5888    0.0000 </r>
       <r>    6.6219    0.0000 </r>
       <r>    6.6762    0.0000 </r>
       <r>    6.7197    0.0000 </r>
       <r>    6.8072    0.0000 </r>
       <r>    7.0858    0.0000 </r>
       <r>    7.1007    0.0000 </r>
       <r>    7.1302    0.0000 </r>
       <r>    7.1427    0.0000 </r>
       <r>    7.1995    0.0000 </r>
       <r>    7.2841    0.0000 </r>
       <r>    7.3822    0.0000 </r>
       <r>    7.4776    0.0000 </r>
       <r>    7.5910    0.0000 </r>
       <r>    7.7519    0.0000 </r>
       <r>    8.1742    0.0000 </r>
       <r>    8.2379    0.0000 </r>
       <r>    8.3528    0.0000 </r>
       <r>    8.3840    0.0000 </r>
       <r>    8.3882    0.0000 </r>
       <r>    8.4111    0.0000 </r>
       <r>    8.6111    0.0000 </r>
       <r>    8.6941    0.0000 </r>
       <r>    8.8431    0.0000 </r>
[...]
       <r>  -24.9025    1.0000 </r>
       <r>  -24.8923    1.0000 </r>
       <r>  -24.8923    1.0000 </r>
       <r>  -24.8923    1.0000 </r>
       <r>  -24.8412    1.0000 </r>
       <r>  -24.8412    1.0000 </r>
       <r>  -24.8412    1.0000 </r>
       <r>  -24.8304    1.0000 </r>
       <r>  -24.8304    1.0000 </r>
       <r>  -24.8203    1.0000 </r>
       <r>  -24.8203    1.0000 </r>
       <r>  -24.8203    1.0000 </r>
       <r>    1.4257    1.0000 </r>
       <r>    1.7084    1.0000 </r>
       <r>    1.7084    1.0000 </r>
       <r>    1.7084    1.0000 </r>
       <r>    1.9777    1.0000 </r>
       <r>    1.9777    1.0000 </r>
       <r>    1.9777    1.0000 </r>
       <r>    2.3047    1.0000 </r>
       <r>    2.9403    1.0000 </r>
       <r>    2.9403    1.0000 </r>
       <r>    3.0401    1.0000 </r>
       <r>    3.0401    1.0000 </r>
       <r>    3.0401    1.0000 </r>
       <r>    3.0503    1.0000 </r>
       <r>    3.0503    1.0000 </r>
       <r>    3.0503    1.0000 </r>
       <r>    3.1565    1.0000 </r>
       <r>    3.1807    1.0000 </r>
       <r>    3.1807    1.0000 </r>
       <r>    3.1807    1.0000 </r>
       <r>    3.5123    1.0000 </r>
       <r>    3.5123    1.0000 </r>
       <r>    3.5123    1.0000 </r>
       <r>    3.5261    1.0000 </r>
       <r>    3.5261    1.0000 </r>
       <r>    3.5577    1.0000 </r>
       <r>    3.5577    1.0000 </r>
       <r>    3.5666    1.0000 </r>
       <r>    3.5666    1.0000 </r>
       <r>    3.5666    1.0000 </r>
       <r>    3.6299    1.0000 </r>
       <r>    3.6299    1.0000 </r>
       <r>    3.6299    1.0000 </r>
       <r>    3.7482    1.0000 </r>
       <r>    3.7482    1.0000 </r>
       <r>    3.7482    1.0000 </r>
       <r>    3.7867    1.0000 </r>
       <r>    3.7867    1.0000 </r>
       <r>    3.7867    1.0000 </r>
       <r>    3.7897    1.0000 </r>
       <r>    3.7897    1.0000 </r>
       <r>    3.7897    1.0000 </r>
       <r>    3.8287    1.0000 </r>
       <r>    3.8287    1.0000 </r>
       <r>    3.8287    1.0000 </r>
       <r>    3.8864    1.0000 </r>
       <r>    3.8864    1.0000 </r>
       <r>    4.0815    1.0000 </r>
       <r>    7.9326    0.0000 </r>
       <r>    7.9326    0.0000 </r>
       <r>    7.9326    0.0000 </r>
       <r>    8.0352    0.0000 </r>
       <r>    8.0352    0.0000 </r>
       <r>    8.0545    0.0000 </r>
       <r>    8.0545    0.0000 </r>
       <r>    8.0545    0.0000 </r>
       <r>    8.2535    0.0000 </r>
       <r>    8.2535    0.0000 </r>
       <r>    8.2644    0.0000 </r>
       <r>    8.2644    0.0000 </r>
       <r>    8.2644    0.0000 </r>
       <r>    8.2827    0.0000 </r>
       <r>    8.2827    0.0000 </r>
       <r>    8.2828    0.0000 </r>
       <r>    8.2940    0.0000 </r>
       <r>    8.2940    0.0000 </r>
       <r>    8.2941    0.0000 </r>
       <r>    8.3592    0.0000 </r>
       <r>    8.3592    0.0000 </r>
       <r>    8.3593    0.0000 </r>
       <r>    8.5875    0.0000 </r>
       <r>    8.5888    0.0000 </r>
      </set>
     </set>
    </set>
   </array>
  </eigenvalues>
  <separator name="orbital magnetization" >
   <v name="MAGDIPOLOUT">      0.00000000      0.00000000      0.00000000</v>
  </separator>
  <dos>
   <i name="efermi">      4.85372799 </i>
   <total>
    <array>
     <dimension dim="1">gridpoints</dimension>
     <dimension dim="2">spin</dimension>
     <field>energy</field>
     <field>total</field>
     <field>integrated</field>
     <set>
      <set comment="spin 1">
       <r>   -28.0699     0.0000     0.0000 </r>
       <r>   -27.9399     0.0000     0.0000 </r>
       <r>   -27.8099     0.0000     0.0000 </r>
       <r>   -27.6800     0.0000     0.0000 </r>
       <r>   -27.5500     0.0000     0.0000 </r>
       <r>   -27.4200     0.0000     0.0000 </r>
       <r>   -27.2901     0.0000     0.0000 </r>
       <r>   -27.1601     0.0000     0.0000 </r>
       <r>   -27.0301     0.0000     0.0000 </r>
       <r>   -26.9001     0.0000     0.0000 </r>
       <r>   -26.7702     0.0000     0.0000 </r>
       <r>   -26.6402     0.0001     0.0000 </r>
       <r>   -26.5102     0.0053     0.0007 </r>
       <r>   -26.3802     0.1127     0.0154 </r>
       <r>   -26.2503     1.2129     0.1730 </r>
       <r>   -26.1203     6.9785     1.0800 </r>
       <r>   -25.9903    23.0776     4.0795 </r>
       <r>   -25.8604    46.7026    10.1495 </r>
       <r>   -25.7304    61.2061    18.1046 </r>
       <r>   -25.6004    58.8984    25.7598 </r>
       <r>   -25.4704    54.4614    32.8383 </r>
       <r>   -25.3405    59.0819    40.5173 </r>
       <r>   -25.2105    68.9483    49.4787 </r>
       <r>   -25.0805    77.0922    59.4986 </r>
       <r>   -24.9505    83.5106    70.3526 </r>
       <r>   -24.8206    85.8268    81.5078 </r>
       <r>   -24.6906    67.9310    90.3369 </r>
       <r>   -24.5606    33.3241    94.6681 </r>
       <r>   -24.4307     8.9397    95.8301 </r>
       <r>   -24.3007     1.2232    95.9891 </r>
       <r>   -24.1707     0.0816    95.9997 </r>
       <r>   -24.0407     0.0026    96.0000 </r>
       <r>   -23.9108     0.0000    96.0000 </r>
       <r>   -23.7808     0.0000    96.0000 </r>
       <r>   -23.6508     0.0000    96.0000 </r>
       <r>   -23.5208     0.0000    96.0000 </r>
       <r>   -23.3909     0.0000    96.0000 </r>
       <r>   -23.2609     0.0000    96.0000 </r>
       <r>   -23.1309     0.0000    96.0000 </r>
       <r>   -23.0010     0.0000    96.0000 </r>
       <r>   -22.8710     0.0000    96.0000 </r>
       <r>   -22.7410     0.0000    96.0000 </r>
       <r>   -22.6110     0.0000    96.0000 </r>
       <r>   -22.4811     0.0000    96.0000 </r>
       <r>   -22.3511     0.0000    96.0000 </r>
       <r>   -22.2211     0.0000    96.0000 </r>
       <r>   -22.0912     0.0000    96.0000 </r>
       <r>   -21.9612     0.0000    96.0000 </r>
       <r>   -21.8312     0.0000    96.0000 </r>
       <r>   -21.7012     0.0000    96.0000 </r>
       <r>   -21.5713     0.0000    96.0000 </r>
       <r>   -21.4413     0.0000    96.0000 </r>
       <r>   -21.3113     0.0000    96.0000 </r>
       <r>   -21.1813     0.0000    96.0000 </r>
       <r>   -21.0514     0.0000    96.0000 </r>
       <r>   -20.9214     0.0000    96.0000 </r>
       <r>   -20.7914     0.0000    96.0000 </r>
       <r>   -20.6615     0.0000    96.0000 </r>
       <r>   -20.5315     0.0000    96.0000 </r>
       <r>   -20.4015     0.0000    96.0000 </r>
       <r>   -20.2715     0.0000    96.0000 </r>
       <r>   -20.1416     0.0000    96.0000 </r>
       <r>   -20.0116     0.0000    96.0000 </r>
       <r>   -19.8816     0.0000    96.0000 </r>
       <r>   -19.7516     0.0000    96.0000 </r>
       <r>   -19.6217     0.0000    96.0000 </r>
       <r>   -19.4917     0.0000    96.0000 </r>
       <r>   -19.3617     0.0000    96.0000 </r>
       <r>   -19.2318     0.0000    96.0000 </r>
       <r>   -19.1018     0.0000    96.0000 </r>
       <r>   -18.9718     0.0000    96.0000 </r>
       <r>   -18.8418     0.0000    96.0000 </r>
       <r>   -18.7119     0.0000    96.0000 </r>
       <r>   -18.5819     0.0000    96.0000 </r>
       <r>   -18.4519     0.0000    96.0000 </r>
       <r>   -18.3219     0.0000    96.0000 </r>
       <r>   -18.1920     0.0000    96.0000 </r>
       <r>   -18.0620     0.0000    96.0000 </r>
       <r>   -17.9320     0.0000    96.0000 </r>
       <r>   -17.8021     0.0000    96.0000 </r>
       <r>   -17.6721     0.0000    96.0000 </r>
       <r>   -17.5421     0.0000    96.0000 </r>
       <r>   -17.4121     0.0000    96.0000 </r>
       <r>   -17.2822     0.0000    96.0000 </r>
       <r>   -17.1522     0.0000    96.0000 </r>
       <r>   -17.0222     0.0000    96.0000 </r>
       <r>   -16.8923     0.0000    96.0000 </r>
       <r>   -16.7623     0.0000    96.0000 </r>
       <r>   -16.6323     0.0000    96.0000 </r>
       <r>   -16.5023     0.0000    96.0000 </r>
       <r>   -16.3724     0.0000    96.0000 </r>
       <r>   -16.2424     0.0000    96.0000 </r>
       <r>   -16.1124     0.0000    96.0000 </r>
       <r>   -15.9824     0.0000    96.0000 </r>
       <r>   -15.8525     0.0000    96.0000 </r>
       <r>   -15.7225     0.0000    96.0000 </r>
       <r>   -15.5925     0.0000    96.0000 </r>
       <r>   -15.4626     0.0000    96.0000 </r>
       <r>   -15.3326     0.0000    96.0000 </r>
       <r>   -15.2026     0.0000    96.0000 </r>
       <r>   -15.0726     0.0000    96.0000 </r>
       <r>   -14.9427     0.0000    96.0000 </r>
       <r>   -14.8127     0.0000    96.0000 </r>
       <r>   -14.6827     0.0000    96.0000 </r>
       <r>   -14.5527     0.0000    96.0000 </r>
       <r>   -14.4228     0.0000    96.0000 </r>
       <r>   -14.2928     0.0000    96.0000 </r>
       <r>   -14.1628     0.0000    96.0000 </r>
       <r>   -14.0329     0.0000    96.0000 </r>
       <r>   -13.9029     0.0000    96.0000 </r>
       <r>   -13.7729     0.0000    96.0000 </r>
       <r>   -13.6429     0.0000    96.0000 </r>
       <r>   -13.5130     0.0000    96.0000 </r>
       <r>   -13.3830     0.0000    96.0000 </r>
       <r>   -13.2530     0.0000    96.0000 </r>
       <r>   -13.1230     0.0000    96.0000 </r>
       <r>   -12.9931     0.0000    96.0000 </r>
       <r>   -12.8631     0.0000    96.0000 </r>
       <r>   -12.7331     0.0000    96.0000 </r>
       <r>   -12.6032     0.0000    96.0000 </r>
       <r>   -12.4732     0.0000    96.0000 </r>
       <r>   -12.3432     0.0000    96.0000 </r>
       <r>   -12.2132     0.0000    96.0000 </r>
       <r>   -12.0833     0.0000    96.0000 </r>
       <r>   -11.9533     0.0000    96.0000 </r>
       <r>   -11.8233     0.0000    96.0000 </r>
       <r>   -11.6934     0.0000    96.0000 </r>
       <r>   -11.5634     0.0000    96.0000 </r>
       <r>   -11.4334     0.0000    96.0000 </r>
       <r>   -11.3034     0.0000    96.0000 </r>
       <r>   -11.1735     0.0000    96.0000 </r>
       <r>   -11.0435     0.0000    96.0000 </r>
       <r>   -10.9135     0.0000    96.0000 </r>
       <r>   -10.7835     0.0000    96.0000 </r>
       <r>   -10.6536     0.0000    96.0000 </r>
       <r>   -10.5236     0.0000    96.0000 </r>
       <r>   -10.3936     0.0000    96.0000 </r>
       <r>   -10.2637     0.0000    96.0000 </r>
       <r>   -10.1337     0.0000    96.0000 </r>
       <r>   -10.0037     0.0000    96.0000 </r>
       <r>    -9.8737     0.0000    96.0000 </r>
       <r>    -9.7438     0.0000    96.0000 </r>
       <r>    -9.6138     0.0000    96.0000 </r>
       <r>    -9.4838     0.0000    96.0000 </r>
       <r>    -9.3538     0.0000    96.0000 </r>
       <r>    -9.2239     0.0000    96.0000 </r>
       <r>    -9.0939     0.0000    96.0000 </r>
       <r>    -8.9639     0.0000    96.0000 </r>
       <r>    -8.8340     0.0000    96.0000 </r>
       <r>    -8.7040     0.0000    96.0000 </r>
       <r>    -8.5740     0.0000    96.0000 </r>
       <r>    -8.4440     0.0000    96.0000 </r>
       <r>    -8.3141     0.0000    96.0000 </r>
       <r>    -8.1841     0.0000    96.0000 </r>
       <r>    -8.0541     0.0000    96.0000 </r>
       <r>    -7.9241     0.0000    96.0000 </r>
       <r>    -7.7942     0.0000    96.0000 </r>
       <r>    -7.6642     0.0000    96.0000 </r>
       <r>    -7.5342     0.0000    96.0000 </r>
       <r>    -7.4043     0.0000    96.0000 </r>
       <r>    -7.2743     0.0000    96.0000 </r>
       <r>    -7.1443     0.0000    96.0000 </r>
       <r>    -7.0143     0.0000    96.0000 </r>
       <r>    -6.8844     0.0000    96.0000 </r>
       <r>    -6.7544     0.0000    96.0000 </r>
       <r>    -6.6244     0.0000    96.0000 </r>
       <r>    -6.4944     0.0000    96.0000 </r>
       <r>    -6.3645     0.0000    96.0000 </r>
       <r>    -6.2345     0.0000    96.0000 </r>
       <r>    -6.1045     0.0000    96.0000 </r>
       <r>    -5.9746     0.0000    96.0000 </r>
       <r>    -5.8446     0.0000    96.0000 </r>
       <r>    -5.7146     0.0000    96.0000 </r>
       <r>    -5.5846     0.0000    96.0000 </r>
       <r>    -5.4547     0.0000    96.0000 </r>
       <r>    -5.3247     0.0000    96.0000 </r>
       <r>    -5.1947     0.0000    96.0000 </r>
       <r>    -5.0648     0.0000    96.0000 </r>
       <r>    -4.9348     0.0000    96.0000 </r>
       <r>    -4.8048     0.0000    96.0000 </r>
       <r>    -4.6748     0.0000    96.0000 </r>
       <r>    -4.5449     0.0000    96.0000 </r>
       <r>    -4.4149     0.0000    96.0000 </r>
       <r>    -4.2849     0.0000    96.0000 </r>
       <r>    -4.1549     0.0000    96.0000 </r>
       <r>    -4.0250     0.0000    96.0000 </r>
       <r>    -3.8950     0.0000    96.0000 </r>
       <r>    -3.7650     0.0000    96.0000 </r>
       <r>    -3.6351     0.0000    96.0000 </r>
       <r>    -3.5051     0.0000    96.0000 </r>
       <r>    -3.3751     0.0000    96.0000 </r>
       <r>    -3.2451     0.0000    96.0000 </r>
       <r>    -3.1152     0.0000    96.0000 </r>
       <r>    -2.9852     0.0000    96.0000 </r>
       <r>    -2.8552     0.0000    96.0000 </r>
       <r>    -2.7252     0.0000    96.0000 </r>
       <r>    -2.5953     0.0000    96.0000 </r>
       <r>    -2.4653     0.0000    96.0000 </r>
       <r>    -2.3353     0.0000    96.0000 </r>
       <r>    -2.2054     0.0000    96.0000 </r>
       <r>    -2.0754     0.0000    96.0000 </r>
       <r>    -1.9454     0.0000    96.0000 </r>
       <r>    -1.8154     0.0000    96.0000 </r>
       <r>    -1.6855     0.0000    96.0000 </r>
       <r>    -1.5555     0.0000    96.0000 </r>
       <r>    -1.4255     0.0006    96.0001 </r>
       <r>    -1.2955     0.0070    96.0010 </r>
       <r>    -1.1656     0.0440    96.0067 </r>
       <r>    -1.0356     0.1527    96.0266 </r>
       <r>    -0.9056     0.3292    96.0693 </r>
       <r>    -0.7757     0.5164    96.1365 </r>
       <r>    -0.6457     0.6760    96.2243 </r>
       <r>    -0.5157     0.8094    96.3295 </r>
       <r>    -0.3857     0.9552    96.4537 </r>
       <r>    -0.2558     1.0751    96.5934 </r>
       <r>    -0.1258     1.1888    96.7479 </r>
       <r>     0.0042     1.3596    96.9246 </r>
       <r>     0.1341     1.5029    97.1200 </r>
       <r>     0.2641     1.5981    97.3277 </r>
       <r>     0.3941     1.8045    97.5622 </r>
       <r>     0.5241     2.0536    97.8291 </r>
       <r>     0.6540     2.1966    98.1146 </r>
       <r>     0.7840     2.4212    98.4293 </r>
       <r>     0.9140     3.0380    98.8242 </r>
       <r>     1.0440     4.3914    99.3949 </r>
       <r>     1.1739     7.0710   100.3140 </r>
       <r>     1.3039    10.8591   101.7254 </r>
       <r>     1.4339    14.1084   103.5591 </r>
       <r>     1.5638    15.6233   105.5897 </r>
       <r>     1.6938    16.4538   107.7282 </r>
       <r>     1.8238    17.7699   110.0378 </r>
       <r>     1.9538    19.0835   112.5181 </r>
       <r>     2.0837    20.5114   115.1841 </r>
       <r>     2.2137    22.0079   118.0445 </r>
       <r>     2.3437    22.2182   120.9322 </r>
       <r>     2.4737    21.4182   123.7160 </r>
       <r>     2.6036    19.5762   126.2604 </r>
       <r>     2.7336    15.9272   128.3305 </r>
       <r>     2.8636    11.8081   129.8652 </r>
       <r>     2.9935    10.4105   131.2183 </r>
       <r>     3.1235    13.9695   133.0340 </r>
       <r>     3.2535    21.2597   135.7971 </r>
       <r>     3.3835    28.6122   139.5159 </r>
       <r>     3.5134    32.1020   143.6883 </r>
       <r>     3.6434    29.6825   147.5462 </r>
       <r>     3.7734    24.5239   150.7337 </r>
       <r>     3.9034    20.7598   153.4319 </r>
       <r>     4.0333    18.7578   155.8699 </r>
       <r>     4.1633    18.2834   158.2462 </r>
       <r>     4.2933    19.7100   160.8079 </r>
       <r>     4.4232    23.1147   163.8122 </r>
       <r>     4.5532    27.8602   167.4333 </r>
       <r>     4.6832    30.2344   171.3629 </r>
       <r>     4.8132    27.8858   174.9873 </r>
       <r>     4.9431    23.3755   178.0255 </r>
       <r>     5.0731    19.0257   180.4983 </r>
       <r>     5.2031    14.7841   182.4198 </r>
       <r>     5.3330    11.1250   183.8658 </r>
       <r>     5.4630     9.2495   185.0679 </r>
       <r>     5.5930     8.5605   186.1806 </r>
       <r>     5.7230     7.8483   187.2006 </r>
       <r>     5.8529     7.3405   188.1547 </r>
       <r>     5.9829     7.5029   189.1299 </r>
       <r>     6.1129     7.9211   190.1594 </r>
       <r>     6.2429     8.0927   191.2112 </r>
       <r>     6.3728     8.2822   192.2877 </r>
       <r>     6.5028     9.6705   193.5446 </r>
       <r>     6.6328    12.1562   195.1246 </r>
       <r>     6.7627    13.4830   196.8770 </r>
       <r>     6.8927    13.9164   198.6857 </r>
       <r>     7.0227    14.8259   200.6127 </r>
       <r>     7.1527    15.8538   202.6732 </r>
       <r>     7.2826    16.6515   204.8375 </r>
       <r>     7.4126    17.5150   207.1139 </r>
       <r>     7.5426    18.9296   209.5743 </r>
       <r>     7.6726    20.3990   212.2256 </r>
       <r>     7.8025    20.8060   214.9298 </r>
       <r>     7.9325    20.8778   217.6433 </r>
       <r>     8.0625    22.2405   220.5340 </r>
       <r>     8.1924    23.8773   223.6374 </r>
       <r>     8.3224    23.7048   226.7183 </r>
       <r>     8.4524    22.3041   229.6173 </r>
       <r>     8.5824    21.5204   232.4143 </r>
       <r>     8.7123    21.3307   235.1867 </r>
       <r>     8.8423    19.0526   237.6630 </r>
       <r>     8.9723    12.2688   239.2576 </r>
       <r>     9.1023     4.6780   239.8657 </r>
       <r>     9.2322     0.9369   239.9874 </r>
       <r>     9.3622     0.0924   239.9994 </r>
       <r>     9.4922     0.0043   240.0000 </r>
       <r>     9.6221     0.0001   240.0000 </r>
       <r>     9.7521     0.0000   240.0000 </r>
       <r>     9.8821     0.0000   240.0000 </r>
       <r>    10.0121     0.0000   240.0000 </r>
       <r>    10.1420     0.0000   240.0000 </r>
       <r>    10.2720     0.0000   240.0000 </r>
       <r>    10.4020     0.0000   240.0000 </r>
       <r>    10.5319     0.0000   240.0000 </r>
       <r>    10.6619     0.0000   240.0000 </r>
       <r>    10.7919     0.0000   240.0000 </r>
       <r>    10.9219     0.0000   240.0000 </r>
      </set>
     </set>
    </array>
   </total>
  </dos>
 </calculation>
 <structure name="finalpos" >
  <crystal>
   <varray name="basis" >
    <v>       6.60160000       0.00000000       0.00000000 </v>
    <v>       0.00000000       6.60160000       0.00000000 </v>
    <v>       0.00000000       0.00000000       6.60160000 </v>
   </varray>
   <i name="volume">    287.70513869 </i>
   <varray name="rec_basis" >
    <v>       0.15147843       0.00000000       0.00000000 </v>
    <v>       0.00000000       0.15147843       0.00000000 </v>
    <v>       0.00000000       0.00000000       0.15147843 </v>
   </varray>
  </crystal>
  <varray name="positions" >
   <v>       0.00000000       0.00000000       0.00000000 </v>
   <v>       0.25000000       0.25000000       0.25000000 </v>
   <v>       0.50000000       0.00000000       0.00000000 </v>
   <v>       0.75000000       0.25000000       0.25000000 </v>
   <v>       0.00000000       0.50000000       0.00000000 </v>
   <v>       0.25000000       0.75000000       0.25000000 </v>
   <v>       0.00000000       0.00000000       0.50000000 </v>
   <v>       0.25000000       0.25000000       0.75000000 </v>
   <v>       0.50000000       0.50000000       0.00000000 </v>
   <v>       0.75000000       0.75000000       0.25000000 </v>
   <v>       0.00000000       0.50000000       0.50000000 </v>
   <v>       0.25000000       0.75000000       0.75000000 </v>
   <v>       0.50000000       0.00000000       0.50000000 </v>
   <v>       0.75000000       0.25000000       0.75000000 </v>
   <v>       0.50000000       0.50000000       0.50000000 </v>
   <v>       0.75000000       0.75000000       0.75000000 </v>
  </varray>
 </structure>
</modeling>
