   2   2   0   0
  0.1798157E+02  0.3300800E-09  0.3300800E-09  0.3300800E-09  0.5000000E-15
  1.000000000000000E-004
  CAR 
 Nb tetrahedron                          
     49.75124474    -29.65975335  301      4.85100068      1.00000000
    -29.660  0.0000E+00  0.0000E+00
    -29.395  0.0000E+00  0.0000E+00
    -29.130  0.0000E+00  0.0000E+00
    -28.866  0.0000E+00  0.0000E+00
    -28.601  0.0000E+00  0.0000E+00
    -28.336  0.0000E+00  0.0000E+00
    -28.072  0.0000E+00  0.0000E+00
    -27.807  0.0000E+00  0.0000E+00
    -27.542  0.0000E+00  0.0000E+00
    -27.277  0.0000E+00  0.0000E+00
    -27.013  0.0000E+00  0.0000E+00
    -26.748  0.0000E+00  0.0000E+00
    -26.483  0.0000E+00  0.0000E+00
    -26.219  0.0000E+00  0.0000E+00
    -25.954  0.4435E+01  0.2697E+00
    -25.689  0.7188E+01  0.2758E+01
    -25.425  0.7452E+01  0.4287E+01
    -25.160  0.1041E+02  0.6466E+01
    -24.895  0.1329E+02  0.9130E+01
    -24.630  0.0000E+00  0.1200E+02
    -24.366  0.0000E+00  0.1200E+02
    -24.101  0.0000E+00  0.1200E+02
    -23.836  0.0000E+00  0.1200E+02
    -23.572  0.0000E+00  0.1200E+02
    -23.307  0.0000E+00  0.1200E+02
    -23.042  0.0000E+00  0.1200E+02
    -22.777  0.0000E+00  0.1200E+02
    -22.513  0.0000E+00  0.1200E+02
    -22.248  0.0000E+00  0.1200E+02
    -21.983  0.0000E+00  0.1200E+02
    -21.719  0.0000E+00  0.1200E+02
    -21.454  0.0000E+00  0.1200E+02
    -21.189  0.0000E+00  0.1200E+02
    -20.925  0.0000E+00  0.1200E+02
    -20.660  0.0000E+00  0.1200E+02
    -20.395  0.0000E+00  0.1200E+02
    -20.130  0.0000E+00  0.1200E+02
    -19.866  0.0000E+00  0.1200E+02
    -19.601  0.0000E+00  0.1200E+02
    -19.336  0.0000E+00  0.1200E+02
    -19.072  0.0000E+00  0.1200E+02
    -18.807  0.0000E+00  0.1200E+02
    -18.542  0.0000E+00  0.1200E+02
    -18.278  0.0000E+00  0.1200E+02
    -18.013  0.0000E+00  0.1200E+02
    -17.748  0.0000E+00  0.1200E+02
    -17.483  0.0000E+00  0.1200E+02
    -17.219  0.0000E+00  0.1200E+02
    -16.954  0.0000E+00  0.1200E+02
    -16.689  0.0000E+00  0.1200E+02
    -16.425  0.0000E+00  0.1200E+02
    -16.160  0.0000E+00  0.1200E+02
    -15.895  0.0000E+00  0.1200E+02
    -15.630  0.0000E+00  0.1200E+02
    -15.366  0.0000E+00  0.1200E+02
    -15.101  0.0000E+00  0.1200E+02
    -14.836  0.0000E+00  0.1200E+02
    -14.572  0.0000E+00  0.1200E+02
    -14.307  0.0000E+00  0.1200E+02
    -14.042  0.0000E+00  0.1200E+02
    -13.778  0.0000E+00  0.1200E+02
    -13.513  0.0000E+00  0.1200E+02
    -13.248  0.0000E+00  0.1200E+02
    -12.983  0.0000E+00  0.1200E+02
    -12.719  0.0000E+00  0.1200E+02
    -12.454  0.0000E+00  0.1200E+02
    -12.189  0.0000E+00  0.1200E+02
    -11.925  0.0000E+00  0.1200E+02
    -11.660  0.0000E+00  0.1200E+02
    -11.395  0.0000E+00  0.1200E+02
    -11.131  0.0000E+00  0.1200E+02
    -10.866  0.0000E+00  0.1200E+02
    -10.601  0.0000E+00  0.1200E+02
    -10.336  0.0000E+00  0.1200E+02
    -10.072  0.0000E+00  0.1200E+02
     -9.807  0.0000E+00  0.1200E+02
     -9.542  0.0000E+00  0.1200E+02
     -9.278  0.0000E+00  0.1200E+02
     -9.013  0.0000E+00  0.1200E+02
     -8.748  0.0000E+00  0.1200E+02
     -8.483  0.0000E+00  0.1200E+02
     -8.219  0.0000E+00  0.1200E+02
     -7.954  0.0000E+00  0.1200E+02
     -7.689  0.0000E+00  0.1200E+02
     -7.425  0.0000E+00  0.1200E+02
     -7.160  0.0000E+00  0.1200E+02
     -6.895  0.0000E+00  0.1200E+02
     -6.631  0.0000E+00  0.1200E+02
     -6.366  0.0000E+00  0.1200E+02
     -6.101  0.0000E+00  0.1200E+02
     -5.836  0.0000E+00  0.1200E+02
     -5.572  0.0000E+00  0.1200E+02
     -5.307  0.0000E+00  0.1200E+02
     -5.042  0.0000E+00  0.1200E+02
     -4.778  0.0000E+00  0.1200E+02
     -4.513  0.0000E+00  0.1200E+02
     -4.248  0.0000E+00  0.1200E+02
     -3.984  0.0000E+00  0.1200E+02
     -3.719  0.0000E+00  0.1200E+02
     -3.454  0.0000E+00  0.1200E+02
     -3.189  0.0000E+00  0.1200E+02
     -2.925  0.0000E+00  0.1200E+02
     -2.660  0.0000E+00  0.1200E+02
     -2.395  0.0000E+00  0.1200E+02
     -2.131  0.0000E+00  0.1200E+02
     -1.866  0.0000E+00  0.1200E+02
     -1.601  0.0000E+00  0.1200E+02
     -1.336  0.0000E+00  0.1200E+02
     -1.072  0.0000E+00  0.1200E+02
     -0.807  0.5119E-01  0.1201E+02
     -0.542  0.1100E+00  0.1203E+02
     -0.278  0.1326E+00  0.1206E+02
     -0.013  0.1682E+00  0.1210E+02
      0.252  0.2148E+00  0.1215E+02
      0.516  0.2618E+00  0.1221E+02
      0.781  0.3279E+00  0.1229E+02
      1.046  0.4372E+00  0.1239E+02
      1.311  0.1539E+01  0.1262E+02
      1.575  0.2131E+01  0.1314E+02
      1.840  0.2381E+01  0.1374E+02
      2.105  0.2690E+01  0.1446E+02
      2.369  0.3040E+01  0.1519E+02
      2.634  0.1602E+01  0.1598E+02
      2.899  0.9335E+00  0.1629E+02
      3.163  0.1888E+01  0.1655E+02
      3.428  0.4568E+01  0.1764E+02
      3.693  0.2540E+01  0.1872E+02
      3.958  0.1880E+01  0.1926E+02
      4.222  0.2106E+01  0.1980E+02
      4.487  0.3219E+01  0.2049E+02
      4.752  0.3335E+01  0.2166E+02
      5.016  0.2903E+01  0.2252E+02
      5.281  0.1304E+01  0.2298E+02
      5.546  0.1008E+01  0.2328E+02
      5.810  0.1071E+01  0.2356E+02
      6.075  0.9374E+00  0.2381E+02
      6.340  0.5791E+00  0.2404E+02
      6.605  0.1205E+01  0.2427E+02
      6.869  0.1846E+01  0.2472E+02
      7.134  0.1919E+01  0.2519E+02
      7.399  0.2467E+01  0.2577E+02
      7.663  0.2855E+01  0.2651E+02
      7.928  0.3153E+01  0.2724E+02
      8.193  0.2436E+01  0.2802E+02
      8.458  0.2713E+01  0.2864E+02
      8.722  0.3760E+01  0.2954E+02
      8.987  0.2823E+01  0.3105E+02
      9.252  0.1523E+01  0.3157E+02
      9.516  0.1916E+01  0.3204E+02
      9.781  0.1262E+01  0.3249E+02
     10.046  0.1109E+01  0.3279E+02
     10.310  0.1331E+01  0.3314E+02
     10.575  0.8323E+00  0.3343E+02
     10.840  0.6501E+00  0.3361E+02
     11.105  0.6591E+00  0.3378E+02
     11.369  0.8264E+00  0.3399E+02
     11.634  0.6957E+00  0.3418E+02
     11.899  0.6755E+00  0.3436E+02
     12.163  0.6389E+00  0.3454E+02
     12.428  0.6136E+00  0.3470E+02
     12.693  0.5956E+00  0.3486E+02
     12.957  0.6244E+00  0.3502E+02
     13.222  0.5612E+00  0.3518E+02
     13.487  0.5643E+00  0.3532E+02
     13.752  0.5279E+00  0.3547E+02
     14.016  0.4736E+00  0.3560E+02
     14.281  0.4130E+00  0.3572E+02
     14.546  0.3742E+00  0.3583E+02
     14.810  0.3886E+00  0.3594E+02
     15.075  0.9342E-01  0.3601E+02
     15.340  0.2816E+00  0.3607E+02
     15.605  0.6142E+00  0.3618E+02
     15.869  0.9465E+00  0.3639E+02
     16.134  0.1098E+01  0.3666E+02
     16.399  0.1164E+01  0.3695E+02
     16.663  0.1236E+01  0.3728E+02
     16.928  0.1234E+01  0.3762E+02
     17.193  0.1030E+01  0.3791E+02
     17.457  0.1135E+01  0.3821E+02
     17.722  0.1225E+01  0.3853E+02
     17.987  0.1586E+01  0.3890E+02
     18.252  0.1658E+01  0.3933E+02
     18.516  0.1836E+01  0.3984E+02
     18.781  0.1692E+01  0.4032E+02
     19.046  0.1554E+01  0.4075E+02
     19.310  0.1448E+01  0.4115E+02
     19.575  0.1367E+01  0.4152E+02
     19.840  0.1316E+01  0.4187E+02
     20.104  0.1335E+01  0.4222E+02
     20.369  0.1133E+01  0.4257E+02
     20.634  0.1198E+01  0.4287E+02
     20.899  0.1697E+01  0.4322E+02
     21.163  0.1454E+01  0.4364E+02
     21.428  0.1549E+01  0.4403E+02
     21.693  0.1798E+01  0.4447E+02
     21.957  0.2088E+01  0.4503E+02
     22.222  0.1268E+01  0.4547E+02
     22.487  0.1655E+01  0.4585E+02
     22.752  0.1591E+01  0.4628E+02
     23.016  0.8232E+00  0.4663E+02
     23.281  0.5028E+00  0.4677E+02
     23.546  0.6987E+00  0.4693E+02
     23.810  0.1230E+01  0.4715E+02
     24.075  0.1275E+01  0.4746E+02
     24.340  0.7916E+00  0.4784E+02
     24.604  0.1494E+01  0.4812E+02
     24.869  0.1740E+01  0.4857E+02
     25.134  0.1594E+01  0.4906E+02
     25.399  0.1423E+01  0.4946E+02
     25.663  0.1352E+01  0.4983E+02
     25.928  0.1289E+01  0.5017E+02
     26.193  0.1275E+01  0.5052E+02
     26.457  0.1178E+01  0.5085E+02
     26.722  0.1028E+01  0.5116E+02
     26.987  0.8261E+00  0.5140E+02
     27.251  0.8048E+00  0.5162E+02
     27.516  0.8720E+00  0.5184E+02
     27.781  0.1156E+01  0.5210E+02
     28.046  0.1297E+01  0.5246E+02
     28.310  0.1523E+01  0.5284E+02
     28.575  0.2109E+01  0.5330E+02
     28.840  0.1351E+01  0.5375E+02
     29.104  0.9283E+00  0.5402E+02
     29.369  0.1385E+01  0.5434E+02
     29.634  0.1317E+01  0.5472E+02
     29.898  0.1704E+01  0.5509E+02
     30.163  0.1404E+01  0.5559E+02
     30.428  0.1050E+01  0.5592E+02
     30.693  0.1553E+01  0.5627E+02
     30.957  0.1373E+01  0.5667E+02
     31.222  0.1096E+01  0.5701E+02
     31.487  0.7762E+00  0.5723E+02
     31.751  0.1335E+01  0.5754E+02
     32.016  0.1699E+01  0.5799E+02
     32.281  0.1788E+01  0.5846E+02
     32.546  0.1958E+01  0.5894E+02
     32.810  0.1709E+01  0.5943E+02
     33.075  0.1764E+01  0.5992E+02
     33.340  0.1709E+01  0.6041E+02
     33.604  0.1187E+01  0.6077E+02
     33.869  0.1366E+01  0.6113E+02
     34.134  0.1701E+01  0.6153E+02
     34.398  0.2445E+01  0.6205E+02
     34.663  0.1758E+01  0.6260E+02
     34.928  0.1551E+01  0.6303E+02
     35.193  0.1275E+01  0.6346E+02
     35.457  0.1140E+01  0.6380E+02
     35.722  0.8948E+00  0.6404E+02
     35.987  0.1022E+01  0.6430E+02
     36.251  0.1062E+01  0.6459E+02
     36.516  0.1040E+01  0.6487E+02
     36.781  0.1439E+01  0.6519E+02
     37.045  0.1848E+01  0.6561E+02
     37.310  0.2177E+01  0.6619E+02
     37.575  0.3176E+01  0.6686E+02
     37.840  0.2237E+01  0.6751E+02
     38.104  0.1943E+01  0.6806E+02
     38.369  0.1500E+01  0.6851E+02
     38.634  0.1044E+01  0.6885E+02
     38.898  0.1068E+01  0.6913E+02
     39.163  0.1034E+01  0.6940E+02
     39.428  0.2510E+01  0.6981E+02
     39.693  0.1733E+01  0.7028E+02
     39.957  0.1525E+01  0.7072E+02
     40.222  0.1647E+01  0.7112E+02
     40.487  0.2047E+01  0.7166E+02
     40.751  0.1620E+01  0.7220E+02
     41.016  0.1540E+01  0.7261E+02
     41.281  0.2094E+01  0.7309E+02
     41.545  0.2547E+01  0.7369E+02
     41.810  0.4116E+01  0.7458E+02
     42.075  0.4941E+01  0.7572E+02
     42.340  0.4809E+01  0.7722E+02
     42.604  0.3200E+01  0.7830E+02
     42.869  0.1713E+01  0.7890E+02
     43.134  0.1042E+01  0.7937E+02
     43.398  0.7122E+00  0.7960E+02
     43.663  0.4284E+00  0.7975E+02
     43.928  0.2847E+00  0.7984E+02
     44.192  0.1942E+00  0.7990E+02
     44.457  0.1186E+00  0.7995E+02
     44.722  0.6236E-01  0.7997E+02
     44.987  0.2297E-01  0.7998E+02
     45.251  0.1963E-01  0.7998E+02
     45.516  0.1652E-01  0.7999E+02
     45.781  0.1363E-01  0.7999E+02
     46.045  0.1097E-01  0.7999E+02
     46.310  0.0000E+00  0.8000E+02
     46.575  0.0000E+00  0.8000E+02
     46.840  0.0000E+00  0.8000E+02
     47.104  0.0000E+00  0.8000E+02
     47.369  0.0000E+00  0.8000E+02
     47.634  0.0000E+00  0.8000E+02
     47.898  0.0000E+00  0.8000E+02
     48.163  0.0000E+00  0.8000E+02
     48.428  0.0000E+00  0.8000E+02
     48.692  0.0000E+00  0.8000E+02
     48.957  0.0000E+00  0.8000E+02
     49.222  0.0000E+00  0.8000E+02
     49.487  0.0000E+00  0.8000E+02
     49.751  0.0000E+00  0.8000E+02
