    2    2    1    1
  0.1798157E+02  0.3300800E-09  0.3300800E-09  0.3300800E-09  0.5000000E-15
  1.000000000000000E-004
  CAR 
 Nb tetrahedron                          
     22     35     40
 
  0.5000000E-01  0.5000000E-01  0.5000000E-01  0.8000000E-02
    1      -25.637048   1.000000
    2      -25.637048   1.000000
    3      -25.588818   1.000000
    4      -24.745768   1.000000
    5      -24.691368   1.000000
    6      -24.691368   1.000000
    7       -0.931819   1.000000
    8        1.193934   1.000000
    9        1.193934   1.000000
   10        5.096216  -0.022541
   11        5.096216  -0.003208
   12        5.346941   0.000000
   13        8.014287   0.000000
   14        8.014287   0.000000
   15        9.590478   0.000000
   16       10.269916   0.000000
   17       10.269916   0.000000
   18       14.445069   0.000000
   19       14.445069   0.000000
   20       14.718335   0.000000
   21       20.506791   0.000000
   22       20.706246   0.000000
   23       20.706246   0.000000
   24       23.827692   0.000000
   25       25.794965   0.000000
   26       25.794965   0.000000
   27       29.697954   0.000000
   28       29.697954   0.000000
   29       30.274597   0.000000
   30       33.308423   0.000000
   31       35.212781   0.000000
   32       35.212781   0.000000
   33       40.234485   0.000000
   34       40.362110   0.000000
   35       40.912606   0.000000
   36       40.912606   0.000000
   37       41.851169   0.000000
   38       41.959472   0.000000
   39       41.959472   0.000000
   40       42.246351   0.000000
 
  0.1500000E+00  0.5000000E-01  0.5000000E-01  0.2400000E-01
    1      -25.666453   1.000000
    2      -25.589473   1.000000
    3      -25.518825   1.000000
    4      -24.864210   1.000000
    5      -24.736057   1.000000
    6      -24.711717   1.000000
    7       -0.531496   1.000000
    8        1.414995   1.000000
    9        1.539905   1.000000
   10        4.955950   0.250644
   11        5.044856  -0.008693
   12        5.655940   0.000000
   13        7.501899   0.000000
   14        8.237535   0.000000
   15        8.474658   0.000000
   16        9.195487   0.000000
   17       10.219823   0.000000
   18       13.439252   0.000000
   19       15.919096   0.000000
   20       15.963038   0.000000
   21       20.891345   0.000000
   22       21.316571   0.000000
   23       21.412963   0.000000
   24       24.115059   0.000000
   25       25.601122   0.000000
   26       26.132699   0.000000
   27       27.088591   0.000000
   28       30.369672   0.000000
   29       30.822612   0.000000
   30       32.311430   0.000000
   31       34.417671   0.000000
   32       37.200498   0.000000
   33       38.576174   0.000000
   34       39.480232   0.000000
   35       39.931551   0.000000
   36       40.506518   0.000000
   37       40.605715   0.000000
   38       41.936330   0.000000
   39       42.117967   0.000000
   40       42.920862   0.000000
 
  0.2500000E+00  0.5000000E-01  0.5000000E-01  0.2400000E-01
    1      -25.673996   1.000000
    2      -25.499261   1.000000
    3      -25.421152   1.000000
    4      -25.041837   1.000000
    5      -24.821496   1.000000
    6      -24.781195   1.000000
    7        0.198366   1.000000
    8        1.849585   1.000000
    9        2.098483   1.000000
   10        4.910957   0.512101
   11        4.981817   0.122282
   12        6.099449  -0.000033
   13        6.667342   0.000000
   14        7.350684   0.000000
   15        8.000036   0.000000
   16        8.621114   0.000000
   17        9.689976   0.000000
   18       12.017655   0.000000
   19       17.765635   0.000000
   20       18.020545   0.000000
   21       21.611848   0.000000
   22       22.154384   0.000000
   23       22.569320   0.000000
   24       22.935073   0.000000
   25       24.579418   0.000000
   26       25.228159   0.000000
   27       28.368210   0.000000
   28       30.956576   0.000000
   29       31.185166   0.000000
   30       31.791003   0.000000
   31       33.486105   0.000000
   32       36.432917   0.000000
   33       37.191490   0.000000
   34       37.571438   0.000000
   35       39.462609   0.000000
   36       40.102946   0.000000
   37       40.677275   0.000000
   38       41.240446   0.000000
   39       42.266697   0.000000
   40       42.933263   0.000000
 
  0.3500000E+00  0.5000000E-01  0.5000000E-01  0.2400000E-01
    1      -25.644669   1.000000
    2      -25.375820   1.000000
    3      -25.298458   1.000000
    4      -25.241901   1.000000
    5      -24.940298   1.000000
    6      -24.887617   1.000000
    7        1.116996   1.000000
    8        2.482528   1.000000
    9        2.575156   1.000000
   10        4.830014   0.922649
   11        5.022452   0.159287
   12        5.874262  -0.001270
   13        6.436514   0.000000
   14        6.683331   0.000000
   15        6.980231   0.000000
   16        8.949964   0.000000
   17        9.046568   0.000000
   18       10.721421   0.000000
   19       19.588672   0.000000
   20       20.252285   0.000000
   21       21.301984   0.000000
   22       21.882559   0.000000
   23       22.396014   0.000000
   24       23.883780   0.000000
   25       24.517038   0.000000
   26       24.723001   0.000000
   27       29.361103   0.000000
   28       30.310844   0.000000
   29       31.274247   0.000000
   30       32.662298   0.000000
   31       34.297045   0.000000
   32       34.370678   0.000000
   33       34.824596   0.000000
   34       37.518168   0.000000
   35       38.219765   0.000000
   36       40.409023   0.000000
   37       40.715910   0.000000
   38       41.246800   0.000000
   39       42.303743   0.000000
   40       42.765039   0.000000
 
  0.4500000E+00  0.5000000E-01  0.5000000E-01  0.2400000E-01
    1      -25.563347   1.000000
    2      -25.425164   1.000000
    3      -25.231631   1.000000
    4      -25.159893   1.000000
    5      -25.081477   1.000000
    6      -25.018279   1.000000
    7        2.008415   1.000000
    8        2.580197   1.000000
    9        3.282482   1.000000
   10        4.169667   1.000000
   11        5.323711  -0.091229
   12        5.770365  -0.008641
   13        5.788805   0.000000
   14        6.218044   0.000000
   15        7.388090   0.000000
   16        8.161629   0.000000
   17        9.411479   0.000000
   18        9.854517   0.000000
   19       19.940210   0.000000
   20       20.147389   0.000000
   21       22.343305   0.000000
   22       22.859656   0.000000
   23       23.032006   0.000000
   24       24.194203   0.000000
   25       24.307637   0.000000
   26       24.506678   0.000000
   27       29.130743   0.000000
   28       29.961715   0.000000
   29       30.945855   0.000000
   30       31.651476   0.000000
   31       34.487348   0.000000
   32       35.022257   0.000000
   33       36.454111   0.000000
   34       37.266005   0.000000
   35       37.483703   0.000000
   36       39.631085   0.000000
   37       39.695848   0.000000
   38       40.581507   0.000000
   39       42.263170   0.000000
   40       42.405824   0.000000
 
  0.1500000E+00  0.1500000E+00  0.5000000E-01  0.2400000E-01
    1      -25.718385   1.000000
    2      -25.563534   1.000000
    3      -25.415026   1.000000
    4      -25.013009   1.000000
    5      -24.770530   1.000000
    6      -24.694212   1.000000
    7       -0.168943   1.000000
    8        1.655351   1.000000
    9        1.841543   1.000000
   10        4.645744   1.008484
   11        4.897765   0.370623
   12        6.179470  -0.002674
   13        7.351123   0.000000
   14        7.592862   0.000000
   15        8.090583   0.000000
   16        8.551790   0.000000
   17       10.405297   0.000000
   18       14.129135   0.000000
   19       15.372008   0.000000
   20       16.701630   0.000000
   21       20.932760   0.000000
   22       21.823751   0.000000
   23       21.907540   0.000000
   24       24.480798   0.000000
   25       25.214237   0.000000
   26       26.685425   0.000000
   27       27.244943   0.000000
   28       28.707782   0.000000
   29       31.191786   0.000000
   30       31.301381   0.000000
   31       34.593053   0.000000
   32       36.904363   0.000000
   33       37.794630   0.000000
   34       39.140286   0.000000
   35       39.613296   0.000000
   36       40.334850   0.000000
   37       41.154965   0.000000
   38       42.159341   0.000000
   39       42.227195   0.000000
   40       42.985007   0.000000
 
  0.2500000E+00  0.1500000E+00  0.5000000E-01  0.4800000E-01
    1      -25.762010   1.000000
    2      -25.480225   1.000000
    3      -25.294403   1.000000
    4      -25.209510   1.000000
    5      -24.847368   1.000000
    6      -24.721869   1.000000
    7        0.473640   1.000000
    8        2.010014   1.000000
    9        2.411909   1.000000
   10        4.424531   1.041116
   11        4.746251   0.924327
   12        6.322046  -0.029975
   13        6.817425   0.000000
   14        7.156631   0.000000
   15        7.561546   0.000000
   16        8.420879   0.000000
   17       10.230208   0.000000
   18       12.930959   0.000000
   19       16.647161   0.000000
   20       18.195794   0.000000
   21       21.038312   0.000000
   22       21.962982   0.000000
   23       23.008881   0.000000
   24       23.373432   0.000000
   25       24.997178   0.000000
   26       25.975961   0.000000
   27       28.786012   0.000000
   28       28.861072   0.000000
   29       30.421390   0.000000
   30       32.047965   0.000000
   31       33.709359   0.000000
   32       35.336562   0.000000
   33       36.828131   0.000000
   34       37.764312   0.000000
   35       39.730312   0.000000
   36       40.587067   0.000000
   37       41.946388   0.000000
   38       41.949839   0.000000
   39       42.458603   0.000000
   40       42.956620   0.000000
 
  0.3500000E+00  0.1500000E+00  0.5000000E-01  0.4800000E-01
    1      -25.763704   1.000000
    2      -25.412366   1.000000
    3      -25.363396   1.000000
    4      -25.163092   1.000000
    5      -24.955914   1.000000
    6      -24.795144   1.000000
    7        1.242176   1.000000
    8        2.388681   1.000000
    9        2.977648   1.000000
   10        4.351339   1.015208
   11        4.608770   0.993684
   12        5.561992  -0.090849
   13        6.635701   0.000000
   14        6.837395   0.000000
   15        7.550922   0.000000
   16        8.896951   0.000000
   17        9.655793   0.000000
   18       11.436559   0.000000
   19       18.137671   0.000000
   20       20.095971   0.000000
   21       20.412883   0.000000
   22       21.819660   0.000000
   23       22.331155   0.000000
   24       24.248997   0.000000
   25       24.766508   0.000000
   26       25.964375   0.000000
   27       27.924284   0.000000
   28       30.255969   0.000000
   29       31.072405   0.000000
   30       32.569807   0.000000
   31       33.849575   0.000000
   32       33.858567   0.000000
   33       35.890550   0.000000
   34       36.912286   0.000000
   35       38.699751   0.000000
   36       40.688493   0.000000
   37       41.317737   0.000000
   38       41.952069   0.000000
   39       42.507493   0.000000
   40       42.997720   0.000000
 
  0.4500000E+00  0.1500000E+00  0.5000000E-01  0.4800000E-01
    1      -25.706883   1.000000
    2      -25.586490   1.000000
    3      -25.227299   1.000000
    4      -25.086737   1.000000
    5      -25.028757   1.000000
    6      -24.901908   1.000000
    7        1.950734   1.000000
    8        2.412996   1.000000
    9        3.508356   1.000000
   10        4.070612   1.000000
   11        4.687043   0.890387
   12        5.046626  -0.024315
   13        6.457511   0.000000
   14        6.540352   0.000000
   15        8.302839   0.000000
   16        8.976879   0.000000
   17        9.390967   0.000000
   18       10.194253   0.000000
   19       18.944535   0.000000
   20       19.437270   0.000000
   21       21.607818   0.000000
   22       21.922039   0.000000
   23       22.698992   0.000000
   24       24.319067   0.000000
   25       24.803358   0.000000
   26       25.357469   0.000000
   27       28.519550   0.000000
   28       30.337617   0.000000
   29       30.372792   0.000000
   30       31.906716   0.000000
   31       34.384501   0.000000
   32       35.033764   0.000000
   33       36.076600   0.000000
   34       37.214914   0.000000
   35       38.031016   0.000000
   36       39.294196   0.000000
   37       40.847505   0.000000
   38       41.000093   0.000000
   39       42.389457   0.000000
   40       42.631296   0.000000
 
  0.2500000E+00  0.2500000E+00  0.5000000E-01  0.2400000E-01
    1      -25.847506   1.000000
    2      -25.417756   1.000000
    3      -25.411758   1.000000
    4      -25.156210   1.000000
    5      -24.905181   1.000000
    6      -24.698879   1.000000
    7        0.905577   1.000000
    8        2.127530   1.000000
    9        3.064922   1.000000
   10        4.020048   1.000000
   11        4.663738   1.007821
   12        5.400816  -0.039615
   13        6.913631   0.000000
   14        7.561673   0.000000
   15        7.710055   0.000000
   16        8.259441   0.000000
   17       10.603981   0.000000
   18       13.230699   0.000000
   19       16.016268   0.000000
   20       18.885474   0.000000
   21       20.296920   0.000000
   22       21.410078   0.000000
   23       22.659373   0.000000
   24       24.041626   0.000000
   25       25.082692   0.000000
   26       27.267647   0.000000
   27       27.557959   0.000000
   28       29.625116   0.000000
   29       29.952913   0.000000
   30       32.490308   0.000000
   31       32.661585   0.000000
   32       34.365445   0.000000
   33       36.693179   0.000000
   34       38.392358   0.000000
   35       40.111570   0.000000
   36       40.788622   0.000000
   37       41.057816   0.000000
   38       42.040816   0.000000
   39       42.200343   0.000000
   40       43.720210   0.000000
 
  0.3500000E+00  0.2500000E+00  0.5000000E-01  0.4800000E-01
    1      -25.889556   1.000000
    2      -25.617315   1.000000
    3      -25.315134   1.000000
    4      -25.021040   1.000000
    5      -24.988532   1.000000
    6      -24.725807   1.000000
    7        1.326673   1.000000
    8        2.120418   1.000000
    9        3.772964   1.000000
   10        3.822408   1.000000
   11        4.721249   0.944430
   12        4.783762   0.436294
   13        6.707111   0.000000
   14        7.455005   0.000000
   15        8.547041   0.000000
   16        8.664555   0.000000
   17       10.391908   0.000000
   18       12.058729   0.000000
   19       16.843489   0.000000
   20       19.460868   0.000000
   21       20.035788   0.000000
   22       20.556961   0.000000
   23       21.573407   0.000000
   24       25.189131   0.000000
   25       25.347349   0.000000
   26       26.482631   0.000000
   27       27.853382   0.000000
   28       30.029463   0.000000
   29       30.746232   0.000000
   30       31.915846   0.000000
   31       33.057766   0.000000
   32       33.711159   0.000000
   33       37.666578   0.000000
   34       37.805086   0.000000
   35       39.469991   0.000000
   36       40.574594   0.000000
   37       41.314509   0.000000
   38       41.568226   0.000000
   39       42.175811   0.000000
   40       42.346678   0.000000
 
  0.4500000E+00  0.2500000E+00  0.5000000E-01  0.4800000E-01
    1      -25.867794   1.000000
    2      -25.774741   1.000000
    3      -25.203908   1.000000
    4      -25.091183   1.000000
    5      -24.897613   1.000000
    6      -24.795624   1.000000
    7        1.665754   1.000000
    8        1.943471   1.000000
    9        3.852970   1.000000
   10        4.053767   1.000000
   11        4.531624   0.915533
   12        4.796626   0.491123
   13        7.002433   0.000000
   14        7.290336   0.000000
   15        9.065005   0.000000
   16        9.588664   0.000000
   17        9.733860   0.000000
   18       10.707813   0.000000
   19       17.798793   0.000000
   20       18.547133   0.000000
   21       20.171270   0.000000
   22       20.243865   0.000000
   23       22.228136   0.000000
   24       24.020703   0.000000
   25       25.891765   0.000000
   26       26.553261   0.000000
   27       28.589426   0.000000
   28       30.022869   0.000000
   29       30.574037   0.000000
   30       31.880090   0.000000
   31       33.064585   0.000000
   32       34.199613   0.000000
   33       37.545795   0.000000
   34       38.377750   0.000000
   35       39.191840   0.000000
   36       39.484395   0.000000
   37       41.725300   0.000000
   38       41.828187   0.000000
   39       42.438489   0.000000
   40       42.450816   0.000000
 
  0.3500000E+00  0.3500000E+00  0.5000000E-01  0.2400000E-01
    1      -25.973581   1.000000
    2      -25.801744   1.000000
    3      -25.248074   1.000000
    4      -25.037453   1.000000
    5      -24.894946   1.000000
    6      -24.703716   1.000000
    7        1.318384   1.000000
    8        1.785257   1.000000
    9        3.480104   1.000000
   10        4.031694   1.000000
   11        4.735541   0.660770
   12        5.417807  -0.101316
   13        6.946515   0.000000
   14        7.962221   0.000000
   15        8.524738   0.000000
   16        9.559910   0.000000
   17       10.584386   0.000000
   18       11.858212   0.000000
   19       16.505883   0.000000
   20       18.670907   0.000000
   21       19.097482   0.000000
   22       19.635794   0.000000
   23       21.123423   0.000000
   24       24.828887   0.000000
   25       26.033422   0.000000
   26       26.835341   0.000000
   27       29.768429   0.000000
   28       29.845789   0.000000
   29       30.519942   0.000000
   30       30.522356   0.000000
   31       32.568908   0.000000
   32       34.883614   0.000000
   33       38.267137   0.000000
   34       39.223133   0.000000
   35       39.434154   0.000000
   36       40.096689   0.000000
   37       40.200415   0.000000
   38       41.956726   0.000000
   39       42.112891   0.000000
   40       42.295662   0.000000
 
  0.4500000E+00  0.3500000E+00  0.5000000E-01  0.4800000E-01
    1      -25.991540   1.000000
    2      -25.932840   1.000000
    3      -25.173393   1.000000
    4      -25.100660   1.000000
    5      -24.794881   1.000000
    6      -24.728643   1.000000
    7        1.345588   1.000000
    8        1.500963   1.000000
    9        3.394485   1.000000
   10        3.582878   1.000000
   11        5.524760  -0.080515
   12        5.837019  -0.085773
   13        7.493408   0.000000
   14        7.927348   0.000000
   15        8.942621   0.000000
   16        9.885866   0.000000
   17       10.444940   0.000000
   18       11.188672   0.000000
   19       17.005883   0.000000
   20       17.781425   0.000000
   21       18.468453   0.000000
   22       18.756081   0.000000
   23       21.962810   0.000000
   24       23.321551   0.000000
   25       26.862074   0.000000
   26       27.845238   0.000000
   27       28.881628   0.000000
   28       29.964379   0.000000
   29       30.945190   0.000000
   30       31.754199   0.000000
   31       32.189592   0.000000
   32       34.539579   0.000000
   33       37.592683   0.000000
   34       38.614095   0.000000
   35       39.420745   0.000000
   36       40.407846   0.000000
   37       41.414911   0.000000
   38       41.714600   0.000000
   39       42.108570   0.000000
   40       42.179992   0.000000
 
  0.4500000E+00  0.4500000E+00  0.5000000E-01  0.2400000E-01
    1      -26.050163   1.000000
    2      -26.030114   1.000000
    3      -25.142936   1.000000
    4      -25.117787   1.000000
    5      -24.729714   1.000000
    6      -24.706734   1.000000
    7        1.177842   1.000000
    8        1.228766   1.000000
    9        3.177590   1.000000
   10        3.241977   1.000000
   11        6.584302  -0.011906
   12        6.807729  -0.000057
   13        7.933889   0.000000
   14        8.154557   0.000000
   15        8.761314   0.000000
   16        9.299621   0.000000
   17       11.116237   0.000000
   18       11.380158   0.000000
   19       16.810262   0.000000
   20       17.167993   0.000000
   21       17.548320   0.000000
   22       17.736508   0.000000
   23       22.052537   0.000000
   24       22.556227   0.000000
   25       27.572568   0.000000
   26       28.152262   0.000000
   27       29.407892   0.000000
   28       29.964532   0.000000
   29       31.249034   0.000000
   30       31.501816   0.000000
   31       33.184276   0.000000
   32       35.015970   0.000000
   33       36.127973   0.000000
   34       37.435390   0.000000
   35       38.884389   0.000000
   36       39.236798   0.000000
   37       42.163575   0.000000
   38       42.168252   0.000000
   39       42.246768   0.000000
   40       42.390241   0.000000
 
  0.1500000E+00  0.1500000E+00  0.1500000E+00  0.8000000E-02
    1      -25.667330   1.000000
    2      -25.667330   1.000000
    3      -25.294498   1.000000
    4      -25.143413   1.000000
    5      -24.743020   1.000000
    6      -24.743020   1.000000
    7        0.181522   1.000000
    8        2.013786   1.000000
    9        2.013786   1.000000
   10        4.512268   1.033967
   11        4.512268   1.094940
   12        6.195704  -0.035055
   13        6.788846   0.000000
   14        7.857827   0.000000
   15        7.857827   0.000000
   16        9.368764   0.000000
   17        9.368764   0.000000
   18       15.564416   0.000000
   19       15.564416   0.000000
   20       15.667809   0.000000
   21       21.329095   0.000000
   22       21.880793   0.000000
   23       21.880793   0.000000
   24       25.069756   0.000000
   25       25.069756   0.000000
   26       26.619064   0.000000
   27       28.363523   0.000000
   28       28.440931   0.000000
   29       28.440931   0.000000
   30       31.818727   0.000000
   31       35.651648   0.000000
   32       36.059333   0.000000
   33       37.128578   0.000000
   34       37.128578   0.000000
   35       40.884124   0.000000
   36       40.884124   0.000000
   37       42.094440   0.000000
   38       42.094440   0.000000
   39       42.158075   0.000000
   40       42.280867   0.000000
 
  0.2500000E+00  0.1500000E+00  0.1500000E+00  0.2400000E-01
    1      -25.748220   1.000000
    2      -25.570399   1.000000
    3      -25.324378   1.000000
    4      -25.169694   1.000000
    5      -24.836238   1.000000
    6      -24.743330   1.000000
    7        0.787161   1.000000
    8        2.342153   1.000000
    9        2.564941   1.000000
   10        4.262627   1.006735
   11        4.300727   1.045074
   12        5.253315   0.099779
   13        7.444975   0.000000
   14        7.554105   0.000000
   15        8.266618   0.000000
   16        8.306441   0.000000
   17        9.572080   0.000000
   18       14.036900   0.000000
   19       16.389452   0.000000
   20       17.418132   0.000000
   21       21.426339   0.000000
   22       21.480059   0.000000
   23       22.618669   0.000000
   24       24.137644   0.000000
   25       24.837897   0.000000
   26       26.599943   0.000000
   27       27.802509   0.000000
   28       28.138754   0.000000
   29       30.388661   0.000000
   30       32.670211   0.000000
   31       34.919323   0.000000
   32       34.972761   0.000000
   33       35.031150   0.000000
   34       38.251706   0.000000
   35       38.299691   0.000000
   36       41.730523   0.000000
   37       42.142910   0.000000
   38       42.271128   0.000000
   39       42.933074   0.000000
   40       43.358458   0.000000
 
  0.3500000E+00  0.1500000E+00  0.1500000E+00  0.2400000E-01
    1      -25.782714   1.000000
    2      -25.508610   1.000000
    3      -25.437373   1.000000
    4      -25.049743   1.000000
    5      -24.965593   1.000000
    6      -24.779888   1.000000
    7        1.471288   1.000000
    8        2.787956   1.000000
    9        2.856735   1.000000
   10        4.047009   1.001378
   11        4.315610   1.022839
   12        4.819989   0.495367
   13        6.999166   0.000000
   14        7.396218   0.000000
   15        8.356700   0.000000
   16        8.826538   0.000000
   17        9.276813   0.000000
   18       12.448976   0.000000
   19       17.442693   0.000000
   20       19.261202   0.000000
   21       20.181297   0.000000
   22       21.483888   0.000000
   23       23.152226   0.000000
   24       23.793379   0.000000
   25       24.636130   0.000000
   26       25.582201   0.000000
   27       27.628818   0.000000
   28       29.476677   0.000000
   29       31.930198   0.000000
   30       33.589156   0.000000
   31       34.127583   0.000000
   32       34.849618   0.000000
   33       35.058263   0.000000
   34       35.477846   0.000000
   35       37.877579   0.000000
   36       41.546339   0.000000
   37       42.084812   0.000000
   38       42.389670   0.000000
   39       42.732362   0.000000
   40       43.851213   0.000000
 
  0.4500000E+00  0.1500000E+00  0.1500000E+00  0.2400000E-01
    1      -25.755043   1.000000
    2      -25.660355   1.000000
    3      -25.281661   1.000000
    4      -25.118937   1.000000
    5      -24.940223   1.000000
    6      -24.847839   1.000000
    7        2.076666   1.000000
    8        2.578600   1.000000
    9        3.279946   1.000000
   10        3.719383   1.000000
   11        4.619473   0.984415
   12        4.822641   0.624173
   13        6.745213   0.000000
   14        6.866882   0.000000
   15        8.772193   0.000000
   16        8.941466   0.000000
   17        9.716449   0.000000
   18       10.980032   0.000000
   19       18.307504   0.000000
   20       19.040463   0.000000
   21       20.688006   0.000000
   22       21.352468   0.000000
   23       23.135767   0.000000
   24       24.202199   0.000000
   25       24.574254   0.000000
   26       24.618820   0.000000
   27       28.494362   0.000000
   28       29.436054   0.000000
   29       31.839287   0.000000
   30       33.086219   0.000000
   31       34.772590   0.000000
   32       35.169835   0.000000
   33       35.712873   0.000000
   34       36.472611   0.000000
   35       36.667610   0.000000
   36       39.459683   0.000000
   37       41.160660   0.000000
   38       41.811627   0.000000
   39       42.798047   0.000000
   40       43.623467   0.000000
 
  0.2500000E+00  0.2500000E+00  0.1500000E+00  0.2400000E-01
    1      -25.790972   1.000000
    2      -25.546247   1.000000
    3      -25.489122   1.000000
    4      -25.048048   1.000000
    5      -24.886210   1.000000
    6      -24.754346   1.000000
    7        1.275330   1.000000
    8        2.542297   1.000000
    9        3.135741   1.000000
   10        3.890627   1.000000
   11        4.162213   1.001345
   12        4.419030   0.822987
   13        7.766609   0.000000
   14        7.910604   0.000000
   15        8.236201   0.000000
   16        8.483452   0.000000
   17        9.599309   0.000000
   18       14.577116   0.000000
   19       15.762362   0.000000
   20       17.687820   0.000000
   21       20.684630   0.000000
   22       21.270061   0.000000
   23       23.057536   0.000000
   24       23.798458   0.000000
   25       24.964142   0.000000
   26       25.078721   0.000000
   27       27.891668   0.000000
   28       29.218926   0.000000
   29       30.803081   0.000000
   30       33.786688   0.000000
   31       34.071168   0.000000
   32       34.498560   0.000000
   33       34.817445   0.000000
   34       38.060350   0.000000
   35       38.431096   0.000000
   36       39.984073   0.000000
   37       42.169959   0.000000
   38       42.275697   0.000000
   39       43.694780   0.000000
   40       44.769576   0.000000
 
  0.3500000E+00  0.2500000E+00  0.1500000E+00  0.4800000E-01
    1      -25.844252   1.000000
    2      -25.652906   1.000000
    3      -25.432589   1.000000
    4      -24.995283   1.000000
    5      -24.943671   1.000000
    6      -24.767216   1.000000
    7        1.701114   1.000000
    8        2.508048   1.000000
    9        3.550170   1.000000
   10        3.692891   1.000000
   11        4.282674   1.011577
   12        4.292574   1.033380
   13        7.436963   0.000000
   14        7.604397   0.000000
   15        8.610511   0.000000
   16        9.453749   0.000000
   17        9.486102   0.000000
   18       13.304042   0.000000
   19       16.443717   0.000000
   20       18.761144   0.000000
   21       19.580795   0.000000
   22       20.496052   0.000000
   23       22.798390   0.000000
   24       23.827332   0.000000
   25       24.350695   0.000000
   26       25.275602   0.000000
   27       28.410543   0.000000
   28       29.461598   0.000000
   29       32.222731   0.000000
   30       32.662393   0.000000
   31       34.374155   0.000000
   32       35.189268   0.000000
   33       35.437702   0.000000
   34       36.860793   0.000000
   35       37.850575   0.000000
   36       40.312738   0.000000
   37       41.945462   0.000000
   38       42.161424   0.000000
   39       42.645751   0.000000
   40       44.221729   0.000000
 
  0.4500000E+00  0.2500000E+00  0.1500000E+00  0.4800000E-01
    1      -25.845281   1.000000
    2      -25.779352   1.000000
    3      -25.287424   1.000000
    4      -25.135265   1.000000
    5      -24.860775   1.000000
    6      -24.801705   1.000000
    7        1.985373   1.000000
    8        2.257546   1.000000
    9        3.566436   1.000000
   10        3.606522   1.000000
   11        4.602642   0.937439
   12        4.641720   0.877057
   13        7.318941   0.000000
   14        7.402133   0.000000
   15        8.904791   0.000000
   16        9.139411   0.000000
   17       10.543290   0.000000
   18       11.841653   0.000000
   19       17.368024   0.000000
   20       18.346414   0.000000
   21       19.660090   0.000000