       N       E                     dE             d eps       ncg     rms          rms(c)
DAV:   1    -0.112813463913E+01   -0.11281E+01   -0.11070E+04  2920   0.408E+02
DAV:   2    -0.222541281053E+02   -0.21126E+02   -0.20682E+02  3560   0.566E+01
DAV:   3    -0.222835596397E+02   -0.29432E-01   -0.29497E-01  3120   0.222E+00
DAV:   4    -0.222835748472E+02   -0.15207E-04   -0.15221E-04  5080   0.487E-02
DAV:   5    -0.222835748473E+02   -0.11823E-09   -0.25696E-10  3160   0.518E-05
DAV:   6    -0.222835748478E+02   -0.50795E-09    0.51598E-13  5040   0.510E-07
   1 F= -.22283575E+02 E0= -.22283575E+02  d E =0.000000E+00
