 vasp.5.4.4.18Apr17-6-g9f103f2a35 (build May 20 2018 16:52:39) complex          
  
 executed on             LinuxIFC date 2022.11.17  22:01:41
 running on   40 total cores
 distrk:  each k-point on   40 cores,    1 groups
 distr:  one band on NCORES_PER_BAND=   1 cores,   40 groups


--------------------------------------------------------------------------------------------------------


 INCAR:
 POTCAR:    PAW Nb_pv 09Jan2002                   

 ----------------------------------------------------------------------------- 
|                                                                             |
|           W    W    AA    RRRRR   N    N  II  N    N   GGGG   !!!           |
|           W    W   A  A   R    R  NN   N  II  NN   N  G    G  !!!           |
|           W    W  A    A  R    R  N N  N  II  N N  N  G       !!!           |
|           W WW W  AAAAAA  RRRRR   N  N N  II  N  N N  G  GGG   !            |
|           WW  WW  A    A  R   R   N   NN  II  N   NN  G    G                |
|           W    W  A    A  R    R  N    N  II  N    N   GGGG   !!!           |
|                                                                             |
|      For optimal performance we recommend to set                            |
|        NCORE= 4 - approx SQRT( number of cores)                             |
|      NCORE specifies how many cores store one orbital (NPAR=cpu/NCORE).     |
|      This setting can  greatly improve the performance of VASP for DFT.     |
|      The default,   NCORE=1            might be grossly inefficient         |
|      on modern multi-core architectures or massively parallel machines.     |
|      Do your own testing !!!!                                               |
|      Unfortunately you need to use the default for GW and RPA calculations. |
|      (for HF NCORE is supported but not extensively tested yet)             |
|                                                                             |
 ----------------------------------------------------------------------------- 

 POTCAR:    PAW Nb_pv 09Jan2002                   
   VRHFIN =Nb: s1d4                                                             
   LEXCH  = CA                                                                  
   EATOM  =  1046.3740 eV,   76.9063 Ry                                         
                                                                                
   TITEL  = PAW Nb_pv 09Jan2002                                                 
   LULTRA =        F    use ultrasoft PP ?                                      
   IUNSCR =        1    unscreen: 0-lin 1-nonlin 2-no                           
   RPACOR =    2.200    partial core radius                                     
   POMASS =   92.910; ZVAL   =   11.000    mass and valenz                      
   RCORE  =    2.750    outmost cutoff radius                                   
   RWIGS  =    2.840; RWIGS  =    1.503    wigner-seitz radius (au A)           
   ENMAX  =  207.263; ENMIN  =  155.447 eV                                      
   RCLOC  =    2.209    cutoff for local pot                                    
   LCOR   =        T    correct aug charges                                     
   LPAW   =        T    paw PP                                                  
   EAUG   =  352.745                                                            
   DEXC   =    0.000                                                            
   RMAX   =    2.814    core radius for proj-oper                               
   RAUG   =    1.300    factor for augmentation sphere                          
   RDEP   =    2.785    radius for radial grids                                 
   RDEPT  =    2.205    core radius for aug-charge                              
                                                                                
   Atomic configuration                                                         
   11 entries                                                                   
     n  l   j            E        occ.                                          
     1  0  0.50    -18704.9804   2.0000                                         
     2  0  0.50     -2619.6337   2.0000                                         
     2  1  1.50     -2343.2033   6.0000                                         
     3  0  0.50      -436.6391   2.0000                                         
     3  1  1.50      -345.9106   6.0000                                         
     3  2  2.50      -196.5794  10.0000                                         
     4  0  0.50       -58.2950   2.0000                                         
     4  1  1.50       -34.5590   6.0000                                         
     4  2  2.50        -3.2208   4.0000                                         
     5  0  0.50        -4.1880   1.0000                                         
     4  3  2.50        -1.3606   0.0000                                         
   Description                                                                  
     l       E           TYP  RCUT    TYP  RCUT                                 
     1    -34.5590103     23  2.600                                             
     1     -1.3605826     23  2.600                                             
     2     -3.2207521     23  2.600                                             
     2     -1.6263194     23  2.600                                             
     0     -4.1879630     23  2.750                                             
     0     20.4087390     23  2.750                                             
  local pseudopotential read in
  partial core-charges read in
  partial kinetic energy density read in
  atomic valenz-charges read in
  non local Contribution for L=           1  read in
    real space projection operators read in
  non local Contribution for L=           1  read in
    real space projection operators read in
  non local Contribution for L=           2  read in
    real space projection operators read in
  non local Contribution for L=           2  read in
    real space projection operators read in
  non local Contribution for L=           0  read in
    real space projection operators read in
  non local Contribution for L=           0  read in
    real space projection operators read in
    PAW grid and wavefunctions read in
 
   number of l-projection  operators is LMAX  =           6
   number of lm-projection operators is LMMAX =          18
 
  PAW Nb_pv 09Jan2002                   :
 energy of atom  1       EATOM=-1046.3740
 kinetic energy error for atom=    0.0109 (will be added to EATOM!!)
 
 
 POSCAR: sic2 Nb                                 
  positions in direct lattice
  No initial velocities read in
 exchange correlation table for  LEXCH =        2
   RHO(1)=    0.500       N(1)  =     2000
   RHO(2)=  100.500       N(2)  =     4000
 


--------------------------------------------------------------------------------------------------------


 ion  position               nearest neighbor table
   1  0.000  0.000  0.000-   2 2.86   2 2.86   2 2.86   2 2.86   2 2.86   2 2.86   2 2.86   2 2.86

   2  0.500  0.500  0.500-   1 2.86   1 2.86   1 2.86   1 2.86   1 2.86   1 2.86   1 2.86   1 2.86

 
  LATTYP: Found a simple cubic cell.
 ALAT       =     3.3008000000
  
  Lattice vectors:
  
 A1 = (   3.3008000000,   0.0000000000,   0.0000000000)
 A2 = (   0.0000000000,   3.3008000000,   0.0000000000)
 A3 = (   0.0000000000,   0.0000000000,   3.3008000000)


Analysis of symmetry for initial positions (statically):
=====================================================================
 Subroutine PRICEL returns following result:
 
  LATTYP: Found a body centered cubic cell.
 ALAT       =     3.3008000000
  
  Lattice vectors:
  
 A1 = (   1.6504000000,   1.6504000000,   1.6504000000)
 A2 = (   1.6504000000,  -1.6504000000,  -1.6504000000)
 A3 = (  -1.6504000000,   1.6504000000,  -1.6504000000)
 
   2 primitive cells build up your supercell.
 

 Routine SETGRP: Setting up the symmetry group for a 
 simple cubic supercell.


 Subroutine GETGRP returns: Found 48 space group operations
 (whereof 48 operations were pure point group operations)
 out of a pool of 48 trial point group operations.


The static configuration has the point symmetry O_h .


Analysis of symmetry for dynamics (positions and initial velocities):
=====================================================================
 Subroutine PRICEL returns following result:
 
  LATTYP: Found a body centered cubic cell.
 ALAT       =     3.3008000000
  
  Lattice vectors:
  
 A1 = (   1.6504000000,   1.6504000000,   1.6504000000)
 A2 = (   1.6504000000,  -1.6504000000,  -1.6504000000)
 A3 = (  -1.6504000000,   1.6504000000,  -1.6504000000)
 
   2 primitive cells build up your supercell.
 

 Routine SETGRP: Setting up the symmetry group for a 
 simple cubic supercell.


 Subroutine GETGRP returns: Found 48 space group operations
 (whereof 48 operations were pure point group operations)
 out of a pool of 48 trial point group operations.


The dynamic configuration has the point symmetry O_h .


 Subroutine INISYM returns: Found 48 space group operations
 (whereof 48 operations are pure point group operations),
 and found     2 'primitive' translations

 
 
 KPOINTS: 10*10*10                                

Automatic generation of k-mesh.
Space group operators:
 irot       det(A)        alpha          n_x          n_y          n_z        tau_x        tau_y        tau_z
    1     1.000000     0.000000     1.000000     0.000000     0.000000     0.000000     0.000000     0.000000
    2    -1.000000     0.000000     1.000000     0.000000     0.000000     0.000000     0.000000     0.000000
    3     1.000000   120.000000    -0.577350    -0.577350    -0.577350     0.000000     0.000000     0.000000
    4    -1.000000   120.000000    -0.577350    -0.577350    -0.577350     0.000000     0.000000     0.000000
    5     1.000000   120.000000     0.577350     0.577350     0.577350     0.000000     0.000000     0.000000
    6    -1.000000   120.000000     0.577350     0.577350     0.577350     0.000000     0.000000     0.000000
    7     1.000000    90.000000     0.000000     0.000000    -1.000000     0.000000     0.000000     0.000000
    8    -1.000000    90.000000     0.000000     0.000000    -1.000000     0.000000     0.000000     0.000000
    9     1.000000   180.000000     0.000000     0.707107     0.707107     0.000000     0.000000     0.000000
   10    -1.000000   180.000000     0.000000     0.707107     0.707107     0.000000     0.000000     0.000000
   11     1.000000    90.000000     0.000000     1.000000     0.000000     0.000000     0.000000     0.000000
   12    -1.000000    90.000000     0.000000     1.000000     0.000000     0.000000     0.000000     0.000000
   13     1.000000   180.000000     0.000000     0.000000     1.000000     0.000000     0.000000     0.000000
   14    -1.000000   180.000000     0.000000     0.000000     1.000000     0.000000     0.000000     0.000000
   15     1.000000   120.000000    -0.577350     0.577350     0.577350     0.000000     0.000000     0.000000
   16    -1.000000   120.000000    -0.577350     0.577350     0.577350     0.000000     0.000000     0.000000
   17     1.000000   120.000000    -0.577350     0.577350    -0.577350     0.000000     0.000000     0.000000
   18    -1.000000   120.000000    -0.577350     0.577350    -0.577350     0.000000     0.000000     0.000000
   19     1.000000    90.000000     0.000000     0.000000     1.000000     0.000000     0.000000     0.000000
   20    -1.000000    90.000000     0.000000     0.000000     1.000000     0.000000     0.000000     0.000000
   21     1.000000    90.000000    -1.000000     0.000000     0.000000     0.000000     0.000000     0.000000
   22    -1.000000    90.000000    -1.000000     0.000000     0.000000     0.000000     0.000000     0.000000
   23     1.000000   180.000000     0.707107     0.000000     0.707107     0.000000     0.000000     0.000000
   24    -1.000000   180.000000     0.707107     0.000000     0.707107     0.000000     0.000000     0.000000
   25     1.000000   120.000000     0.577350    -0.577350     0.577350     0.000000     0.000000     0.000000
   26    -1.000000   120.000000     0.577350    -0.577350     0.577350     0.000000     0.000000     0.000000
   27     1.000000   120.000000    -0.577350    -0.577350     0.577350     0.000000     0.000000     0.000000
   28    -1.000000   120.000000    -0.577350    -0.577350     0.577350     0.000000     0.000000     0.000000
   29     1.000000   180.000000     1.000000     0.000000     0.000000     0.000000     0.000000     0.000000
   30    -1.000000   180.000000     1.000000     0.000000     0.000000     0.000000     0.000000     0.000000
   31     1.000000    90.000000     0.000000    -1.000000     0.000000     0.000000     0.000000     0.000000
   32    -1.000000    90.000000     0.000000    -1.000000     0.000000     0.000000     0.000000     0.000000
   33     1.000000   180.000000     0.707107     0.707107     0.000000     0.000000     0.000000     0.000000
   34    -1.000000   180.000000     0.707107     0.707107     0.000000     0.000000     0.000000     0.000000
   35     1.000000    90.000000     1.000000     0.000000     0.000000     0.000000     0.000000     0.000000
   36    -1.000000    90.000000     1.000000     0.000000     0.000000     0.000000     0.000000     0.000000
   37     1.000000   120.000000     0.577350    -0.577350    -0.577350     0.000000     0.000000     0.000000
   38    -1.000000   120.000000     0.577350    -0.577350    -0.577350     0.000000     0.000000     0.000000
   39     1.000000   180.000000     0.000000     1.000000     0.000000     0.000000     0.000000     0.000000
   40    -1.000000   180.000000     0.000000     1.000000     0.000000     0.000000     0.000000     0.000000
   41     1.000000   120.000000     0.577350     0.577350    -0.577350     0.000000     0.000000     0.000000
   42    -1.000000   120.000000     0.577350     0.577350    -0.577350     0.000000     0.000000     0.000000
   43     1.000000   180.000000     0.000000    -0.707107     0.707107     0.000000     0.000000     0.000000
   44    -1.000000   180.000000     0.000000    -0.707107     0.707107     0.000000     0.000000     0.000000
   45     1.000000   180.000000     0.707107    -0.707107     0.000000     0.000000     0.000000     0.000000
   46    -1.000000   180.000000     0.707107    -0.707107     0.000000     0.000000     0.000000     0.000000
   47     1.000000   180.000000     0.707107     0.000000    -0.707107     0.000000     0.000000     0.000000
   48    -1.000000   180.000000     0.707107     0.000000    -0.707107     0.000000     0.000000     0.000000
 
 Subroutine IBZKPT returns following result:
 ===========================================
 
 Found     35 irreducible k-points:
 
 Following reciprocal coordinates:
            Coordinates               Weight
  0.050000  0.050000  0.050000      8.000000
  0.150000  0.050000  0.050000     24.000000
  0.250000  0.050000  0.050000     24.000000
  0.350000  0.050000  0.050000     24.000000
  0.450000  0.050000  0.050000     24.000000
  0.150000  0.150000  0.050000     24.000000
  0.250000  0.150000  0.050000     48.000000
  0.350000  0.150000  0.050000     48.000000
  0.450000  0.150000  0.050000     48.000000
  0.250000  0.250000  0.050000     24.000000
  0.350000  0.250000  0.050000     48.000000
  0.450000  0.250000  0.050000     48.000000
  0.350000  0.350000  0.050000     24.000000
  0.450000  0.350000  0.050000     48.000000
  0.450000  0.450000  0.050000     24.000000
  0.150000  0.150000  0.150000      8.000000
  0.250000  0.150000  0.150000     24.000000
  0.350000  0.150000  0.150000     24.000000
  0.450000  0.150000  0.150000     24.000000
  0.250000  0.250000  0.150000     24.000000
  0.350000  0.250000  0.150000     48.000000
  0.450000  0.250000  0.150000     48.000000
  0.350000  0.350000  0.150000     24.000000
  0.450000  0.350000  0.150000     48.000000
  0.450000  0.450000  0.150000     24.000000
  0.250000  0.250000  0.250000      8.000000
  0.350000  0.250000  0.250000     24.000000
  0.450000  0.250000  0.250000     24.000000
  0.350000  0.350000  0.250000     24.000000
  0.450000  0.350000  0.250000     48.000000
  0.450000  0.450000  0.250000     24.000000
  0.350000  0.350000  0.350000      8.000000
  0.450000  0.350000  0.350000     24.000000
  0.450000  0.450000  0.350000     24.000000
  0.450000  0.450000  0.450000      8.000000
 
 Following cartesian coordinates:
            Coordinates               Weight
  0.050000  0.050000  0.050000      8.000000
  0.150000  0.050000  0.050000     24.000000
  0.250000  0.050000  0.050000     24.000000
  0.350000  0.050000  0.050000     24.000000
  0.450000  0.050000  0.050000     24.000000
  0.150000  0.150000  0.050000     24.000000
  0.250000  0.150000  0.050000     48.000000
  0.350000  0.150000  0.050000     48.000000
  0.450000  0.150000  0.050000     48.000000
  0.250000  0.250000  0.050000     24.000000
  0.350000  0.250000  0.050000     48.000000
  0.450000  0.250000  0.050000     48.000000
  0.350000  0.350000  0.050000     24.000000
  0.450000  0.350000  0.050000     48.000000
  0.450000  0.450000  0.050000     24.000000
  0.150000  0.150000  0.150000      8.000000
  0.250000  0.150000  0.150000     24.000000
  0.350000  0.150000  0.150000     24.000000
  0.450000  0.150000  0.150000     24.000000
  0.250000  0.250000  0.150000     24.000000
  0.350000  0.250000  0.150000     48.000000
  0.450000  0.250000  0.150000     48.000000
  0.350000  0.350000  0.150000     24.000000
  0.450000  0.350000  0.150000     48.000000
  0.450000  0.450000  0.150000     24.000000
  0.250000  0.250000  0.250000      8.000000
  0.350000  0.250000  0.250000     24.000000
  0.450000  0.250000  0.250000     24.000000
  0.350000  0.350000  0.250000     24.000000
  0.450000  0.350000  0.250000     48.000000
  0.450000  0.450000  0.250000     24.000000
  0.350000  0.350000  0.350000      8.000000
  0.450000  0.350000  0.350000     24.000000
  0.450000  0.450000  0.350000     24.000000
  0.450000  0.450000  0.450000      8.000000
 
 TETIRR: Found    466 inequivalent tetrahedra from     6000


--------------------------------------------------------------------------------------------------------




 Dimension of arrays:
   k-points           NKPTS =     35   k-points in BZ     NKDIM =     35   number of bands    NBANDS=     40
   number of dos      NEDOS =    301   number of ions     NIONS =      2
   non local maximal  LDIM  =      6   non local SUM 2l+1 LMDIM =     18
   total plane-waves  NPLWV =   2744
   max r-space proj   IRMAX =      1   max aug-charges    IRDMAX=   4943
   dimension x,y,z NGX =    14 NGY =   14 NGZ =   14
   dimension x,y,z NGXF=    28 NGYF=   28 NGZF=   28
   support grid    NGXF=    28 NGYF=   28 NGZF=   28
   ions per type =               2
   NGX,Y,Z   is equivalent  to a cutoff of   7.05,  7.05,  7.05 a.u.
   NGXF,Y,Z  is equivalent  to a cutoff of  14.10, 14.10, 14.10 a.u.

 SYSTEM =  Nb tetrahedron                          
 POSCAR =  sic2 Nb                                 

 Startparameter for this run:
   NWRITE =      2    write-flag & timer
   PREC   = normal    normal or accurate (medium, high low for compatibility)
   ISTART =      0    job   : 0-new  1-cont  2-samecut
   ICHARG =     11    charge: 1-file 2-atom 10-const
   ISPIN  =      1    spin polarized calculation?
   LNONCOLLINEAR =      F non collinear calculations
   LSORBIT =      F    spin-orbit coupling
   INIWAV =      1    electr: 0-lowe 1-rand  2-diag
   LASPH  =      F    aspherical Exc in radial PAW
   METAGGA=      F    non-selfconsistent MetaGGA calc.

 Electronic Relaxation 1
   ENCUT  =  300.0 eV  22.05 Ry    4.70 a.u.   4.66  4.66  4.66*2*pi/ulx,y,z
   ENINI  =  300.0     initial cutoff
   ENAUG  =  352.7 eV  augmentation charge cutoff
   NELM   =     60;   NELMIN=  2; NELMDL= -5     # of ELM steps 
   EDIFF  = 0.1E-06   stopping-criterion for ELM
   LREAL  =      F    real-space projection
   NLSPLINE    = F    spline interpolate recip. space projectors
   LCOMPAT=      F    compatible to vasp.4.4
   GGA_COMPAT  = T    GGA compatible to vasp.4.4-vasp.4.6
   LMAXPAW     = -100 max onsite density
   LMAXMIX     =    2 max onsite mixed and CHGCAR
   VOSKOWN=      0    Vosko Wilk Nusair interpolation
   ROPT   =    0.00000
 Ionic relaxation
   EDIFFG = 0.1E-05   stopping-criterion for IOM
   NSW    =      0    number of steps for IOM
   NBLOCK =      1;   KBLOCK =      1    inner block; outer block 
   IBRION =     -1    ionic relax: 0-MD 1-quasi-New 2-CG
   NFREE  =      0    steps in history (QN), initial steepest desc. (CG)
   ISIF   =      2    stress and relaxation
   IWAVPR =     10    prediction:  0-non 1-charg 2-wave 3-comb
   ISYM   =      2    0-nonsym 1-usesym 2-fastsym
   LCORR  =      T    Harris-Foulkes like correction to forces

   POTIM  = 0.5000    time-step for ionic-motion
   TEIN   =    0.0    initial temperature
   TEBEG  =    0.0;   TEEND  =   0.0 temperature during run
   SMASS  =  -3.00    Nose mass-parameter (am)
   estimated Nose-frequenzy (Omega)   =  0.10E-29 period in steps =****** mass=  -0.249E-27a.u.
   SCALEE = 1.0000    scale energy and forces
   NPACO  =    256;   APACO  = 16.0  distance and # of slots for P.C.
   PSTRESS=    0.0 pullay stress

  Mass of Ions in am
   POMASS =  92.91
  Ionic Valenz
   ZVAL   =  11.00
  Atomic Wigner-Seitz radii
   RWIGS  =  -1.00
  virtual crystal weights 
   VCA    =   1.00
   NELECT =      22.0000    total number of electrons
   NUPDOWN=      -1.0000    fix difference up-down

 DOS related values:
   EMIN   =  10.00;   EMAX   =-10.00  energy-range for DOS
   EFERMI =   0.00
   ISMEAR =    -5;   SIGMA  =   0.20  broadening in eV -4-tet -1-fermi 0-gaus

 Electronic relaxation 2 (details)
   IALGO  =     38    algorithm
   LDIAG  =      T    sub-space diagonalisation (order eigenvalues)
   LSUBROT=      F    optimize rotation matrix (better conditioning)
   TURBO    =      0    0=normal 1=particle mesh
   IRESTART =      0    0=no restart 2=restart with 2 vectors
   NREBOOT  =      0    no. of reboots
   NMIN     =      0    reboot dimension
   EREF     =   0.00    reference energy to select bands
   IMIX   =      4    mixing-type and parameters
     AMIX     =   0.40;   BMIX     =  1.00
     AMIX_MAG =   1.60;   BMIX_MAG =  1.00
     AMIN     =   0.10
     WC   =   100.;   INIMIX=   1;  MIXPRE=   1;  MAXMIX= -45

 Intra band minimization:
   WEIMIN = 0.0000     energy-eigenvalue tresh-hold
   EBREAK =  0.63E-09  absolut break condition
   DEPER  =   0.30     relativ break condition  

   TIME   =   0.40     timestep for ELM

  volume/ion in A,a.u.               =      17.98       121.35
  Fermi-wavevector in a.u.,A,eV,Ry     =   1.389728  2.626205 26.277534  1.931344
  Thomas-Fermi vector in A             =   2.513731
 
 Write flags
   LWAVE        =      T    write WAVECAR
   LDOWNSAMPLE  =      F    k-point downsampling of WAVECAR
   LCHARG       =      F    write CHGCAR
   LVTOT        =      F    write LOCPOT, total local potential
   LVHAR        =      F    write LOCPOT, Hartree potential only
   LELF         =      F    write electronic localiz. function (ELF)
   LORBIT       =      0    0 simple, 1 ext, 2 COOP (PROOUT), +10 PAW based schemes


 Dipole corrections
   LMONO  =      F    monopole corrections only (constant potential shift)
   LDIPOL =      F    correct potential (dipole corrections)
   IDIPOL =      0    1-x, 2-y, 3-z, 4-all directions 
   EPSILON=  1.0000000 bulk dielectric constant

 Exchange correlation treatment:
   GGA     =    --    GGA type
   LEXCH   =     2    internal setting for exchange type
   VOSKOWN=      0    Vosko Wilk Nusair interpolation
   LHFCALC =     F    Hartree Fock is set to
   LHFONE  =     F    Hartree Fock one center treatment
   AEXX    =    0.0000 exact exchange contribution

 Linear response parameters
   LEPSILON=     F    determine dielectric tensor
   LRPA    =     F    only Hartree local field effects (RPA)
   LNABLA  =     F    use nabla operator in PAW spheres
   LVEL    =     F    velocity operator in full k-point grid
   LINTERFAST=   F  fast interpolation
   KINTER  =     0    interpolate to denser k-point grid
   CSHIFT  =0.1000    complex shift for real part using Kramers Kronig
   OMEGAMAX=  -1.0    maximum frequency
   DEG_THRESHOLD= 0.2000000E-02 threshold for treating states as degnerate
   RTIME   =   -0.100 relaxation time in fs
  (WPLASMAI=    0.000 imaginary part of plasma frequency in eV, 0.658/RTIME)
   DFIELD  = 0.0000000 0.0000000 0.0000000 field for delta impulse in time
 
 Orbital magnetization related:
   ORBITALMAG=     F  switch on orbital magnetization
   LCHIMAG   =     F  perturbation theory with respect to B field
   DQ        =  0.001000  dq finite difference perturbation B field
   LLRAUG    =     F  two centre corrections for induced B field



--------------------------------------------------------------------------------------------------------


 Static calculation
 charge density and potential remain constant during run
 non-spin polarized calculation
 Variant of blocked Davidson
 Davidson routine will perform the subspace rotation
 perform sub-space diagonalisation
    after iterative eigenvector-optimisation
 no mixing
 using additional bands           29
 reciprocal scheme for non local part
 use partial core corrections
 calculate Harris-corrections to forces 
   (improved forces if not selfconsistent)
 use of overlap-Matrix (Vanderbilt PP)
 Fermi weights with tetrahedron method with Bloechl corrections


--------------------------------------------------------------------------------------------------------


  energy-cutoff  :      300.00
  volume of cell :       35.96
      direct lattice vectors                 reciprocal lattice vectors
     3.300800000  0.000000000  0.000000000     0.302956859  0.000000000  0.000000000
     0.000000000  3.300800000  0.000000000     0.000000000  0.302956859  0.000000000
     0.000000000  0.000000000  3.300800000     0.000000000  0.000000000  0.302956859

  length of vectors
     3.300800000  3.300800000  3.300800000     0.302956859  0.302956859  0.302956859


 
 k-points in units of 2pi/SCALE and weight: 10*10*10                                
   0.05000000  0.05000000  0.05000000       0.008
   0.15000000  0.05000000  0.05000000       0.024
   0.25000000  0.05000000  0.05000000       0.024
   0.35000000  0.05000000  0.05000000       0.024
   0.45000000  0.05000000  0.05000000       0.024
   0.15000000  0.15000000  0.05000000       0.024
   0.25000000  0.15000000  0.05000000       0.048
   0.35000000  0.15000000  0.05000000       0.048
   0.45000000  0.15000000  0.05000000       0.048
   0.25000000  0.25000000  0.05000000       0.024
   0.35000000  0.25000000  0.05000000       0.048
   0.45000000  0.25000000  0.05000000       0.048
   0.35000000  0.35000000  0.05000000       0.024
   0.45000000  0.35000000  0.05000000       0.048
   0.45000000  0.45000000  0.05000000       0.024
   0.15000000  0.15000000  0.15000000       0.008
   0.25000000  0.15000000  0.15000000       0.024
   0.35000000  0.15000000  0.15000000       0.024
   0.45000000  0.15000000  0.15000000       0.024
   0.25000000  0.25000000  0.15000000       0.024
   0.35000000  0.25000000  0.15000000       0.048
   0.45000000  0.25000000  0.15000000       0.048
   0.35000000  0.35000000  0.15000000       0.024
   0.45000000  0.35000000  0.15000000       0.048
   0.45000000  0.45000000  0.15000000       0.024
   0.25000000  0.25000000  0.25000000       0.008
   0.35000000  0.25000000  0.25000000       0.024
   0.45000000  0.25000000  0.25000000       0.024
   0.35000000  0.35000000  0.25000000       0.024
   0.45000000  0.35000000  0.25000000       0.048
   0.45000000  0.45000000  0.25000000       0.024
   0.35000000  0.35000000  0.35000000       0.008
   0.45000000  0.35000000  0.35000000       0.024
   0.45000000  0.45000000  0.35000000       0.024
   0.45000000  0.45000000  0.45000000       0.008
 
 k-points in reciprocal lattice and weights: 10*10*10                                
   0.05000000  0.05000000  0.05000000       0.008
   0.15000000  0.05000000  0.05000000       0.024
   0.25000000  0.05000000  0.05000000       0.024
   0.35000000  0.05000000  0.05000000       0.024
   0.45000000  0.05000000  0.05000000       0.024
   0.15000000  0.15000000  0.05000000       0.024
   0.25000000  0.15000000  0.05000000       0.048
   0.35000000  0.15000000  0.05000000       0.048
   0.45000000  0.15000000  0.05000000       0.048
   0.25000000  0.25000000  0.05000000       0.024
   0.35000000  0.25000000  0.05000000       0.048
   0.45000000  0.25000000  0.05000000       0.048
   0.35000000  0.35000000  0.05000000       0.024
   0.45000000  0.35000000  0.05000000       0.048
   0.45000000  0.45000000  0.05000000       0.024
   0.15000000  0.15000000  0.15000000       0.008
   0.25000000  0.15000000  0.15000000       0.024
   0.35000000  0.15000000  0.15000000       0.024
   0.45000000  0.15000000  0.15000000       0.024
   0.25000000  0.25000000  0.15000000       0.024
   0.35000000  0.25000000  0.15000000       0.048
   0.45000000  0.25000000  0.15000000       0.048
   0.35000000  0.35000000  0.15000000       0.024
   0.45000000  0.35000000  0.15000000       0.048
   0.45000000  0.45000000  0.15000000       0.024
   0.25000000  0.25000000  0.25000000       0.008
   0.35000000  0.25000000  0.25000000       0.024
   0.45000000  0.25000000  0.25000000       0.024
   0.35000000  0.35000000  0.25000000       0.024
   0.45000000  0.35000000  0.25000000       0.048
   0.45000000  0.45000000  0.25000000       0.024
   0.35000000  0.35000000  0.35000000       0.008
   0.45000000  0.35000000  0.35000000       0.024
   0.45000000  0.45000000  0.35000000       0.024
   0.45000000  0.45000000  0.45000000       0.008
 
 position of ions in fractional coordinates (direct lattice) 
   0.00000000  0.00000000  0.00000000
   0.50000000  0.50000000  0.50000000
 
 position of ions in cartesian coordinates  (Angst):
   0.00000000  0.00000000  0.00000000
   1.65040000  1.65040000  1.65040000
 


--------------------------------------------------------------------------------------------------------


 k-point  1 :   0.0500 0.0500 0.0500  plane waves:     443
 k-point  2 :   0.1500 0.0500 0.0500  plane waves:     434
 k-point  3 :   0.2500 0.0500 0.0500  plane waves:     428
 k-point  4 :   0.3500 0.0500 0.0500  plane waves:     428
 k-point  5 :   0.4500 0.0500 0.0500  plane waves:     423
 k-point  6 :   0.1500 0.1500 0.0500  plane waves:     425
 k-point  7 :   0.2500 0.1500 0.0500  plane waves:     429
 k-point  8 :   0.3500 0.1500 0.0500  plane waves:     425
 k-point  9 :   0.4500 0.1500 0.0500  plane waves:     429
 k-point 10 :   0.2500 0.2500 0.0500  plane waves:     422
 k-point 11 :   0.3500 0.2500 0.0500  plane waves:     421
 k-point 12 :   0.4500 0.2500 0.0500  plane waves:     426
 k-point 13 :   0.3500 0.3500 0.0500  plane waves:     417
 k-point 14 :   0.4500 0.3500 0.0500  plane waves:     421
 k-point 15 :   0.4500 0.4500 0.0500  plane waves:     415
 k-point 16 :   0.1500 0.1500 0.1500  plane waves:     428
 k-point 17 :   0.2500 0.1500 0.1500  plane waves:     424
 k-point 18 :   0.3500 0.1500 0.1500  plane waves:     426
 k-point 19 :   0.4500 0.1500 0.1500  plane waves:     424
 k-point 20 :   0.2500 0.2500 0.1500  plane waves:     420
 k-point 21 :   0.3500 0.2500 0.1500  plane waves:     422
 k-point 22 :   0.4500 0.2500 0.1500  plane waves:     427
 k-point 23 :   0.3500 0.3500 0.1500  plane waves:     421
 k-point 24 :   0.4500 0.3500 0.1500  plane waves:     420
 k-point 25 :   0.4500 0.4500 0.1500  plane waves:     421
 k-point 26 :   0.2500 0.2500 0.2500  plane waves:     431
 k-point 27 :   0.3500 0.2500 0.2500  plane waves:     424
 k-point 28 :   0.4500 0.2500 0.2500  plane waves:     429
 k-point 29 :   0.3500 0.3500 0.2500  plane waves:     424
 k-point 30 :   0.4500 0.3500 0.2500  plane waves:     423
 k-point 31 :   0.4500 0.4500 0.2500  plane waves:     424
 k-point 32 :   0.3500 0.3500 0.3500  plane waves:     420
 k-point 33 :   0.4500 0.3500 0.3500  plane waves:     424
 k-point 34 :   0.4500 0.4500 0.3500  plane waves:     428
 k-point 35 :   0.4500 0.4500 0.4500  plane waves:     432

 maximum and minimum number of plane-waves per node :       443      415

 maximum number of plane-waves:       443
 maximum index in each direction: 
   IXMAX=    4   IYMAX=    4   IZMAX=    4
   IXMIN=   -5   IYMIN=   -5   IZMIN=   -5


 serial   3D FFT for wavefunctions
 parallel 3D FFT for charge:
    minimum data exchange during FFTs selected (reduces bandwidth)


 total amount of memory used by VASP MPI-rank0    32985. kBytes
=======================================================================

   base      :      30000. kBytes
   nonl-proj :       2434. kBytes
   fftplans  :         79. kBytes
   grid      :        150. kBytes
   one-center:         31. kBytes
   wavefun   :        291. kBytes
 
     INWAV:  cpu time    0.0000: real time    0.0002
 initial charge density was supplied:
 number of electron      22.0000104 magnetization 
 keeping initial charge density in first step


--------------------------------------------------------------------------------------------------------


 Maximum index for augmentation-charges          341 (set IRDMAX)


--------------------------------------------------------------------------------------------------------


 First call to EWALD:  gamma=   0.537
 Maximum number of real-space cells 3x 3x 3
 Maximum number of reciprocal cells 3x 3x 3

    FEWALD:  cpu time    0.0017: real time    0.0024


--------------------------------------- Iteration      1(   1)  ---------------------------------------


    POTLOK:  cpu time    0.0135: real time    0.0208
    SETDIJ:  cpu time    0.0058: real time    0.0086
     EDDAV:  cpu time    0.3496: real time    0.3684
 BZINTS: Fermi energy:  6.564519; 22.000000 electrons
         Band energy:-251.613046;  BLOECHL correction: -0.135956
       DOS:  cpu time    0.0327: real time    0.0371
    --------------------------------------------
      LOOP:  cpu time    0.4016: real time    0.4349

 eigenvalue-minimisations  :  2920
 total energy-change (2. order) :-0.1128135E+01  (-0.1106952E+04)
 number of electron      22.0000104 magnetization 
 augmentation part       22.0000104 magnetization 

 Free energy of the ion-electron system (eV)
  ---------------------------------------------------
  alpha Z        PSCENC =       249.60523850
  Ewald energy   TEWEN  =     -1921.02116984
  -Hartree energ DENC   =      -240.38184034
  -exchange      EXHF   =         0.00000000
  -V(xc)+E(xc)   XCENC  =        52.88081842
  PAW double counting   =      3000.05323067    -2983.37764464
  entropy T*S    EENTRO =         0.00000000
  eigenvalues    EBANDS =      -251.61304590
  atomic energy  EATOM  =      2092.72627849
  Solvation  Ediel_sol  =         0.00000000
  ---------------------------------------------------
  free energy    TOTEN  =        -1.12813464 eV

  energy without entropy =       -1.12813464  energy(sigma->0) =       -1.12813464


--------------------------------------------------------------------------------------------------------




--------------------------------------- Iteration      1(   2)  ---------------------------------------


     EDDAV:  cpu time    0.4676: real time    0.4727
 BZINTS: Fermi energy:  4.854190; 22.000000 electrons
         Band energy:-272.739039;  BLOECHL correction: -0.127438
       DOS:  cpu time    0.0337: real time    0.0338
    --------------------------------------------
      LOOP:  cpu time    0.5013: real time    0.5064

 eigenvalue-minimisations  :  3560
 total energy-change (2. order) :-0.2112599E+02  (-0.2068194E+02)
 number of electron      22.0000104 magnetization 
 augmentation part       22.0000104 magnetization 

 Free energy of the ion-electron system (eV)
  ---------------------------------------------------
  alpha Z        PSCENC =       249.60523850
  Ewald energy   TEWEN  =     -1921.02116984
  -Hartree energ DENC   =      -240.38184034
  -exchange      EXHF   =         0.00000000
  -V(xc)+E(xc)   XCENC  =        52.88081842
  PAW double counting   =      3000.05323067    -2983.37764464
  entropy T*S    EENTRO =         0.00000000
  eigenvalues    EBANDS =      -272.73903936
  atomic energy  EATOM  =      2092.72627849
  Solvation  Ediel_sol  =         0.00000000
  ---------------------------------------------------
  free energy    TOTEN  =       -22.25412811 eV

  energy without entropy =      -22.25412811  energy(sigma->0) =      -22.25412811


--------------------------------------------------------------------------------------------------------




--------------------------------------- Iteration      1(   3)  ---------------------------------------


     EDDAV:  cpu time    0.3933: real time    0.3996
 BZINTS: Fermi energy:  4.851002; 22.000000 electrons
         Band energy:-272.768471;  BLOECHL correction: -0.127227
       DOS:  cpu time    0.0329: real time    0.0329
    --------------------------------------------
      LOOP:  cpu time    0.4262: real time    0.4325

 eigenvalue-minimisations  :  3120
 total energy-change (2. order) :-0.2943153E-01  (-0.2949712E-01)
 number of electron      22.0000104 magnetization 
 augmentation part       22.0000104 magnetization 

 Free energy of the ion-electron system (eV)
  ---------------------------------------------------
  alpha Z        PSCENC =       249.60523850
  Ewald energy   TEWEN  =     -1921.02116984
  -Hartree energ DENC   =      -240.38184034
  -exchange      EXHF   =         0.00000000
  -V(xc)+E(xc)   XCENC  =        52.88081842
  PAW double counting   =      3000.05323067    -2983.37764464
  entropy T*S    EENTRO =         0.00000000
  eigenvalues    EBANDS =      -272.76847090
  atomic energy  EATOM  =      2092.72627849
  Solvation  Ediel_sol  =         0.00000000
  ---------------------------------------------------
  free energy    TOTEN  =       -22.28355964 eV

  energy without entropy =      -22.28355964  energy(sigma->0) =      -22.28355964


--------------------------------------------------------------------------------------------------------




--------------------------------------- Iteration      1(   4)  ---------------------------------------


     EDDAV:  cpu time    0.9562: real time    0.9672
 BZINTS: Fermi energy:  4.851001; 22.000000 electrons
         Band energy:-272.768486;  BLOECHL correction: -0.127227
       DOS:  cpu time    0.0320: real time    0.0321
    --------------------------------------------
      LOOP:  cpu time    0.9883: real time    0.9993

 eigenvalue-minimisations  :  5080
 total energy-change (2. order) :-0.1520749E-04  (-0.1522145E-04)
 number of electron      22.0000104 magnetization 
 augmentation part       22.0000104 magnetization 

 Free energy of the ion-electron system (eV)
  ---------------------------------------------------
  alpha Z        PSCENC =       249.60523850
  Ewald energy   TEWEN  =     -1921.02116984
  -Hartree energ DENC   =      -240.38184034
  -exchange      EXHF   =         0.00000000
  -V(xc)+E(xc)   XCENC  =        52.88081842
  PAW double counting   =      3000.05323067    -2983.37764464
  entropy T*S    EENTRO =         0.00000000
  eigenvalues    EBANDS =      -272.76848610
  atomic energy  EATOM  =      2092.72627849
  Solvation  Ediel_sol  =         0.00000000
  ---------------------------------------------------
  free energy    TOTEN  =       -22.28357485 eV

  energy without entropy =      -22.28357485  energy(sigma->0) =      -22.28357485


--------------------------------------------------------------------------------------------------------




--------------------------------------- Iteration      1(   5)  ---------------------------------------


     EDDAV:  cpu time    0.4076: real time    0.4124
 BZINTS: Fermi energy:  4.851001; 22.000000 electrons
         Band energy:-272.768486;  BLOECHL correction: -0.127227
       DOS:  cpu time    0.0313: real time    0.0313
    --------------------------------------------
      LOOP:  cpu time    0.4389: real time    0.4437

 eigenvalue-minimisations  :  3160
 total energy-change (2. order) :-0.1182343E-09  (-0.2569607E-10)
 number of electron      22.0000104 magnetization 
 augmentation part       22.0000104 magnetization 

 Free energy of the ion-electron system (eV)
  ---------------------------------------------------
  alpha Z        PSCENC =       249.60523850
  Ewald energy   TEWEN  =     -1921.02116984
  -Hartree energ DENC   =      -240.38184034
  -exchange      EXHF   =         0.00000000
  -V(xc)+E(xc)   XCENC  =        52.88081842
  PAW double counting   =      3000.05323067    -2983.37764464
  entropy T*S    EENTRO =         0.00000000
  eigenvalues    EBANDS =      -272.76848610
  atomic energy  EATOM  =      2092.72627849
  Solvation  Ediel_sol  =         0.00000000
  ---------------------------------------------------
  free energy    TOTEN  =       -22.28357485 eV

  energy without entropy =      -22.28357485  energy(sigma->0) =      -22.28357485


--------------------------------------------------------------------------------------------------------




--------------------------------------- Iteration      1(   6)  ---------------------------------------


     EDDAV:  cpu time    0.9102: real time    0.9176
 BZINTS: Fermi energy:  4.851001; 22.000000 electrons
         Band energy:-272.768486;  BLOECHL correction: -0.127227
       DOS:  cpu time    0.0328: real time    0.0329
    --------------------------------------------
      LOOP:  cpu time    0.9430: real time    0.9505

 eigenvalue-minimisations  :  5040
 total energy-change (2. order) :-0.5079528E-09  ( 0.5159756E-13)
 number of electron      22.0000104 magnetization 
 augmentation part       22.0000104 magnetization 

 Free energy of the ion-electron system (eV)
  ---------------------------------------------------
  alpha Z        PSCENC =       249.60523850
  Ewald energy   TEWEN  =     -1921.02116984
  -Hartree energ DENC   =      -240.38184034
  -exchange      EXHF   =         0.00000000
  -V(xc)+E(xc)   XCENC  =        52.88081842
  PAW double counting   =      3000.05323067    -2983.37764464
  entropy T*S    EENTRO =         0.00000000
  eigenvalues    EBANDS =      -272.76848610
  atomic energy  EATOM  =      2092.72627849
  Solvation  Ediel_sol  =         0.00000000
  ---------------------------------------------------
  free energy    TOTEN  =       -22.28357485 eV

  energy without entropy =      -22.28357485  energy(sigma->0) =      -22.28357485


--------------------------------------------------------------------------------------------------------




 average (electrostatic) potential at core
  the test charge radii are     1.2165
  (the norm of the test charge is              1.0000)
       1 -34.8991       2 -34.8991
 
 
 
 E-fermi :   4.8510     XC(G=0): -12.6470     alpha+bet :-12.9149


 k-point     1 :       0.0500    0.0500    0.0500
  band No.  band energies     occupation 
      1     -25.6370      2.00000
      2     -25.6370      2.00000
      3     -25.5888      2.00000
      4     -24.7458      2.00000
      5     -24.6914      2.00000
      6     -24.6914      2.00000
      7      -0.9318      2.00000
      8       1.1939      2.00000
      9       1.1939      2.00000
     10       5.0962     -0.04508
     11       5.0962     -0.00642
     12       5.3469      0.00000
     13       8.0143      0.00000
     14       8.0143      0.00000
     15       9.5905      0.00000
     16      10.2699      0.00000
     17      10.2699      0.00000
     18      14.4451      0.00000
     19      14.4451      0.00000
     20      14.7183      0.00000
     21      20.5068      0.00000
     22      20.7062      0.00000
     23      20.7062      0.00000
     24      23.8277      0.00000
     25      25.7950      0.00000
     26      25.7950      0.00000
     27      29.6980      0.00000
     28      29.6980      0.00000
     29      30.2746      0.00000
     30      33.3084      0.00000
     31      35.2128      0.00000
     32      35.2128      0.00000
     33      40.2345      0.00000
     34      40.3621      0.00000
     35      40.9126      0.00000
     36      40.9126      0.00000
     37      41.8512      0.00000
     38      41.9595      0.00000
     39      41.9595      0.00000
     40      42.2464      0.00000

 k-point     2 :       0.1500    0.0500    0.0500
  band No.  band energies     occupation 
      1     -25.6665      2.00000
      2     -25.5895      2.00000
      3     -25.5188      2.00000
      4     -24.8642      2.00000
      5     -24.7361      2.00000
      6     -24.7117      2.00000
      7      -0.5315      2.00000
      8       1.4150      2.00000
      9       1.5399      2.00000
     10       4.9559      0.50129
     11       5.0449     -0.01739
     12       5.6559      0.00000
     13       7.5019      0.00000
     14       8.2375      0.00000
     15       8.4747      0.00000
     16       9.1955      0.00000
     17      10.2198      0.00000
     18      13.4393      0.00000
     19      15.9191      0.00000
     20      15.9630      0.00000
     21      20.8913      0.00000
     22      21.3166      0.00000
     23      21.4130      0.00000
     24      24.1151      0.00000
     25      25.6011      0.00000
     26      26.1327      0.00000
     27      27.0886      0.00000
     28      30.3697      0.00000
     29      30.8226      0.00000
     30      32.3114      0.00000
     31      34.4177      0.00000
     32      37.2005      0.00000
     33      38.5762      0.00000
     34      39.4802      0.00000
     35      39.9316      0.00000
     36      40.5065      0.00000
     37      40.6057      0.00000
     38      41.9363      0.00000
     39      42.1180      0.00000
     40      42.9209      0.00000

 k-point     3 :       0.2500    0.0500    0.0500
  band No.  band energies     occupation 
      1     -25.6740      2.00000
      2     -25.4993      2.00000
      3     -25.4212      2.00000
      4     -25.0418      2.00000
      5     -24.8215      2.00000
      6     -24.7812      2.00000
      7       0.1984      2.00000
      8       1.8496      2.00000
      9       2.0985      2.00000
     10       4.9110      1.02420
     11       4.9818      0.24456
     12       6.0994     -0.00007
     13       6.6673      0.00000
     14       7.3507      0.00000
     15       8.0000      0.00000
     16       8.6211      0.00000
     17       9.6900      0.00000
     18      12.0177      0.00000
     19      17.7656      0.00000
     20      18.0205      0.00000
     21      21.6118      0.00000
     22      22.1544      0.00000
     23      22.5693      0.00000
     24      22.9351      0.00000
     25      24.5794      0.00000
     26      25.2282      0.00000
     27      28.3682      0.00000
     28      30.9566      0.00000
     29      31.1852      0.00000
     30      31.7910      0.00000
     31      33.4861      0.00000
     32      36.4329      0.00000
     33      37.1915      0.00000
     34      37.5714      0.00000
     35      39.4626      0.00000
     36      40.1029      0.00000
     37      40.6773      0.00000
     38      41.2404      0.00000
     39      42.2667      0.00000
     40      42.9333      0.00000

 k-point     4 :       0.3500    0.0500    0.0500
  band No.  band energies     occupation 
      1     -25.6447      2.00000
      2     -25.3758      2.00000
      3     -25.2985      2.00000
      4     -25.2419      2.00000
      5     -24.9403      2.00000
      6     -24.8876      2.00000
      7       1.1170      2.00000
      8       2.4825      2.00000
      9       2.5752      2.00000
     10       4.8300      1.84530
     11       5.0225      0.31857
     12       5.8743     -0.00254
     13       6.4365      0.00000
     14       6.6833      0.00000
     15       6.9802      0.00000
     16       8.9500      0.00000
     17       9.0466      0.00000
     18      10.7214      0.00000
     19      19.5887      0.00000
     20      20.2523      0.00000
     21      21.3020      0.00000
     22      21.8826      0.00000
     23      22.3960      0.00000
     24      23.8838      0.00000
     25      24.5170      0.00000
     26      24.7230      0.00000
     27      29.3611      0.00000
     28      30.3108      0.00000
     29      31.2742      0.00000
     30      32.6623      0.00000
     31      34.2970      0.00000
     32      34.3707      0.00000
     33      34.8246      0.00000
     34      37.5182      0.00000
     35      38.2198      0.00000
     36      40.4090      0.00000
     37      40.7159      0.00000
     38      41.2468      0.00000
     39      42.3037      0.00000
     40      42.7650      0.00000

 k-point     5 :       0.4500    0.0500    0.0500
  band No.  band energies     occupation 
      1     -25.5633      2.00000
      2     -25.4252      2.00000
      3     -25.2316      2.00000
      4     -25.1599      2.00000
      5     -25.0815      2.00000
      6     -25.0183      2.00000
      7       2.0084      2.00000
      8       2.5802      2.00000
      9       3.2825      2.00000
     10       4.1697      2.00000
     11       5.3237     -0.18246
     12       5.7704     -0.01728
     13       5.7888      0.00000
     14       6.2180      0.00000
     15       7.3881      0.00000
     16       8.1616      0.00000
     17       9.4115      0.00000
     18       9.8545      0.00000
     19      19.9402      0.00000
     20      20.1474      0.00000
     21      22.3433      0.00000
     22      22.8597      0.00000
     23      23.0320      0.00000
     24      24.1942      0.00000
     25      24.3076      0.00000
     26      24.5067      0.00000
     27      29.1307      0.00000
     28      29.9617      0.00000
     29      30.9459      0.00000
     30      31.6515      0.00000
     31      34.4873      0.00000
     32      35.0223      0.00000
     33      36.4541      0.00000
     34      37.2660      0.00000
     35      37.4837      0.00000
     36      39.6311      0.00000
     37      39.6958      0.00000
     38      40.5815      0.00000
     39      42.2632      0.00000
     40      42.4058      0.00000

 k-point     6 :       0.1500    0.1500    0.0500
  band No.  band energies     occupation 
      1     -25.7184      2.00000
      2     -25.5635      2.00000
      3     -25.4150      2.00000
      4     -25.0130      2.00000
      5     -24.7705      2.00000
      6     -24.6942      2.00000
      7      -0.1689      2.00000
      8       1.6554      2.00000
      9       1.8415      2.00000
     10       4.6457      2.01697
     11       4.8978      0.74125
     12       6.1795     -0.00535
     13       7.3511      0.00000
     14       7.5929      0.00000
     15       8.0906      0.00000
     16       8.5518      0.00000
     17      10.4053      0.00000
     18      14.1291      0.00000
     19      15.3720      0.00000
     20      16.7016      0.00000
     21      20.9328      0.00000
     22      21.8238      0.00000
     23      21.9075      0.00000
     24      24.4808      0.00000
     25      25.2142      0.00000
     26      26.6854      0.00000
     27      27.2449      0.00000
     28      28.7078      0.00000
     29      31.1918      0.00000
     30      31.3014      0.00000
     31      34.5931      0.00000
     32      36.9044      0.00000
     33      37.7946      0.00000
     34      39.1403      0.00000
     35      39.6133      0.00000
     36      40.3348      0.00000
     37      41.1550      0.00000
     38      42.1593      0.00000
     39      42.2272      0.00000
     40      42.9850      0.00000

 k-point     7 :       0.2500    0.1500    0.0500
  band No.  band energies     occupation 
      1     -25.7620      2.00000
      2     -25.4802      2.00000
      3     -25.2944      2.00000
      4     -25.2095      2.00000
      5     -24.8474      2.00000
      6     -24.7219      2.00000
      7       0.4736      2.00000
      8       2.0100      2.00000
      9       2.4119      2.00000
     10       4.4245      2.08223
     11       4.7463      1.84865
     12       6.3220     -0.05995
     13       6.8174      0.00000
     14       7.1566      0.00000
     15       7.5615      0.00000
     16       8.4209      0.00000
     17      10.2302      0.00000
     18      12.9310      0.00000
     19      16.6472      0.00000
     20      18.1958      0.00000
     21      21.0383      0.00000
     22      21.9630      0.00000
     23      23.0089      0.00000
     24      23.3734      0.00000
     25      24.9972      0.00000
     26      25.9760      0.00000
     27      28.7860      0.00000
     28      28.8611      0.00000
     29      30.4214      0.00000
     30      32.0480      0.00000
     31      33.7094      0.00000
     32      35.3366      0.00000
     33      36.8281      0.00000
     34      37.7643      0.00000
     35      39.7303      0.00000
     36      40.5871      0.00000
     37      41.9464      0.00000
     38      41.9498      0.00000
     39      42.4586      0.00000
     40      42.9566      0.00000

 k-point     8 :       0.3500    0.1500    0.0500
  band No.  band energies     occupation 
      1     -25.7637      2.00000
      2     -25.4124      2.00000
      3     -25.3634      2.00000
      4     -25.1631      2.00000
      5     -24.9559      2.00000
      6     -24.7951      2.00000
      7       1.2422      2.00000
      8       2.3887      2.00000
      9       2.9776      2.00000
     10       4.3513      2.03042
     11       4.6088      1.98737
     12       5.5620     -0.18170
     13       6.6357      0.00000
     14       6.8374      0.00000
     15       7.5509      0.00000
     16       8.8970      0.00000
     17       9.6558      0.00000
     18      11.4366      0.00000
     19      18.1377      0.00000
     20      20.0960      0.00000
     21      20.4129      0.00000
     22      21.8197      0.00000
     23      22.3312      0.00000
     24      24.2490      0.00000
     25      24.7665      0.00000
     26      25.9644      0.00000
     27      27.9243      0.00000
     28      30.2560      0.00000
     29      31.0724      0.00000
     30      32.5698      0.00000
     31      33.8496      0.00000
     32      33.8586      0.00000
     33      35.8906      0.00000
     34      36.9123      0.00000
     35      38.6998      0.00000
     36      40.6885      0.00000
     37      41.3177      0.00000
     38      41.9521      0.00000
     39      42.5075      0.00000
     40      42.9977      0.00000

 k-point     9 :       0.4500    0.1500    0.0500
  band No.  band energies     occupation 
      1     -25.7069      2.00000
      2     -25.5865      2.00000
      3     -25.2273      2.00000
      4     -25.0867      2.00000
      5     -25.0288      2.00000
      6     -24.9019      2.00000
      7       1.9507      2.00000
      8       2.4130      2.00000
      9       3.5084      2.00000
     10       4.0706      2.00000
     11       4.6870      1.78077
     12       5.0466     -0.04863
     13       6.4575      0.00000
     14       6.5404      0.00000
     15       8.3028      0.00000
     16       8.9769      0.00000
     17       9.3910      0.00000
     18      10.1943      0.00000
     19      18.9445      0.00000
     20      19.4373      0.00000
     21      21.6078      0.00000
     22      21.9220      0.00000
     23      22.6990      0.00000
     24      24.3191      0.00000
     25      24.8034      0.00000
     26      25.3575      0.00000
     27      28.5195      0.00000
     28      30.3376      0.00000
     29      30.3728      0.00000
     30      31.9067      0.00000
     31      34.3845      0.00000
     32      35.0338      0.00000
     33      36.0766      0.00000
     34      37.2149      0.00000
     35      38.0310      0.00000
     36      39.2942      0.00000
     37      40.8475      0.00000
     38      41.0001      0.00000
     39      42.3895      0.00000
     40      42.6313      0.00000

 k-point    10 :       0.2500    0.2500    0.0500
  band No.  band energies     occupation 
      1     -25.8475      2.00000
      2     -25.4178      2.00000
      3     -25.4118      2.00000
      4     -25.1562      2.00000
      5     -24.9052      2.00000
      6     -24.6989      2.00000
      7       0.9056      2.00000
      8       2.1275      2.00000
      9       3.0649      2.00000
     10       4.0200      2.00000
     11       4.6637      2.01564
     12       5.4008     -0.07923
     13       6.9136      0.00000
     14       7.5617      0.00000
     15       7.7101      0.00000
     16       8.2594      0.00000
     17      10.6040      0.00000
     18      13.2307      0.00000
     19      16.0163      0.00000
     20      18.8855      0.00000
     21      20.2969      0.00000
     22      21.4101      0.00000
     23      22.6594      0.00000
     24      24.0416      0.00000
     25      25.0827      0.00000
     26      27.2676      0.00000
     27      27.5580      0.00000
     28      29.6251      0.00000
     29      29.9529      0.00000
     30      32.4903      0.00000
     31      32.6616      0.00000
     32      34.3654      0.00000
     33      36.6932      0.00000
     34      38.3924      0.00000
     35      40.1116      0.00000
     36      40.7886      0.00000
     37      41.0578      0.00000
     38      42.0408      0.00000
     39      42.2003      0.00000
     40      43.7202      0.00000

 k-point    11 :       0.3500    0.2500    0.0500
  band No.  band energies     occupation 
      1     -25.8896      2.00000
      2     -25.6173      2.00000
      3     -25.3151      2.00000
      4     -25.0210      2.00000
      5     -24.9885      2.00000
      6     -24.7258      2.00000
      7       1.3267      2.00000
      8       2.1204      2.00000
      9       3.7730      2.00000
     10       3.8224      2.00000
     11       4.7212      1.88886
     12       4.7838      0.87259
     13       6.7071      0.00000
     14       7.4550      0.00000
     15       8.5470      0.00000
     16       8.6646      0.00000
     17      10.3919      0.00000
     18      12.0587      0.00000
     19      16.8435      0.00000
     20      19.4609      0.00000
     21      20.0358      0.00000
     22      20.5570      0.00000
     23      21.5734      0.00000
     24      25.1891      0.00000
     25      25.3473      0.00000
     26      26.4826      0.00000
     27      27.8534      0.00000
     28      30.0295      0.00000
     29      30.7462      0.00000
     30      31.9158      0.00000
     31      33.0578      0.00000
     32      33.7112      0.00000
     33      37.6666      0.00000
     34      37.8051      0.00000
     35      39.4700      0.00000
     36      40.5746      0.00000
     37      41.3145      0.00000
     38      41.5682      0.00000
     39      42.1758      0.00000
     40      42.3467      0.00000

 k-point    12 :       0.4500    0.2500    0.0500
  band No.  band energies     occupation 
      1     -25.8678      2.00000
      2     -25.7747      2.00000
      3     -25.2039      2.00000
      4     -25.0912      2.00000
      5     -24.8976      2.00000
      6     -24.7956      2.00000
      7       1.6658      2.00000
      8       1.9435      2.00000
      9       3.8530      2.00000
     10       4.0538      2.00000
     11       4.5316      1.83107
     12       4.7966      0.98225
     13       7.0024      0.00000
     14       7.2903      0.00000
     15       9.0650      0.00000
     16       9.5887      0.00000
     17       9.7339      0.00000
     18      10.7078      0.00000
     19      17.7988      0.00000
     20      18.5471      0.00000
     21      20.1713      0.00000
     22      20.2439      0.00000
     23      22.2281      0.00000
     24      24.0207      0.00000
     25      25.8918      0.00000
     26      26.5533      0.00000
     27      28.5894      0.00000
     28      30.0229      0.00000
     29      30.5740      0.00000
     30      31.8801      0.00000
     31      33.0646      0.00000
     32      34.1996      0.00000
     33      37.5458      0.00000
     34      38.3777      0.00000
     35      39.1918      0.00000
     36      39.4844      0.00000
     37      41.7253      0.00000
     38      41.8282      0.00000
     39      42.4385      0.00000
     40      42.4508      0.00000

 k-point    13 :       0.3500    0.3500    0.0500
  band No.  band energies     occupation 
      1     -25.9736      2.00000
      2     -25.8017      2.00000
      3     -25.2481      2.00000
      4     -25.0375      2.00000
      5     -24.8949      2.00000
      6     -24.7037      2.00000
      7       1.3184      2.00000
      8       1.7853      2.00000
      9       3.4801      2.00000
     10       4.0317      2.00000
     11       4.7355      1.32154
     12       5.4178     -0.20263
     13       6.9465      0.00000
     14       7.9622      0.00000
     15       8.5247      0.00000
     16       9.5599      0.00000
     17      10.5844      0.00000
     18      11.8582      0.00000
     19      16.5059      0.00000
     20      18.6709      0.00000
     21      19.0975      0.00000
     22      19.6358      0.00000
     23      21.1234      0.00000
     24      24.8289      0.00000
     25      26.0334      0.00000
     26      26.8353      0.00000
     27      29.7684      0.00000
     28      29.8458      0.00000
     29      30.5199      0.00000
     30      30.5224      0.00000
     31      32.5689      0.00000
     32      34.8836      0.00000
     33      38.2671      0.00000
     34      39.2231      0.00000
     35      39.4342      0.00000
     36      40.0967      0.00000
     37      40.2004      0.00000
     38      41.9567      0.00000
     39      42.1129      0.00000
     40      42.2957      0.00000

 k-point    14 :       0.4500    0.3500    0.0500
  band No.  band energies     occupation 
      1     -25.9915      2.00000
      2     -25.9328      2.00000
      3     -25.1734      2.00000
      4     -25.1007      2.00000
      5     -24.7949      2.00000
      6     -24.7286      2.00000
      7       1.3456      2.00000
      8       1.5010      2.00000
      9       3.3945      2.00000
     10       3.5829      2.00000
     11       5.5248     -0.16103
     12       5.8370     -0.17155
     13       7.4934      0.00000
     14       7.9273      0.00000
     15       8.9426      0.00000
     16       9.8859      0.00000
     17      10.4449      0.00000
     18      11.1887      0.00000
     19      17.0059      0.00000
     20      17.7814      0.00000
     21      18.4685      0.00000
     22      18.7561      0.00000
     23      21.9628      0.00000
     24      23.3216      0.00000
     25      26.8621      0.00000
     26      27.8452      0.00000
     27      28.8816      0.00000
     28      29.9644      0.00000
     29      30.9452      0.00000
     30      31.7542      0.00000
     31      32.1896      0.00000
     32      34.5396      0.00000
     33      37.5927      0.00000
     34      38.6141      0.00000
     35      39.4207      0.00000
     36      40.4078      0.00000
     37      41.4149      0.00000
     38      41.7146      0.00000
     39      42.1086      0.00000
     40      42.1800      0.00000

 k-point    15 :       0.4500    0.4500    0.0500
  band No.  band energies     occupation 
      1     -26.0502      2.00000
      2     -26.0301      2.00000
      3     -25.1429      2.00000
      4     -25.1178      2.00000
      5     -24.7297      2.00000
      6     -24.7067      2.00000
      7       1.1778      2.00000
      8       1.2288      2.00000
      9       3.1776      2.00000
     10       3.2420      2.00000
     11       6.5843     -0.02381
     12       6.8077     -0.00011
     13       7.9339      0.00000
     14       8.1546      0.00000
     15       8.7613      0.00000
     16       9.2996      0.00000
     17      11.1162      0.00000
     18      11.3802      0.00000
     19      16.8103      0.00000
     20      17.1680      0.00000
     21      17.5483      0.00000
     22      17.7365      0.00000
     23      22.0525      0.00000
     24      22.5562      0.00000
     25      27.5726      0.00000
     26      28.1523      0.00000
     27      29.4079      0.00000
     28      29.9645      0.00000
     29      31.2490      0.00000
     30      31.5018      0.00000
     31      33.1843      0.00000
     32      35.0160      0.00000
     33      36.1280      0.00000
     34      37.4354      0.00000
     35      38.8844      0.00000
     36      39.2368      0.00000
     37      42.1636      0.00000
     38      42.1683      0.00000
     39      42.2468      0.00000
     40      42.3902      0.00000

 k-point    16 :       0.1500    0.1500    0.1500
  band No.  band energies     occupation 
      1     -25.6673      2.00000
      2     -25.6673      2.00000
      3     -25.2945      2.00000
      4     -25.1434      2.00000
      5     -24.7430      2.00000
      6     -24.7430      2.00000
      7       0.1815      2.00000
      8       2.0138      2.00000
      9       2.0138      2.00000
     10       4.5123      2.06793
     11       4.5123      2.18988
     12       6.1957     -0.07011
     13       6.7888      0.00000
     14       7.8578      0.00000
     15       7.8578      0.00000
     16       9.3688      0.00000
     17       9.3688      0.00000
     18      15.5644      0.00000
     19      15.5644      0.00000
     20      15.6678      0.00000
     21      21.3291      0.00000
     22      21.8808      0.00000
     23      21.8808      0.00000
     24      25.0698      0.00000
     25      25.0698      0.00000
     26      26.6191      0.00000
     27      28.3635      0.00000
     28      28.4409      0.00000
     29      28.4409      0.00000
     30      31.8187      0.00000
     31      35.6516      0.00000
     32      36.0593      0.00000
     33      37.1286      0.00000
     34      37.1286      0.00000
     35      40.8841      0.00000
     36      40.8841      0.00000
     37      42.0944      0.00000
     38      42.0944      0.00000
     39      42.1581      0.00000
     40      42.2809      0.00000

 k-point    17 :       0.2500    0.1500    0.1500
  band No.  band energies     occupation 
      1     -25.7482      2.00000
      2     -25.5704      2.00000
      3     -25.3244      2.00000
      4     -25.1697      2.00000
      5     -24.8362      2.00000
      6     -24.7433      2.00000
      7       0.7872      2.00000
      8       2.3422      2.00000
      9       2.5649      2.00000
     10       4.2626      2.01347
     11       4.3007      2.09015
     12       5.2533      0.19956
     13       7.4450      0.00000
     14       7.5541      0.00000
     15       8.2666      0.00000
     16       8.3064      0.00000
     17       9.5721      0.00000
     18      14.0369      0.00000
     19      16.3895      0.00000
     20      17.4181      0.00000
     21      21.4263      0.00000
     22      21.4801      0.00000
     23      22.6187      0.00000
     24      24.1376      0.00000
     25      24.8379      0.00000
     26      26.5999      0.00000
     27      27.8025      0.00000
     28      28.1388      0.00000
     29      30.3887      0.00000
     30      32.6702      0.00000
     31      34.9193      0.00000
     32      34.9728      0.00000
     33      35.0312      0.00000
     34      38.2517      0.00000
     35      38.2997      0.00000
     36      41.7305      0.00000
     37      42.1429      0.00000
     38      42.2711      0.00000
     39      42.9331      0.00000
     40      43.3585      0.00000

 k-point    18 :       0.3500    0.1500    0.1500
  band No.  band energies     occupation 
      1     -25.7827      2.00000
      2     -25.5086      2.00000
      3     -25.4374      2.00000
      4     -25.0497      2.00000
      5     -24.9656      2.00000
      6     -24.7799      2.00000
      7       1.4713      2.00000
      8       2.7880      2.00000
      9       2.8567      2.00000
     10       4.0470      2.00276
     11       4.3156      2.04568
     12       4.8200      0.99073
     13       6.9992      0.00000
     14       7.3962      0.00000
     15       8.3567      0.00000
     16       8.8265      0.00000
     17       9.2768      0.00000
     18      12.4490      0.00000
     19      17.4427      0.00000
     20      19.2612      0.00000
     21      20.1813      0.00000
     22      21.4839      0.00000
     23      23.1522      0.00000
     24      23.7934      0.00000
     25      24.6361      0.00000
     26      25.5822      0.00000
     27      27.6288      0.00000
     28      29.4767      0.00000
     29      31.9302      0.00000
     30      33.5892      0.00000
     31      34.1276      0.00000
     32      34.8496      0.00000
     33      35.0583      0.00000
     34      35.4778      0.00000
     35      37.8776      0.00000
     36      41.5463      0.00000
     37      42.0848      0.00000
     38      42.3897      0.00000
     39      42.7324      0.00000
     40      43.8512      0.00000

 k-point    19 :       0.4500    0.1500    0.1500
  band No.  band energies     occupation 
      1     -25.7550      2.00000
      2     -25.6604      2.00000
      3     -25.2817      2.00000
      4     -25.1189      2.00000
      5     -24.9402      2.00000
      6     -24.8478      2.00000
      7       2.0767      2.00000
      8       2.5786      2.00000
      9       3.2799      2.00000
     10       3.7194      2.00000
     11       4.6195      1.96883
     12       4.8226      1.24835
     13       6.7452      0.00000
     14       6.8669      0.00000
     15       8.7722      0.00000
     16       8.9415      0.00000
     17       9.7164      0.00000
     18      10.9800      0.00000
     19      18.3075      0.00000
     20      19.0405      0.00000
     21      20.6880      0.00000
     22      21.3525      0.00000
     23      23.1358      0.00000
     24      24.2022      0.00000
     25      24.5743      0.00000
     26      24.6188      0.00000
     27      28.4944      0.00000
     28      29.4361      0.00000
     29      31.8393      0.00000
     30      33.0862      0.00000
     31      34.7726      0.00000
     32      35.1698      0.00000
     33      35.7129      0.00000
     34      36.4726      0.00000
     35      36.6676      0.00000
     36      39.4597      0.00000
     37      41.1607      0.00000
     38      41.8116      0.00000
     39      42.7980      0.00000
     40      43.6235      0.00000

 k-point    20 :       0.2500    0.2500    0.1500
  band No.  band energies     occupation 
      1     -25.7910      2.00000
      2     -25.5462      2.00000
      3     -25.4891      2.00000
      4     -25.0480      2.00000
      5     -24.8862      2.00000
      6     -24.7543      2.00000
      7       1.2753      2.00000
      8       2.5423      2.00000
      9       3.1357      2.00000
     10       3.8906      2.00000
     11       4.1622      2.00269
     12       4.4190      1.64597
     13       7.7666      0.00000
     14       7.9106      0.00000
     15       8.2362      0.00000
     16       8.4835      0.00000
     17       9.5993      0.00000
     18      14.5771      0.00000
     19      15.7624      0.00000
     20      17.6878      0.00000
     21      20.6846      0.00000
     22      21.2701      0.00000
     23      23.0575      0.00000
     24      23.7985      0.00000
     25      24.9641      0.00000
     26      25.0787      0.00000
     27      27.8917      0.00000
     28      29.2189      0.00000
     29      30.8031      0.00000
     30      33.7867      0.00000
     31      34.0712      0.00000
     32      34.4986      0.00000
     33      34.8174      0.00000
     34      38.0603      0.00000
     35      38.4311      0.00000
     36      39.9841      0.00000
     37      42.1700      0.00000
     38      42.2757      0.00000
     39      43.6948      0.00000
     40      44.7696      0.00000

 k-point    21 :       0.3500    0.2500    0.1500
  band No.  band energies     occupation 
      1     -25.8443      2.00000
      2     -25.6529      2.00000
      3     -25.4326      2.00000
      4     -24.9953      2.00000
      5     -24.9437      2.00000
      6     -24.7672      2.00000
      7       1.7011      2.00000
      8       2.5080      2.00000
      9       3.5502      2.00000
     10       3.6929      2.00000
     11       4.2827      2.02315
     12       4.2926      2.06676
     13       7.4370      0.00000
     14       7.6044      0.00000
     15       8.6105      0.00000
     16       9.4537      0.00000
     17       9.4861      0.00000
     18      13.3040      0.00000
     19      16.4437      0.00000
     20      18.7611      0.00000
     21      19.5808      0.00000
     22      20.4961      0.00000
     23      22.7984      0.00000
     24      23.8273      0.00000
     25      24.3507      0.00000
     26      25.2756      0.00000
     27      28.4105      0.00000
     28      29.4616      0.00000
     29      32.2227      0.00000
     30      32.6624      0.00000
     31      34.3742      0.00000
     32      35.1893      0.00000
     33      35.4377      0.00000
     34      36.8608      0.00000
     35      37.8506      0.00000
     36      40.3127      0.00000
     37      41.9455      0.00000
     38      42.1614      0.00000
     39      42.6458      0.00000
     40      44.2217      0.00000

 k-point    22 :       0.4500    0.2500    0.1500
  band No.  band energies     occupation 
      1     -25.8453      2.00000
      2     -25.7794      2.00000
      3     -25.2874      2.00000
      4     -25.1353      2.00000
      5     -24.8608      2.00000
      6     -24.8017      2.00000
      7       1.9854      2.00000
      8       2.2575      2.00000
      9       3.5664      2.00000
     10       3.6065      2.00000
     11       4.6026      1.87488
     12       4.6417      1.75411
     13       7.3189      0.00000
     14       7.4021      0.00000
     15       8.9048      0.00000
     16       9.1394      0.00000
     17      10.5433      0.00000
     18      11.8417      0.00000
     19      17.3680      0.00000
     20      18.3464      0.00000
     21      19.6601      0.00000
     22      20.0802      0.00000
     23      22.3862      0.00000
     24      22.9349      0.00000
     25      25.3664      0.00000
     26      25.5050      0.00000
     27      28.8745      0.00000
     28      29.1557      0.00000
     29      32.0748      0.00000
     30      33.0759      0.00000
     31      34.0787      0.00000
     32      35.5051      0.00000
     33      36.2571      0.00000
     34      37.0266      0.00000
     35      37.6020      0.00000
     36      39.8564      0.00000
     37      41.7665      0.00000
     38      42.0930      0.00000
     39      42.6179      0.00000
     40      43.2474      0.00000

 k-point    23 :       0.3500    0.3500    0.1500
  band No.  band energies     occupation 
      1     -25.9119      2.00000
      2     -25.7947      2.00000
      3     -25.3566      2.00000
      4     -25.0545      2.00000
      5     -24.8628      2.00000
      6     -24.7659      2.00000
      7       1.7417      2.00000
      8       2.1336      2.00000
      9       3.4082      2.00000
     10       3.7098      2.00000
     11       4.6236      1.65220
     12       4.8218      1.10853
     13       7.4769      0.00000
     14       8.0359      0.00000
     15       8.5638      0.00000
     16       9.6023      0.00000
     17      10.4625      0.00000
     18      13.2386      0.00000
     19      16.0857      0.00000
     20      18.6763      0.00000
     21      18.8824      0.00000
     22      19.0040      0.00000
     23      21.8895      0.00000
     24      22.8115      0.00000
     25      25.5764      0.00000
     26      26.1838      0.00000
     27      28.2077      0.00000
     28      30.4392      0.00000
     29      31.6969      0.00000
     30      31.9288      0.00000
     31      33.6604      0.00000
     32      36.5902      0.00000
     33      37.0341      0.00000
     34      37.3927      0.00000
     35      37.9089      0.00000
     36      39.2592      0.00000
     37      41.8943      0.00000
     38      42.1768      0.00000
     39      42.2780      0.00000
     40      43.1205      0.00000

 k-point    24 :       0.4500    0.3500    0.1500
  band No.  band energies     occupation 
      1     -25.9361      2.00000
      2     -25.8962      2.00000
      3     -25.2508      2.00000
      4     -25.1435      2.00000
      5     -24.8088      2.00000
      6     -24.7782      2.00000
      7       1.7385      2.00000
      8       1.8549      2.00000
      9       3.3279      2.00000
     10       3.4509      2.00000
     11       5.2856      0.13065
     12       5.3585     -0.11176
     13       7.7548      0.00000
     14       7.9980      0.00000
     15       8.8375      0.00000
     16       9.2582      0.00000
     17      11.4066      0.00000
     18      12.3687      0.00000
     19      16.5939      0.00000
     20      17.5373      0.00000
     21      18.6507      0.00000
     22      18.6627      0.00000
     23      21.5672      0.00000
     24      22.0214      0.00000
     25      26.7853      0.00000
     26      26.8441      0.00000
     27      28.5846      0.00000
     28      29.2274      0.00000
     29      31.8185      0.00000
     30      32.6063      0.00000
     31      33.4806      0.00000
     32      35.1624      0.00000
     33      37.2803      0.00000
     34      37.4899      0.00000
     35      39.6822      0.00000
     36      40.4047      0.00000
     37      41.7244      0.00000
     38      41.7598      0.00000
     39      42.1848      0.00000
     40      42.5570      0.00000

 k-point    25 :       0.4500    0.4500    0.1500
  band No.  band energies     occupation 
      1     -25.9854      2.00000
      2     -25.9719      2.00000
      3     -25.2019      2.00000
      4     -25.1631      2.00000
      5     -24.7820      2.00000
      6     -24.7730      2.00000
      7       1.5855      2.00000
      8       1.6181      2.00000
      9       3.1512      2.00000
     10       3.2050      2.00000
     11       6.0931     -0.09876
     12       6.1478     -0.04158
     13       8.1116      0.00000
     14       8.2461      0.00000
     15       8.7887      0.00000
     16       9.0285      0.00000
     17      12.0287      0.00000
     18      12.3788      0.00000
     19      16.3720      0.00000
     20      16.7563      0.00000
     21      17.9193      0.00000
     22      17.9950      0.00000
     23      21.2359      0.00000
     24      21.4321      0.00000
     25      27.9424      0.00000
     26      28.2658      0.00000
     27      28.6432      0.00000
     28      28.7129      0.00000
     29      31.8111      0.00000
     30      32.1040      0.00000
     31      33.2961      0.00000
     32      33.8616      0.00000
     33      37.5684      0.00000
     34      37.6683      0.00000
     35      40.7476      0.00000
     36      40.8920      0.00000
     37      41.7765      0.00000
     38      42.0475      0.00000
     39      42.2179      0.00000
     40      42.8262      0.00000

 k-point    26 :       0.2500    0.2500    0.2500
  band No.  band energies     occupation 
      1     -25.6835      2.00000
      2     -25.6835      2.00000
      3     -25.6021      2.00000
      4     -24.9498      2.00000
      5     -24.8602      2.00000
      6     -24.8602      2.00000
      7       1.8667      2.00000
      8       3.2481      2.00000
      9       3.2481      2.00000
[...]
     18      14.6619      0.00000
     19      15.5147      0.00000
     20      17.3947      0.00000
     21      18.5023      0.00000
     22      19.3072      0.00000
     23      20.5168      0.00000
     24      22.4243      0.00000
     25      24.9508      0.00000
     26      26.4732      0.00000
     27      26.5546      0.00000
     28      30.9081      0.00000
     29      33.1618      0.00000
     30      33.2228      0.00000
     31      34.7282      0.00000
     32      36.2107      0.00000
     33      37.0833      0.00000
     34      37.1856      0.00000
     35      37.5139      0.00000
     36      38.8421      0.00000
     37      40.5302      0.00000
     38      41.5675      0.00000
     39      42.1479      0.00000
     40      42.3883      0.00000

 k-point    30 :       0.4500    0.3500    0.2500
  band No.  band energies     occupation 
      1     -25.8359      2.00000
      2     -25.8353      2.00000
      3     -25.3609      2.00000
      4     -25.2013      2.00000
      5     -24.8736      2.00000
      6     -24.8538      2.00000
      7       2.3606      2.00000
      8       2.3848      2.00000
      9       3.3112      2.00000
     10       3.4396      2.00000
     11       4.6693      1.63284
     12       4.8331      1.30137
     13       8.1658      0.00000
     14       8.2511      0.00000
     15       8.8128      0.00000
     16       8.9268      0.00000
     17      12.6403      0.00000
     18      13.6593      0.00000
     19      15.9641      0.00000
     20      16.9953      0.00000
     21      18.0830      0.00000
     22      18.7662      0.00000
     23      20.3797      0.00000
     24      21.0820      0.00000
     25      26.1223      0.00000
     26      26.5843      0.00000
     27      28.1753      0.00000
     28      29.7390      0.00000
     29      32.6370      0.00000
     30      33.4037      0.00000
     31      33.8122      0.00000
     32      34.6343      0.00000
     33      38.3151      0.00000
     34      38.4381      0.00000
     35      39.3918      0.00000
     36      39.7757      0.00000
     37      40.2851      0.00000
     38      40.2854      0.00000
     39      41.9622      0.00000
     40      42.1862      0.00000

 k-point    31 :       0.4500    0.4500    0.2500
  band No.  band energies     occupation 
      1     -25.8635      2.00000
      2     -25.8618      2.00000
      3     -25.2973      2.00000
      4     -25.2317      2.00000
      5     -24.8992      2.00000
      6     -24.8836      2.00000
      7       2.2704      2.00000
      8       2.3050      2.00000
      9       3.1528      2.00000
     10       3.2319      2.00000
     11       5.2837      0.19760
     12       5.3471     -0.07739
     13       8.4021      0.00000
     14       8.4612      0.00000
     15       8.8307      0.00000
     16       8.8991      0.00000
     17      13.3119      0.00000
     18      13.7097      0.00000
     19      15.6824      0.00000
     20      16.0961      0.00000
     21      18.0775      0.00000
     22      18.3573      0.00000
     23      19.7764      0.00000
     24      20.0707      0.00000
     25      27.4240      0.00000
     26      27.7877      0.00000
     27      28.5988      0.00000
     28      29.5067      0.00000
     29      32.4579      0.00000
     30      32.6069      0.00000
     31      32.8858      0.00000
     32      32.9016      0.00000
     33      38.3767      0.00000
     34      38.6592      0.00000
     35      39.9044      0.00000
     36      40.0130      0.00000
     37      41.1695      0.00000
     38      41.8367      0.00000
     39      42.1095      0.00000
     40      42.7435      0.00000

 k-point    32 :       0.3500    0.3500    0.3500
  band No.  band energies     occupation 
      1     -25.7859      2.00000
      2     -25.6321      2.00000
      3     -25.6321      2.00000
      4     -25.0474      2.00000
      5     -25.0474      2.00000
      6     -24.8774      2.00000
      7       2.6103      2.00000
      8       3.3296      2.00000
      9       3.3296      2.00000
     10       3.4821      2.00000
     11       4.0549      2.03215
     12       4.0549      2.07056
     13       8.5986      0.00000
     14       8.5986      0.00000
     15       8.6223      0.00000
     16       8.6223      0.00000
     17      12.8200      0.00000
     18      15.1543      0.00000
     19      16.0233      0.00000
     20      16.0233      0.00000
     21      17.6683      0.00000
     22      19.0670      0.00000
     23      19.0670      0.00000
     24      21.6814      0.00000
     25      25.4359      0.00000
     26      26.8395      0.00000
     27      26.8395      0.00000
     28      31.2686      0.00000
     29      32.9749      0.00000
     30      32.9749      0.00000
     31      35.4312      0.00000
     32      35.4312      0.00000
     33      36.4533      0.00000
     34      37.6664      0.00000
     35      38.5958      0.00000
     36      38.5958      0.00000
     37      40.1155      0.00000
     38      40.1155      0.00000
     39      40.7013      0.00000
     40      42.1229      0.00000

 k-point    33 :       0.4500    0.3500    0.3500
  band No.  band energies     occupation 
      1     -25.7725      2.00000
      2     -25.7251      2.00000
      3     -25.4408      2.00000
      4     -25.2394      2.00000
      5     -24.9965      2.00000
      6     -24.9319      2.00000
      7       2.6499      2.00000
      8       2.8951      2.00000
      9       3.4555      2.00000
     10       3.7138      2.00000
     11       4.2122      2.05336
     12       4.4469      2.01795
     13       8.5348      0.00000
     14       8.5592      0.00000
     15       8.8206      0.00000
     16       8.8360      0.00000
     17      13.7808      0.00000
     18      14.7199      0.00000
     19      15.4281      0.00000
     20      16.2797      0.00000
     21      17.2505      0.00000
     22      18.2969      0.00000
     23      19.2494      0.00000
     24      20.2930      0.00000
     25      26.5082      0.00000
     26      27.0344      0.00000
     27      28.4763      0.00000
     28      30.3380      0.00000
     29      32.6151      0.00000
     30      33.2510      0.00000
     31      33.6139      0.00000
     32      34.3207      0.00000
     33      37.2526      0.00000
     34      37.2608      0.00000
     35      38.0861      0.00000
     36      38.3291      0.00000
     37      40.7335      0.00000
     38      41.5792      0.00000
     39      41.9893      0.00000
     40      42.1547      0.00000

 k-point    34 :       0.4500    0.4500    0.3500
  band No.  band energies     occupation 
      1     -25.7238      2.00000
      2     -25.6910      2.00000
      3     -25.3989      2.00000
      4     -25.2857      2.00000
      5     -25.0727      2.00000
      6     -25.0229      2.00000
      7       2.8516      2.00000
      8       3.1153      2.00000
      9       3.2553      2.00000
     10       3.5319      2.00000
     11       4.5027      1.95445
     12       4.5944      1.88634
     13       8.6990      0.00000
     14       8.7150      0.00000
     15       8.8687      0.00000
     16       8.8764      0.00000
     17      14.5571      0.00000
     18      15.0135      0.00000
     19      15.1207      0.00000
     20      15.4950      0.00000
     21      17.3615      0.00000
     22      18.2593      0.00000
     23      18.3453      0.00000
     24      19.1884      0.00000
     25      27.5924      0.00000
     26      27.9821      0.00000
     27      29.2646      0.00000
     28      30.7061      0.00000
     29      31.6624      0.00000
     30      32.5995      0.00000
     31      33.0326      0.00000
     32      33.6255      0.00000
     33      36.1240      0.00000
     34      36.6732      0.00000
     35      36.7973      0.00000
     36      37.1744      0.00000
     37      42.0577      0.00000
     38      42.0891      0.00000
     39      43.2986      0.00000
     40      44.0882      0.00000

 k-point    35 :       0.4500    0.4500    0.4500
  band No.  band energies     occupation 
      1     -25.5884      2.00000
      2     -25.4893      2.00000
      3     -25.4893      2.00000
      4     -25.2762      2.00000
      5     -25.2762      2.00000
      6     -25.1728      2.00000
      7       3.2141      2.00000
      8       3.5178      2.00000
      9       3.5178      2.00000
     10       3.9669      2.00000
     11       3.9669      2.00000
     12       4.0691      2.00000
     13       8.8856      0.00000
     14       8.8856      0.00000
     15       8.8880      0.00000
     16       8.8880      0.00000
     17      14.6346      0.00000
     18      14.6977      0.00000
     19      15.9033      0.00000
     20      16.4838      0.00000
     21      16.4838      0.00000
     22      17.6451      0.00000
     23      17.6451      0.00000
     24      18.2976      0.00000
     25      28.7140      0.00000
     26      29.4522      0.00000
     27      29.4522      0.00000
     28      31.4947      0.00000
     29      31.4947      0.00000
     30      32.4953      0.00000
     31      32.7981      0.00000
     32      33.6762      0.00000
     33      33.6762      0.00000
     34      35.1486      0.00000
     35      35.1486      0.00000
     36      35.2662      0.00000
     37      42.0642      0.00000
     38      42.0678      0.00000
     39      46.1417      0.00000
     40      46.1417      0.00000


--------------------------------------------------------------------------------------------------------


 soft charge-density along one line, spin component           1
         0         1         2         3         4         5         6         7         8         9
 total charge-density along one line
 
 pseudopotential strength for first ion, spin component:           1
-27.826   0.000   0.000   0.000   0.000   0.000   5.813   0.000  -0.000   0.000  -0.000   0.000  -0.000   0.000   0.000   0.000
  0.000   0.000 -27.826   0.000   0.000   0.000  -0.000   0.000   5.813   0.000  -0.000   0.000   0.000   0.000   0.000   0.000
  0.000   0.000   0.000   0.000 -27.826   0.000  -0.000   0.000  -0.000   0.000   5.813   0.000   0.000   0.000   0.000   0.000
  5.813   0.000  -0.000   0.000  -0.000   0.000   4.387   0.000   0.000   0.000   0.000   0.000   0.000   0.000  -0.000   0.000
 -0.000   0.000   5.813   0.000  -0.000   0.000   0.000   0.000   4.387   0.000   0.000   0.000  -0.000   0.000  -0.000   0.000
 -0.000   0.000  -0.000   0.000   5.813   0.000   0.000   0.000   0.000   0.000   4.387   0.000  -0.000   0.000  -0.000   0.000
 -0.000   0.000   0.000   0.000   0.000   0.000   0.000   0.000  -0.000   0.000  -0.000   0.000  -6.227   0.000   0.000   0.000
  0.000   0.000   0.000   0.000   0.000   0.000  -0.000   0.000  -0.000   0.000  -0.000   0.000   0.000   0.000  -6.227   0.000
 -0.000   0.000   0.000   0.000   0.000   0.000   0.000   0.000  -0.000   0.000  -0.000   0.000  -0.000   0.000   0.000   0.000
  0.000   0.000  -0.000   0.000   0.000   0.000  -0.000   0.000   0.000   0.000  -0.000   0.000   0.000   0.000   0.000   0.000
 -0.000   0.000   0.000   0.000  -0.000   0.000   0.000   0.000  -0.000   0.000   0.000   0.000   0.000   0.000  -0.000   0.000
 -0.000   0.000   0.000   0.000   0.000   0.000   0.000   0.000  -0.000   0.000  -0.000   0.000  -7.056   0.000   0.000   0.000
  0.000   0.000   0.000   0.000   0.000   0.000  -0.000   0.000  -0.000   0.000  -0.000   0.000   0.000   0.000  -7.056   0.000
 -0.000   0.000   0.000   0.000   0.000   0.000   0.000   0.000  -0.000   0.000  -0.000   0.000  -0.000   0.000   0.000   0.000
  0.000   0.000  -0.000   0.000   0.000   0.000  -0.000   0.000   0.000   0.000  -0.000   0.000   0.000   0.000   0.000   0.000
 -0.000   0.000   0.000   0.000  -0.000   0.000   0.000   0.000  -0.000   0.000   0.000   0.000   0.000   0.000  -0.000   0.000
 -0.000   0.000  -0.000   0.000   0.000   0.000   0.000   0.000   0.000   0.000  -0.000   0.000  -0.000   0.000  -0.000   0.000
  0.000   0.000   0.000   0.000  -0.000   0.000   0.000   0.000   0.000   0.000  -0.000   0.000   0.000   0.000   0.000   0.000
 total augmentation occupancy for first ion, spin component:           1
  2.000   0.000   0.000   0.000   0.000   0.000   0.000   0.000   0.000   0.000   0.000   0.000   0.000   0.000   0.000   0.000
  0.000   2.000   0.000   0.000   0.000   0.000   0.000   0.000   0.000   0.000   0.000   0.000   0.000   0.000   0.000   0.000
  0.000   0.000   2.000   0.000   0.000   0.000   0.000   0.000   0.000   0.000   0.000   0.000   0.000   0.000   0.000   0.000
  0.000   0.000   0.000   0.000   0.000   0.000   0.000   0.000   0.000   0.000   0.000   0.000   0.000   0.000   0.000   0.000
  0.000   0.000   0.000   0.000   0.000   0.000   0.000   0.000   0.000   0.000   0.000   0.000   0.000   0.000   0.000   0.000
  0.000   0.000   0.000   0.000   0.000   0.000   0.000   0.000   0.000   0.000   0.000   0.000   0.000   0.000   0.000   0.000
  0.000   0.000   0.000   0.000   0.000   0.000   0.800   0.000   0.000   0.000   0.000   0.000   0.000   0.000   0.000   0.000
  0.000   0.000   0.000   0.000   0.000   0.000   0.000   0.800   0.000   0.000   0.000   0.000   0.000   0.000   0.000   0.000
  0.000   0.000   0.000   0.000   0.000   0.000   0.000   0.000   0.800   0.000   0.000   0.000   0.000   0.000   0.000   0.000
  0.000   0.000   0.000   0.000   0.000   0.000   0.000   0.000   0.000   0.800   0.000   0.000   0.000   0.000   0.000   0.000
  0.000   0.000   0.000   0.000   0.000   0.000   0.000   0.000   0.000   0.000   0.800   0.000   0.000   0.000   0.000   0.000
  0.000   0.000   0.000   0.000   0.000   0.000   0.000   0.000   0.000   0.000   0.000   0.000   0.000   0.000   0.000   0.000
  0.000   0.000   0.000   0.000   0.000   0.000   0.000   0.000   0.000   0.000   0.000   0.000   0.000   0.000   0.000   0.000
  0.000   0.000   0.000   0.000   0.000   0.000   0.000   0.000   0.000   0.000   0.000   0.000   0.000   0.000   0.000   0.000
  0.000   0.000   0.000   0.000   0.000   0.000   0.000   0.000   0.000   0.000   0.000   0.000   0.000   0.000   0.000   0.000
  0.000   0.000   0.000   0.000   0.000   0.000   0.000   0.000   0.000   0.000   0.000   0.000   0.000   0.000   0.000   0.000
  0.000   0.000   0.000   0.000   0.000   0.000   0.000   0.000   0.000   0.000   0.000   0.000   0.000   0.000   0.000   0.000
  0.000   0.000   0.000   0.000   0.000   0.000   0.000   0.000   0.000   0.000   0.000   0.000   0.000   0.000   0.000   0.000


------------------------ aborting loop because EDIFF is reached ----------------------------------------


    CHARGE:  cpu time    0.0055: real time    0.0120
    FORLOC:  cpu time    0.0003: real time    0.0010
    FORNL :  cpu time    0.0065: real time    0.0087
    STRESS:  cpu time    0.0535: real time    0.0562
    FORCOR:  cpu time    0.0015: real time    0.0030
    FORHAR:  cpu time    0.0009: real time    0.0018
    OFIELD:  cpu time    0.0005: real time    0.0012

  FORCE on cell =-STRESS in cart. coord.  units (eV):
  Direction    XX          YY          ZZ          XY          YZ          ZX
  --------------------------------------------------------------------------------------
  Alpha Z   249.60524   249.60524   249.60524
  Ewald    -640.34034  -640.34034  -640.34034    -0.00000     0.00000    -0.00000
  Hartree    80.13526    80.13526    80.13526    -0.00000    -0.00000    -0.00000
  E(xc)     -93.77961   -93.77961   -93.77961     0.00000     0.00000     0.00000
  Local     205.59002   205.59002   205.59002     0.00000    -0.00000     0.00000
  n-local   -89.45999   -84.61411   -77.88689     2.22870    -0.96330     0.50866
  augment    52.33344    52.33344    52.33344    -0.00000    -0.00000    -0.00000
  Kinetic   219.65880   225.12019   241.87506     3.17637    -2.09290     1.27954
  Fock        0.00000     0.00000     0.00000     0.00000     0.00000     0.00000
  -------------------------------------------------------------------------------------
  Total      -1.55831    -1.55831    -1.55831     0.00000     0.00000     0.00000
  in kB     -69.42374   -69.42374   -69.42374     0.00000     0.00000     0.00000
  external pressure =      -69.42 kB  Pullay stress =        0.00 kB


 VOLUME and BASIS-vectors are now :
 -----------------------------------------------------------------------------
  energy-cutoff  :      300.00
  volume of cell :       35.96
      direct lattice vectors                 reciprocal lattice vectors
     3.300800000  0.000000000  0.000000000     0.302956859  0.000000000  0.000000000
     0.000000000  3.300800000  0.000000000     0.000000000  0.302956859  0.000000000
     0.000000000  0.000000000  3.300800000     0.000000000  0.000000000  0.302956859

  length of vectors
     3.300800000  3.300800000  3.300800000     0.302956859  0.302956859  0.302956859


 FORCES acting on ions
    electron-ion (+dipol)            ewald-force                    non-local-force                 convergence-correction
 -----------------------------------------------------------------------------------------------
   -.246E-13 -.170E-13 -.160E-13   0.268E-14 -.614E-14 -.437E-14   0.000E+00 0.000E+00 0.000E+00   -.261E-12 0.186E-12 0.538E-13
   0.115E-12 0.121E-12 0.124E-12   -.201E-14 0.363E-14 0.345E-14   -.505E-28 0.000E+00 0.000E+00   0.157E-12 -.283E-12 -.134E-12
 -----------------------------------------------------------------------------------------------
   0.905E-13 0.104E-12 0.108E-12   0.666E-15 -.251E-14 -.919E-15   -.505E-28 0.000E+00 0.000E+00   -.104E-12 -.976E-13 -.806E-13
 
 
 POSITION                                       TOTAL-FORCE (eV/Angst)
 -----------------------------------------------------------------------------------
      0.00000      0.00000      0.00000         0.000000      0.000000      0.000000
      1.65040      1.65040      1.65040        -0.000000      0.000000      0.000000
 -----------------------------------------------------------------------------------
    total drift:                               -0.000000      0.000000      0.000000


--------------------------------------------------------------------------------------------------------



  FREE ENERGIE OF THE ION-ELECTRON SYSTEM (eV)
  ---------------------------------------------------
  free  energy   TOTEN  =       -22.28357485 eV

  energy  without entropy=      -22.28357485  energy(sigma->0) =      -22.28357485
 


--------------------------------------------------------------------------------------------------------


    POTLOK:  cpu time    0.0035: real time    0.0052


--------------------------------------------------------------------------------------------------------


 writing wavefunctions
     LOOP+:  cpu time    3.8536: real time    3.9592
    4ORBIT:  cpu time    0.0000: real time    0.0000
 BZINTS: Fermi energy:  4.851001; 22.000000 electrons
         Band energy:-272.768486;  BLOECHL correction: -0.127227

 total amount of memory used by VASP MPI-rank0    32985. kBytes
=======================================================================

   base      :      30000. kBytes
   nonl-proj :       2434. kBytes
   fftplans  :         79. kBytes
   grid      :        150. kBytes
   one-center:         31. kBytes
   wavefun   :        291. kBytes
 
  
  
 General timing and accounting informations for this job:
 ========================================================
  
                  Total CPU time used (sec):        5.679
                            User time (sec):        3.991
                          System time (sec):        1.688
                         Elapsed time (sec):        6.205
  
                   Maximum memory used (kb):       54912.
                   Average memory used (kb):           0.
  
                          Minor page faults:        14908
                          Major page faults:           48
                 Voluntary context switches:         1373
