Si                                      
   5.43000000000000     
     0.000000    0.500000    0.500000
     0.500000    0.000000    0.500000
     0.500000    0.500000    0.000000
   Si
     2
Direct
  0.000000  0.000000  0.000000
  0.250000  0.250000  0.250000
 
   32   32   32
 -.75007515364E+01 -.57664601871E+01 -.11387571499E+01 0.49165579743E+01 0.10668884490E+02
 0.14777493813E+02 0.16676587217E+02 0.16589500094E+02 0.15258632003E+02 0.13524398206E+02
 0.11799669372E+02 0.10247666067E+02 0.89593411411E+01 0.79686971199E+01 0.72760000049E+01
 0.68686510184E+01 0.67344645904E+01 0.68686394572E+01 0.72760028736E+01 0.79687292845E+01
 0.89593973892E+01 0.10247733766E+02 0.11799702822E+02 0.13524302326E+02 0.15258367886E+02
 0.16589238467E+02 0.16676649921E+02 0.14778026349E+02 0.10669616326E+02 0.49170138126E+01
 -.11387683457E+01 -.57666575933E+01 -.57664601871E+01 -.23513891033E+01 0.33267905369E+01
 0.95020247462E+01 0.14538185527E+02 0.17486327357E+02 0.18248198161E+02 0.17388593609E+02
 0.15766234107E+02 0.14015248817E+02 0.12354981710E+02 0.10904862404E+02 0.97268751194E+01
 0.88446817492E+01 0.82615126209E+01 0.79723311872E+01 0.79721919068E+01 0.82613349315E+01
 0.88447908196E+01 0.97271492307E+01 0.10904944291E+02 0.12354867415E+02 0.14015237688E+02
 0.15766317056E+02 0.17388401892E+02 0.18247743301E+02 0.17486266438E+02 0.14538888649E+02
 0.95027526987E+01 0.33264872701E+01 -.23525633354E+01 -.57671286267E+01 -.11387571499E+01
 0.33267905369E+01 0.90589680898E+01 0.14344744885E+02 0.17947406726E+02 0.19438645818E+02
 0.19132712177E+02 0.17774361048E+02 0.16106681691E+02 0.14439139686E+02 0.12909124058E+02
 0.11598486674E+02 0.10551875944E+02 0.97934705836E+01 0.93356244165E+01 0.91827950011E+01
 0.93356649008E+01 0.97935015664E+01 0.10551874430E+02 0.11598491816E+02 0.12909189823E+02
 0.14439269582E+02 0.16106792013E+02 0.17774311328E+02 0.19132448023E+02 0.19438335322E+02
 0.17947315757E+02 0.14344899739E+02 0.90590750153E+01 0.33266245653E+01 -.11390120429E+01
 -.28284227408E+01 0.49165579743E+01 0.95020247462E+01 0.14344744885E+02 0.18097247246E+02
 0.20062590778E+02 0.20279538034E+02 0.19303582193E+02 0.17845746831E+02 0.16293128567E+02
 0.14793389684E+02 0.13438775086E+02 0.12287299131E+02 0.11381209830E+02 0.10755464972E+02
 0.10435992240E+02 0.10436087482E+02 0.10755606065E+02 0.11381195906E+02 0.12287188563E+02
 0.13438777981E+02 0.14793540531E+02 0.16293269802E+02 0.17845790726E+02 0.19303576055E+02
 0.20279469016E+02 0.20062359748E+02 0.18096933521E+02 0.14344699285E+02 0.95024938746E+01
 0.49172741230E+01 0.21150743319E+01 0.21147271586E+01 0.10668884490E+02 0.14538185527E+02
 0.17947406726E+02 0.20062590778E+02 0.20680185658E+02 0.20132312943E+02 0.19004812074E+02
 0.17694574961E+02 0.16351341935E+02 0.15067302084E+02 0.13903018149E+02 0.12909541243E+02
 0.12141341142E+02 0.11652899083E+02 0.11485105187E+02 0.11653018943E+02 0.12141461979E+02
 0.12909580300E+02 0.13903020947E+02 0.15067356492E+02 0.16351454221E+02 0.17694674017E+02
 0.19004839447E+02 0.20132257986E+02 0.20680062374E+02 0.20062453948E+02 0.17947386156E+02
 0.14538407763E+02 0.10669299628E+02 0.75804089039E+01 0.63986172288E+01 0.75800681200E+01
 0.14777493813E+02 0.17486327357E+02 0.19438645818E+02 0.20279538034E+02 0.20132312943E+02
 0.19412686328E+02 0.18451652513E+02 0.17384264487E+02 0.16293128567E+02 0.15230208132E+02
 0.14241487890E+02 0.13388347872E+02 0.12750484968E+02 0.12406842464E+02 0.12406963881E+02
 0.12750713537E+02 0.13388465509E+02 0.14241487124E+02 0.15230269893E+02 0.16293330700E+02
 0.17384451316E+02 0.18451642729E+02 0.19412503857E+02 0.20132124088E+02 0.20279429270E+02
 0.19438574460E+02 0.17486261571E+02 0.14777474771E+02 0.12117382884E+02 0.10462073210E+02
 0.10462042507E+02 0.12117341906E+02 0.16676587217E+02 0.18248198161E+02 0.19132712177E+02
 0.19303582193E+02 0.19004812074E+02 0.18451652513E+02 0.17746613500E+02 0.16953495099E+02
 0.16106681691E+02 0.15234264021E+02 0.14386623543E+02 0.13649632795E+02 0.13133317249E+02
 0.12945981811E+02 0.13133449820E+02 0.13649772529E+02 0.14386676486E+02 0.15234279684E+02
 0.16106784469E+02 0.16953723628E+02 0.17746850877E+02 0.18451721393E+02 0.19004642870E+02
 0.19303285480E+02 0.19132467390E+02 0.18248070147E+02 0.16676489749E+02 0.14805677753E+02
 0.13274256424E+02 0.12681992236E+02 0.13274388545E+02 0.14805823519E+02 0.16589500094E+02
 0.17388593609E+02 0.17774361048E+02 0.17845746831E+02 0.17694574961E+02 0.17384264487E+02
 0.16953495099E+02 0.16413586574E+02 0.15766234107E+02 0.15034291639E+02 0.14277001145E+02
 0.13616721431E+02 0.13224583077E+02 0.13224553351E+02 0.13616708729E+02 0.14277078990E+02
 0.15034356880E+02 0.15766179045E+02 0.16413564767E+02 0.16953766400E+02 0.17384752353E+02
 0.17694844680E+02 0.17845564860E+02 0.17774043321E+02 0.17388557455E+02 0.16589645772E+02
 0.15472730660E+02 0.14358078596E+02 0.13657194852E+02 0.13657445935E+02 0.14358506555E+02
 0.15472845980E+02 0.15258632003E+02 0.15766234107E+02 0.16106681691E+02 0.16293128567E+02
 0.16351341935E+02 0.16293128567E+02 0.16106681691E+02 0.15766234107E+02 0.15258632003E+02
 0.14595616102E+02 0.13874497309E+02 0.13300006302E+02 0.13079443288E+02 0.13299945952E+02
 0.13874493580E+02 0.14595674039E+02 0.15258607014E+02 0.15766097971E+02 0.16106660809E+02
 0.16293426817E+02 0.16351818196E+02 0.16293426817E+02 0.16106660809E+02 0.15766097971E+02
 0.15258607014E+02 0.14595674039E+02 0.13874493580E+02 0.13299945952E+02 0.13079443288E+02
 0.13300006302E+02 0.13874497309E+02 0.14595616102E+02 0.13524398206E+02 0.14015248817E+02
 0.14439139686E+02 0.14793389684E+02 0.15067302084E+02 0.15230208132E+02 0.15234264021E+02
 0.15034291639E+02 0.14595616102E+02 0.13952881748E+02 0.13291475557E+02 0.12868555087E+02
 0.12868465995E+02 0.13291343594E+02 0.13952903955E+02 0.14595746855E+02 0.15034306247E+02
 0.15234092949E+02 0.15230061292E+02 0.15067418705E+02 0.14793735147E+02 0.14439404442E+02
 0.14015162866E+02 0.13524053981E+02 0.12983176505E+02 0.12444136121E+02 0.11992982443E+02
 0.11729988720E+02 0.11729696912E+02 0.11992409294E+02 0.12443839348E+02 0.12983356601E+02
 0.11799669372E+02 0.12354981710E+02 0.12909124058E+02 0.13438775086E+02 0.13903018149E+02
 0.14241487890E+02 0.14386623543E+02 0.14277001145E+02 0.13874497309E+02 0.13291475557E+02
 0.12772768339E+02 0.12565254331E+02 0.12772500588E+02 0.13291283830E+02 0.13874602420E+02
 0.14277234788E+02 0.14386688873E+02 0.14241324758E+02 0.13902813876E+02 0.13438711038E+02
 0.12909199721E+02 0.12355049400E+02 0.11799604986E+02 0.11259818363E+02 0.10760508283E+02
 0.10343110447E+02 0.10060863976E+02 0.99604314039E+01 0.10060634425E+02 0.10342910139E+02
 0.10760522266E+02 0.11259957582E+02 0.10247666067E+02 0.10904862404E+02 0.11598486674E+02
 0.12287299131E+02 0.12909541243E+02 0.13388347872E+02 0.13649632795E+02 0.13616721431E+02
 0.13300006302E+02 0.12868555087E+02 0.12565254331E+02 0.12565109476E+02 0.12868241427E+02
 0.13299780565E+02 0.13616760819E+02 0.13649895094E+02 0.13388602846E+02 0.12909558864E+02
 0.12287073853E+02 0.11598275403E+02 0.10904925844E+02 0.10247962380E+02 0.96518533531E+01
 0.91335892832E+01 0.87114759585E+01 0.84087664510E+01 0.82495784841E+01 0.82497117849E+01
 0.84091060144E+01 0.87118251402E+01 0.91336927492E+01 0.96516383927E+01 0.89593411411E+01
 0.97268751194E+01 0.10551875944E+02 0.11381209830E+02 0.12141341142E+02 0.12750484968E+02
 0.13133317249E+02 0.13224583077E+02 0.13079443288E+02 0.12868465995E+02 0.12772500588E+02
 0.12868241427E+02 0.13079101142E+02 0.13224323605E+02 0.13133319438E+02 0.12750739589E+02
 0.12141637027E+02 0.11381344049E+02 0.10551859321E+02 0.97268794169E+01 0.89594611541E+01
 0.82814458165E+01 0.77092535304E+01 0.72515653220E+01 0.69155152577E+01 0.67090635981E+01
 0.66393232944E+01 0.67092007790E+01 0.69157269523E+01 0.72517248459E+01 0.77092502782E+01
 0.82813071393E+01 0.79686971199E+01 0.88446817492E+01 0.97934705836E+01 0.10755464972E+02
 0.11652899083E+02 0.12406842464E+02 0.12945981811E+02 0.13224553351E+02 0.13299945952E+02
 0.13291343594E+02 0.13291283830E+02 0.13299780565E+02 0.13224323605E+02 0.12945755280E+02
 0.12406708924E+02 0.11652942840E+02 0.10755691210E+02 0.97937400361E+01 0.88447815440E+01
 0.79685515402E+01 0.72016725066E+01 0.65610279312E+01 0.60508417860E+01 0.56698192591E+01
 0.54161080741E+01 0.52891455161E+01 0.52891165393E+01 0.54159782182E+01 0.56695793950E+01
 0.60506482849E+01 0.65610609785E+01 0.72018873396E+01 0.72760000049E+01 0.82615126209E+01
 0.93356244165E+01 0.10435992240E+02 0.11485105187E+02 0.12406963881E+02 0.13133449820E+02
 0.13616708729E+02 0.13874493580E+02 0.13952903955E+02 0.13874602420E+02 0.13616760819E+02
 0.13133319438E+02 0.12406708924E+02 0.11484891184E+02 0.10435921184E+02 0.93356565840E+01
 0.82615262285E+01 0.72759194960E+01 0.64177784160E+01 0.57035959196E+01 0.51341585265E+01
 0.47025163277E+01 0.44002949745E+01 0.42211968688E+01 0.41618358111E+01 0.42211736004E+01
 0.44001782315E+01 0.47023178829E+01 0.51340140312E+01 0.57036094128E+01 0.64178947143E+01
 0.68686510184E+01 0.79723311872E+01 0.91827950011E+01 0.10436087482E+02 0.11653018943E+02
 0.12750713537E+02 0.13649772529E+02 0.14277078990E+02 0.14595674039E+02 0.14595746855E+02
 0.14277234788E+02 0.13649895094E+02 0.12750739589E+02 0.11652942840E+02 0.10435921184E+02
 0.91825908893E+01 0.79722037576E+01 0.68686868514E+01 0.59123187140E+01 0.51188631232E+01
 0.44856495323E+01 0.40005043808E+01 0.36494303254E+01 0.34211367562E+01 0.33085621554E+01
 0.33085558972E+01 0.34211570972E+01 0.36495300875E+01 0.40006443242E+01 0.44857075892E+01
 0.51187750648E+01 0.59121765024E+01 0.67344645904E+01 0.79721919068E+01 0.93356649008E+01
 0.10755606065E+02 0.12141461979E+02 0.13388465509E+02 0.14386676486E+02 0.15034356880E+02
 0.15258607014E+02 0.15034306247E+02 0.14386688873E+02 0.13388602846E+02 0.12141637027E+02
 0.10755691210E+02 0.93356565840E+01 0.79722037576E+01 0.67345621475E+01 0.56654320455E+01
 0.47806565255E+01 0.40748925882E+01 0.35310296827E+01 0.31292957624E+01 0.28531366130E+01
 0.26913976749E+01 0.26380810959E+01 0.26913702921E+01 0.28531422500E+01 0.31293963758E+01
 0.35312091236E+01 0.40750412818E+01 0.47806693627E+01 0.56653271920E+01 0.68686394572E+01
 0.82613349315E+01 0.97935015664E+01 0.11381195906E+02 0.12909580300E+02 0.14241487124E+02
 0.15234279684E+02 0.15766179045E+02 0.15766097971E+02 0.15234092949E+02 0.14241324758E+02
 0.12909558864E+02 0.11381344049E+02 0.97937400361E+01 0.82615262285E+01 0.68686868514E+01
 0.56654320455E+01 0.46701084559E+01 0.38761584134E+01 0.32624878627E+01 0.28037863259E+01
 0.24777541960E+01 0.22683093751E+01 0.21657768011E+01 0.21657823678E+01 0.22683119605E+01
 0.24777257728E+01 0.28037223996E+01 0.32624341882E+01 0.38761778573E+01 0.46702022950E+01
 0.56655095585E+01 0.72760028736E+01 0.88447908196E+01 0.10551874430E+02 0.12287188563E+02
 0.13903020947E+02 0.15230269893E+02 0.16106784469E+02 0.16413564767E+02 0.16106660809E+02
 0.15230061292E+02 0.13902813876E+02 0.12287073853E+02 0.10551859321E+02 0.88447815440E+01
 0.72759194960E+01 0.59123187140E+01 0.47806565255E+01 0.38761584134E+01 0.31751115600E+01
 0.26471818154E+01 0.22642489043E+01 0.20046864823E+01 0.18541655812E+01 0.18048178557E+01
 0.18541834825E+01 0.20047279782E+01 0.22642608588E+01 0.26470796232E+01 0.31749072036E+01
 0.38759919889E+01 0.47806463375E+01 0.59124230728E+01 0.79687292845E+01 0.97271492307E+01
 0.11598491816E+02 0.13438777981E+02 0.15067356492E+02 0.16293330700E+02 0.16953723628E+02
 0.16953766400E+02 0.16293426817E+02 0.15067418705E+02 0.13438711038E+02 0.11598275403E+02
 0.97268794169E+01 0.79685515402E+01 0.64177784160E+01 0.51188631232E+01 0.40748925882E+01
 0.32624878627E+01 0.26471818154E+01 0.21949349944E+01 0.18781032763E+01 0.16770092910E+01
 0.15793765468E+01 0.15793677210E+01 0.16769990890E+01 0.18781199076E+01 0.21949792227E+01
 0.26472121577E+01 0.32624521268E+01 0.40747859686E+01 0.51187600705E+01 0.64177906582E+01
 0.89593973892E+01 0.10904944291E+02 0.12909189823E+02 0.14793540531E+02 0.16351454221E+02
 0.17384451316E+02 0.17746850877E+02 0.17384752353E+02 0.16351818196E+02 0.14793735147E+02
 0.12909199721E+02 0.10904925844E+02 0.89594611541E+01 0.72016725066E+01 0.57035959196E+01
 0.44856495323E+01 0.35310296827E+01 0.28037863259E+01 0.22642489043E+01 0.18781032763E+01
 0.16195200707E+01 0.14710411053E+01 0.14226369489E+01 0.14710286289E+01 0.16194844194E+01
 0.18780605326E+01 0.22642593428E+01 0.28039046285E+01 0.35312259577E+01 0.44858049320E+01
 0.57036122182E+01 0.72015838947E+01 0.10247733766E+02 0.12354867415E+02 0.14439269582E+02
 0.16293269802E+02 0.17694674017E+02 0.18451642729E+02 0.18451721393E+02 0.17694844680E+02
 0.16293426817E+02 0.14439404442E+02 0.12355049400E+02 0.10247962380E+02 0.82814458165E+01
 0.65610279312E+01 0.51341585265E+01 0.40005043808E+01 0.31292957624E+01 0.24777541960E+01
 0.20046864823E+01 0.16770092910E+01 0.14710411053E+01 0.13717174443E+01 0.13717196096E+01
 0.14710451965E+01 0.16769993753E+01 0.20046441736E+01 0.24777086414E+01 0.31293283982E+01
 0.40006516103E+01 0.51343250121E+01 0.65610580844E+01 0.82812925168E+01 0.11799702822E+02
 0.14015237688E+02 0.16106792013E+02 0.17845790726E+02 0.19004839447E+02 0.19412503857E+02
 0.19004642870E+02 0.17845564860E+02 0.16106660809E+02 0.14015162866E+02 0.11799604986E+02
 0.96518533531E+01 0.77092535304E+01 0.60508417860E+01 0.47025163277E+01 0.36494303254E+01
 0.28531366130E+01 0.22683093751E+01 0.18541655812E+01 0.15793765468E+01 0.14226369489E+01
 0.13717196096E+01 0.14226426166E+01 0.15793890825E+01 0.18541891776E+01 0.22683339332E+01
 0.28531170534E+01 0.36493154948E+01 0.47023245951E+01 0.60506826897E+01 0.77092283512E+01
 0.96519415488E+01 0.13524302326E+02 0.15766317056E+02 0.17774311328E+02 0.19303576055E+02
 0.20132257986E+02 0.20132124088E+02 0.19303285480E+02 0.17774043321E+02 0.15766097971E+02
 0.13524053981E+02 0.11259818363E+02 0.91335892832E+01 0.72515653220E+01 0.56698192591E+01
 0.44002949745E+01 0.34211367562E+01 0.26913976749E+01 0.21657768011E+01 0.18048178557E+01
 0.15793677210E+01 0.14710286289E+01 0.14710451965E+01 0.15793890825E+01 0.18048157757E+01
 0.21657853454E+01 0.26914474303E+01 0.34211562899E+01 0.44001740608E+01 0.56695877206E+01
 0.72514170885E+01 0.91336710500E+01 0.11260063525E+02 0.15258367886E+02 0.17388401892E+02
 0.19132448023E+02 0.20279469016E+02 0.20680062374E+02 0.20279429270E+02 0.19132467390E+02
 0.17388557455E+02 0.15258607014E+02 0.12983176505E+02 0.10760508283E+02 0.87114759585E+01
 0.69155152577E+01 0.54161080741E+01 0.42211968688E+01 0.33085621554E+01 0.26380810959E+01
 0.21657823678E+01 0.18541834825E+01 0.16769990890E+01 0.16194844194E+01 0.16769993753E+01
 0.18541891776E+01 0.21657853454E+01 0.26380625821E+01 0.33085299405E+01 0.42212088157E+01
 0.54162281270E+01 0.69157285552E+01 0.87116624327E+01 0.10760530660E+02 0.12983008980E+02
 0.16589238467E+02 0.18247743301E+02 0.19438335322E+02 0.20062359748E+02 0.20062453948E+02
 0.19438574460E+02 0.18248070147E+02 0.16589645772E+02 0.14595674039E+02 0.12444136121E+02
 0.10343110447E+02 0.84087664510E+01 0.67090635981E+01 0.52891455161E+01 0.41618358111E+01
 0.33085558972E+01 0.26913702921E+01 0.22683119605E+01 0.20047279782E+01 0.18781199076E+01
 0.18780605326E+01 0.20046441736E+01 0.22683339332E+01 0.26914474303E+01 0.33085299405E+01
 0.41617136141E+01 0.52891464712E+01 0.67093251585E+01 0.84091104453E+01 0.10343215833E+02
 0.12443891891E+02 0.14595247919E+02 0.16676649921E+02 0.17486266438E+02 0.17947315757E+02
 0.18096933521E+02 0.17947386156E+02 0.17486261571E+02 0.16676489749E+02 0.15472730660E+02
 0.13874493580E+02 0.11992982443E+02 0.10060863976E+02 0.82495784841E+01 0.66393232944E+01
 0.52891165393E+01 0.42211736004E+01 0.34211570972E+01 0.28531422500E+01 0.24777257728E+01
 0.22642608588E+01 0.21949792227E+01 0.22642593428E+01 0.24777086414E+01 0.28531170534E+01
 0.34211562899E+01 0.42212088157E+01 0.52891464712E+01 0.66392799616E+01 0.82494308197E+01
 0.10060669592E+02 0.11992873371E+02 0.13874568635E+02 0.15472936493E+02 0.14778026349E+02
 0.14538888649E+02 0.14344899739E+02 0.14344699285E+02 0.14538407763E+02 0.14777474771E+02
 0.14805677753E+02 0.14358078596E+02 0.13299945952E+02 0.11729988720E+02 0.99604314039E+01
 0.82497117849E+01 0.67092007790E+01 0.54159782182E+01 0.44001782315E+01 0.36495300875E+01
 0.31293963758E+01 0.28037223996E+01 0.26470796232E+01 0.26472121577E+01 0.28039046285E+01
 0.31293283982E+01 0.36493154948E+01 0.44001740608E+01 0.54162281270E+01 0.67093251585E+01
 0.82494308197E+01 0.99599578870E+01 0.11729760369E+02 0.13300132132E+02 0.14358521620E+02
 0.14806202721E+02 0.10669616326E+02 0.95027526987E+01 0.90590750153E+01 0.95024938746E+01
 0.10669299628E+02 0.12117382884E+02 0.13274256424E+02 0.13657194852E+02 0.13079443288E+02
 0.11729696912E+02 0.10060634425E+02 0.84091060144E+01 0.69157269523E+01 0.56695793950E+01
 0.47023178829E+01 0.40006443242E+01 0.35312091236E+01 0.32624341882E+01 0.31749072036E+01
 0.32624521268E+01 0.35312259577E+01 0.40006516103E+01 0.47023245951E+01 0.56695877206E+01
 0.69157285552E+01 0.84091104453E+01 0.10060669592E+02 0.11729760369E+02 0.13079485486E+02
 0.13657193584E+02 0.13274290170E+02 0.12117565376E+02 0.49170138126E+01 0.33264872701E+01
 0.33266245653E+01 0.49172741230E+01 0.75804089039E+01 0.10462073210E+02 0.12681992236E+02
 0.13657445935E+02 0.13300006302E+02 0.11992409294E+02 0.10342910139E+02 0.87118251402E+01
 0.72517248459E+01 0.60506482849E+01 0.51340140312E+01 0.44857075892E+01 0.40750412818E+01
 0.38761778573E+01 0.38759919889E+01 0.40747859686E+01 0.44858049320E+01 0.51343250121E+01
 0.60506826897E+01 0.72514170885E+01 0.87116624327E+01 0.10343215833E+02 0.11992873371E+02
 0.13300132132E+02 0.13657193584E+02 0.12681700224E+02 0.10461907754E+02 0.75802279082E+01
 -.11387683457E+01 -.23525633354E+01 -.11390120429E+01 0.21150743319E+01 0.63986172288E+01
 0.10462042507E+02 0.13274388545E+02 0.14358506555E+02 0.13874497309E+02 0.12443839348E+02
 0.10760522266E+02 0.91336927492E+01 0.77092502782E+01 0.65610609785E+01 0.57036094128E+01
 0.51187750648E+01 0.47806693627E+01 0.46702022950E+01 0.47806463375E+01 0.51187600705E+01
 0.57036122182E+01 0.65610580844E+01 0.77092283512E+01 0.91336710500E+01 0.10760530660E+02
 0.12443891891E+02 0.13874568635E+02 0.14358521620E+02 0.13274290170E+02 0.10461907754E+02
 0.63986311885E+01 0.21153021486E+01 -.57666575933E+01 -.57671286267E+01 -.28284227408E+01
 0.21147271586E+01 0.75800681200E+01 0.12117341906E+02 0.14805823519E+02 0.15472845980E+02
 0.14595616102E+02 0.12983356601E+02 0.11259957582E+02 0.96516383927E+01 0.82813071393E+01
 0.72018873396E+01 0.64178947143E+01 0.59121765024E+01 0.56653271920E+01 0.56655095585E+01
 0.59124230728E+01 0.64177906582E+01 0.72015838947E+01 0.82812925168E+01 0.96519415488E+01
 0.11260063525E+02 0.12983008980E+02 0.14595247919E+02 0.15472936493E+02 0.14806202721E+02
 0.12117565376E+02 0.75802279082E+01 0.21153021486E+01 -.28275045111E+01 -.57664601871E+01
 -.23513891033E+01 0.33267905369E+01 0.95020247462E+01 0.14538185527E+02 0.17486327357E+02
 0.18248198161E+02 0.17388593609E+02 0.15766234107E+02 0.14015248817E+02 0.12354981710E+02
 0.10904862404E+02 0.97268751194E+01 0.88446817492E+01 0.82615126209E+01 0.79723311872E+01
 0.79721919068E+01 0.82613349315E+01 0.88447908196E+01 0.97271492307E+01 0.10904944291E+02
 0.12354867415E+02 0.14015237688E+02 0.15766317056E+02 0.17388401892E+02 0.18247743301E+02
 0.17486266438E+02 0.14538888649E+02 0.95027526987E+01 0.33264872701E+01 -.23525633354E+01
 -.57671286267E+01 -.23513891033E+01 0.23837220144E+01 0.84730488335E+01 0.14112515242E+02
 0.17998115456E+02 0.19671878209E+02 0.19451155667E+02 0.18103844714E+02 0.16413586574E+02
 0.14718726165E+02 0.13160325967E+02 0.11822749462E+02 0.10752677019E+02 0.99760156784E+01
 0.95065255670E+01 0.93496493985E+01 0.95064968870E+01 0.99760357333E+01 0.10752771695E+02
 0.11822855760E+02 0.13160420934E+02 0.14718883718E+02 0.16413798592E+02 0.18103898298E+02
 0.19450900685E+02 0.19671553071E+02 0.17998081164E+02 0.14112606495E+02 0.84725981128E+01
 0.23825131690E+01 -.23525239436E+01 -.41421601070E+01 0.33267905369E+01 0.84730488335E+01
 0.13938884869E+02 0.18232505534E+02 0.20574945268E+02 0.20988968998E+02 0.20060230424E+02
 0.18561723002E+02 0.16953495099E+02 0.15394726548E+02 0.13981435670E+02 0.12774965988E+02
 0.11821712555E+02 0.11161262287E+02 0.10823376611E+02 0.10823445187E+02 0.11161375476E+02
 0.11821725850E+02 0.12774881277E+02 0.13981391292E+02 0.15394839310E+02 0.16953768954E+02
 0.18562052118E+02 0.20060430006E+02 0.20988868120E+02 0.20574528912E+02 0.18231934322E+02
 0.13938337025E+02 0.84725990915E+01 0.33264710324E+01 0.18927484947E+00 0.18939614714E+00
 0.95020247462E+01 0.14112515242E+02 0.18232505534E+02 0.20885281795E+02 0.21812834842E+02
 0.21365892415E+02 0.20197237364E+02 0.18811443702E+02 0.17384264487E+02 0.16012711192E+02
 0.14760663376E+02 0.13684365508E+02 0.12846634609E+02 0.12311561549E+02 0.12127409811E+02
 0.12311824602E+02 0.12846804219E+02 0.13684243104E+02 0.14760452086E+02 0.16012673304E+02
 0.17384397651E+02 0.18811646556E+02 0.20197541895E+02 0.21366261210E+02 0.21812910571E+02
 0.20884741267E+02 0.18231673104E+02 0.14112210310E+02 0.95025820741E+01 0.58446575624E+01
 0.44481762168E+01 0.58439191460E+01 0.14538185527E+02 0.17998115456E+02 0.20574945268E+02
 0.21812834842E+02 0.21825051501E+02 0.21085322065E+02 0.20048941234E+02 0.18889250225E+02
 0.17694574961E+02 0.16519168965E+02 0.15413384209E+02 0.14449065762E+02 0.13721653518E+02
 0.13326093887E+02 0.13326285141E+02 0.13722004187E+02 0.14449212593E+02 0.15413289875E+02
 0.16519083098E+02 0.17694620015E+02 0.18889313961E+02 0.20048993009E+02 0.21085523083E+02
 0.21825388056E+02 0.21812925725E+02 0.20574530160E+02 0.17997568709E+02 0.14538138327E+02
 0.11187633754E+02 0.91149398511E+01 0.91146412011E+01 0.11187168799E+02 0.17486327357E+02
 0.19671878209E+02 0.20988968998E+02 0.21365892415E+02 0.21085322065E+02 0.20483988130E+02
 0.19702435191E+02 0.18811443702E+02 0.17845746831E+02 0.16834125130E+02 0.15833287085E+02
 0.14937567528E+02 0.14297457484E+02 0.14063272447E+02 0.14297704449E+02 0.14937881271E+02
 0.15833474344E+02 0.16834150342E+02 0.17845727214E+02 0.18811484328E+02 0.19702520103E+02
 0.20484052957E+02 0.21085358984E+02 0.21365911112E+02 0.20988904641E+02 0.19671639449E+02
 0.17485935047E+02 0.14953897722E+02 0.12906778248E+02 0.12119010323E+02 0.12907015000E+02
 0.14954292198E+02 0.18248198161E+02 0.19451155667E+02 0.20060230424E+02 0.20197237364E+02
 0.20048941234E+02 0.19702435191E+02 0.19203447083E+02 0.18561723002E+02 0.17774361048E+02
 0.16850808964E+02 0.15849011857E+02 0.14956150946E+02 0.14421581221E+02 0.14421667727E+02
 0.14956352520E+02 0.15849190836E+02 0.16850854650E+02 0.17774303657E+02 0.18561718873E+02
 0.19203604223E+02 0.19702668980E+02 0.20049056982E+02 0.20197150169E+02 0.20060036422E+02
 0.19450969509E+02 0.18248001078E+02 0.16617629801E+02 0.15018773113E+02 0.14022038293E+02
 0.14022175006E+02 0.15019076032E+02 0.16617909673E+02 0.17388593609E+02 0.18103844714E+02
 0.18561723002E+02 0.18811443702E+02 0.18889250225E+02 0.18811443702E+02 0.18561723002E+02
 0.18103844714E+02 0.17388593609E+02 0.16404197752E+02 0.15322056484E+02 0.14460731222E+02
 0.14130652038E+02 0.14460627730E+02 0.15322002758E+02 0.16404226697E+02 0.17388551735E+02
 0.18103679437E+02 0.18561654208E+02 0.18811686393E+02 0.18889670680E+02 0.18811686393E+02
 0.18561654208E+02 0.18103679437E+02 0.17388551735E+02 0.16404226697E+02 0.15322002758E+02
 0.14460627730E+02 0.14130652038E+02 0.14460731222E+02 0.15322056484E+02 0.16404197752E+02
 0.15766234107E+02 0.16413586574E+02 0.16953495099E+02 0.17384264487E+02 0.17694574961E+02
 0.17845746831E+02 0.17774361048E+02 0.17388593609E+02 0.16589500094E+02 0.15472845980E+02
 0.14358506555E+02 0.13657445935E+02 0.13657194852E+02 0.14358078596E+02 0.15472730660E+02
 0.16589645772E+02 0.17388557455E+02 0.17774043321E+02 0.17845564860E+02 0.17694844680E+02
 0.17384752353E+02 0.16953766400E+02 0.16413564767E+02 0.15766179045E+02 0.15034356880E+02
 0.14277078990E+02 0.13616708729E+02 0.13224553351E+02 0.13224583077E+02 0.13616721431E+02
 0.14277001145E+02 0.15034291639E+02 0.14015248817E+02 0.14718726165E+02 0.15394726548E+02
 0.16012711192E+02 0.16519168965E+02 0.16834125130E+02 0.16850808964E+02 0.16404197752E+02
 0.15472845980E+02 0.14298666826E+02 0.13312172093E+02 0.12926346778E+02 0.13311660687E+02
 0.14298200312E+02 0.15472833553E+02 0.16404445319E+02 0.16850859053E+02 0.16833856588E+02
 0.16518890118E+02 0.16012736045E+02 0.15395011171E+02 0.14718946178E+02 0.14015175423E+02
 0.13307937211E+02 0.12635514357E+02 0.12062133759E+02 0.11669596062E+02 0.11528997860E+02
 0.11669313805E+02 0.12061906578E+02 0.12635590343E+02 0.13308179076E+02 0.12354981710E+02
 0.13160325967E+02 0.13981435670E+02 0.14760663376E+02 0.15413384209E+02 0.15833287085E+02
 0.15849011857E+02 0.15322056484E+02 0.14358506555E+02 0.13312172093E+02 0.12632653061E+02
 0.12632264905E+02 0.13311383307E+02 0.14358031178E+02 0.15322201574E+02 0.15849443228E+02
 0.15833476817E+02 0.15413157561E+02 0.14760285257E+02 0.13981252050E+02 0.13160396052E+02
 0.12355075474E+02 0.11601731151E+02 0.10928657116E+02 0.10368026215E+02 0.99594976481E+01
 0.97425488012E+01 0.97424397274E+01 0.99593228407E+01 0.10368021195E+02 0.10928805492E+02
 0.11601805481E+02 0.10904862404E+02 0.11822749462E+02 0.12774965988E+02 0.13684365508E+02
 0.14449065762E+02 0.14937567528E+02 0.14956150946E+02 0.14460731222E+02 0.13657445935E+02
 0.12926346778E+02 0.12632264905E+02 0.12925523677E+02 0.13656518502E+02 0.14460387376E+02
 0.14956430171E+02 0.14938004396E+02 0.14449261513E+02 0.13684280218E+02 0.12774769016E+02
 0.11822604028E+02 0.10904872544E+02 0.10071612691E+02 0.93524227773E+01 0.87663980900E+01
 0.83300911020E+01 0.80597418442E+01 0.79681381142E+01 0.80600544538E+01 0.83303916680E+01
 0.87664198290E+01 0.93522224138E+01 0.10071432101E+02 0.97268751194E+01 0.10752677019E+02
 0.11821712555E+02 0.12846634609E+02 0.13721653518E+02 0.14297457484E+02 0.14421581221E+02
 0.14130652038E+02 0.13657194852E+02 0.13311660687E+02 0.13311383307E+02 0.13656518502E+02
 0.14129955976E+02 0.14421228998E+02 0.14297548135E+02 0.13721988268E+02 0.12846937034E+02
 0.11821857023E+02 0.10752710500E+02 0.97268978765E+01 0.88039868295E+01 0.80174783660E+01
 0.73823075192E+01 0.69035552420E+01 0.65830572424E+01 0.64223104813E+01 0.64224157641E+01
 0.65832678660E+01 0.69036828212E+01 0.73822845044E+01 0.80173831985E+01 0.88039166293E+01
 0.88446817492E+01 0.99760156784E+01 0.11161262287E+02 0.12311561549E+02 0.13326093887E+02
 0.14063272447E+02 0.14421667727E+02 0.14460627730E+02 0.14358078596E+02 0.14298200312E+02
 0.14358031178E+02 0.14460387376E+02 0.14421228998E+02 0.14062876155E+02 0.13325979952E+02
 0.12311730034E+02 0.11161533530E+02 0.99762227961E+01 0.88447455576E+01 0.78308941023E+01
 0.69701690347E+01 0.62753707536E+01 0.57454952941E+01 0.53739152269E+01 0.51538537192E+01
 0.50809184198E+01 0.51536951114E+01 0.53737171258E+01 0.57454070812E+01 0.62754457624E+01
 0.69703186929E+01 0.78309773895E+01 0.82615126209E+01 0.95065255670E+01 0.10823376611E+02
 0.12127409811E+02 0.13326285141E+02 0.14297704449E+02 0.14956352520E+02 0.15322002758E+02
 0.15472730660E+02 0.15472833553E+02 0.15322201574E+02 0.14956430171E+02 0.14297548135E+02
 0.13325979952E+02 0.12127148743E+02 0.10823289547E+02 0.95065718801E+01 0.82615342847E+01
 0.71515520687E+01 0.62119114342E+01 0.54528317454E+01 0.48682236404E+01 0.44451442054E+01
 0.41707525412E+01 0.40358512842E+01 0.40358383662E+01 0.41706740965E+01 0.44449783361E+01
 0.48680763811E+01 0.54528349472E+01 0.62120408010E+01 0.71516491096E+01 0.79723311872E+01
 0.93496493985E+01 0.10823445187E+02 0.12311824602E+02 0.13722004187E+02 0.14937881271E+02
 0.15849190836E+02 0.16404226697E+02 0.16589645772E+02 0.16404445319E+02 0.15849443228E+02
 0.14938004396E+02 0.13721988268E+02 0.12311730034E+02 0.10823289547E+02 0.93494468141E+01
 0.79721755675E+01 0.67525564771E+01 0.57239630833E+01 0.48934827120E+01 0.42501220580E+01
 0.37749727960E+01 0.34493313353E+01 0.32592225637E+01 0.31966798869E+01 0.32592357776E+01
 0.34494018237E+01 0.37750760601E+01 0.42501474709E+01 0.48933777207E+01 0.57238335401E+01
 0.67525569129E+01 0.79721919068E+01 0.95064968870E+01 0.11161375476E+02 0.12846804219E+02
 0.14449212593E+02 0.15833474344E+02 0.16850854650E+02 0.17388551735E+02 0.17388557455E+02
 0.16850859053E+02 0.15833476817E+02 0.14449261513E+02 0.12846937034E+02 0.11161533530E+02
 0.95065718801E+01 0.79721755675E+01 0.66211080775E+01 0.54858332144E+01 0.45705826769E+01
 0.38595605704E+01 0.33279237662E+01 0.29510313651E+01 0.27096915576E+01 0.25917693980E+01
 0.25917171053E+01 0.27096462847E+01 0.29511455735E+01 0.33281344001E+01 0.38596631722E+01
 0.45705154077E+01 0.54857372424E+01 0.66210994940E+01 0.82613349315E+01 0.99760357333E+01
 0.11821725850E+02 0.13684243104E+02 0.15413289875E+02 0.16834150342E+02 0.17774303657E+02
 0.18103679437E+02 0.17774043321E+02 0.16833856588E+02 0.15413157561E+02 0.13684280218E+02
 0.11821857023E+02 0.99762227961E+01 0.82615342847E+01 0.67525564771E+01 0.54858332144E+01
 0.44650412807E+01 0.36707818660E+01 0.30726108892E+01 0.26395900291E+01 0.23467409957E+01
 0.21772017614E+01 0.21216826117E+01 0.21772357918E+01 0.23467432020E+01 0.26395340221E+01
 0.30725693746E+01 0.36708377452E+01 0.44651574750E+01 0.54858733677E+01 0.67524453681E+01
 0.88447908196E+01 0.10752771695E+02 0.12774881277E+02 0.14760452086E+02 0.16519083098E+02
 0.17845727214E+02 0.18561718873E+02 0.18561654208E+02 0.17845564860E+02 0.16518890118E+02
 0.14760285257E+02 0.12774769016E+02 0.10752710500E+02 0.88447455576E+01 0.71515520687E+01
 0.57239630833E+01 0.45705826769E+01 0.36707818660E+01 0.29895205780E+01 0.24898190116E+01
 0.21404332664E+01 0.19188569197E+01 0.18112747332E+01 0.18112940468E+01 0.19188933445E+01
 0.21404313834E+01 0.24897329247E+01 0.29893749653E+01 0.36706674796E+01 0.45705654821E+01