   2   2   0   0
  0.2001288E+02  0.3839590E-09  0.3839590E-09  0.3839590E-09  0.5000000E-15
  1.000000000000000E-004
  CAR 
 Si gaussian                             
     17.96023336     -8.13056653  301      6.12128557      1.00000000
     -8.131  0.0000E+00  0.0000E+00
     -8.044  0.0000E+00  0.0000E+00
     -7.957  0.0000E+00  0.0000E+00
     -7.870  0.0000E+00  0.0000E+00
     -7.783  0.0000E+00  0.0000E+00
     -7.696  0.0000E+00  0.0000E+00
     -7.609  0.0000E+00  0.0000E+00
     -7.522  0.0000E+00  0.0000E+00
     -7.435  0.0000E+00  0.0000E+00
     -7.348  0.0000E+00  0.0000E+00
     -7.261  0.5425E-17  0.4718E-18
     -7.174  0.7064E-15  0.6191E-16
     -7.087  0.6652E-13  0.5847E-14
     -7.000  0.4374E-11  0.3862E-12
     -6.913  0.2006E-09  0.1784E-10
     -6.826  0.6438E-08  0.5778E-09
     -6.739  0.1450E-06  0.1319E-07
     -6.652  0.2301E-05  0.2133E-06
     -6.565  0.2589E-04  0.2465E-05
     -6.478  0.2078E-03  0.2054E-04
     -6.391  0.1202E-02  0.1251E-03
     -6.304  0.5078E-02  0.5668E-03
     -6.217  0.1595E-01  0.1954E-02
     -6.130  0.3818E-01  0.5275E-02
     -6.043  0.7213E-01  0.1155E-01
     -5.956  0.1123E+00  0.2131E-01
     -5.869  0.1515E+00  0.3449E-01
     -5.782  0.1857E+00  0.5064E-01
     -5.695  0.2150E+00  0.6934E-01
     -5.608  0.2408E+00  0.9028E-01
     -5.521  0.2643E+00  0.1133E+00
     -5.435  0.2860E+00  0.1381E+00
     -5.348  0.3072E+00  0.1649E+00
     -5.261  0.3274E+00  0.1933E+00
     -5.174  0.3461E+00  0.2234E+00
     -5.087  0.3657E+00  0.2552E+00
     -5.000  0.3859E+00  0.2888E+00
     -4.913  0.4033E+00  0.3239E+00
     -4.826  0.4208E+00  0.3605E+00
     -4.739  0.4426E+00  0.3990E+00
     -4.652  0.4635E+00  0.4393E+00
     -4.565  0.4797E+00  0.4810E+00
     -4.478  0.4990E+00  0.5244E+00
     -4.391  0.5261E+00  0.5701E+00
     -4.304  0.5522E+00  0.6182E+00
     -4.217  0.5724E+00  0.6679E+00
     -4.130  0.5989E+00  0.7200E+00
     -4.043  0.6424E+00  0.7759E+00
     -3.956  0.6928E+00  0.8361E+00
     -3.869  0.7368E+00  0.9002E+00
     -3.782  0.7793E+00  0.9680E+00
     -3.695  0.8212E+00  0.1039E+01
     -3.608  0.8385E+00  0.1112E+01
     -3.521  0.8187E+00  0.1184E+01
     -3.434  0.7871E+00  0.1252E+01
     -3.347  0.7660E+00  0.1319E+01
     -3.260  0.7435E+00  0.1383E+01
     -3.173  0.7081E+00  0.1445E+01
     -3.086  0.6731E+00  0.1503E+01
     -2.999  0.6477E+00  0.1560E+01
     -2.912  0.6205E+00  0.1614E+01
     -2.825  0.5850E+00  0.1665E+01
     -2.738  0.5515E+00  0.1713E+01
     -2.651  0.5233E+00  0.1758E+01
     -2.565  0.4899E+00  0.1801E+01
     -2.478  0.4492E+00  0.1840E+01
     -2.391  0.4106E+00  0.1875E+01
     -2.304  0.3741E+00  0.1908E+01
     -2.217  0.3277E+00  0.1936E+01
     -2.130  0.2683E+00  0.1960E+01
     -2.043  0.2095E+00  0.1978E+01
     -1.956  0.1672E+00  0.1993E+01
     -1.869  0.1450E+00  0.2005E+01
     -1.782  0.1417E+00  0.2017E+01
     -1.695  0.1657E+00  0.2032E+01
     -1.608  0.2214E+00  0.2051E+01
     -1.521  0.2864E+00  0.2076E+01
     -1.434  0.3361E+00  0.2105E+01
     -1.347  0.3895E+00  0.2139E+01
     -1.260  0.4906E+00  0.2182E+01
     -1.173  0.6512E+00  0.2238E+01
     -1.086  0.8482E+00  0.2312E+01
     -0.999  0.1045E+01  0.2403E+01
     -0.912  0.1179E+01  0.2506E+01
     -0.825  0.1184E+01  0.2609E+01
     -0.738  0.1071E+01  0.2702E+01
     -0.651  0.9228E+00  0.2782E+01
     -0.564  0.8073E+00  0.2852E+01
     -0.477  0.7301E+00  0.2916E+01
     -0.390  0.6707E+00  0.2974E+01
     -0.303  0.6184E+00  0.3028E+01
     -0.216  0.5748E+00  0.3078E+01
     -0.129  0.5413E+00  0.3125E+01
     -0.042  0.5113E+00  0.3169E+01
      0.045  0.4804E+00  0.3211E+01
      0.132  0.4536E+00  0.3251E+01
      0.218  0.4343E+00  0.3288E+01
      0.305  0.4152E+00  0.3325E+01
      0.392  0.3911E+00  0.3359E+01
      0.479  0.3683E+00  0.3391E+01
      0.566  0.3511E+00  0.3421E+01
      0.653  0.3370E+00  0.3450E+01
      0.740  0.3272E+00  0.3479E+01
      0.827  0.3158E+00  0.3506E+01
      0.914  0.2937E+00  0.3532E+01
      1.001  0.2706E+00  0.3555E+01
      1.088  0.2613E+00  0.3578E+01
      1.175  0.2664E+00  0.3601E+01
      1.262  0.2842E+00  0.3626E+01
      1.349  0.3254E+00  0.3654E+01
      1.436  0.4123E+00  0.3690E+01
      1.523  0.5607E+00  0.3739E+01
      1.610  0.7506E+00  0.3804E+01
      1.697  0.9322E+00  0.3885E+01
      1.784  0.1062E+01  0.3978E+01
      1.871  0.1116E+01  0.4075E+01
      1.958  0.1098E+01  0.4170E+01
      2.045  0.1051E+01  0.4262E+01
      2.132  0.1025E+01  0.4351E+01
      2.219  0.1030E+01  0.4440E+01
      2.306  0.1048E+01  0.4531E+01
      2.393  0.1061E+01  0.4624E+01
      2.480  0.1068E+01  0.4717E+01
      2.567  0.1082E+01  0.4811E+01
      2.654  0.1114E+01  0.4908E+01
      2.741  0.1161E+01  0.5009E+01
      2.828  0.1227E+01  0.5115E+01
      2.915  0.1321E+01  0.5230E+01
      3.002  0.1417E+01  0.5353E+01
      3.088  0.1462E+01  0.5481E+01
      3.175  0.1444E+01  0.5606E+01
      3.262  0.1425E+01  0.5730E+01
      3.349  0.1446E+01  0.5856E+01
      3.436  0.1460E+01  0.5983E+01
      3.523  0.1420E+01  0.6106E+01
      3.610  0.1362E+01  0.6225E+01
      3.697  0.1340E+01  0.6341E+01
      3.784  0.1335E+01  0.6457E+01
      3.871  0.1315E+01  0.6572E+01
      3.958  0.1284E+01  0.6683E+01
      4.045  0.1258E+01  0.6793E+01
      4.132  0.1234E+01  0.6900E+01
      4.219  0.1213E+01  0.7005E+01
      4.306  0.1199E+01  0.7110E+01
      4.393  0.1183E+01  0.7213E+01
      4.480  0.1145E+01  0.7312E+01
      4.567  0.1082E+01  0.7406E+01
      4.654  0.9947E+00  0.7493E+01
      4.741  0.8894E+00  0.7570E+01
      4.828  0.7807E+00  0.7638E+01
      4.915  0.6836E+00  0.7697E+01
      5.002  0.6032E+00  0.7750E+01
      5.089  0.5320E+00  0.7796E+01
      5.176  0.4620E+00  0.7836E+01
      5.263  0.3957E+00  0.7871E+01
      5.350  0.3411E+00  0.7900E+01
      5.437  0.2994E+00  0.7927E+01
      5.524  0.2609E+00  0.7949E+01
      5.611  0.2145E+00  0.7968E+01
      5.698  0.1596E+00  0.7982E+01
      5.785  0.1053E+00  0.7991E+01
      5.871  0.6041E-01  0.7996E+01
      5.958  0.2900E-01  0.7999E+01
      6.045  0.1127E-01  0.8000E+01
      6.132  0.4304E-02  0.8000E+01
      6.219  0.5368E-02  0.8001E+01
      6.306  0.1563E-01  0.8002E+01
      6.393  0.4002E-01  0.8005E+01
      6.480  0.8237E-01  0.8013E+01
      6.567  0.1408E+00  0.8025E+01
      6.654  0.2089E+00  0.8043E+01
      6.741  0.2801E+00  0.8067E+01
      6.828  0.3480E+00  0.8098E+01
      6.915  0.4054E+00  0.8133E+01
      7.002  0.4465E+00  0.8172E+01
      7.089  0.4750E+00  0.8213E+01
      7.176  0.5089E+00  0.8257E+01
      7.263  0.5665E+00  0.8306E+01
      7.350  0.6458E+00  0.8363E+01
      7.437  0.7316E+00  0.8426E+01
      7.524  0.8183E+00  0.8497E+01
      7.611  0.8998E+00  0.8576E+01
      7.698  0.9611E+00  0.8659E+01
      7.785  0.1015E+01  0.8748E+01
      7.872  0.1106E+01  0.8844E+01
      7.959  0.1245E+01  0.8952E+01
      8.046  0.1387E+01  0.9073E+01
      8.133  0.1492E+01  0.9202E+01
      8.220  0.1552E+01  0.9337E+01
      8.307  0.1553E+01  0.9472E+01
      8.394  0.1489E+01  0.9602E+01
      8.481  0.1389E+01  0.9723E+01
      8.568  0.1289E+01  0.9835E+01
      8.655  0.1196E+01  0.9939E+01
      8.741  0.1108E+01  0.1004E+02
      8.828  0.1066E+01  0.1013E+02
      8.915  0.1147E+01  0.1023E+02
      9.002  0.1381E+01  0.1035E+02
      9.089  0.1689E+01  0.1049E+02
      9.176  0.1915E+01  0.1066E+02
      9.263  0.1959E+01  0.1083E+02
      9.350  0.1865E+01  0.1099E+02
      9.437  0.1754E+01  0.1115E+02
      9.524  0.1679E+01  0.1129E+02
      9.611  0.1600E+01  0.1143E+02
      9.698  0.1492E+01  0.1156E+02
      9.785  0.1381E+01  0.1168E+02
      9.872  0.1309E+01  0.1180E+02
      9.959  0.1300E+01  0.1191E+02
     10.046  0.1341E+01  0.1202E+02
     10.133  0.1366E+01  0.1214E+02
     10.220  0.1324E+01  0.1226E+02
     10.307  0.1250E+01  0.1237E+02
     10.394  0.1208E+01  0.1247E+02
     10.481  0.1207E+01  0.1258E+02
     10.568  0.1212E+01  0.1268E+02
     10.655  0.1214E+01  0.1279E+02
     10.742  0.1227E+01  0.1290E+02
     10.829  0.1262E+01  0.1300E+02
     10.916  0.1303E+01  0.1312E+02
     11.003  0.1309E+01  0.1323E+02
     11.090  0.1245E+01  0.1334E+02
     11.177  0.1136E+01  0.1344E+02
     11.264  0.1047E+01  0.1353E+02
     11.351  0.1017E+01  0.1362E+02
     11.438  0.1042E+01  0.1371E+02
     11.525  0.1101E+01  0.1381E+02
     11.611  0.1165E+01  0.1391E+02
     11.698  0.1206E+01  0.1401E+02
     11.785  0.1211E+01  0.1412E+02
     11.872  0.1164E+01  0.1422E+02
     11.959  0.1050E+01  0.1431E+02
     12.046  0.9015E+00  0.1439E+02
     12.133  0.7848E+00  0.1446E+02
     12.220  0.7431E+00  0.1452E+02
     12.307  0.7681E+00  0.1459E+02
     12.394  0.8338E+00  0.1466E+02
     12.481  0.9237E+00  0.1474E+02
     12.568  0.1020E+01  0.1483E+02
     12.655  0.1090E+01  0.1492E+02
     12.742  0.1089E+01  0.1502E+02
     12.829  0.9865E+00  0.1510E+02
     12.916  0.8042E+00  0.1517E+02
     13.003  0.6176E+00  0.1523E+02
     13.090  0.4899E+00  0.1527E+02
     13.177  0.4300E+00  0.1531E+02
     13.264  0.4193E+00  0.1534E+02
     13.351  0.4488E+00  0.1538E+02
     13.438  0.5202E+00  0.1543E+02
     13.525  0.6283E+00  0.1548E+02
     13.612  0.7433E+00  0.1555E+02
     13.699  0.7952E+00  0.1562E+02
     13.786  0.7207E+00  0.1568E+02
     13.873  0.5456E+00  0.1573E+02
     13.960  0.3659E+00  0.1576E+02
     14.047  0.2483E+00  0.1578E+02
     14.134  0.1956E+00  0.1580E+02
     14.221  0.1818E+00  0.1581E+02
     14.308  0.1841E+00  0.1583E+02
     14.394  0.1949E+00  0.1585E+02
     14.481  0.2182E+00  0.1587E+02
     14.568  0.2495E+00  0.1589E+02
     14.655  0.2586E+00  0.1591E+02
     14.742  0.2156E+00  0.1593E+02
     14.829  0.1360E+00  0.1594E+02
     14.916  0.6667E-01  0.1595E+02
     15.003  0.3559E-01  0.1595E+02
     15.090  0.3800E-01  0.1595E+02
     15.177  0.5734E-01  0.1596E+02
     15.264  0.7828E-01  0.1596E+02
     15.351  0.8998E-01  0.1597E+02
     15.438  0.9013E-01  0.1598E+02
     15.525  0.8143E-01  0.1599E+02
     15.612  0.6417E-01  0.1599E+02
     15.699  0.4094E-01  0.1600E+02
     15.786  0.2057E-01  0.1600E+02
     15.873  0.9408E-02  0.1600E+02
     15.960  0.5621E-02  0.1600E+02
     16.047  0.4254E-02  0.1600E+02
     16.134  0.2773E-02  0.1600E+02
     16.221  0.1312E-02  0.1600E+02
     16.308  0.4339E-03  0.1600E+02
     16.395  0.9952E-04  0.1600E+02
     16.482  0.1580E-04  0.1600E+02
     16.569  0.1736E-05  0.1600E+02
     16.656  0.1319E-06  0.1600E+02
     16.743  0.6919E-08  0.1600E+02
     16.830  0.2506E-09  0.1600E+02
     16.917  0.6263E-11  0.1600E+02
     17.004  0.1079E-12  0.1600E+02
     17.091  0.1280E-14  0.1600E+02
     17.178  0.1053E-16  0.1600E+02
     17.264  0.0000E+00  0.1600E+02
     17.351  0.0000E+00  0.1600E+02
     17.438  0.0000E+00  0.1600E+02
     17.525  0.0000E+00  0.1600E+02
     17.612  0.0000E+00  0.1600E+02
     17.699  0.0000E+00  0.1600E+02
     17.786  0.0000E+00  0.1600E+02
     17.873  0.0000E+00  0.1600E+02
     17.960  0.0000E+00  0.1600E+02
