 running on    1 total cores
 distrk:  each k-point on    1 cores,    1 groups
 distr:  one band on    1 cores,    1 groups
 using from now: INCAR     
 vasp.5.4.4.18Apr17-6-g9f103f2a35 (build May 20 2018 16:52:39) complex          
  
 POSCAR found type information on POSCAR  Si
 POSCAR found :  1 types and       2 ions
 scaLAPACK will be used
 LDA part: xc-table for Pade appr. of Perdew
 WARNING: stress and forces are not correct
 POSCAR, INCAR and KPOINTS ok, starting setup
 FFT: planning ...
 WAVECAR not read
 reading imaginary part of occupancies ...
 charge-density read from file: Si                                      
 entering main loop
       N       E                     dE             d eps       ncg     rms          rms(c)
DAV:   1     0.143827662672E+01    0.14383E+01   -0.24347E+03  4128   0.499E+02
DAV:   2    -0.107017763873E+02   -0.12140E+02   -0.11610E+02  6392   0.645E+01
DAV:   3    -0.108378126371E+02   -0.13604E+00   -0.13603E+00  5080   0.866E+00
DAV:   4    -0.108383054887E+02   -0.49285E-03   -0.49285E-03  6776   0.563E-01
DAV:   5    -0.108383057841E+02   -0.29539E-06   -0.29427E-06  5184   0.103E-02
DAV:   6    -0.108383057861E+02   -0.20142E-08   -0.21814E-08  6704   0.601E-04
   1 F= -.10838306E+02 E0= -.10838271E+02  d E =-.701086E-04
 writing wavefunctions
