<?xml version="1.0" encoding="ISO-8859-1"?>
<modeling>
 <generator>
  <i name="program" type="string">vasp </i>
  <i name="version" type="string">5.4.4.18Apr17-6-g9f103f2a35  </i>
  <i name="subversion" type="string">(build May 20 2018 16:52:39) complex            parallel </i>
  <i name="platform" type="string">LinuxIFC </i>
  <i name="date" type="string">2022 11 04 </i>
  <i name="time" type="string">18:26:48 </i>
 </generator>
 <incar>
  <i type="string" name="SYSTEM"> Si gaussian</i>
  <i type="string" name="PREC">normal</i>
  <i type="int" name="ICHARG">    11</i>
  <i name="EDIFF">      0.00000010</i>
  <i name="ENCUT">    300.00000000</i>
  <i type="int" name="ISMEAR">     0</i>
  <i type="logical" name="LCHARG"> F  </i>
  <v type="int" name="KPOINT_BSE">    -1     0     0     0</v>
 </incar>
 <structure name="primitive_cell" >
  <crystal>
   <varray name="basis" >
    <v>       0.00000000       2.71500000       2.71500000 </v>
    <v>       2.71500000       0.00000000       2.71500000 </v>
    <v>       2.71500000       2.71500000       0.00000000 </v>
   </varray>
   <i name="volume">     40.02575175 </i>
   <varray name="rec_basis" >
    <v>      -0.18416206       0.18416206       0.18416206 </v>
    <v>       0.18416206      -0.18416206       0.18416206 </v>
    <v>       0.18416206       0.18416206      -0.18416206 </v>
   </varray>
  </crystal>
  <varray name="positions" >
   <v>       0.00000000       0.00000000       0.00000000 </v>
   <v>       0.25000000       0.25000000       0.25000000 </v>
  </varray>
 </structure>
 <varray name="primitive_index" >
  <v type="int" >        1 </v>
  <v type="int" >        2 </v>
 </varray>
 <kpoints>
  <generation param="Gamma">
   <v type="int" name="divisions">      20       20       20 </v>
   <v name="usershift">      0.00000000       0.00000000       0.00000000 </v>
   <v name="genvec1">      0.05000000       0.00000000       0.00000000 </v>
   <v name="genvec2">      0.00000000       0.05000000       0.00000000 </v>
   <v name="genvec3">      0.00000000       0.00000000       0.05000000 </v>
   <v name="shift">      0.00000000       0.00000000       0.00000000 </v>
  </generation>
  <varray name="kpointlist" >
   <v>       0.00000000       0.00000000       0.00000000 </v>
   <v>       0.05000000       0.00000000       0.00000000 </v>
   <v>       0.10000000       0.00000000       0.00000000 </v>
   <v>       0.15000000       0.00000000       0.00000000 </v>
   <v>       0.20000000       0.00000000       0.00000000 </v>
   <v>       0.25000000       0.00000000       0.00000000 </v>
   <v>       0.30000000       0.00000000       0.00000000 </v>
   <v>       0.35000000       0.00000000       0.00000000 </v>
   <v>       0.40000000       0.00000000       0.00000000 </v>
   <v>       0.45000000       0.00000000       0.00000000 </v>
   <v>       0.50000000       0.00000000       0.00000000 </v>
   <v>       0.05000000       0.05000000       0.00000000 </v>
   <v>       0.10000000       0.05000000       0.00000000 </v>
   <v>       0.15000000       0.05000000       0.00000000 </v>
   <v>       0.20000000       0.05000000       0.00000000 </v>
   <v>       0.25000000       0.05000000       0.00000000 </v>
   <v>       0.30000000       0.05000000       0.00000000 </v>
   <v>       0.35000000       0.05000000       0.00000000 </v>
   <v>       0.40000000       0.05000000       0.00000000 </v>
   <v>       0.45000000       0.05000000       0.00000000 </v>
   <v>       0.50000000       0.05000000       0.00000000 </v>
   <v>      -0.45000000       0.05000000       0.00000000 </v>
   <v>      -0.40000000       0.05000000       0.00000000 </v>
   <v>      -0.35000000       0.05000000       0.00000000 </v>
   <v>      -0.30000000       0.05000000       0.00000000 </v>
   <v>      -0.25000000       0.05000000       0.00000000 </v>
   <v>      -0.20000000       0.05000000       0.00000000 </v>
   <v>      -0.15000000       0.05000000       0.00000000 </v>
   <v>      -0.10000000       0.05000000       0.00000000 </v>
   <v>      -0.05000000       0.05000000       0.00000000 </v>
   <v>       0.10000000       0.10000000       0.00000000 </v>
   <v>       0.15000000       0.10000000       0.00000000 </v>
   <v>       0.20000000       0.10000000       0.00000000 </v>
   <v>       0.25000000       0.10000000       0.00000000 </v>
   <v>       0.30000000       0.10000000       0.00000000 </v>
   <v>       0.35000000       0.10000000       0.00000000 </v>
   <v>       0.40000000       0.10000000       0.00000000 </v>
   <v>       0.45000000       0.10000000       0.00000000 </v>
   <v>       0.50000000       0.10000000       0.00000000 </v>
   <v>      -0.45000000       0.10000000       0.00000000 </v>
   <v>      -0.40000000       0.10000000       0.00000000 </v>
   <v>      -0.35000000       0.10000000       0.00000000 </v>
   <v>      -0.30000000       0.10000000       0.00000000 </v>
   <v>      -0.25000000       0.10000000       0.00000000 </v>
   <v>      -0.20000000       0.10000000       0.00000000 </v>
   <v>      -0.15000000       0.10000000       0.00000000 </v>
   <v>      -0.10000000       0.10000000       0.00000000 </v>
   <v>       0.15000000       0.15000000       0.00000000 </v>
   <v>       0.20000000       0.15000000       0.00000000 </v>
   <v>       0.25000000       0.15000000       0.00000000 </v>
   <v>       0.30000000       0.15000000       0.00000000 </v>
   <v>       0.35000000       0.15000000       0.00000000 </v>
   <v>       0.40000000       0.15000000       0.00000000 </v>
   <v>       0.45000000       0.15000000       0.00000000 </v>
   <v>       0.50000000       0.15000000       0.00000000 </v>
   <v>      -0.45000000       0.15000000       0.00000000 </v>
   <v>      -0.40000000       0.15000000       0.00000000 </v>
   <v>      -0.35000000       0.15000000       0.00000000 </v>
   <v>      -0.30000000       0.15000000       0.00000000 </v>
   <v>      -0.25000000       0.15000000       0.00000000 </v>
   <v>      -0.20000000       0.15000000       0.00000000 </v>
   <v>      -0.15000000       0.15000000       0.00000000 </v>
   <v>       0.20000000       0.20000000       0.00000000 </v>
   <v>       0.25000000       0.20000000       0.00000000 </v>
   <v>       0.30000000       0.20000000       0.00000000 </v>
   <v>       0.35000000       0.20000000       0.00000000 </v>
   <v>       0.40000000       0.20000000       0.00000000 </v>
   <v>       0.45000000       0.20000000       0.00000000 </v>
   <v>       0.50000000       0.20000000       0.00000000 </v>
   <v>      -0.45000000       0.20000000       0.00000000 </v>
   <v>      -0.40000000       0.20000000       0.00000000 </v>
   <v>      -0.35000000       0.20000000       0.00000000 </v>
   <v>      -0.30000000       0.20000000       0.00000000 </v>
   <v>      -0.25000000       0.20000000       0.00000000 </v>
   <v>      -0.20000000       0.20000000       0.00000000 </v>
   <v>       0.25000000       0.25000000       0.00000000 </v>
   <v>       0.30000000       0.25000000       0.00000000 </v>
   <v>       0.35000000       0.25000000       0.00000000 </v>
   <v>       0.40000000       0.25000000       0.00000000 </v>
   <v>       0.45000000       0.25000000       0.00000000 </v>
   <v>       0.50000000       0.25000000       0.00000000 </v>
   <v>      -0.45000000       0.25000000       0.00000000 </v>
   <v>      -0.40000000       0.25000000       0.00000000 </v>
   <v>      -0.35000000       0.25000000       0.00000000 </v>
   <v>      -0.30000000       0.25000000       0.00000000 </v>
   <v>      -0.25000000       0.25000000       0.00000000 </v>
   <v>       0.30000000       0.30000000       0.00000000 </v>
   <v>       0.35000000       0.30000000       0.00000000 </v>
   <v>       0.40000000       0.30000000       0.00000000 </v>
   <v>       0.45000000       0.30000000       0.00000000 </v>
   <v>       0.50000000       0.30000000       0.00000000 </v>
   <v>      -0.45000000       0.30000000       0.00000000 </v>
   <v>      -0.40000000       0.30000000       0.00000000 </v>
   <v>      -0.35000000       0.30000000       0.00000000 </v>
   <v>      -0.30000000       0.30000000       0.00000000 </v>
   <v>       0.35000000       0.35000000       0.00000000 </v>
   <v>       0.40000000       0.35000000       0.00000000 </v>
   <v>       0.45000000       0.35000000       0.00000000 </v>
   <v>       0.50000000       0.35000000       0.00000000 </v>
   <v>      -0.45000000       0.35000000       0.00000000 </v>
   <v>      -0.40000000       0.35000000       0.00000000 </v>
   <v>      -0.35000000       0.35000000       0.00000000 </v>
   <v>       0.40000000       0.40000000       0.00000000 </v>
   <v>       0.45000000       0.40000000       0.00000000 </v>
   <v>       0.50000000       0.40000000       0.00000000 </v>
   <v>      -0.45000000       0.40000000       0.00000000 </v>
   <v>      -0.40000000       0.40000000       0.00000000 </v>
   <v>       0.45000000       0.45000000       0.00000000 </v>
   <v>       0.50000000       0.45000000       0.00000000 </v>
   <v>      -0.45000000       0.45000000       0.00000000 </v>
   <v>       0.50000000       0.50000000       0.00000000 </v>
   <v>       0.15000000       0.10000000       0.05000000 </v>
   <v>       0.20000000       0.10000000       0.05000000 </v>
   <v>       0.25000000       0.10000000       0.05000000 </v>
   <v>       0.30000000       0.10000000       0.05000000 </v>
   <v>       0.35000000       0.10000000       0.05000000 </v>
   <v>       0.40000000       0.10000000       0.05000000 </v>
   <v>       0.45000000       0.10000000       0.05000000 </v>
   <v>       0.50000000       0.10000000       0.05000000 </v>
   <v>      -0.45000000       0.10000000       0.05000000 </v>
   <v>       0.20000000       0.15000000       0.05000000 </v>
   <v>       0.25000000       0.15000000       0.05000000 </v>
   <v>       0.30000000       0.15000000       0.05000000 </v>
   <v>       0.35000000       0.15000000       0.05000000 </v>
   <v>       0.40000000       0.15000000       0.05000000 </v>
   <v>       0.45000000       0.15000000       0.05000000 </v>
   <v>       0.50000000       0.15000000       0.05000000 </v>
   <v>      -0.45000000       0.15000000       0.05000000 </v>
   <v>      -0.40000000       0.15000000       0.05000000 </v>
   <v>      -0.35000000       0.15000000       0.05000000 </v>
   <v>      -0.30000000       0.15000000       0.05000000 </v>
   <v>      -0.25000000       0.15000000       0.05000000 </v>
   <v>      -0.20000000       0.15000000       0.05000000 </v>
   <v>      -0.15000000       0.15000000       0.05000000 </v>
   <v>      -0.10000000       0.15000000       0.05000000 </v>
   <v>       0.25000000       0.20000000       0.05000000 </v>
   <v>       0.30000000       0.20000000       0.05000000 </v>
   <v>       0.35000000       0.20000000       0.05000000 </v>
   <v>       0.40000000       0.20000000       0.05000000 </v>
   <v>       0.45000000       0.20000000       0.05000000 </v>
   <v>       0.50000000       0.20000000       0.05000000 </v>
   <v>      -0.45000000       0.20000000       0.05000000 </v>
   <v>      -0.40000000       0.20000000       0.05000000 </v>
   <v>      -0.35000000       0.20000000       0.05000000 </v>
   <v>      -0.30000000       0.20000000       0.05000000 </v>
   <v>      -0.25000000       0.20000000       0.05000000 </v>
   <v>      -0.20000000       0.20000000       0.05000000 </v>
   <v>      -0.15000000       0.20000000       0.05000000 </v>
   <v>       0.30000000       0.25000000       0.05000000 </v>
   <v>       0.35000000       0.25000000       0.05000000 </v>
   <v>       0.40000000       0.25000000       0.05000000 </v>
   <v>       0.45000000       0.25000000       0.05000000 </v>
   <v>       0.50000000       0.25000000       0.05000000 </v>
   <v>      -0.45000000       0.25000000       0.05000000 </v>
   <v>      -0.40000000       0.25000000       0.05000000 </v>
   <v>      -0.35000000       0.25000000       0.05000000 </v>
   <v>      -0.30000000       0.25000000       0.05000000 </v>
   <v>      -0.25000000       0.25000000       0.05000000 </v>
   <v>      -0.20000000       0.25000000       0.05000000 </v>
   <v>       0.35000000       0.30000000       0.05000000 </v>
   <v>       0.40000000       0.30000000       0.05000000 </v>
   <v>       0.45000000       0.30000000       0.05000000 </v>
   <v>       0.50000000       0.30000000       0.05000000 </v>
   <v>      -0.45000000       0.30000000       0.05000000 </v>
   <v>      -0.40000000       0.30000000       0.05000000 </v>
   <v>      -0.35000000       0.30000000       0.05000000 </v>
   <v>      -0.30000000       0.30000000       0.05000000 </v>
   <v>      -0.25000000       0.30000000       0.05000000 </v>
   <v>       0.40000000       0.35000000       0.05000000 </v>
   <v>       0.45000000       0.35000000       0.05000000 </v>
   <v>       0.50000000       0.35000000       0.05000000 </v>
   <v>      -0.45000000       0.35000000       0.05000000 </v>
   <v>      -0.40000000       0.35000000       0.05000000 </v>
   <v>      -0.35000000       0.35000000       0.05000000 </v>
   <v>      -0.30000000       0.35000000       0.05000000 </v>
   <v>       0.45000000       0.40000000       0.05000000 </v>
   <v>       0.50000000       0.40000000       0.05000000 </v>
   <v>      -0.45000000       0.40000000       0.05000000 </v>
   <v>      -0.40000000       0.40000000       0.05000000 </v>
   <v>      -0.35000000       0.40000000       0.05000000 </v>
   <v>       0.50000000       0.45000000       0.05000000 </v>
   <v>      -0.45000000       0.45000000       0.05000000 </v>
   <v>      -0.40000000       0.45000000       0.05000000 </v>
   <v>      -0.45000000       0.50000000       0.05000000 </v>
   <v>       0.30000000       0.20000000       0.10000000 </v>
   <v>       0.35000000       0.20000000       0.10000000 </v>
   <v>       0.40000000       0.20000000       0.10000000 </v>
   <v>       0.45000000       0.20000000       0.10000000 </v>
   <v>       0.50000000       0.20000000       0.10000000 </v>
   <v>      -0.45000000       0.20000000       0.10000000 </v>
   <v>      -0.40000000       0.20000000       0.10000000 </v>
   <v>       0.35000000       0.25000000       0.10000000 </v>
   <v>       0.40000000       0.25000000       0.10000000 </v>
   <v>       0.45000000       0.25000000       0.10000000 </v>
   <v>       0.50000000       0.25000000       0.10000000 </v>
   <v>      -0.45000000       0.25000000       0.10000000 </v>
   <v>      -0.40000000       0.25000000       0.10000000 </v>
   <v>      -0.35000000       0.25000000       0.10000000 </v>
   <v>      -0.30000000       0.25000000       0.10000000 </v>
   <v>      -0.25000000       0.25000000       0.10000000 </v>
   <v>      -0.20000000       0.25000000       0.10000000 </v>
   <v>      -0.15000000       0.25000000       0.10000000 </v>
   <v>       0.40000000       0.30000000       0.10000000 </v>
   <v>       0.45000000       0.30000000       0.10000000 </v>
   <v>       0.50000000       0.30000000       0.10000000 </v>
   <v>      -0.45000000       0.30000000       0.10000000 </v>
   <v>      -0.40000000       0.30000000       0.10000000 </v>
   <v>      -0.35000000       0.30000000       0.10000000 </v>
   <v>      -0.30000000       0.30000000       0.10000000 </v>
   <v>      -0.25000000       0.30000000       0.10000000 </v>
   <v>      -0.20000000       0.30000000       0.10000000 </v>
   <v>       0.45000000       0.35000000       0.10000000 </v>
   <v>       0.50000000       0.35000000       0.10000000 </v>
   <v>      -0.45000000       0.35000000       0.10000000 </v>
   <v>      -0.40000000       0.35000000       0.10000000 </v>
   <v>      -0.35000000       0.35000000       0.10000000 </v>
   <v>      -0.30000000       0.35000000       0.10000000 </v>
   <v>      -0.25000000       0.35000000       0.10000000 </v>
   <v>       0.50000000       0.40000000       0.10000000 </v>
   <v>      -0.45000000       0.40000000       0.10000000 </v>
   <v>      -0.40000000       0.40000000       0.10000000 </v>
   <v>      -0.35000000       0.40000000       0.10000000 </v>
   <v>      -0.30000000       0.40000000       0.10000000 </v>
   <v>      -0.45000000       0.45000000       0.10000000 </v>
   <v>      -0.40000000       0.45000000       0.10000000 </v>
   <v>      -0.35000000       0.45000000       0.10000000 </v>
   <v>      -0.40000000       0.50000000       0.10000000 </v>
   <v>       0.45000000       0.30000000       0.15000000 </v>
   <v>       0.50000000       0.30000000       0.15000000 </v>
   <v>      -0.45000000       0.30000000       0.15000000 </v>
   <v>      -0.40000000       0.30000000       0.15000000 </v>
   <v>      -0.35000000       0.30000000       0.15000000 </v>
   <v>       0.50000000       0.35000000       0.15000000 </v>
   <v>      -0.45000000       0.35000000       0.15000000 </v>
   <v>      -0.40000000       0.35000000       0.15000000 </v>
   <v>      -0.35000000       0.35000000       0.15000000 </v>
   <v>      -0.30000000       0.35000000       0.15000000 </v>
   <v>      -0.25000000       0.35000000       0.15000000 </v>
   <v>      -0.20000000       0.35000000       0.15000000 </v>
   <v>      -0.45000000       0.40000000       0.15000000 </v>
   <v>      -0.40000000       0.40000000       0.15000000 </v>
   <v>      -0.35000000       0.40000000       0.15000000 </v>
   <v>      -0.30000000       0.40000000       0.15000000 </v>
   <v>      -0.25000000       0.40000000       0.15000000 </v>
   <v>      -0.40000000       0.45000000       0.15000000 </v>
   <v>      -0.35000000       0.45000000       0.15000000 </v>
   <v>      -0.30000000       0.45000000       0.15000000 </v>
   <v>      -0.35000000       0.50000000       0.15000000 </v>
   <v>      -0.40000000       0.40000000       0.20000000 </v>
   <v>      -0.35000000       0.40000000       0.20000000 </v>
   <v>      -0.30000000       0.40000000       0.20000000 </v>
   <v>      -0.35000000       0.45000000       0.20000000 </v>
   <v>      -0.30000000       0.45000000       0.20000000 </v>
   <v>      -0.25000000       0.45000000       0.20000000 </v>
   <v>      -0.30000000       0.50000000       0.20000000 </v>
   <v>      -0.25000000       0.50000000       0.25000000 </v>
  </varray>
  <varray name="weights" >
   <v>       0.00012500 </v>
   <v>       0.00100000 </v>
   <v>       0.00100000 </v>
   <v>       0.00100000 </v>
   <v>       0.00100000 </v>
   <v>       0.00100000 </v>
   <v>       0.00100000 </v>
   <v>       0.00100000 </v>
   <v>       0.00100000 </v>
   <v>       0.00100000 </v>
   <v>       0.00050000 </v>
   <v>       0.00075000 </v>
   <v>       0.00300000 </v>
   <v>       0.00300000 </v>
   <v>       0.00300000 </v>
   <v>       0.00300000 </v>
   <v>       0.00300000 </v>
   <v>       0.00300000 </v>
   <v>       0.00300000 </v>
   <v>       0.00300000 </v>
   <v>       0.00300000 </v>
   <v>       0.00300000 </v>
   <v>       0.00300000 </v>
   <v>       0.00300000 </v>
   <v>       0.00300000 </v>
   <v>       0.00300000 </v>
   <v>       0.00300000 </v>
   <v>       0.00300000 </v>
   <v>       0.00300000 </v>
   <v>       0.00150000 </v>
   <v>       0.00075000 </v>
   <v>       0.00300000 </v>
   <v>       0.00300000 </v>
   <v>       0.00300000 </v>
   <v>       0.00300000 </v>
   <v>       0.00300000 </v>
   <v>       0.00300000 </v>
   <v>       0.00300000 </v>
   <v>       0.00300000 </v>
   <v>       0.00300000 </v>
   <v>       0.00300000 </v>
   <v>       0.00300000 </v>
   <v>       0.00300000 </v>
   <v>       0.00300000 </v>
   <v>       0.00300000 </v>
   <v>       0.00300000 </v>
   <v>       0.00150000 </v>
   <v>       0.00075000 </v>
   <v>       0.00300000 </v>
   <v>       0.00300000 </v>
   <v>       0.00300000 </v>
   <v>       0.00300000 </v>
   <v>       0.00300000 </v>
   <v>       0.00300000 </v>
   <v>       0.00300000 </v>
   <v>       0.00300000 </v>
   <v>       0.00300000 </v>
   <v>       0.00300000 </v>
   <v>       0.00300000 </v>
   <v>       0.00300000 </v>
   <v>       0.00300000 </v>
   <v>       0.00150000 </v>
   <v>       0.00075000 </v>
   <v>       0.00300000 </v>
   <v>       0.00300000 </v>
   <v>       0.00300000 </v>
   <v>       0.00300000 </v>
   <v>       0.00300000 </v>
   <v>       0.00300000 </v>
   <v>       0.00300000 </v>
   <v>       0.00300000 </v>
   <v>       0.00300000 </v>
   <v>       0.00300000 </v>
   <v>       0.00300000 </v>
   <v>       0.00150000 </v>
   <v>       0.00075000 </v>
   <v>       0.00300000 </v>
   <v>       0.00300000 </v>
   <v>       0.00300000 </v>
   <v>       0.00300000 </v>
   <v>       0.00300000 </v>
   <v>       0.00300000 </v>
   <v>       0.00300000 </v>
   <v>       0.00300000 </v>
   <v>       0.00300000 </v>
   <v>       0.00150000 </v>
   <v>       0.00075000 </v>
   <v>       0.00300000 </v>
   <v>       0.00300000 </v>
   <v>       0.00300000 </v>
   <v>       0.00300000 </v>
   <v>       0.00300000 </v>
   <v>       0.00300000 </v>
   <v>       0.00300000 </v>
   <v>       0.00150000 </v>
   <v>       0.00075000 </v>
   <v>       0.00300000 </v>
   <v>       0.00300000 </v>
   <v>       0.00300000 </v>
   <v>       0.00300000 </v>
   <v>       0.00300000 </v>
   <v>       0.00150000 </v>
   <v>       0.00075000 </v>
   <v>       0.00300000 </v>
   <v>       0.00300000 </v>
   <v>       0.00300000 </v>
   <v>       0.00150000 </v>
   <v>       0.00075000 </v>
   <v>       0.00300000 </v>
   <v>       0.00150000 </v>
   <v>       0.00037500 </v>
   <v>       0.00300000 </v>
   <v>       0.00600000 </v>
   <v>       0.00600000 </v>
   <v>       0.00600000 </v>
   <v>       0.00600000 </v>
   <v>       0.00600000 </v>
   <v>       0.00600000 </v>
   <v>       0.00600000 </v>
   <v>       0.00300000 </v>
   <v>       0.00300000 </v>
   <v>       0.00600000 </v>
   <v>       0.00600000 </v>
   <v>       0.00600000 </v>
   <v>       0.00600000 </v>
   <v>       0.00600000 </v>
   <v>       0.00600000 </v>
   <v>       0.00600000 </v>
   <v>       0.00600000 </v>
   <v>       0.00600000 </v>
   <v>       0.00600000 </v>
   <v>       0.00600000 </v>
   <v>       0.00600000 </v>
   <v>       0.00600000 </v>
   <v>       0.00300000 </v>
   <v>       0.00300000 </v>
   <v>       0.00600000 </v>
   <v>       0.00600000 </v>
   <v>       0.00600000 </v>
   <v>       0.00600000 </v>
   <v>       0.00600000 </v>
   <v>       0.00600000 </v>
   <v>       0.00600000 </v>
   <v>       0.00600000 </v>
   <v>       0.00600000 </v>
   <v>       0.00600000 </v>
   <v>       0.00600000 </v>
   <v>       0.00300000 </v>
   <v>       0.00300000 </v>
   <v>       0.00600000 </v>
   <v>       0.00600000 </v>
   <v>       0.00600000 </v>
   <v>       0.00600000 </v>
   <v>       0.00600000 </v>
   <v>       0.00600000 </v>
   <v>       0.00600000 </v>
   <v>       0.00600000 </v>
   <v>       0.00600000 </v>
   <v>       0.00300000 </v>
   <v>       0.00300000 </v>
   <v>       0.00600000 </v>
   <v>       0.00600000 </v>
   <v>       0.00600000 </v>
   <v>       0.00600000 </v>
   <v>       0.00600000 </v>
   <v>       0.00600000 </v>
   <v>       0.00600000 </v>
   <v>       0.00300000 </v>
   <v>       0.00300000 </v>
   <v>       0.00600000 </v>
   <v>       0.00600000 </v>
   <v>       0.00600000 </v>
   <v>       0.00600000 </v>
   <v>       0.00600000 </v>
   <v>       0.00300000 </v>
   <v>       0.00300000 </v>
   <v>       0.00600000 </v>
   <v>       0.00600000 </v>
   <v>       0.00600000 </v>
   <v>       0.00300000 </v>
   <v>       0.00300000 </v>
   <v>       0.00600000 </v>
   <v>       0.00300000 </v>
   <v>       0.00150000 </v>
   <v>       0.00300000 </v>
   <v>       0.00600000 </v>
   <v>       0.00600000 </v>
   <v>       0.00600000 </v>
   <v>       0.00600000 </v>
   <v>       0.00600000 </v>
   <v>       0.00300000 </v>
   <v>       0.00300000 </v>
   <v>       0.00600000 </v>
   <v>       0.00600000 </v>
   <v>       0.00600000 </v>
   <v>       0.00600000 </v>
   <v>       0.00600000 </v>
   <v>       0.00600000 </v>
   <v>       0.00600000 </v>
   <v>       0.00600000 </v>
   <v>       0.00600000 </v>
   <v>       0.00300000 </v>
   <v>       0.00300000 </v>
   <v>       0.00600000 </v>
   <v>       0.00600000 </v>
   <v>       0.00600000 </v>
   <v>       0.00600000 </v>
   <v>       0.00600000 </v>
   <v>       0.00600000 </v>
   <v>       0.00600000 </v>
   <v>       0.00300000 </v>
   <v>       0.00300000 </v>
   <v>       0.00600000 </v>
   <v>       0.00600000 </v>
   <v>       0.00600000 </v>
   <v>       0.00600000 </v>
   <v>       0.00600000 </v>
   <v>       0.00300000 </v>
   <v>       0.00300000 </v>
   <v>       0.00600000 </v>
   <v>       0.00600000 </v>
   <v>       0.00600000 </v>
   <v>       0.00300000 </v>
   <v>       0.00300000 </v>
   <v>       0.00600000 </v>
   <v>       0.00300000 </v>
   <v>       0.00150000 </v>
   <v>       0.00300000 </v>
   <v>       0.00600000 </v>
   <v>       0.00600000 </v>
   <v>       0.00600000 </v>
   <v>       0.00300000 </v>
   <v>       0.00300000 </v>
   <v>       0.00600000 </v>
   <v>       0.00600000 </v>
   <v>       0.00600000 </v>
   <v>       0.00600000 </v>
   <v>       0.00600000 </v>
   <v>       0.00300000 </v>
   <v>       0.00300000 </v>
   <v>       0.00600000 </v>
   <v>       0.00600000 </v>
   <v>       0.00600000 </v>
   <v>       0.00300000 </v>
   <v>       0.00300000 </v>
   <v>       0.00600000 </v>
   <v>       0.00300000 </v>
   <v>       0.00150000 </v>
   <v>       0.00300000 </v>
   <v>       0.00600000 </v>
   <v>       0.00300000 </v>
   <v>       0.00300000 </v>
   <v>       0.00600000 </v>
   <v>       0.00300000 </v>
   <v>       0.00150000 </v>
   <v>       0.00075000 </v>
  </varray>
 </kpoints>
 <parameters>
  <separator name="general" >
   <i type="string" name="SYSTEM">Si gaussian</i>
   <i type="logical" name="LCOMPAT"> F  </i>
  </separator>
  <separator name="electronic" >
   <i type="string" name="PREC">normal</i>
   <i name="ENMAX">    300.00000000</i>
   <i name="ENAUG">    322.06900000</i>
   <i name="EDIFF">      0.00000010</i>
   <i type="int" name="IALGO">    38</i>
   <i type="int" name="IWAVPR">    10</i>
   <i type="int" name="NBANDS">     8</i>
   <i name="NELECT">      8.00000000</i>
   <i type="int" name="TURBO">     0</i>
   <i type="int" name="IRESTART">     0</i>
   <i type="int" name="NREBOOT">     0</i>
   <i type="int" name="NMIN">     0</i>
   <i name="EREF">      0.00000000</i>
   <separator name="electronic smearing" >
    <i type="int" name="ISMEAR">     0</i>
    <i name="SIGMA">      0.20000000</i>
    <i name="KSPACING">      0.50000000</i>
    <i type="logical" name="KGAMMA"> T  </i>
   </separator>
   <separator name="electronic projectors" >
    <i type="logical" name="LREAL"> F  </i>
    <v name="ROPT">      0.00000000</v>
    <i type="int" name="LMAXPAW">  -100</i>
    <i type="int" name="LMAXMIX">     2</i>
    <i type="logical" name="NLSPLINE"> F  </i>
   </separator>
   <separator name="electronic startup" >
    <i type="int" name="ISTART">     0</i>
    <i type="int" name="ICHARG">    11</i>
    <i type="int" name="INIWAV">     1</i>
   </separator>
   <separator name="electronic spin" >
    <i type="int" name="ISPIN">     1</i>
    <i type="logical" name="LNONCOLLINEAR"> F  </i>
    <v name="MAGMOM">      1.00000000      1.00000000</v>
    <i name="NUPDOWN">     -1.00000000</i>
    <i type="logical" name="LSORBIT"> F  </i>
    <v name="SAXIS">      0.00000000      0.00000000      1.00000000</v>
    <i type="logical" name="LSPIRAL"> F  </i>
    <v name="QSPIRAL">      0.00000000      0.00000000      0.00000000</v>
    <i type="logical" name="LZEROZ"> F  </i>
   </separator>
   <separator name="electronic exchange-correlation" >
    <i type="logical" name="LASPH"> F  </i>
    <i type="logical" name="LMETAGGA"> F  </i>
   </separator>
   <separator name="electronic convergence" >
    <i type="int" name="NELM">    60</i>
    <i type="int" name="NELMDL">    -5</i>
    <i type="int" name="NELMIN">     2</i>
    <i name="ENINI">    300.00000000</i>
    <separator name="electronic convergence detail" >
     <i type="logical" name="LDIAG"> T  </i>
     <i type="logical" name="LSUBROT"> F  </i>
     <i name="WEIMIN">      0.00000000</i>
     <i name="EBREAK">      0.00000000</i>
     <i name="DEPER">      0.30000000</i>
     <i type="int" name="NRMM">     4</i>
     <i name="TIME">      0.40000000</i>
    </separator>
   </separator>
   <separator name="electronic mixer" >
    <i name="AMIX">      0.40000000</i>
    <i name="BMIX">      1.00000000</i>
    <i name="AMIN">      0.10000000</i>
    <i name="AMIX_MAG">      1.60000000</i>
    <i name="BMIX_MAG">      1.00000000</i>
    <separator name="electronic mixer details" >
     <i type="int" name="IMIX">     4</i>
     <i type="logical" name="MIXFIRST"> F  </i>
     <i type="int" name="MAXMIX">   -45</i>
     <i name="WC">    100.00000000</i>
     <i type="int" name="INIMIX">     1</i>
     <i type="int" name="MIXPRE">     1</i>
     <i type="int" name="MREMOVE">     5</i>
    </separator>
   </separator>
   <separator name="electronic dipolcorrection" >
    <i type="logical" name="LDIPOL"> F  </i>
    <i type="logical" name="LMONO"> F  </i>
    <i type="int" name="IDIPOL">     0</i>
    <i name="EPSILON">      1.00000000</i>
    <v name="DIPOL">   -100.00000000   -100.00000000   -100.00000000</v>
    <i name="EFIELD">      0.00000000</i>
   </separator>
  </separator>
  <separator name="grids" >
   <i type="int" name="NGX">    16</i>
   <i type="int" name="NGY">    16</i>
   <i type="int" name="NGZ">    16</i>
   <i type="int" name="NGXF">    32</i>
   <i type="int" name="NGYF">    32</i>
   <i type="int" name="NGZF">    32</i>
   <i type="logical" name="ADDGRID"> F  </i>
  </separator>
  <separator name="ionic" >
   <i type="int" name="NSW">     0</i>
   <i type="int" name="IBRION">    -1</i>
   <i type="int" name="MDALGO">     0</i>
   <i type="int" name="ISIF">     2</i>
   <i name="PSTRESS">      0.00000000</i>
   <i name="EDIFFG">      0.00000100</i>
   <i type="int" name="NFREE">     0</i>
   <i name="POTIM">      0.50000000</i>
   <i name="SMASS">     -3.00000000</i>
   <i name="SCALEE">      1.00000000</i>
  </separator>
  <separator name="ionic md" >
   <i name="TEBEG">      0.00010000</i>
   <i name="TEEND">      0.00010000</i>
   <i type="int" name="NBLOCK">     1</i>
   <i type="int" name="KBLOCK">     1</i>
   <i type="int" name="NPACO">   256</i>
   <i name="APACO">     16.00000000</i>
  </separator>
  <separator name="symmetry" >
   <i type="int" name="ISYM">     2</i>
   <i name="SYMPREC">      0.00001000</i>
  </separator>
  <separator name="dos" >
   <i type="int" name="LORBIT">     0</i>
   <v name="RWIGS">     -1.00000000</v>
   <i type="int" name="NEDOS">   301</i>
   <i name="EMIN">     10.00000000</i>
   <i name="EMAX">    -10.00000000</i>
   <i name="EFERMI">      0.00000000</i>
  </separator>
  <separator name="writing" >
   <i type="int" name="NWRITE">     2</i>
   <i type="logical" name="LWAVE"> T  </i>
   <i type="logical" name="LDOWNSAMPLE"> F  </i>
   <i type="logical" name="LCHARG"> F  </i>
   <i type="logical" name="LPARD"> F  </i>
   <i type="logical" name="LVTOT"> F  </i>
   <i type="logical" name="LVHAR"> F  </i>
   <i type="logical" name="LELF"> F  </i>
   <i type="logical" name="LOPTICS"> F  </i>
   <v name="STM">      0.00000000      0.00000000      0.00000000      0.00000000      0.00000000      0.00000000      0.00000000</v>
  </separator>
  <separator name="performance" >
   <i type="int" name="NPAR">     1</i>
   <i type="int" name="NSIM">     4</i>
   <i type="int" name="NBLK">    -1</i>
   <i type="logical" name="LPLANE"> T  </i>
   <i type="logical" name="LSCALAPACK"> T  </i>
   <i type="logical" name="LSCAAWARE"> F  </i>
   <i type="logical" name="LSCALU"> F  </i>
   <i type="logical" name="LASYNC"> F  </i>
   <i type="logical" name="LORBITALREAL"> F  </i>
  </separator>
  <separator name="miscellaneous" >
   <i type="int" name="IDIOT">     3</i>
   <i type="int" name="ISPECIAL">     0</i>
   <i type="logical" name="LMUSIC"> F  </i>
   <v name="POMASS">     28.08500000</v>
   <v name="DARWINR">      0.00000000</v>
   <v name="DARWINV">      1.00000000</v>
   <i type="logical" name="LCORR"> T  </i>
  </separator>
  <i type="logical" name="GGA_COMPAT"> T  </i>
  <i type="logical" name="LBERRY"> F  </i>
  <i type="int" name="ICORELEVEL">     0</i>
  <i type="logical" name="LDAU"> F  </i>
  <i type="int" name="I_CONSTRAINED_M">     0</i>
  <separator name="electronic exchange-correlation" >
   <i type="string" name="GGA">--</i>
   <i type="int" name="VOSKOWN">     0</i>
   <i type="logical" name="LHFCALC"> F  </i>
   <i type="string" name="PRECFOCK"></i>
   <i type="logical" name="LSYMGRAD"> F  </i>
   <i type="logical" name="LHFONE"> F  </i>
   <i type="logical" name="LRHFCALC"> F  </i>
   <i type="logical" name="LTHOMAS"> F  </i>
   <i type="logical" name="LMODELHF"> F  </i>
   <i name="ENCUT4O">     -1.00000000</i>
   <i type="int" name="EXXOEP">     0</i>
   <i type="int" name="FOURORBIT">     0</i>
   <i name="AEXX">      0.00000000</i>
   <i name="HFALPHA">      0.00000000</i>
   <i name="MCALPHA">      0.00000000</i>
   <i name="ALDAX">      1.00000000</i>
   <i name="AGGAX">      1.00000000</i>
   <i name="ALDAC">      1.00000000</i>
   <i name="AGGAC">      1.00000000</i>
   <i type="int" name="NKREDX">     1</i>
   <i type="int" name="NKREDY">     1</i>
   <i type="int" name="NKREDZ">     1</i>
   <i type="logical" name="SHIFTRED"> F  </i>
   <i type="logical" name="ODDONLY"> F  </i>
   <i type="logical" name="EVENONLY"> F  </i>
   <i type="int" name="LMAXFOCK">     0</i>
   <i type="int" name="NMAXFOCKAE">     0</i>
   <i type="logical" name="LFOCKAEDFT"> F  </i>
   <i name="HFSCREEN">      0.00000000</i>
   <i name="HFSCREENC">      0.00000000</i>
   <i type="int" name="NBANDSGWLOW">     0</i>
  </separator>
  <separator name="vdW DFT" >
   <i type="logical" name="LUSE_VDW"> F  </i>
   <i name="Zab_VDW">     -0.84910000</i>
   <i name="PARAM1">      0.12340000</i>
   <i name="PARAM2">      1.00000000</i>
   <i name="PARAM3">      0.00000000</i>
  </separator>
  <separator name="model GW" >
   <i type="int" name="MODEL_GW">     0</i>
   <i name="MODEL_EPS0">     12.00772552</i>
   <i name="MODEL_ALPHA">      1.00000000</i>
  </separator>
  <separator name="linear response parameters" >
   <i type="logical" name="LEPSILON"> F  </i>
   <i type="logical" name="LRPA"> F  </i>
   <i type="logical" name="LNABLA"> F  </i>
   <i type="logical" name="LVEL"> F  </i>
   <i type="int" name="KINTER">     0</i>
   <i name="CSHIFT">      0.10000000</i>
   <i name="OMEGAMAX">     -1.00000000</i>
   <i name="DEG_THRESHOLD">      0.00200000</i>
   <i name="RTIME">     -0.10000000</i>
   <i name="WPLASMAI">      0.00000000</i>
   <v name="DFIELD">      0.00000000      0.00000000      0.00000000</v>
   <v name="WPLASMA">      0.00000000      0.00000000      0.00000000      0.00000000      0.00000000      0.00000000      0.00000000      0.00000000      0.00000000</v>
  </separator>
  <separator name="orbital magnetization" >
   <i type="logical" name="NUCIND"> F  </i>
   <v name="MAGPOS">      0.00000000      0.00000000      0.00000000</v>
   <i type="logical" name="LNICSALL"> T  </i>
   <i type="logical" name="ORBITALMAG"> F  </i>
   <i type="logical" name="LMAGBLOCH"> F  </i>
   <i type="logical" name="LCHIMAG"> F  </i>
   <i type="logical" name="LGAUGE"> T  </i>
   <i type="int" name="MAGATOM">     0</i>
   <v name="MAGDIPOL">      0.00000000      0.00000000      0.00000000</v>
   <v name="AVECCONST">      0.00000000      0.00000000      0.00000000</v>
  </separator>
  <separator name="response functions" >
   <i type="logical" name="LADDER"> F  </i>
   <i type="logical" name="LRPAFORCE"> F  </i>
   <i type="logical" name="LFXC"> F  </i>
   <i type="logical" name="LHARTREE"> T  </i>
   <i type="int" name="IBSE">     0</i>
   <v type="int" name="KPOINT">    -1     0     0     0</v>
   <i type="logical" name="LTCTE"> F  </i>
   <i type="logical" name="LTETE"> F  </i>
   <i type="logical" name="LTRIPLET"> F  </i>
   <i type="logical" name="LFXCEPS"> F  </i>
   <i type="logical" name="LFXHEG"> F  </i>
   <i type="int" name="NATURALO">     2</i>
   <i type="logical" name="L2ORDER"> F  </i>
   <i type="logical" name="LMP2LT"> F  </i>
   <i type="logical" name="LUSEW"> F  </i>
   <i name="ENCUTGW">     -2.00000000</i>
   <i name="ENCUTGWSOFT">     -2.00000000</i>
   <i name="ENCUTLF">     -1.00000000</i>
   <i type="int" name="LMAXMP2">    -1</i>
   <i name="SCISSOR">      0.00000000</i>
   <i type="int" name="NOMEGA">     0</i>
   <i type="int" name="NOMEGAR">     0</i>
   <i type="int" name="NBANDSGW">    -1</i>
   <i type="int" name="NBANDSO">    -1</i>
   <i type="int" name="NBANDSV">    -1</i>
   <i type="int" name="NELM">     1</i>
   <i type="int" name="NELMHF">     1</i>
   <i type="int" name="DIM">     3</i>
   <i type="int" name="ANTIRES">     0</i>
   <i name="OMEGAMAX">    -30.00000000</i>
   <i name="OMEGAMIN">    -30.00000000</i>
   <i name="OMEGATL">   -200.00000000</i>
   <i type="int" name="OMEGAGRID">   140</i>
   <i name="CSHIFT">     -0.10000000</i>
   <i type="logical" name="SELFENERGY"> F  </i>
   <i type="logical" name="LSPECTRAL"> F  </i>
   <i type="logical" name="LSPECTRALGW"> F  </i>
   <i type="logical" name="LSINGLES"> F  </i>
   <i type="logical" name="LFERMIGW"> F  </i>
   <i type="logical" name="ODDONLYGW"> F  </i>
   <i type="logical" name="EVENONLYGW"> F  </i>
   <i type="int" name="NKREDLFX">     1</i>
   <i type="int" name="NKREDLFY">     1</i>
   <i type="int" name="NKREDLFZ">     1</i>
   <i type="int" name="MAXMEM">  2800</i>
   <i type="int" name="TELESCOPE">     0</i>
   <i type="int" name="TAUPAR">     1</i>
   <i type="int" name="OMEGAPAR">    -1</i>
   <i name="LAMBDA">      1.00000000</i>
  </separator>
  <separator name="External order field" >
   <i name="OFIELD_KAPPA">      0.00000000</i>
   <v name="OFIELD_K">      0.00000000      0.00000000      0.00000000</v>
   <i name="OFIELD_Q6_NEAR">      0.00000000</i>
   <i name="OFIELD_Q6_FAR">      0.00000000</i>
   <i name="OFIELD_A">      0.00000000</i>
  </separator>
 </parameters>
 <atominfo>
  <atoms>       2 </atoms>
  <types>       1 </types>
  <array name="atoms" >
   <dimension dim="1">ion</dimension>
   <field type="string">element</field>
   <field type="int">atomtype</field>
   <set>
    <rc><c>Si</c><c>   1</c></rc>
    <rc><c>Si</c><c>   1</c></rc>
   </set>
  </array>
  <array name="atomtypes" >
   <dimension dim="1">type</dimension>
   <field type="int">atomspertype</field>
   <field type="string">element</field>
   <field>mass</field>
   <field>valence</field>
   <field type="string">pseudopotential</field>
   <set>
    <rc><c>   2</c><c>Si</c><c>     28.08500000</c><c>      4.00000000</c><c> PAW_PBE Si 05Jan2001                   </c></rc>
   </set>
  </array>
 </atominfo>
 <structure name="initialpos" >
  <crystal>
   <varray name="basis" >
    <v>       0.00000000       2.71500000       2.71500000 </v>
    <v>       2.71500000       0.00000000       2.71500000 </v>
    <v>       2.71500000       2.71500000       0.00000000 </v>
   </varray>
   <i name="volume">     40.02575175 </i>
   <varray name="rec_basis" >
    <v>      -0.18416206       0.18416206       0.18416206 </v>
    <v>       0.18416206      -0.18416206       0.18416206 </v>
    <v>       0.18416206       0.18416206      -0.18416206 </v>
   </varray>
  </crystal>
  <varray name="positions" >
   <v>       0.00000000       0.00000000       0.00000000 </v>
   <v>       0.25000000       0.25000000       0.25000000 </v>
  </varray>
 </structure>
 <calculation>
  <scstep>
   <time name="dav">    0.50    0.50</time>
   <time name="total">    0.53    0.53</time>
   <energy>
    <i name="alphaZ">      3.36414203 </i>
    <i name="ewald">   -228.56352493 </i>
    <i name="hartreedc">    -14.91328886 </i>
    <i name="XCdc">    -17.96007215 </i>
    <i name="pawpsdc">     74.49532697 </i>
    <i name="pawaedc">    -39.53498465 </i>
    <i name="eentropy">     -0.01029261 </i>
    <i name="bandstr">     18.43128495 </i>
    <i name="atom">    206.12968587 </i>
    <i name="e_fr_energy">      1.43827663 </i>
    <i name="e_wo_entrp">      1.44856923 </i>
    <i name="e_0_energy">      1.44342293 </i>
   </energy>
  </scstep>
  <scstep>
   <time name="dav">    0.74    0.74</time>
   <time name="total">    0.74    0.75</time>
   <energy>
    <i name="e_fr_energy">    -10.70177639 </i>
    <i name="e_wo_entrp">    -10.70168232 </i>
    <i name="e_0_energy">    -10.70172936 </i>
   </energy>
  </scstep>
  <scstep>
   <time name="dav">    0.61    0.61</time>
   <time name="total">    0.62    0.62</time>
   <energy>
    <i name="e_fr_energy">    -10.83781264 </i>
    <i name="e_wo_entrp">    -10.83774239 </i>
    <i name="e_0_energy">    -10.83777751 </i>
   </energy>
  </scstep>
  <scstep>
   <time name="dav">    0.79    0.79</time>
   <time name="total">    0.80    0.80</time>
   <energy>
    <i name="e_fr_energy">    -10.83830549 </i>
    <i name="e_wo_entrp">    -10.83823538 </i>
    <i name="e_0_energy">    -10.83827043 </i>
   </energy>
  </scstep>
  <scstep>
   <time name="dav">    0.61    0.62</time>
   <time name="total">    0.62    0.62</time>
   <energy>
    <i name="e_fr_energy">    -10.83830578 </i>
    <i name="e_wo_entrp">    -10.83823568 </i>
    <i name="e_0_energy">    -10.83827073 </i>
   </energy>
  </scstep>
  <scstep>
   <time name="dav">    0.78    0.79</time>
   <time name="total">    0.79    0.80</time>
   <energy>
    <i name="alphaZ">      3.36414203 </i>
    <i name="ewald">   -228.56352493 </i>
    <i name="hartreedc">    -14.91328886 </i>
    <i name="XCdc">    -17.96007215 </i>
    <i name="pawpsdc">     74.49532697 </i>
    <i name="pawaedc">    -39.53498465 </i>
    <i name="eentropy">     -0.00007011 </i>
    <i name="bandstr">      6.14448004 </i>
    <i name="atom">    206.12968587 </i>
    <i name="e_fr_energy">    -10.83830579 </i>
    <i name="e_wo_entrp">    -10.83823568 </i>
    <i name="e_0_energy">    -10.83827073 </i>
   </energy>
  </scstep>
  <structure>
   <crystal>
    <varray name="basis" >
     <v>       0.00000000       2.71500000       2.71500000 </v>
     <v>       2.71500000       0.00000000       2.71500000 </v>
     <v>       2.71500000       2.71500000       0.00000000 </v>
    </varray>
    <i name="volume">     40.02575175 </i>
    <varray name="rec_basis" >
     <v>      -0.18416206       0.18416206       0.18416206 </v>
     <v>       0.18416206      -0.18416206       0.18416206 </v>
     <v>       0.18416206       0.18416206      -0.18416206 </v>
    </varray>
   </crystal>
   <varray name="positions" >
    <v>       0.00000000       0.00000000       0.00000000 </v>
    <v>       0.25000000       0.25000000       0.25000000 </v>
   </varray>
  </structure>
  <varray name="forces" >
   <v>       0.00000000       0.00000000       0.00000000 </v>
   <v>      -0.00000000      -0.00000000      -0.00000000 </v>
  </varray>
  <varray name="stress" >
   <v>      18.66597485      -0.00000000       0.00000000 </v>
   <v>       0.00000000      18.66597485       0.00000000 </v>
   <v>      -0.00000000       0.00000000      18.66597485 </v>
  </varray>
  <energy>
   <i name="e_fr_energy">    -10.83830579 </i>
   <i name="e_wo_entrp">    -10.83827073 </i>
   <i name="e_0_energy">     -0.00007011 </i>
  </energy>
  <time name="totalsc">    4.77    4.79</time>
  <eigenvalues>
   <array>
    <dimension dim="1">band</dimension>
    <dimension dim="2">kpoint</dimension>
    <dimension dim="3">spin</dimension>
    <field>eigene</field>
    <field>occ</field>
    <set>
     <set comment="spin 1">
      <set comment="kpoint 1">
       <r>   -6.1306    1.0000 </r>
       <r>    5.8330    0.9792 </r>
       <r>    5.8331    0.9792 </r>
       <r>    5.8331    0.9792 </r>
       <r>    8.4012    0.0000 </r>
       <r>    8.4012    0.0000 </r>
       <r>    8.4012    0.0000 </r>
       <r>    9.2080    0.0000 </r>
      </set>
      <set comment="kpoint 2">
       <r>   -6.0978    1.0000 </r>
       <r>    5.4742    1.0000 </r>
       <r>    5.7764    0.9926 </r>
       <r>    5.7764    0.9926 </r>
       <r>    8.4598    0.0000 </r>
       <r>    8.4807    0.0000 </r>
       <r>    8.4808    0.0000 </r>
       <r>    9.4482    0.0000 </r>
      </set>
      <set comment="kpoint 3">
       <r>   -5.9997    1.0000 </r>
       <r>    4.6870    1.0000 </r>
       <r>    5.6332    0.9997 </r>
       <r>    5.6333    0.9997 </r>
       <r>    8.4114    0.0000 </r>
       <r>    8.6920    0.0000 </r>
       <r>    8.6920    0.0000 </r>
       <r>   10.1294    0.0000 </r>
      </set>
      <set comment="kpoint 4">
       <r>   -5.8373    1.0000 </r>
       <r>    3.7667    1.0000 </r>
       <r>    5.4467    1.0000 </r>
       <r>    5.4467    1.0000 </r>
       <r>    8.2523    0.0000 </r>
       <r>    8.9602    0.0000 </r>
       <r>    8.9602    0.0000 </r>
       <r>   10.9947    0.0000 </r>
      </set>
      <set comment="kpoint 5">
       <r>   -5.6129    1.0000 </r>
       <r>    2.8243    1.0000 </r>
       <r>    5.2528    1.0000 </r>
       <r>    5.2529    1.0000 </r>
       <r>    8.0583    0.0000 </r>
       <r>    9.2009    0.0000 </r>
       <r>    9.2010    0.0000 </r>
       <r>   11.8927    0.0000 </r>
      </set>
      <set comment="kpoint 6">
       <r>   -5.3305    1.0000 </r>
       <r>    1.9057    1.0000 </r>
       <r>    5.0725    1.0000 </r>
       <r>    5.0725    1.0000 </r>
       <r>    7.8669    0.0000 </r>
       <r>    9.3435    0.0000 </r>
       <r>    9.3436    0.0000 </r>
       <r>   12.7617    0.0000 </r>
      </set>
      <set comment="kpoint 7">
       <r>   -4.9972    1.0000 </r>
       <r>    1.0374    1.0000 </r>
       <r>    4.9177    1.0000 </r>
       <r>    4.9177    1.0000 </r>
       <r>    7.6971    0.0000 </r>
       <r>    9.3716    0.0000 </r>
       <r>    9.3717    0.0000 </r>
       <r>   13.4453    0.0000 </r>
      </set>
      <set comment="kpoint 8">
       <r>   -4.6271    1.0000 </r>
       <r>    0.2438    1.0000 </r>
       <r>    4.7946    1.0000 </r>
       <r>    4.7946    1.0000 </r>
       <r>    7.5588    0.0000 </r>
       <r>    9.3243    0.0000 </r>
       <r>    9.3244    0.0000 </r>
       <r>   13.7359    0.0000 </r>
      </set>
      <set comment="kpoint 9">
       <r>   -4.2499    1.0000 </r>
       <r>   -0.4393    1.0000 </r>
       <r>    4.7054    1.0000 </r>
       <r>    4.7054    1.0000 </r>
       <r>    7.4576    0.0000 </r>
       <r>    9.2541    0.0000 </r>
       <r>    9.2542    0.0000 </r>
       <r>   13.6763    0.0000 </r>
      </set>
      <set comment="kpoint 10">
       <r>   -3.9323    1.0000 </r>
       <r>   -0.9415    1.0000 </r>
       <r>    4.6517    1.0000 </r>
       <r>    4.6517    1.0000 </r>
       <r>    7.3961    0.0000 </r>
       <r>    9.1988    0.0000 </r>
       <r>    9.1989    0.0000 </r>
       <r>   13.5952    0.0000 </r>
      </set>
      <set comment="kpoint 11">
       <r>   -3.7981    1.0000 </r>
       <r>   -1.1376    1.0000 </r>
       <r>    4.6336    1.0000 </r>
       <r>    4.6336    1.0000 </r>
       <r>    7.3754    0.0000 </r>
       <r>    9.1773    0.0000 </r>
       <r>    9.1774    0.0000 </r>
       <r>   13.5636    0.0000 </r>
      </set>
      <set comment="kpoint 12">
       <r>   -6.0868    1.0000 </r>
       <r>    5.5527    1.0000 </r>
       <r>    5.6561    0.9995 </r>
       <r>    5.6561    0.9995 </r>
       <r>    8.2949    0.0000 </r>
       <r>    8.6296    0.0000 </r>
       <r>    8.6297    0.0000 </r>
       <r>    9.4775    0.0000 </r>
      </set>
      <set comment="kpoint 13">
       <r>   -6.0104    1.0000 </r>
       <r>    4.9238    1.0000 </r>
       <r>    5.4696    1.0000 </r>
       <r>    5.6032    0.9999 </r>
       <r>    8.2868    0.0000 </r>
       <r>    8.7375    0.0000 </r>
       <r>    8.8904    0.0000 </r>
       <r>    9.9657    0.0000 </r>
      </set>
      <set comment="kpoint 14">
       <r>   -5.8693    1.0000 </r>
       <r>    4.0548    1.0000 </r>
       <r>    5.2614    1.0000 </r>
       <r>    5.4764    1.0000 </r>
       <r>    8.3636    0.0000 </r>
       <r>    8.7337    0.0000 </r>
       <r>    9.1944    0.0000 </r>
       <r>   10.7201    0.0000 </r>
      </set>
      <set comment="kpoint 15">
       <r>   -5.6654    1.0000 </r>
       <r>    3.1284    1.0000 </r>
       <r>    5.0601    1.0000 </r>
       <r>    5.2926    1.0000 </r>
       <r>    8.2960    0.0000 </r>
       <r>    8.8746    0.0000 </r>
       <r>    9.4647    0.0000 </r>
       <r>   11.4167    0.0000 </r>
      </set>
      <set comment="kpoint 16">
       <r>   -5.4018    1.0000 </r>
       <r>    2.2082    1.0000 </r>
       <r>    4.8837    1.0000 </r>
       <r>    5.0920    1.0000 </r>
       <r>    8.1363    0.0000 </r>
       <r>    9.0583    0.0000 </r>
       <r>    9.6318    0.0000 </r>
       <r>   11.8616    0.0000 </r>
      </set>
      <set comment="kpoint 17">
       <r>   -5.0845    1.0000 </r>
       <r>    1.3268    1.0000 </r>
       <r>    4.7410    1.0000 </r>
       <r>    4.8987    1.0000 </r>
       <r>    7.9719    0.0000 </r>
       <r>    9.1558    0.0000 </r>
       <r>    9.6673    0.0000 </r>
       <r>   12.2612    0.0000 </r>
      </set>
      <set comment="kpoint 18">
       <r>   -4.7245    1.0000 </r>
       <r>    0.5092    1.0000 </r>
       <r>    4.6370    1.0000 </r>
       <r>    4.7265    1.0000 </r>
       <r>    7.8292    0.0000 </r>
       <r>    9.1648    0.0000 </r>
       <r>    9.6038    0.0000 </r>
       <r>   12.7908    0.0000 </r>
      </set>
      <set comment="kpoint 19">
       <r>   -4.3446    1.0000 </r>
       <r>   -0.2137    1.0000 </r>
       <r>    4.5733    1.0000 </r>
       <r>    4.5821    1.0000 </r>
       <r>    7.7179    0.0000 </r>
       <r>    9.1356    0.0000 </r>
       <r>    9.4963    0.0000 </r>
       <r>   13.3619    0.0000 </r>
      </set>
      <set comment="kpoint 20">
       <r>   -3.9960    1.0000 </r>
       <r>   -0.7862    1.0000 </r>
       <r>    4.4702    1.0000 </r>
       <r>    4.5502    1.0000 </r>
       <r>    7.6440    0.0000 </r>
       <r>    9.1137    0.0000 </r>
       <r>    9.3896    0.0000 </r>
       <r>   13.6470    0.0000 </r>
      </set>
      <set comment="kpoint 21">
       <r>   -3.7848    1.0000 </r>
       <r>   -1.0995    1.0000 </r>
       <r>    4.3934    1.0000 </r>
       <r>    4.5664    1.0000 </r>
       <r>    7.6092    0.0000 </r>
       <r>    9.1245    0.0000 </r>
       <r>    9.3094    0.0000 </r>
       <r>   13.6855    0.0000 </r>
      </set>
      <set comment="kpoint 22">
       <r>   -3.8312    1.0000 </r>
       <r>   -1.0326    1.0000 </r>
       <r>    4.3542    1.0000 </r>
       <r>    4.6206    1.0000 </r>
       <r>    7.6148    0.0000 </r>
       <r>    9.1774    0.0000 </r>
       <r>    9.2674    0.0000 </r>
       <r>   13.7016    0.0000 </r>
      </set>
      <set comment="kpoint 23">
       <r>   -4.1038    1.0000 </r>
       <r>   -0.6169    1.0000 </r>
       <r>    4.3544    1.0000 </r>
       <r>    4.7104    1.0000 </r>
       <r>    7.6606    0.0000 </r>
       <r>    9.2627    0.0000 </r>
       <r>    9.2689    0.0000 </r>
       <r>   13.7109    0.0000 </r>
      </set>
      <set comment="kpoint 24">
       <r>   -4.4714    1.0000 </r>
       <r>    0.0148    1.0000 </r>
       <r>    4.3957    1.0000 </r>
       <r>    4.8330    1.0000 </r>
       <r>    7.7458    0.0000 </r>
       <r>    9.2816    0.0000 </r>
       <r>    9.3831    0.0000 </r>
       <r>   13.5849    0.0000 </r>
      </set>
      <set comment="kpoint 25">
       <r>   -4.8485    1.0000 </r>
       <r>    0.7737    1.0000 </r>
       <r>    4.4786    1.0000 </r>
       <r>    4.9851    1.0000 </r>
       <r>    7.8680    0.0000 </r>
       <r>    9.2928    0.0000 </r>
       <r>    9.4866    0.0000 </r>
       <r>   13.1382    0.0000 </r>
      </set>
      <set comment="kpoint 26">
       <r>   -5.1960    1.0000 </r>
       <r>    1.6150    1.0000 </r>
       <r>    4.6034    1.0000 </r>
       <r>    5.1612    1.0000 </r>
       <r>    8.0227    0.0000 </r>
       <r>    9.2485    0.0000 </r>
       <r>    9.5254    0.0000 </r>
       <r>   12.5587    0.0000 </r>
      </set>
      <set comment="kpoint 27">
       <r>   -5.4962    1.0000 </r>
       <r>    2.5110    1.0000 </r>
       <r>    4.7682    1.0000 </r>
       <r>    5.3522    1.0000 </r>
       <r>    8.2009    0.0000 </r>
       <r>    9.1075    0.0000 </r>
       <r>    9.4370    0.0000 </r>
       <r>   11.9740    0.0000 </r>
      </set>
      <set comment="kpoint 28">
       <r>   -5.7403    1.0000 </r>
       <r>    3.4336    1.0000 </r>
       <r>    4.9691    1.0000 </r>
       <r>    5.5413    1.0000 </r>
       <r>    8.3861    0.0000 </r>
       <r>    8.8824    0.0000 </r>
       <r>    9.2061    0.0000 </r>
       <r>   11.2910    0.0000 </r>
      </set>
      <set comment="kpoint 29">
       <r>   -5.9235    1.0000 </r>
       <r>    4.3361    1.0000 </r>
       <r>    5.2018    1.0000 </r>
       <r>    5.7017    0.9985 </r>
       <r>    8.5439    0.0000 </r>
       <r>    8.6464    0.0000 </r>
       <r>    8.8943    0.0000 </r>
       <r>   10.5237    0.0000 </r>
      </set>
      <set comment="kpoint 30">
       <r>   -6.0432    1.0000 </r>
       <r>    5.0943    1.0000 </r>
       <r>    5.4801    1.0000 </r>
       <r>    5.7920    0.9901 </r>
       <r>    8.4898    0.0000 </r>
       <r>    8.5645    0.0000 </r>
       <r>    8.6404    0.0000 </r>
       <r>    9.8253    0.0000 </r>
      </set>
      <set comment="kpoint 31">
       <r>   -5.9557    1.0000 </r>
       <r>    4.8946    1.0000 </r>
       <r>    5.2550    1.0000 </r>
       <r>    5.2551    1.0000 </r>
       <r>    8.0201    0.0000 </r>
       <r>    9.1911    0.0000 </r>
       <r>    9.1912    0.0000 </r>
       <r>   10.0331    0.0000 </r>
      </set>
      <set comment="kpoint 32">
       <r>   -5.8361    1.0000 </r>
       <r>    4.2353    1.0000 </r>
       <r>    5.0303    1.0000 </r>
       <r>    5.1415    1.0000 </r>
       <r>    7.9694    0.0000 </r>
       <r>    9.3118    0.0000 </r>
       <r>    9.5336    0.0000 </r>
       <r>   10.4691    0.0000 </r>
      </set>
      <set comment="kpoint 33">
       <r>   -5.6530    1.0000 </r>
       <r>    3.3819    1.0000 </r>
       <r>    4.8205    1.0000 </r>
       <r>    4.9923    1.0000 </r>
       <r>    8.0806    0.0000 </r>
       <r>    9.2495    0.0000 </r>
       <r>    9.8472    0.0000 </r>
       <r>   10.8283    0.0000 </r>
      </set>
      <set comment="kpoint 34">
       <r>   -5.4091    1.0000 </r>
       <r>    2.4933    1.0000 </r>
       <r>    4.6416    1.0000 </r>
       <r>    4.7845    1.0000 </r>
       <r>    8.1997    0.0000 </r>
       <r>    9.2138    0.0000 </r>
       <r>   10.0596    0.0000 </r>
       <r>   10.9579    0.0000 </r>
      </set>
      <set comment="kpoint 35">
       <r>   -5.1091    1.0000 </r>
       <r>    1.6205    1.0000 </r>
       <r>    4.5016    1.0000 </r>
       <r>    4.5589    1.0000 </r>
       <r>    8.2149    0.0000 </r>
       <r>    9.2281    0.0000 </r>
       <r>   10.1280    0.0000 </r>
       <r>   11.1639    0.0000 </r>
      </set>
      <set comment="kpoint 36">
       <r>   -4.7618    1.0000 </r>
       <r>    0.7950    1.0000 </r>
       <r>    4.3419    1.0000 </r>
       <r>    4.4052    1.0000 </r>
       <r>    8.1520    0.0000 </r>
       <r>    9.2227    0.0000 </r>
       <r>   10.0724    0.0000 </r>
       <r>   11.6009    0.0000 </r>
      </set>
      <set comment="kpoint 37">
       <r>   -4.3848    1.0000 </r>
       <r>    0.0465    1.0000 </r>
       <r>    4.1474    1.0000 </r>
       <r>    4.3542    1.0000 </r>
       <r>    8.0730    0.0000 </r>
       <r>    9.1858    0.0000 </r>
       <r>    9.9483    0.0000 </r>
       <r>   12.2335    0.0000 </r>
      </set>
      <set comment="kpoint 38">
       <r>   -4.0168    1.0000 </r>
       <r>   -0.5788    1.0000 </r>
       <r>    3.9837    1.0000 </r>
       <r>    4.3484    1.0000 </r>
       <r>    8.0136    0.0000 </r>
       <r>    9.1538    0.0000 </r>
       <r>    9.8062    0.0000 </r>
       <r>   12.9679    0.0000 </r>
      </set>
      <set comment="kpoint 39">
       <r>   -3.7436    1.0000 </r>
       <r>   -0.9912    1.0000 </r>
       <r>    3.8567    1.0000 </r>
       <r>    4.3870    1.0000 </r>
       <r>    7.9878    0.0000 </r>
       <r>    9.1532    0.0000 </r>
       <r>    9.6799    0.0000 </r>
       <r>   13.6442    0.0000 </r>
      </set>
      <set comment="kpoint 40">
       <r>   -3.6980    1.0000 </r>
       <r>   -1.0561    1.0000 </r>
       <r>    3.7703    1.0000 </r>
       <r>    4.4676    1.0000 </r>
       <r>    8.0001    0.0000 </r>
       <r>    9.1963    0.0000 </r>
       <r>    9.5848    0.0000 </r>
       <r>   13.9685    0.0000 </r>
      </set>
      <set comment="kpoint 41">
       <r>   -3.9110    1.0000 </r>
       <r>   -0.7423    1.0000 </r>
       <r>    3.7281    1.0000 </r>
       <r>    4.5869    1.0000 </r>
       <r>    8.0506    0.0000 </r>
       <r>    9.2844    0.0000 </r>
       <r>    9.5245    0.0000 </r>
       <r>   13.8981    0.0000 </r>
      </set>
      <set comment="kpoint 42">
       <r>   -4.2605    1.0000 </r>
       <r>   -0.1733    1.0000 </r>
       <r>    3.7330    1.0000 </r>
       <r>    4.7405    1.0000 </r>
       <r>    8.1371    0.0000 </r>
       <r>    9.4068    0.0000 </r>
       <r>    9.4897    0.0000 </r>
       <r>   13.4827    0.0000 </r>
      </set>
      <set comment="kpoint 43">
       <r>   -4.6404    1.0000 </r>
       <r>    0.5407    1.0000 </r>
       <r>    3.7877    1.0000 </r>
       <r>    4.9219    1.0000 </r>
       <r>    8.2560    0.0000 </r>
       <r>    9.4544    0.0000 </r>
       <r>    9.5354    0.0000 </r>
       <r>   12.8899    0.0000 </r>
      </set>
      <set comment="kpoint 44">
       <r>   -5.0000    1.0000 </r>
       <r>    1.3414    1.0000 </r>
       <r>    3.8955    1.0000 </r>
       <r>    5.1226    1.0000 </r>
       <r>    8.4025    0.0000 </r>
       <r>    9.3745    0.0000 </r>
       <r>    9.6120    0.0000 </r>
       <r>   12.2666    0.0000 </r>
      </set>
      <set comment="kpoint 45">
       <r>   -5.3167    1.0000 </r>
       <r>    2.1909    1.0000 </r>
       <r>    4.0626    1.0000 </r>
       <r>    5.3284    1.0000 </r>
       <r>    8.5663    0.0000 </r>
       <r>    9.2105    0.0000 </r>
       <r>    9.5481    0.0000 </r>
       <r>   11.8084    0.0000 </r>
      </set>
      <set comment="kpoint 46">
       <r>   -5.5795    1.0000 </r>
       <r>    3.0432    1.0000 </r>
       <r>    4.3046    1.0000 </r>
       <r>    5.5172    1.0000 </r>
       <r>    8.7288    0.0000 </r>
       <r>    8.9783    0.0000 </r>
       <r>    9.2925    0.0000 </r>
       <r>   11.4607    0.0000 </r>
      </set>
      <set comment="kpoint 47">
       <r>   -5.7829    1.0000 </r>
       <r>    3.8026    1.0000 </r>
       <r>    4.6717    1.0000 </r>
       <r>    5.6552    0.9995 </r>
       <r>    8.7594    0.0000 </r>
       <r>    8.8226    0.0000 </r>
       <r>    8.9505    0.0000 </r>
       <r>   11.0420    0.0000 </r>
      </set>
      <set comment="kpoint 48">
       <r>   -5.7379    1.0000 </r>
       <r>    4.0818    1.0000 </r>
       <r>    4.7924    1.0000 </r>
       <r>    4.7924    1.0000 </r>
       <r>    7.6640    0.0000 </r>
       <r>    9.9198    0.0000 </r>
       <r>    9.9198    0.0000 </r>
       <r>   10.2544    0.0000 </r>
      </set>
      <set comment="kpoint 49">
       <r>   -5.5758    1.0000 </r>
       <r>    3.4693    1.0000 </r>
       <r>    4.5733    1.0000 </r>
       <r>    4.6129    1.0000 </r>
       <r>    7.6053    0.0000 </r>
       <r>    9.9110    0.0000 </r>
       <r>   10.2899    0.0000 </r>
       <r>   10.3849    0.0000 </r>
      </set>
      <set comment="kpoint 50">
       <r>   -5.3521    1.0000 </r>
       <r>    2.6871    1.0000 </r>
       <r>    4.3872    1.0000 </r>
       <r>    4.4032    1.0000 </r>
       <r>    7.7302    0.0000 </r>
       <r>    9.7882    0.0000 </r>
       <r>   10.4056    0.0000 </r>
       <r>   10.5691    0.0000 </r>
      </set>
      <set comment="kpoint 51">
       <r>   -5.0705    1.0000 </r>
       <r>    1.8676    1.0000 </r>
       <r>    4.1489    1.0000 </r>
       <r>    4.2429    1.0000 </r>
       <r>    7.8818    0.0000 </r>
       <r>    9.8243    0.0000 </r>
       <r>   10.3476    0.0000 </r>
       <r>   10.6983    0.0000 </r>
      </set>
      <set comment="kpoint 52">
       <r>   -4.7379    1.0000 </r>
       <r>    1.0639    1.0000 </r>
       <r>    3.8866    1.0000 </r>
       <r>    4.1450    1.0000 </r>
       <r>    7.9497    0.0000 </r>
       <r>    9.8972    0.0000 </r>
       <r>   10.5051    0.0000 </r>
       <r>   10.6758    0.0000 </r>
      </set>
      <set comment="kpoint 53">
       <r>   -4.3680    1.0000 </r>
       <r>    0.3126    1.0000 </r>
       <r>    3.6412    1.0000 </r>
       <r>    4.0961    1.0000 </r>
       <r>    7.9508    0.0000 </r>
       <r>    9.8344    0.0000 </r>
       <r>   10.5564    0.0000 </r>
       <r>   11.0474    0.0000 </r>
      </set>
      <set comment="kpoint 54">
       <r>   -3.9901    1.0000 </r>
       <r>   -0.3440    1.0000 </r>
       <r>    3.4264    1.0000 </r>
       <r>    4.0958    1.0000 </r>
       <r>    7.9423    0.0000 </r>
       <r>    9.7476    0.0000 </r>
       <r>   10.3981    0.0000 </r>
       <r>   11.7968    0.0000 </r>
      </set>
      <set comment="kpoint 55">
       <r>   -3.6708    1.0000 </r>
       <r>   -0.8317    1.0000 </r>
       <r>    3.2509    1.0000 </r>
       <r>    4.1436    1.0000 </r>
       <r>    7.9616    0.0000 </r>
       <r>    9.6863    0.0000 </r>
       <r>   10.2411    0.0000 </r>
       <r>   12.6542    0.0000 </r>
      </set>
      <set comment="kpoint 56">
       <r>   -3.5372    1.0000 </r>
       <r>   -1.0200    1.0000 </r>
       <r>    3.1205    1.0000 </r>
       <r>    4.2375    1.0000 </r>
       <r>    8.0225    0.0000 </r>
       <r>    9.6631    0.0000 </r>
       <r>   10.1067    0.0000 </r>
       <r>   13.5519    0.0000 </r>
      </set>
      <set comment="kpoint 57">
       <r>   -3.6770    1.0000 </r>
       <r>   -0.8202    1.0000 </r>
       <r>    3.0397    1.0000 </r>
       <r>    4.3738    1.0000 </r>
       <r>    8.1273    0.0000 </r>
       <r>    9.6808    0.0000 </r>
       <r>   10.0012    0.0000 </r>
       <r>   14.0954    0.0000 </r>
      </set>
      <set comment="kpoint 58">
       <r>   -3.9987    1.0000 </r>
       <r>   -0.3260    1.0000 </r>
       <r>    3.0142    1.0000 </r>
       <r>    4.5473    1.0000 </r>
       <r>    8.2708    0.0000 </r>
       <r>    9.7371    0.0000 </r>
       <r>    9.9183    0.0000 </r>
       <r>   13.4159    0.0000 </r>
      </set>
      <set comment="kpoint 59">
       <r>   -4.3766    1.0000 </r>
       <r>    0.3307    1.0000 </r>
       <r>    3.0502    1.0000 </r>
       <r>    4.7507    1.0000 </r>
       <r>    8.4425    0.0000 </r>
       <r>    9.8147    0.0000 </r>
       <r>    9.8330    0.0000 </r>
       <r>   12.6773    0.0000 </r>
      </set>
      <set comment="kpoint 60">
       <r>   -4.7455    1.0000 </r>
       <r>    1.0700    1.0000 </r>
       <r>    3.1586    1.0000 </r>
       <r>    4.9716    1.0000 </r>
       <r>    8.6271    0.0000 </r>
       <r>    9.6986    0.0000 </r>
       <r>    9.8584    0.0000 </r>
       <r>   12.0328    0.0000 </r>
      </set>
      <set comment="kpoint 61">
       <r>   -5.0768    1.0000 </r>
       <r>    1.8295    1.0000 </r>
       <r>    3.3654    1.0000 </r>
       <r>    5.1931    1.0000 </r>
       <r>    8.8007    0.0000 </r>
       <r>    9.4795    0.0000 </r>
       <r>    9.7585    0.0000 </r>
       <r>   11.6198    0.0000 </r>
      </set>
      <set comment="kpoint 62">
       <r>   -5.3571    1.0000 </r>
       <r>    2.5191    1.0000 </r>
       <r>    3.7300    1.0000 </r>
       <r>    5.3877    1.0000 </r>
       <r>    8.9006    0.0000 </r>
       <r>    9.2074    0.0000 </r>
       <r>    9.4778    0.0000 </r>
       <r>   11.4915    0.0000 </r>
      </set>
      <set comment="kpoint 63">
       <r>   -5.4347    1.0000 </r>
       <r>    3.2104    1.0000 </r>
       <r>    4.3441    1.0000 </r>
       <r>    4.3441    1.0000 </r>
       <r>    7.2969    0.0000 </r>
       <r>    9.7277    0.0000 </r>
       <r>   10.7341    0.0000 </r>
       <r>   10.7342    0.0000 </r>
      </set>
      <set comment="kpoint 64">
       <r>   -5.2314    1.0000 </r>
       <r>    2.6507    1.0000 </r>
       <r>    4.1212    1.0000 </r>
       <r>    4.1486    1.0000 </r>
       <r>    7.2534    0.0000 </r>
       <r>    9.4187    0.0000 </r>
       <r>   10.9919    0.0000 </r>
       <r>   11.1054    0.0000 </r>
      </set>
      <set comment="kpoint 65">
       <r>   -4.9688    1.0000 </r>
       <r>    1.9630    1.0000 </r>
       <r>    3.8371    1.0000 </r>
       <r>    3.9958    1.0000 </r>
       <r>    7.3953    0.0000 </r>
       <r>    9.2932    0.0000 </r>
       <r>   10.9967    0.0000 </r>
       <r>   11.3269    0.0000 </r>
      </set>
      <set comment="kpoint 66">
       <r>   -4.6525    1.0000 </r>
       <r>    1.2374    1.0000 </r>
       <r>    3.5190    1.0000 </r>
       <r>    3.8907    1.0000 </r>
       <r>    7.5452    0.0000 </r>
       <r>    9.4546    0.0000 </r>
       <r>   10.8983    0.0000 </r>
       <r>   11.3695    0.0000 </r>
      </set>
      <set comment="kpoint 67">
       <r>   -4.2930    1.0000 </r>
       <r>    0.5247    1.0000 </r>
       <r>    3.2089    1.0000 </r>
       <r>    3.8361    1.0000 </r>
       <r>    7.6110    0.0000 </r>
       <r>    9.9261    0.0000 </r>
       <r>   10.7756    0.0000 </r>
       <r>   11.2785    0.0000 </r>
      </set>
      <set comment="kpoint 68">
       <r>   -3.9125    1.0000 </r>
       <r>   -0.1295    1.0000 </r>
       <r>    2.9313    1.0000 </r>
       <r>    3.8327    1.0000 </r>
       <r>    7.6358    0.0000 </r>
       <r>   10.5608    0.0000 </r>
       <r>   10.7230    0.0000 </r>
       <r>   11.1204    0.0000 </r>
      </set>
      <set comment="kpoint 69">
       <r>   -3.5615    1.0000 </r>
       <r>   -0.6606    1.0000 </r>
       <r>    2.6986    1.0000 </r>
       <r>    3.8802    1.0000 </r>
       <r>    7.6767    0.0000 </r>
       <r>   10.5416    0.0000 </r>
       <r>   10.9467    0.0000 </r>
       <r>   11.4897    0.0000 </r>
      </set>
      <set comment="kpoint 70">
       <r>   -3.3509    1.0000 </r>
       <r>   -0.9505    1.0000 </r>
       <r>    2.5193    1.0000 </r>
       <r>    3.9766    1.0000 </r>
       <r>    7.7603    0.0000 </r>
       <r>   10.4781    0.0000 </r>
       <r>   10.7842    0.0000 </r>
       <r>   12.4267    0.0000 </r>
      </set>
      <set comment="kpoint 71">
       <r>   -3.4085    1.0000 </r>
       <r>   -0.8692    1.0000 </r>
       <r>    2.3997    1.0000 </r>
       <r>    4.1186    1.0000 </r>
       <r>    7.8943    0.0000 </r>
       <r>   10.4451    0.0000 </r>
       <r>   10.6430    0.0000 </r>
       <r>   13.4141    0.0000 </r>
      </set>
      <set comment="kpoint 72">
       <r>   -3.6921    1.0000 </r>
       <r>   -0.4622    1.0000 </r>
       <r>    2.3483    1.0000 </r>
       <r>    4.3014    1.0000 </r>
       <r>    8.0763    0.0000 </r>
       <r>   10.4428    0.0000 </r>
       <r>   10.5157    0.0000 </r>
       <r>   13.3609    0.0000 </r>
      </set>
      <set comment="kpoint 73">
       <r>   -4.0627    1.0000 </r>
       <r>    0.1185    1.0000 </r>
       <r>    2.3789    1.0000 </r>
       <r>    4.5164    1.0000 </r>
       <r>    8.2946    0.0000 </r>
       <r>   10.3712    0.0000 </r>
       <r>   10.4515    0.0000 </r>
       <r>   12.5586    0.0000 </r>
      </set>
      <set comment="kpoint 74">
       <r>   -4.4377    1.0000 </r>
       <r>    0.7589    1.0000 </r>
       <r>    2.5206    1.0000 </r>
       <r>    4.7515    1.0000 </r>
       <r>    8.5277    0.0000 </r>
       <r>   10.1527    0.0000 </r>
       <r>   10.4035    0.0000 </r>
       <r>   11.9001    0.0000 </r>
      </set>
      <set comment="kpoint 75">
       <r>   -4.7811    1.0000 </r>
       <r>    1.3577    1.0000 </r>
       <r>    2.8317    1.0000 </r>
       <r>    4.9872    1.0000 </r>
       <r>    8.7320    0.0000 </r>
       <r>    9.8319    0.0000 </r>
       <r>   10.1505    0.0000 </r>
       <r>   11.5822    0.0000 </r>
      </set>
      <set comment="kpoint 76">
       <r>   -5.0481    1.0000 </r>
       <r>    2.3167    1.0000 </r>
       <r>    3.9424    1.0000 </r>
       <r>    3.9424    1.0000 </r>
       <r>    6.9650    0.0000 </r>
       <r>    8.9704    0.0000 </r>
       <r>   11.5979    0.0000 </r>
       <r>   11.5980    0.0000 </r>
      </set>
      <set comment="kpoint 77">
       <r>   -4.8048    1.0000 </r>
       <r>    1.7992    1.0000 </r>
       <r>    3.7006    1.0000 </r>
       <r>    3.7786    1.0000 </r>
       <r>    6.9506    0.0000 </r>
       <r>    8.6832    0.0000 </r>
       <r>   11.8612    0.0000 </r>
       <r>   11.9558    0.0000 </r>
      </set>
      <set comment="kpoint 78">
       <r>   -4.5058    1.0000 </r>
       <r>    1.2026    1.0000 </r>
       <r>    3.3537    1.0000 </r>
       <r>    3.6630    1.0000 </r>
       <r>    7.1083    0.0000 </r>
       <r>    8.6337    0.0000 </r>
       <r>   11.8754    0.0000 </r>
       <r>   12.1085    0.0000 </r>
      </set>
      <set comment="kpoint 79">
       <r>   -4.1593    1.0000 </r>
       <r>    0.5817    1.0000 </r>
       <r>    2.9699    1.0000 </r>
       <r>    3.5986    1.0000 </r>
       <r>    7.2424    0.0000 </r>
       <r>    8.9184    0.0000 </r>
       <r>   11.7912    0.0000 </r>
       <r>   12.0777    0.0000 </r>
      </set>
      <set comment="kpoint 80">
       <r>   -3.7818    1.0000 </r>
       <r>   -0.0209    1.0000 </r>
       <r>    2.6082    1.0000 </r>
       <r>    3.5868    1.0000 </r>
       <r>    7.3028    0.0000 </r>
       <r>    9.5099    0.0000 </r>
       <r>   11.6812    0.0000 </r>
       <r>   11.9399    0.0000 </r>
      </set>
      <set comment="kpoint 81">
       <r>   -3.4114    1.0000 </r>
       <r>   -0.5501    1.0000 </r>
       <r>    2.2982    1.0000 </r>
       <r>    3.6274    1.0000 </r>
       <r>    7.3558    0.0000 </r>
       <r>   10.2859    0.0000 </r>
       <r>   11.5865    0.0000 </r>
       <r>   11.7621    0.0000 </r>
      </set>
      <set comment="kpoint 82">
       <r>   -3.1388    1.0000 </r>
       <r>   -0.9041    1.0000 </r>
       <r>    2.0551    1.0000 </r>
       <r>    3.7192    1.0000 </r>
       <r>    7.4466    0.0000 </r>
       <r>   11.0865    0.0000 </r>
       <r>   11.5806    0.0000 </r>
       <r>   11.6119    0.0000 </r>
      </set>
      <set comment="kpoint 83">
       <r>   -3.1126    1.0000 </r>
       <r>   -0.9312    1.0000 </r>
       <r>    1.8893    1.0000 </r>
       <r>    3.8594    1.0000 </r>
       <r>    7.5896    0.0000 </r>
       <r>   11.3097    0.0000 </r>
       <r>   11.4081    0.0000 </r>
       <r>   12.3166    0.0000 </r>
      </set>
      <set comment="kpoint 84">
       <r>   -3.3507    1.0000 </r>
       <r>   -0.6204    1.0000 </r>
       <r>    1.8155    1.0000 </r>
       <r>    4.0428    1.0000 </r>
       <r>    7.7850    0.0000 </r>
       <r>   11.2310    0.0000 </r>
       <r>   11.2921    0.0000 </r>
       <r>   13.1768    0.0000 </r>
      </set>
      <set comment="kpoint 85">
       <r>   -3.7091    1.0000 </r>
       <r>   -0.1409    1.0000 </r>
       <r>    1.8618    1.0000 </r>
       <r>    4.2621    1.0000 </r>
       <r>    8.0247    0.0000 </r>
       <r>   10.9970    0.0000 </r>
       <r>   11.2311    0.0000 </r>
       <r>   12.5192    0.0000 </r>
      </set>
      <set comment="kpoint 86">
       <r>   -4.0859    1.0000 </r>
       <r>    0.3526    1.0000 </r>
       <r>    2.0796    1.0000 </r>
       <r>    4.5047    1.0000 </r>
       <r>    8.2874    0.0000 </r>
       <r>   10.6289    0.0000 </r>
       <r>   10.9710    0.0000 </r>
       <r>   11.9872    0.0000 </r>
      </set>
      <set comment="kpoint 87">
       <r>   -4.5806    1.0000 </r>
       <r>    1.4177    1.0000 </r>
       <r>    3.6026    1.0000 </r>
       <r>    3.6026    1.0000 </r>
       <r>    6.6966    0.0000 </r>
       <r>    8.2499    0.0000 </r>
       <r>   12.4958    0.0000 </r>
       <r>   12.4958    0.0000 </r>
      </set>
      <set comment="kpoint 88">
       <r>   -4.2993    1.0000 </r>
       <r>    0.9333    1.0000 </r>
       <r>    3.3609    1.0000 </r>
       <r>    3.4744    1.0000 </r>
       <r>    6.7182    0.0000 </r>
       <r>    8.0225    0.0000 </r>
       <r>   12.7718    0.0000 </r>
       <r>   12.8301    0.0000 </r>
      </set>
      <set comment="kpoint 89">
       <r>   -3.9673    1.0000 </r>
       <r>    0.4118    1.0000 </r>
       <r>    2.9763    1.0000 </r>
       <r>    3.3979    1.0000 </r>
       <r>    6.8856    0.0000 </r>
       <r>    8.0810    0.0000 </r>
       <r>   12.8001    0.0000 </r>
       <r>   12.9163    0.0000 </r>
      </set>
      <set comment="kpoint 90">
       <r>   -3.5972    1.0000 </r>
       <r>   -0.1102    1.0000 </r>
       <r>    2.5464    1.0000 </r>
       <r>    3.3744    1.0000 </r>
       <r>    6.9977    0.0000 </r>
       <r>    8.5107    0.0000 </r>
       <r>   12.7240    0.0000 </r>
       <r>   12.8282    0.0000 </r>
      </set>
      <set comment="kpoint 91">
       <r>   -3.2167    1.0000 </r>
       <r>   -0.5949    1.0000 </r>
       <r>    2.1470    1.0000 </r>
       <r>    3.4045    1.0000 </r>
       <r>    7.0645    0.0000 </r>
       <r>    9.2176    0.0000 </r>
       <r>   12.6195    0.0000 </r>
       <r>   12.6611    0.0000 </r>
      </set>
      <set comment="kpoint 92">
       <r>   -2.8981    1.0000 </r>
       <r>   -0.9661    1.0000 </r>
       <r>    1.8203    1.0000 </r>
       <r>    3.4872    1.0000 </r>
       <r>    7.1559    0.0000 </r>
       <r>   10.0801    0.0000 </r>
       <r>   12.4665    0.0000 </r>
       <r>   12.5231    0.0000 </r>
      </set>
      <set comment="kpoint 93">
       <r>   -2.7971    1.0000 </r>
       <r>   -1.0711    1.0000 </r>
       <r>    1.5932    1.0000 </r>
       <r>    3.6201    1.0000 </r>
       <r>    7.2986    0.0000 </r>
       <r>   11.0256    0.0000 </r>
       <r>   12.2601    0.0000 </r>
       <r>   12.4628    0.0000 </r>
      </set>
      <set comment="kpoint 94">
       <r>   -2.9918    1.0000 </r>
       <r>   -0.8479    1.0000 </r>
       <r>    1.4942    1.0000 </r>
       <r>    3.7990    1.0000 </r>
       <r>    7.4970    0.0000 </r>
       <r>   11.8609    0.0000 </r>
       <r>   12.0048    0.0000 </r>
       <r>   12.5734    0.0000 </r>
      </set>
      <set comment="kpoint 95">
       <r>   -3.3359    1.0000 </r>
       <r>   -0.4812    1.0000 </r>
       <r>    1.5671    1.0000 </r>
       <r>    4.0171    1.0000 </r>
       <r>    7.7455    0.0000 </r>
       <r>   11.5928    0.0000 </r>
       <r>   11.8910    0.0000 </r>
       <r>   12.6943    0.0000 </r>
      </set>
      <set comment="kpoint 96">
       <r>   -4.0354    1.0000 </r>
       <r>    0.5269    1.0000 </r>
       <r>    3.3328    1.0000 </r>
       <r>    3.3328    1.0000 </r>
       <r>    6.5091    0.0030 </r>
       <r>    7.6357    0.0000 </r>
       <r>   13.4172    0.0000 </r>
       <r>   13.4172    0.0000 </r>
      </set>
      <set comment="kpoint 97">
       <r>   -3.7188    1.0000 </r>
       <r>    0.0703    1.0000 </r>
       <r>    3.1051    1.0000 </r>
       <r>    3.2424    1.0000 </r>
       <r>    6.5705    0.0007 </r>
       <r>    7.4820    0.0000 </r>
       <r>   13.7069    0.0000 </r>
       <r>   13.7259    0.0000 </r>
      </set>
      <set comment="kpoint 98">
       <r>   -3.3587    1.0000 </r>
       <r>   -0.3914    1.0000 </r>
       <r>    2.7096    1.0000 </r>
       <r>    3.2056    1.0000 </r>
       <r>    6.7340    0.0000 </r>
       <r>    7.6681    0.0000 </r>
       <r>   13.7458    0.0000 </r>
       <r>   13.7526    0.0000 </r>
      </set>
      <set comment="kpoint 99">
       <r>   -2.9755    1.0000 </r>
       <r>   -0.8289    1.0000 </r>
       <r>    2.2653    1.0000 </r>
       <r>    3.2228    1.0000 </r>
       <r>    6.8258    0.0000 </r>
       <r>    8.2412    0.0000 </r>
       <r>   13.6206    0.0000 </r>
       <r>   13.6780    0.0000 </r>
      </set>
      <set comment="kpoint 100">
       <r>   -2.6258    1.0000 </r>
       <r>   -1.1901    1.0000 </r>
       <r>    1.8628    1.0000 </r>
       <r>    3.2936    1.0000 </r>
       <r>    6.9153    0.0000 </r>
       <r>    9.0451    0.0000 </r>
       <r>   13.4196    0.0000 </r>
       <r>   13.5774    0.0000 </r>
      </set>
      <set comment="kpoint 101">
       <r>   -2.4753    1.0000 </r>
       <r>   -1.3260    1.0000 </r>
       <r>    1.5632    1.0000 </r>
       <r>    3.4162    1.0000 </r>
       <r>    7.0526    0.0000 </r>
       <r>    9.9781    0.0000 </r>
       <r>   13.1531    0.0000 </r>
       <r>   13.4736    0.0000 </r>
      </set>
      <set comment="kpoint 102">
       <r>   -2.6573    1.0000 </r>
       <r>   -1.1359    1.0000 </r>
       <r>    1.4210    1.0000 </r>
       <r>    3.5867    1.0000 </r>
       <r>    7.2479    0.0000 </r>
       <r>   10.9884    0.0000 </r>
       <r>   12.7071    0.0000 </r>
       <r>   13.2555    0.0000 </r>
      </set>
      <set comment="kpoint 103">
       <r>   -3.4170    1.0000 </r>
       <r>   -0.3449    1.0000 </r>
       <r>    3.1376    1.0000 </r>
       <r>    3.1377    1.0000 </r>
       <r>    6.4154    0.0188 </r>
       <r>    7.1456    0.0000 </r>
       <r>   14.3626    0.0000 </r>
       <r>   14.3626    0.0000 </r>
      </set>
      <set comment="kpoint 104">
       <r>   -3.0686    1.0000 </r>
       <r>   -0.7744    1.0000 </r>
       <r>    2.9341    1.0000 </r>
       <r>    3.0861    1.0000 </r>
       <r>    6.5157    0.0026 </r>
       <r>    7.0722    0.0000 </r>
       <r>   14.6379    0.0000 </r>
       <r>   14.6588    0.0000 </r>
      </set>
      <set comment="kpoint 105">
       <r>   -2.6877    1.0000 </r>
       <r>   -1.1858    1.0000 </r>
       <r>    2.5514    1.0000 </r>
       <r>    3.0892    1.0000 </r>
       <r>    6.6511    0.0001 </r>
       <r>    7.4094    0.0000 </r>
       <r>   14.6044    0.0000 </r>
       <r>   14.7064    0.0000 </r>
      </set>
      <set comment="kpoint 106">
       <r>   -2.3202    1.0000 </r>
       <r>   -1.5372    1.0000 </r>
       <r>    2.1265    1.0000 </r>
       <r>    3.1464    1.0000 </r>
       <r>    6.7374    0.0000 </r>
       <r>    8.1076    0.0000 </r>
       <r>   14.3913    0.0000 </r>
       <r>   14.6448    0.0000 </r>
      </set>
      <set comment="kpoint 107">
       <r>   -2.2116    1.0000 </r>
       <r>   -1.6064    1.0000 </r>
       <r>    1.7678    1.0000 </r>
       <r>    3.2564    1.0000 </r>
       <r>    6.8647    0.0000 </r>
       <r>    8.9882    0.0000 </r>
       <r>   13.9435    0.0000 </r>
       <r>   14.5274    0.0000 </r>
      </set>
      <set comment="kpoint 108">
       <r>   -2.7311    1.0000 </r>
       <r>   -1.1859    1.0000 </r>
       <r>    3.0195    1.0000 </r>
       <r>    3.0196    1.0000 </r>
       <r>    6.4240    0.0162 </r>
       <r>    6.7828    0.0000 </r>
       <r>   15.2998    0.0000 </r>
       <r>   15.2998    0.0000 </r>
      </set>
      <set comment="kpoint 109">
       <r>   -2.3555    1.0000 </r>
       <r>   -1.5867    1.0000 </r>
       <r>    2.8485    1.0000 </r>
[...]
       <r>   -1.2127    1.0000 </r>
       <r>    2.1809    1.0000 </r>
       <r>    2.4895    1.0000 </r>
       <r>    8.1865    0.0000 </r>
       <r>    8.4360    0.0000 </r>
       <r>   12.1719    0.0000 </r>
       <r>   13.9590    0.0000 </r>
      </set>
      <set comment="kpoint 246">
       <r>   -2.1975    1.0000 </r>
       <r>   -1.5206    1.0000 </r>
       <r>    1.9334    1.0000 </r>
       <r>    2.4298    1.0000 </r>
       <r>    8.3988    0.0000 </r>
       <r>    9.1645    0.0000 </r>
       <r>   11.9664    0.0000 </r>
       <r>   12.8567    0.0000 </r>
      </set>
      <set comment="kpoint 247">
       <r>   -2.1897    1.0000 </r>
       <r>   -1.5056    1.0000 </r>
       <r>    1.6957    1.0000 </r>
       <r>    2.5516    1.0000 </r>
       <r>    8.5545    0.0000 </r>
       <r>   10.0915    0.0000 </r>
       <r>   11.7210    0.0000 </r>
       <r>   11.9043    0.0000 </r>
      </set>
      <set comment="kpoint 248">
       <r>   -1.8809    1.0000 </r>
       <r>   -1.8809    1.0000 </r>
       <r>    2.2718    1.0000 </r>
       <r>    2.2718    1.0000 </r>
       <r>    8.2608    0.0000 </r>
       <r>    8.2608    0.0000 </r>
       <r>   13.0386    0.0000 </r>
       <r>   13.0387    0.0000 </r>
      </set>
      <set comment="kpoint 249">
       <r>   -2.9777    1.0000 </r>
       <r>   -0.7286    1.0000 </r>
       <r>    1.8527    1.0000 </r>
       <r>    2.8399    1.0000 </r>
       <r>    9.2329    0.0000 </r>
       <r>    9.6078    0.0000 </r>
       <r>   10.2755    0.0000 </r>
       <r>   13.6334    0.0000 </r>
      </set>
      <set comment="kpoint 250">
       <r>   -2.6325    1.0000 </r>
       <r>   -1.0710    1.0000 </r>
       <r>    1.7316    1.0000 </r>
       <r>    2.6545    1.0000 </r>
       <r>    9.4641    0.0000 </r>
       <r>    9.8424    0.0000 </r>
       <r>   10.5451    0.0000 </r>
       <r>   12.5323    0.0000 </r>
      </set>
      <set comment="kpoint 251">
       <r>   -2.4662    1.0000 </r>
       <r>   -1.2381    1.0000 </r>
       <r>    1.6948    1.0000 </r>
       <r>    2.5886    1.0000 </r>
       <r>    9.5074    0.0000 </r>
       <r>    9.8279    0.0000 </r>
       <r>   11.2406    0.0000 </r>
       <r>   11.6842    0.0000 </r>
      </set>
      <set comment="kpoint 252">
       <r>   -2.4130    1.0000 </r>
       <r>   -1.2719    1.0000 </r>
       <r>    1.8855    1.0000 </r>
       <r>    2.3767    1.0000 </r>
       <r>    9.2092    0.0000 </r>
       <r>    9.4115    0.0000 </r>
       <r>   10.9540    0.0000 </r>
       <r>   12.6702    0.0000 </r>
      </set>
      <set comment="kpoint 253">
       <r>   -2.1539    1.0000 </r>
       <r>   -1.5081    1.0000 </r>
       <r>    1.7969    1.0000 </r>
       <r>    2.2787    1.0000 </r>
       <r>    9.4215    0.0000 </r>
       <r>   10.1383    0.0000 </r>
       <r>   10.8524    0.0000 </r>
       <r>   11.6230    0.0000 </r>
      </set>
      <set comment="kpoint 254">
       <r>   -2.2911    1.0000 </r>
       <r>   -1.3731    1.0000 </r>
       <r>    1.7130    1.0000 </r>
       <r>    2.4003    1.0000 </r>
       <r>    9.5745    0.0000 </r>
       <r>   10.2712    0.0000 </r>
       <r>   10.7390    0.0000 </r>
       <r>   11.4973    0.0000 </r>
      </set>
      <set comment="kpoint 255">
       <r>   -1.8377    1.0000 </r>
       <r>   -1.8377    1.0000 </r>
       <r>    2.0570    1.0000 </r>
       <r>    2.0570    1.0000 </r>
       <r>    9.2682    0.0000 </r>
       <r>    9.2683    0.0000 </r>
       <r>   11.7683    0.0000 </r>
       <r>   11.7684    0.0000 </r>
      </set>
      <set comment="kpoint 256">
       <r>   -1.8205    1.0000 </r>
       <r>   -1.8205    1.0000 </r>
       <r>    1.9795    1.0000 </r>
       <r>    1.9795    1.0000 </r>
       <r>   10.1069    0.0000 </r>
       <r>   10.1070    0.0000 </r>
       <r>   10.8447    0.0000 </r>
       <r>   10.8447    0.0000 </r>
      </set>
     </set>
    </set>
   </array>
  </eigenvalues>
  <separator name="orbital magnetization" >
   <v name="MAGDIPOLOUT">      0.00000000      0.00000000      0.00000000</v>
  </separator>
  <dos>
   <i name="efermi">      6.12128557 </i>
   <total>
    <array>
     <dimension dim="1">gridpoints</dimension>
     <dimension dim="2">spin</dimension>
     <field>energy</field>
     <field>total</field>
     <field>integrated</field>
     <set>
      <set comment="spin 1">
       <r>    -8.1306     0.0000     0.0000 </r>
       <r>    -8.0436     0.0000     0.0000 </r>
       <r>    -7.9566     0.0000     0.0000 </r>
       <r>    -7.8697     0.0000     0.0000 </r>
       <r>    -7.7827     0.0000     0.0000 </r>
       <r>    -7.6957     0.0000     0.0000 </r>
       <r>    -7.6088     0.0000     0.0000 </r>
       <r>    -7.5218     0.0000     0.0000 </r>
       <r>    -7.4348     0.0000     0.0000 </r>
       <r>    -7.3478     0.0000     0.0000 </r>
       <r>    -7.2609     0.0000     0.0000 </r>
       <r>    -7.1739     0.0000     0.0000 </r>
       <r>    -7.0869     0.0000     0.0000 </r>
       <r>    -7.0000     0.0000     0.0000 </r>
       <r>    -6.9130     0.0000     0.0000 </r>
       <r>    -6.8260     0.0000     0.0000 </r>
       <r>    -6.7391     0.0000     0.0000 </r>
       <r>    -6.6521     0.0000     0.0000 </r>
       <r>    -6.5651     0.0000     0.0000 </r>
       <r>    -6.4781     0.0002     0.0000 </r>
       <r>    -6.3912     0.0012     0.0001 </r>
       <r>    -6.3042     0.0051     0.0006 </r>
       <r>    -6.2172     0.0159     0.0020 </r>
       <r>    -6.1303     0.0382     0.0053 </r>
       <r>    -6.0433     0.0721     0.0115 </r>
       <r>    -5.9563     0.1123     0.0213 </r>
       <r>    -5.8694     0.1515     0.0345 </r>
       <r>    -5.7824     0.1857     0.0506 </r>
       <r>    -5.6954     0.2150     0.0693 </r>
       <r>    -5.6085     0.2408     0.0903 </r>
       <r>    -5.5215     0.2643     0.1133 </r>
       <r>    -5.4345     0.2860     0.1381 </r>
       <r>    -5.3475     0.3072     0.1649 </r>
       <r>    -5.2606     0.3274     0.1933 </r>
       <r>    -5.1736     0.3461     0.2234 </r>
       <r>    -5.0866     0.3657     0.2552 </r>
       <r>    -4.9997     0.3859     0.2888 </r>
       <r>    -4.9127     0.4033     0.3239 </r>
       <r>    -4.8257     0.4208     0.3605 </r>
       <r>    -4.7388     0.4426     0.3990 </r>
       <r>    -4.6518     0.4635     0.4393 </r>
       <r>    -4.5648     0.4797     0.4810 </r>
       <r>    -4.4779     0.4990     0.5244 </r>
       <r>    -4.3909     0.5261     0.5701 </r>
       <r>    -4.3039     0.5522     0.6182 </r>
       <r>    -4.2169     0.5724     0.6679 </r>
       <r>    -4.1300     0.5989     0.7200 </r>
       <r>    -4.0430     0.6424     0.7759 </r>
       <r>    -3.9560     0.6928     0.8361 </r>
       <r>    -3.8691     0.7368     0.9002 </r>
       <r>    -3.7821     0.7793     0.9680 </r>
       <r>    -3.6951     0.8212     1.0394 </r>
       <r>    -3.6082     0.8385     1.1123 </r>
       <r>    -3.5212     0.8187     1.1835 </r>
       <r>    -3.4342     0.7871     1.2520 </r>
       <r>    -3.3473     0.7660     1.3186 </r>
       <r>    -3.2603     0.7435     1.3833 </r>
       <r>    -3.1733     0.7081     1.4449 </r>
       <r>    -3.0863     0.6731     1.5034 </r>
       <r>    -2.9994     0.6477     1.5597 </r>
       <r>    -2.9124     0.6205     1.6137 </r>
       <r>    -2.8254     0.5850     1.6646 </r>
       <r>    -2.7385     0.5515     1.7125 </r>
       <r>    -2.6515     0.5233     1.7580 </r>
       <r>    -2.5645     0.4899     1.8006 </r>
       <r>    -2.4776     0.4492     1.8397 </r>
       <r>    -2.3906     0.4106     1.8754 </r>
       <r>    -2.3036     0.3741     1.9080 </r>
       <r>    -2.2167     0.3277     1.9365 </r>
       <r>    -2.1297     0.2683     1.9598 </r>
       <r>    -2.0427     0.2095     1.9780 </r>
       <r>    -1.9557     0.1672     1.9926 </r>
       <r>    -1.8688     0.1450     2.0052 </r>
       <r>    -1.7818     0.1417     2.0175 </r>
       <r>    -1.6948     0.1657     2.0319 </r>
       <r>    -1.6079     0.2214     2.0511 </r>
       <r>    -1.5209     0.2864     2.0761 </r>
       <r>    -1.4339     0.3361     2.1053 </r>
       <r>    -1.3470     0.3895     2.1392 </r>
       <r>    -1.2600     0.4906     2.1818 </r>
       <r>    -1.1730     0.6512     2.2385 </r>
       <r>    -1.0861     0.8482     2.3122 </r>
       <r>    -0.9991     1.0454     2.4032 </r>
       <r>    -0.9121     1.1791     2.5057 </r>
       <r>    -0.8251     1.1843     2.6087 </r>
       <r>    -0.7382     1.0709     2.7018 </r>
       <r>    -0.6512     0.9228     2.7821 </r>
       <r>    -0.5642     0.8073     2.8523 </r>
       <r>    -0.4773     0.7301     2.9158 </r>
       <r>    -0.3903     0.6707     2.9741 </r>
       <r>    -0.3033     0.6184     3.0279 </r>
       <r>    -0.2164     0.5748     3.0779 </r>
       <r>    -0.1294     0.5413     3.1250 </r>
       <r>    -0.0424     0.5113     3.1695 </r>
       <r>     0.0446     0.4804     3.2112 </r>
       <r>     0.1315     0.4536     3.2507 </r>
       <r>     0.2185     0.4343     3.2885 </r>
       <r>     0.3055     0.4152     3.3246 </r>
       <r>     0.3924     0.3911     3.3586 </r>
       <r>     0.4794     0.3683     3.3906 </r>
       <r>     0.5664     0.3511     3.4212 </r>
       <r>     0.6533     0.3370     3.4505 </r>
       <r>     0.7403     0.3272     3.4789 </r>
       <r>     0.8273     0.3158     3.5064 </r>
       <r>     0.9142     0.2937     3.5319 </r>
       <r>     1.0012     0.2706     3.5555 </r>
       <r>     1.0882     0.2613     3.5782 </r>
       <r>     1.1752     0.2664     3.6014 </r>
       <r>     1.2621     0.2842     3.6261 </r>
       <r>     1.3491     0.3254     3.6544 </r>
       <r>     1.4361     0.4123     3.6902 </r>
       <r>     1.5230     0.5607     3.7390 </r>
       <r>     1.6100     0.7506     3.8043 </r>
       <r>     1.6970     0.9322     3.8853 </r>
       <r>     1.7839     1.0621     3.9777 </r>
       <r>     1.8709     1.1159     4.0748 </r>
       <r>     1.9579     1.0975     4.1702 </r>
       <r>     2.0448     1.0507     4.2616 </r>
       <r>     2.1318     1.0246     4.3507 </r>
       <r>     2.2188     1.0297     4.4402 </r>
       <r>     2.3058     1.0479     4.5314 </r>
       <r>     2.3927     1.0614     4.6237 </r>
       <r>     2.4797     1.0681     4.7166 </r>
       <r>     2.5667     1.0822     4.8107 </r>
       <r>     2.6536     1.1143     4.9076 </r>
       <r>     2.7406     1.1614     5.0086 </r>
       <r>     2.8276     1.2272     5.1153 </r>
       <r>     2.9145     1.3208     5.2302 </r>
       <r>     3.0015     1.4170     5.3534 </r>
       <r>     3.0885     1.4615     5.4806 </r>
       <r>     3.1754     1.4439     5.6061 </r>
       <r>     3.2624     1.4245     5.7300 </r>
       <r>     3.3494     1.4456     5.8557 </r>
       <r>     3.4364     1.4605     5.9828 </r>
       <r>     3.5233     1.4196     6.1062 </r>
       <r>     3.6103     1.3619     6.2247 </r>
       <r>     3.6973     1.3395     6.3412 </r>
       <r>     3.7842     1.3352     6.4573 </r>
       <r>     3.8712     1.3149     6.5716 </r>
       <r>     3.9582     1.2838     6.6833 </r>
       <r>     4.0451     1.2576     6.7927 </r>
       <r>     4.1321     1.2341     6.9000 </r>
       <r>     4.2191     1.2126     7.0055 </r>
       <r>     4.3060     1.1990     7.1097 </r>
       <r>     4.3930     1.1825     7.2126 </r>
       <r>     4.4800     1.1453     7.3122 </r>
       <r>     4.5670     1.0821     7.4063 </r>
       <r>     4.6539     0.9947     7.4928 </r>
       <r>     4.7409     0.8894     7.5701 </r>
       <r>     4.8279     0.7807     7.6380 </r>
       <r>     4.9148     0.6836     7.6975 </r>
       <r>     5.0018     0.6032     7.7500 </r>
       <r>     5.0888     0.5320     7.7962 </r>
       <r>     5.1757     0.4620     7.8364 </r>
       <r>     5.2627     0.3957     7.8708 </r>
       <r>     5.3497     0.3411     7.9005 </r>
       <r>     5.4366     0.2994     7.9265 </r>
       <r>     5.5236     0.2609     7.9492 </r>
       <r>     5.6106     0.2145     7.9679 </r>
       <r>     5.6976     0.1596     7.9817 </r>
       <r>     5.7845     0.1053     7.9909 </r>
       <r>     5.8715     0.0604     7.9962 </r>
       <r>     5.9585     0.0290     7.9987 </r>
       <r>     6.0454     0.0113     7.9997 </r>
       <r>     6.1324     0.0043     8.0000 </r>
       <r>     6.2194     0.0054     8.0005 </r>
       <r>     6.3063     0.0156     8.0019 </r>
       <r>     6.3933     0.0400     8.0053 </r>
       <r>     6.4803     0.0824     8.0125 </r>
       <r>     6.5673     0.1408     8.0248 </r>
       <r>     6.6542     0.2089     8.0429 </r>
       <r>     6.7412     0.2801     8.0673 </r>
       <r>     6.8282     0.3480     8.0975 </r>
       <r>     6.9151     0.4054     8.1328 </r>
       <r>     7.0021     0.4465     8.1716 </r>
       <r>     7.0891     0.4750     8.2129 </r>
       <r>     7.1760     0.5089     8.2572 </r>
       <r>     7.2630     0.5665     8.3065 </r>
       <r>     7.3500     0.6458     8.3626 </r>
       <r>     7.4369     0.7316     8.4263 </r>
       <r>     7.5239     0.8183     8.4974 </r>
       <r>     7.6109     0.8998     8.5757 </r>
       <r>     7.6979     0.9611     8.6593 </r>
       <r>     7.7848     1.0147     8.7475 </r>
       <r>     7.8718     1.1056     8.8437 </r>
       <r>     7.9588     1.2447     8.9519 </r>
       <r>     8.0457     1.3867     9.0725 </r>
       <r>     8.1327     1.4924     9.2023 </r>
       <r>     8.2197     1.5524     9.3373 </r>
       <r>     8.3066     1.5530     9.4724 </r>
       <r>     8.3936     1.4886     9.6019 </r>
       <r>     8.4806     1.3889     9.7226 </r>
       <r>     8.5675     1.2894     9.8348 </r>
       <r>     8.6545     1.1960     9.9388 </r>
       <r>     8.7415     1.1077    10.0351 </r>
       <r>     8.8285     1.0658    10.1278 </r>
       <r>     8.9154     1.1467    10.2276 </r>
       <r>     9.0024     1.3814    10.3477 </r>
       <r>     9.0894     1.6889    10.4946 </r>
       <r>     9.1763     1.9151    10.6611 </r>
       <r>     9.2633     1.9591    10.8315 </r>
       <r>     9.3503     1.8646    10.9937 </r>
       <r>     9.4372     1.7540    11.1462 </r>
       <r>     9.5242     1.6787    11.2922 </r>
       <r>     9.6112     1.5997    11.4313 </r>
       <r>     9.6981     1.4915    11.5611 </r>
       <r>     9.7851     1.3814    11.6812 </r>
       <r>     9.8721     1.3089    11.7950 </r>
       <r>     9.9591     1.3000    11.9081 </r>
       <r>    10.0460     1.3413    12.0247 </r>
       <r>    10.1330     1.3664    12.1436 </r>
       <r>    10.2200     1.3243    12.2588 </r>
       <r>    10.3069     1.2498    12.3675 </r>
       <r>    10.3939     1.2084    12.4725 </r>
       <r>    10.4809     1.2070    12.5775 </r>
       <r>    10.5678     1.2122    12.6829 </r>
       <r>    10.6548     1.2137    12.7885 </r>
       <r>    10.7418     1.2270    12.8952 </r>
       <r>    10.8287     1.2620    13.0050 </r>
       <r>    10.9157     1.3033    13.1183 </r>
       <r>    11.0027     1.3091    13.2322 </r>
       <r>    11.0897     1.2453    13.3405 </r>
       <r>    11.1766     1.1362    13.4393 </r>
       <r>    11.2636     1.0471    13.5303 </r>
       <r>    11.3506     1.0172    13.6188 </r>
       <r>    11.4375     1.0423    13.7095 </r>
       <r>    11.5245     1.1015    13.8053 </r>
       <r>    11.6115     1.1649    13.9066 </r>
       <r>    11.6984     1.2058    14.0114 </r>
       <r>    11.7854     1.2111    14.1168 </r>
       <r>    11.8724     1.1639    14.2180 </r>
       <r>    11.9593     1.0504    14.3093 </r>
       <r>    12.0463     0.9015    14.3877 </r>
       <r>    12.1333     0.7848    14.4560 </r>
       <r>    12.2203     0.7431    14.5206 </r>
       <r>    12.3072     0.7681    14.5874 </r>
       <r>    12.3942     0.8338    14.6599 </r>
       <r>    12.4812     0.9237    14.7403 </r>
       <r>    12.5681     1.0201    14.8290 </r>
       <r>    12.6551     1.0901    14.9238 </r>
       <r>    12.7421     1.0894    15.0185 </r>
       <r>    12.8290     0.9865    15.1043 </r>
       <r>    12.9160     0.8042    15.1743 </r>
       <r>    13.0030     0.6176    15.2280 </r>
       <r>    13.0900     0.4899    15.2706 </r>
       <r>    13.1769     0.4300    15.3080 </r>
       <r>    13.2639     0.4193    15.3445 </r>
       <r>    13.3509     0.4488    15.3835 </r>
       <r>    13.4378     0.5202    15.4287 </r>
       <r>    13.5248     0.6283    15.4834 </r>
       <r>    13.6118     0.7433    15.5480 </r>
       <r>    13.6987     0.7952    15.6172 </r>
       <r>    13.7857     0.7207    15.6799 </r>
       <r>    13.8727     0.5456    15.7273 </r>
       <r>    13.9596     0.3659    15.7591 </r>
       <r>    14.0466     0.2483    15.7807 </r>
       <r>    14.1336     0.1956    15.7977 </r>
       <r>    14.2206     0.1818    15.8135 </r>
       <r>    14.3075     0.1841    15.8296 </r>
       <r>    14.3945     0.1949    15.8465 </r>
       <r>    14.4815     0.2182    15.8655 </r>
       <r>    14.5684     0.2495    15.8872 </r>
       <r>    14.6554     0.2586    15.9097 </r>
       <r>    14.7424     0.2156    15.9284 </r>
       <r>    14.8293     0.1360    15.9402 </r>
       <r>    14.9163     0.0667    15.9460 </r>
       <r>    15.0033     0.0356    15.9491 </r>
       <r>    15.0902     0.0380    15.9524 </r>
       <r>    15.1772     0.0573    15.9574 </r>
       <r>    15.2642     0.0783    15.9642 </r>
       <r>    15.3512     0.0900    15.9721 </r>
       <r>    15.4381     0.0901    15.9799 </r>
       <r>    15.5251     0.0814    15.9870 </r>
       <r>    15.6121     0.0642    15.9926 </r>
       <r>    15.6990     0.0409    15.9961 </r>
       <r>    15.7860     0.0206    15.9979 </r>
       <r>    15.8730     0.0094    15.9987 </r>
       <r>    15.9599     0.0056    15.9992 </r>
       <r>    16.0469     0.0043    15.9996 </r>
       <r>    16.1339     0.0028    15.9998 </r>
       <r>    16.2208     0.0013    16.0000 </r>
       <r>    16.3078     0.0004    16.0000 </r>
       <r>    16.3948     0.0001    16.0000 </r>
       <r>    16.4818     0.0000    16.0000 </r>
       <r>    16.5687     0.0000    16.0000 </r>
       <r>    16.6557     0.0000    16.0000 </r>
       <r>    16.7427     0.0000    16.0000 </r>
       <r>    16.8296     0.0000    16.0000 </r>
       <r>    16.9166     0.0000    16.0000 </r>
       <r>    17.0036     0.0000    16.0000 </r>
       <r>    17.0905     0.0000    16.0000 </r>
       <r>    17.1775     0.0000    16.0000 </r>
       <r>    17.2645     0.0000    16.0000 </r>
       <r>    17.3514     0.0000    16.0000 </r>
       <r>    17.4384     0.0000    16.0000 </r>
       <r>    17.5254     0.0000    16.0000 </r>
       <r>    17.6124     0.0000    16.0000 </r>
       <r>    17.6993     0.0000    16.0000 </r>
       <r>    17.7863     0.0000    16.0000 </r>
       <r>    17.8733     0.0000    16.0000 </r>
       <r>    17.9602     0.0000    16.0000 </r>
      </set>
     </set>
    </array>
   </total>
  </dos>
 </calculation>
 <structure name="finalpos" >
  <crystal>
   <varray name="basis" >
    <v>       0.00000000       2.71500000       2.71500000 </v>
    <v>       2.71500000       0.00000000       2.71500000 </v>
    <v>       2.71500000       2.71500000       0.00000000 </v>
   </varray>
   <i name="volume">     40.02575175 </i>
   <varray name="rec_basis" >
    <v>      -0.18416206       0.18416206       0.18416206 </v>
    <v>       0.18416206      -0.18416206       0.18416206 </v>
    <v>       0.18416206       0.18416206      -0.18416206 </v>
   </varray>
  </crystal>
  <varray name="positions" >
   <v>       0.00000000       0.00000000       0.00000000 </v>
   <v>       0.25000000       0.25000000       0.25000000 </v>
  </varray>
 </structure>
</modeling>
