Si                                      
   3.90000000000000     
     1.163999    1.163999   -0.000000
     0.000000    1.163999    1.163999
     1.163999    0.000000    1.163999
   Si
     2
Direct
  0.000000  0.000000  0.000000
  0.250000  0.250000  0.250000
 
   24   24   24
 -5.2130     -4.1994     -1.4269      2.3844      6.2947      9.4530      11.361      11.981      11.654      10.902    
  10.139      9.5863      9.3849      9.5863      10.139      10.902      11.654      11.981      11.361      9.4531    
  6.2948      2.3845     -1.4269     -4.1994     -4.1994     -2.1565      1.3797      5.4943      9.2141      11.822    
  13.048      13.075      12.378      11.478      10.690      10.234      10.233      10.690      11.478      12.378    
  13.075      13.048      11.822      9.2142      5.4942      1.3792     -2.1571     -4.1997     -1.4269      1.3797    
  5.1957      9.0471      12.080      13.814      14.231      13.683      12.679      11.639      10.864      10.577    
  10.864      11.639      12.679      13.683      14.231      13.814      12.080      9.0471      5.1953      1.3791    
 -1.4274     -2.4590      2.3844      5.4943      9.0471      12.162      14.214      14.989      14.658      13.626    
  12.357      11.224      10.558      10.558      11.224      12.356      13.626      14.658      14.989      14.214    
  12.162      9.0471      5.4942      2.3843     0.56871     0.56876      6.2947      9.2141      12.080      14.214    
  15.253      15.178      14.231      12.823      11.359      10.258      9.8497      10.258      11.358      12.823    
  14.231      15.178      15.253      14.214      12.080      9.2142      6.2949      4.1137      3.3058      4.1136    
  9.4530      11.822      13.814      14.989      15.178      14.439      13.048      11.371      9.8674      8.9798    
  8.9797      9.8671      11.371      13.048      14.439      15.178      14.989      13.814      11.822      9.4530    
  7.3360      6.0868      6.0868      7.3360      11.361      13.048      14.231      14.658      14.231      13.048    
  11.361      9.6016      8.2721      7.7773      8.2719      9.6012      11.361      13.048      14.231      14.658    
  14.231      13.048      11.361      9.6012      8.2719      7.7773      8.2721      9.6016      11.981      13.075    
  13.683      13.626      12.823      11.371      9.6016      8.0006      7.0501      7.0500      8.0005      9.6013    
  11.371      12.823      13.627      13.684      13.075      11.981      10.666      9.4902      8.7964      8.7965    
  9.4906      10.667      11.654      12.378      12.679      12.357      11.359      9.8674      8.2721      7.0501    
  6.5924      7.0501      8.2721      9.8672      11.358      12.356      12.679      12.378      11.654      10.695    
  9.7343      9.0246      8.7632      9.0246      9.7343      10.695      10.902      11.478      11.639      11.224    
  10.258      8.9798      7.7773      7.0500      7.0501      7.7775      8.9799      10.258      11.224      11.639    
  11.478      10.902      10.117      9.3000      8.6237      8.2405      8.2404      8.6234      9.2998      10.117    
  10.139      10.690      10.864      10.558      9.8497      8.9797      8.2719      8.0005      8.2721      8.9799    
  9.8499      10.558      10.864      10.690      10.139      9.3979      8.6154      7.9322      7.4684      7.3043    
  7.4682      7.9321      8.6154      9.3981      9.5863      10.234      10.577      10.558      10.258      9.8671    
  9.6012      9.6013      9.8672      10.258      10.558      10.577      10.234      9.5863      8.7907      7.9748    
  7.2480      6.7058      6.4167      6.4167      6.7058      7.2482      7.9750      8.7909      9.3849      10.233    
  10.864      11.224      11.358      11.371      11.361      11.371      11.358      11.224      10.864      10.234    
  9.3852      8.4466      7.5268      6.7127      6.0780      5.6762      5.5389      5.6763      6.0782      6.7129    
  7.5268      8.4464      9.5863      10.690      11.639      12.356      12.823      13.048      13.048      12.823    
  12.356      11.639      10.690      9.5863      8.4466      7.3665      6.4204      5.6670      5.1463      4.8810    
  4.8811      5.1463      5.6670      6.4203      7.3663      8.4464      10.139      11.478      12.679      13.626    
  14.231      14.439      14.231      13.627      12.679      11.478      10.139      8.7907      7.5268      6.4204    
  5.5242      4.8705      4.4750      4.3429      4.4750      4.8704      5.5240      6.4203      7.5269      8.7909    
  10.902      12.378      13.683      14.658      15.178      15.178      14.658      13.684      12.378      10.902    
  9.3979      7.9748      6.7127      5.6670      4.8705      4.3380      4.0723      4.0723      4.3379      4.8704    
  5.6670      6.7129      7.9750      9.3981      11.654      13.075      14.231      14.989      15.253      14.989    
  14.231      13.075      11.654      10.117      8.6154      7.2480      6.0780      5.1463      4.4750      4.0723    
  3.9383      4.0723      4.4750      5.1463      6.0781      7.2481      8.6154      10.117      11.981      13.048    
  13.814      14.214      14.214      13.814      13.048      11.981      10.695      9.3000      7.9322      6.7058    
  5.6762      4.8810      4.3429      4.0723      4.0723      4.3430      4.8811      5.6763      6.7057      7.9321    
  9.2998      10.695      11.361      11.822      12.080      12.162      12.080      11.822      11.361      10.666    
  9.7343      8.6237      7.4684      6.4167      5.5389      4.8811      4.4750      4.3379      4.4750      4.8811    
  5.5389      6.4167      7.4682      8.6235      9.7342      10.667      9.4531      9.2142      9.0471      9.0471    
  9.2142      9.4530      9.6012      9.4902      9.0246      8.2405      7.3043      6.4167      5.6763      5.1463    
  4.8704      4.8704      5.1463      5.6763      6.4167      7.3042      8.2405      9.0247      9.4904      9.6014    
  6.2948      5.4942      5.1953      5.4942      6.2949      7.3360      8.2719      8.7964      8.7632      8.2404    
  7.4682      6.7058      6.0782      5.6670      5.5240      5.6670      6.0781      6.7057      7.4682      8.2405    
  8.7633      8.7965      8.2719      7.3360      2.3845      1.3792      1.3791      2.3843      4.1137      6.0868    
  7.7773      8.7965      9.0246      8.6234      7.9321      7.2482      6.7129      6.4203      6.4203      6.7129    
  7.2481      7.9321      8.6235      9.0247      8.7965      7.7772      6.0867      4.1138     -1.4269     -2.1571    
 -1.4274     0.56871      3.3058      6.0868      8.2721      9.4906      9.7343      9.2998      8.6154      7.9750    
  7.5268      7.3663      7.5269      7.9750      8.6154      9.2998      9.7342      9.4904      8.2719      6.0867    
  3.3061     0.56927     -4.1994     -4.1997     -2.4590     0.56876      4.1136      7.3360      9.6016      10.667    
  10.695      10.117      9.3981      8.7909      8.4464      8.4464      8.7909      9.3981      10.117      10.695    
  10.667      9.6014      7.3360      4.1138     0.56927     -2.4585     -4.1994     -2.1565      1.3797      5.4943    
  9.2141      11.822      13.048      13.075      12.378      11.478      10.690      10.234      10.233      10.690    
  11.478      12.378      13.075      13.048      11.822      9.2142      5.4942      1.3792     -2.1571     -4.1997    
 -2.1565     0.78283      4.7882      8.8468      12.066      13.940      14.439      13.919      12.904      11.841    
  11.046      10.751      11.046      11.841      12.904      13.919      14.439      13.940      12.066      8.8468    
  4.7877     0.78199     -2.1572     -3.2363      1.3797      4.7882      8.7028      12.169      14.500      15.450    
  15.178      14.113      12.769      11.563      10.852      10.852      11.563      12.769      14.113      15.178    
  15.450      14.501      12.169      8.7027      4.7878      1.3792     -.60495     -.60473      5.4943      8.8468    
  12.169      14.692      15.988      16.002      14.989      13.428      11.796      10.566      10.109      10.566    
  11.796      13.428      14.989      16.002      15.988      14.692      12.169      8.8469      5.4944      3.0023    
  2.0814      3.0023      9.2141      12.066      14.500      15.988      16.289      15.450      13.814      11.841    
  10.073      9.0302      9.0302      10.073      11.841      13.814      15.450      16.289      15.988      14.500    
  12.066      9.2143      6.6842      5.1968      5.1967      6.6839      11.822      13.940      15.450      16.002    
  15.450      13.940      11.822      9.6295      7.9800      7.3672      7.9800      9.6295      11.822      13.940    
  15.450      16.002      15.450      13.940      11.822      9.6295      7.9800      7.3672      7.9800      9.6295    
  13.048      14.439      15.178      14.989      13.814      11.822      9.4530      7.3360      6.0868      6.0868    
  7.3360      9.4530      11.822      13.814      14.989      15.178      14.439      13.048      11.371      9.8671    
  8.9797      8.9798      9.8674      11.371      13.075      13.919      14.113      13.428      11.841      9.6295    
  7.3360      5.6064      4.9631      5.6066      7.3362      9.6295      11.841      13.428      14.113      13.919    
  13.075      11.882      10.658      9.7432      9.4046      9.7434      10.658      11.882      12.378      12.904    
  12.769      11.796      10.073      7.9800      6.0868      4.9631      4.9633      6.0872      7.9803      10.073    
  11.796      12.769      12.904      12.378      11.503      10.525      9.6857      9.2016      9.2016      9.6856    
  10.525      11.503      11.478      11.841      11.563      10.566      9.0302      7.3672      6.0868      5.6066    
  6.0872      7.3677      9.0305      10.566      11.563      11.841      11.478      10.737      9.8791      9.0940    
  8.5450      8.3478      8.5448      9.0938      9.8789      10.737      10.690      11.046      10.852      10.109    
  9.0302      7.9800      7.3360      7.3362      7.9803      9.0305      10.109      10.852      11.046      10.690    
  9.9746      9.1403      8.3498      7.7377      7.4048      7.4047      7.7376      8.3497      9.1405      9.9748    
  10.234      10.751      10.852      10.566      10.073      9.6295      9.4530      9.6295      10.073      10.566    
  10.852      10.752      10.234      9.4255      8.5303      7.6867      7.0009      6.5552      6.4009      6.5553    
  7.0011      7.6869      8.5305      9.4255      10.233      11.046      11.563      11.796      11.841      11.822    
  11.822      11.841      11.796      11.563      11.046      10.234      9.2263      8.1881      7.2336      6.4451    
  5.8856      5.5962      5.5963      5.8858      6.4452      7.2336      8.1880      9.2261      10.690      11.841    
  12.769      13.428      13.814      13.940      13.814      13.428      12.769      11.841      10.690      9.4255    
  8.1881      7.0730      6.1472      5.4585      5.0361      4.8939      5.0361      5.4585      6.1471      7.0729    
  8.1880      9.4255      11.478      12.904      14.113      14.989      15.450      15.450      14.989      14.113    
  12.904      11.478      9.9746      8.5303      7.2336      6.1472      5.3120      4.7494      4.4674      4.4674    
  4.7493      5.3118      6.1471      7.2336      8.5306      9.9749      12.378      13.919      15.178      16.002    
  16.289      16.002      15.178      13.919      12.378      10.737      9.1403      7.6867      6.4451      5.4585    
  4.7494      4.3246      4.1833      4.3245      4.7493      5.4585      6.4451      7.6869      9.1405      10.737    
  13.075      14.439      15.450      15.988      15.988      15.450      14.439      13.075      11.503      9.8791    
  8.3498      7.0009      5.8856      5.0361      4.4674      4.1833      4.1834      4.4674      5.0362      5.8857    
  7.0010      8.3497      9.8789      11.503      13.048      13.940      14.501      14.692      14.500      13.940    
  13.048      11.882      10.525      9.0940      7.7377      6.5552      5.5962      4.8939      4.4674      4.3245    
  4.4674      4.8941      5.5963      6.5552      7.7375      9.0937      10.525      11.882      11.822      12.066    
  12.169      12.169      12.066      11.822      11.371      10.658      9.6857      8.5450      7.4048      6.4009    
  5.5963      5.0361      4.7493      4.7493      5.0362      5.5963      6.4009      7.4047      8.5449      9.6856    
  10.658      11.371      9.2142      8.8468      8.7027      8.8469      9.2143      9.6295      9.8671      9.7432    
  9.2016      8.3478      7.4047      6.5553      5.8858      5.4585      5.3118      5.4585      5.8857      6.5552    
  7.4047      8.3478      9.2017      9.7434      9.8672      9.6295      5.4942      4.7877      4.7878      5.4944    
  6.6842      7.9800      8.9797      9.4046      9.2016      8.5448      7.7376      7.0011      6.4452      6.1471    
  6.1471      6.4451      7.0010      7.7375      8.5449      9.2017      9.4048      8.9798      7.9800      6.6840    
  1.3792     0.78199      1.3792      3.0023      5.1968      7.3672      8.9798      9.7434      9.6856      9.0938    
  8.3497      7.6869      7.2336      7.0729      7.2336      7.6869      8.3497      9.0937      9.6856      9.7434    
  8.9798      7.3672      5.1968      3.0023     -2.1571     -2.1572     -.60495      2.0814      5.1967      7.9800    
  9.8674      10.658      10.525      9.8789      9.1405      8.5305      8.1880      8.1880      8.5306      9.1405    
  9.8789      10.525      10.658      9.8672      7.9800      5.1968      2.0816     -.60474     -4.1997     -3.2363    
 -.60473      3.0023      6.6839      9.6295      11.371      11.882      11.503      10.737      9.9748      9.4255    
  9.2261      9.4255      9.9749      10.737      11.503      11.882      11.371      9.6295      6.6840      3.0023    
 -.60474     -3.2363     -1.4269      1.3797      5.1957      9.0471      12.080      13.814      14.231      13.683    
  12.679      11.639      10.864      10.577      10.864      11.639      12.679      13.683      14.231      13.814    
  12.080      9.0471      5.1953      1.3791     -1.4274     -2.4590      1.3797      4.7882      8.7028      12.169    
  14.500      15.450      15.178      14.113      12.769      11.563      10.852      10.852      11.563      12.769    
  14.113      15.178      15.450      14.501      12.169      8.7027      4.7878      1.3792     -.60495     -.60473    
  5.1957      8.7028      12.189      14.852      16.242      16.289      15.253      13.637      11.945      10.669    
  10.194      10.669      11.945      13.637      15.253      16.289      16.242      14.852      12.189      8.7029    
  5.1957      2.5929      1.6318      2.5930      9.0471      12.169      14.852      16.517      16.881      15.988    
  14.214      12.076      10.161      9.0312      9.0314      10.161      12.076      14.214      15.988      16.881    
  16.517      14.852      12.169      9.0475      6.2880      4.6687      4.6685      6.2876      12.080      14.500    
  16.242      16.881      16.242      14.500      12.080      9.5863      7.7150      7.0207      7.7153      9.5867    
  12.080      14.500      16.242      16.881      16.242      14.500      12.080      9.5867      7.7153      7.0207    
  7.7150      9.5863      13.814      15.450      16.289      15.988      14.500      12.066      9.2141      6.6839    
  5.1967      5.1968      6.6842      9.2143      12.066      14.500      15.988      16.289      15.450      13.814    
  11.841      10.073      9.0302      9.0302      10.073      11.841      14.231      15.178      15.253      14.214    
  12.080      9.2141      6.2947      4.1136      3.3058      4.1137      6.2949      9.2142      12.080      14.214    
  15.253      15.178      14.231      12.823      11.358      10.258      9.8497      10.258      11.359      12.823    
  13.683      14.113      13.637      12.076      9.5863      6.6839      4.1136      2.6040      2.6041      4.1139    
  6.6842      9.5864      12.076      13.637      14.113      13.683      12.719      11.580      10.579      9.9941    
  9.9941      10.579      11.580      12.719      12.679      12.769      11.945      10.161      7.7150      5.1967    
  3.3058      2.6041      3.3061      5.1971      7.7153      10.161      11.945      12.769      12.679      11.983    
  11.063      10.176      9.5376      9.3051      9.5375      10.176      11.063      11.983      11.639      11.563    
  10.669      9.0312      7.0207      5.1968      4.1137      4.1139      5.1971      7.0211      9.0314      10.669    
  11.563      11.639      11.092      10.265      9.4249      8.7497      8.3751      8.3750      8.7495      9.4247    
  10.265      11.092      10.864      10.852      10.194      9.0314      7.7153      6.6842      6.2949      6.6842    
  7.7153      9.0314      10.194      10.852      10.864      10.326      9.5051      8.6568      7.9320      7.4469    
  7.2765      7.4468      7.9320      8.6569      9.5053      10.326      10.577      10.852      10.669      10.161    
  9.5867      9.2143      9.2142      9.5864      10.161      10.669      10.852      10.578      9.8852      8.9678    
  8.0453      7.2431      6.6543      6.3435      6.3436      6.6545      7.2433      8.0454      8.9678      9.8850    
  10.864      11.563      11.945      12.076      12.080      12.066      12.080      12.076      11.945      11.563    
  10.864      9.8852      8.7745      7.7083      6.7862      6.0790      5.6359      5.4853      5.6360      6.0791    
  6.7863      7.7082      8.7743      9.8850      11.639      12.769      13.637      14.214      14.500      14.500    
  14.214      13.637      12.769      11.639      10.326      8.9678      7.7083      6.6265      5.7771      5.1957    
  4.9011      4.9011      5.1956      5.7771      6.6264      7.7082      8.9679      10.326      12.679      14.113    
  15.253      15.988      16.242      15.988      15.253      14.113      12.679      11.092      9.5051      8.0453    
  6.7862      5.7771      5.0464      4.6062      4.4595      4.6062      5.0463      5.7770      6.7862      8.0455    
  9.5054      11.092      13.683      15.178      16.289      16.881      16.881      16.289      15.178      13.683    
  11.983      10.265      8.6568      7.2431      6.0790      5.1957      4.6062      4.3124      4.3124      4.6062    
  5.1956      6.0790      7.2432      8.6570      10.265      11.983      14.231      15.450      16.242      16.517    
  16.242      15.450      14.231      12.719      11.063      9.4249      7.9320      6.6543      5.6359      4.9011    
  4.4595      4.3124      4.4595      4.9012      5.6360      6.6544      7.9319      9.4247      11.063      12.719    
  13.814      14.501      14.852      14.852      14.500      13.814      12.823      11.580      10.176      8.7497    
  7.4469      6.3435      5.4853      4.9011      4.6062      4.6062      4.9012      5.4854      6.3436      7.4468    
  8.7494      10.176      11.580      12.823      12.080      12.169      12.189      12.169      12.080      11.841    
  11.358      10.579      9.5376      8.3751      7.2765      6.3436      5.6360      5.1956      5.0463      5.1956    
  5.6360      6.3436      7.2765      8.3751      9.5376      10.579      11.358      11.841      9.0471      8.7027    
  8.7029      9.0475      9.5867      10.073      10.258      9.9941      9.3051      8.3750      7.4468      6.6545    
  6.0791      5.7771      5.7770      6.0790      6.6544      7.4468      8.3751      9.3053      9.9943      10.258    
  10.073      9.5863      5.1953      4.7878      5.1957      6.2880      7.7153      9.0302      9.8497      9.9941    
  9.5375      8.7495      7.9320      7.2433      6.7863      6.6264      6.7862      7.2432      7.9319      8.7494    
  9.5376      9.9943      9.8499      9.0302      7.7150      6.2876      1.3791      1.3792      2.5929      4.6687    
  7.0207      9.0302      10.258      10.579      10.176      9.4247      8.6569      8.0454      7.7082      7.7082    
  8.0455      8.6570      9.4247      10.176      10.579      10.258      9.0302      7.0206      4.6686      2.5928    
 -1.4274     -.60495      1.6318      4.6685      7.7150      10.073      11.359      11.580      11.063      10.265    
  9.5053      8.9678      8.7743      8.9679      9.5054      10.265      11.063      11.580      11.358      10.073    
  7.7150      4.6686      1.6318     -.60500     -2.4590     -.60473      2.5930      6.2876      9.5863      11.841    
  12.823      12.719      11.983      11.092      10.326      9.8850      9.8850      10.326      11.092      11.983    
  12.719      12.823      11.841      9.5863      6.2876      2.5928     -.60500     -2.4591      2.3844      5.4943    
  9.0471      12.162      14.214      14.989      14.658      13.626      12.357      11.224      10.558      10.558    
  11.224      12.356      13.626      14.658      14.989      14.214      12.162      9.0471      5.4942      2.3843    
 0.56871     0.56876      5.4943      8.8468      12.169      14.692      15.988      16.002      14.989      13.428    
  11.796      10.566      10.109      10.566      11.796      13.428      14.989      16.002      15.988      14.692    
  12.169      8.8469      5.4944      3.0023      2.0814      3.0023      9.0471      12.169      14.852      16.517    
  16.881      15.988      14.214      12.076      10.161      9.0312      9.0314      10.161      12.076      14.214    
  15.988      16.881      16.517      14.852      12.169      9.0475      6.2880      4.6687      4.6685      6.2876    
  12.162      14.692      16.517      17.188      16.517      14.692      12.162      9.5611      7.6106      6.8872    
  7.6110      9.5617      12.163      14.692      16.517      17.187      16.517      14.692      12.163      9.5617    
  7.6110      6.8872      7.6106      9.5611      14.214      15.988      16.881      16.517      14.852      12.169    
  9.0471      6.2876      4.6685      4.6687      6.2880      9.0475      12.169      14.852      16.517      16.881    
  15.988      14.214      12.076      10.161      9.0314      9.0312      10.161      12.076      14.989      16.002    
  15.988      14.692      12.169      8.8468      5.4943      3.0023      2.0814      3.0023      5.4944      8.8469    
  12.169      14.692      15.988      16.002      14.989      13.428      11.796      10.566      10.109      10.566    
  11.796      13.428      14.658      14.989      14.214      12.162      9.0471      5.4943      2.3844     0.56876    
 0.56871      2.3843      5.4942      9.0471      12.162      14.214      14.989      14.658      13.626      12.356    
  11.224      10.558      10.558      11.224      12.357      13.626      13.626      13.428      12.076      9.5611    
  6.2876      3.0023     0.56876     -.32888     0.56874      3.0023      6.2877      9.5612      12.076      13.428    
  13.627      13.008      12.037      11.060      10.340      10.076      10.340      11.060      12.037      13.008    
  12.357      11.796      10.161      7.6106      4.6685      2.0814     0.56871     0.56874      2.0815      4.6687    
  7.6107      10.161      11.796      12.356      12.037      11.248      10.375      9.6484      9.2368      9.2367    
  9.6483      10.375      11.248      12.037      11.224      10.566      9.0312      6.8872      4.6687      3.0023    
  2.3843      3.0023      4.6687      6.8872      9.0312      10.566      11.224      11.059      10.375      9.5447    
  8.7958      8.2796      8.0957      8.2794      8.7957      9.5446      10.375      11.060      10.558      10.109    
  9.0314      7.6110      6.2880      5.4944      5.4942      6.2877      7.6107      9.0312      10.109      10.559    
  10.340      9.6482      8.7956      8.0025      7.3966      7.0696      7.0696      7.3966      8.0025      8.7957    
  9.6483      10.340      10.558      10.566      10.161      9.5617      9.0475      8.8469      9.0471      9.5612    
  10.161      10.566      10.559      10.076      9.2369      8.2794      7.3965      6.6902      6.2356      6.0789    
  6.2357      6.6903      7.3966      8.2794      9.2367      10.076      11.224      11.796      12.076      12.163    
  12.169      12.169      12.162      12.076      11.796      11.224      10.340      9.2369      8.0958      7.0696    
  6.2356      5.6501      5.3487      5.3488      5.6501      6.2357      7.0696      8.0957      9.2368      10.340    
  12.356      13.428      14.214      14.692      14.852      14.692      14.214      13.428      12.356      11.059    
  9.6482      8.2794      7.0696      6.0790      5.3489      4.9033      4.7537      4.9033      5.3488      6.0789    
  7.0696      8.2796      9.6484      11.060      13.626      14.989      15.988      16.517      16.517      15.988    
  14.989      13.627      12.037      10.375      8.7956      7.3965      6.2356      5.3489      4.7538      4.4561    
  4.4561      4.7537      5.3487      6.2356      7.3966      8.7958      10.375      12.037      14.658      16.002    
  16.881      17.187      16.881      16.002      14.658      13.008      11.248      9.5447      8.0025      6.6902    
  5.6501      4.9033      4.4561      4.3075      4.4561      4.9033      5.6501      6.6902      8.0025      9.5447    
  11.248      13.008      14.989      15.988      16.517      16.517      15.988      14.989      13.626      12.037    
  10.375      8.7958      7.3966      6.2356      5.3487      4.7537      4.4561      4.4561      4.7538      5.3489    
  6.2356      7.3965      8.7956      10.375      12.037      13.627      14.214      14.692      14.852      14.692    
  14.214      13.428      12.356      11.060      9.6484      8.2796      7.0696      6.0789      5.3488      4.9033    
  4.7537      4.9033      5.3489      6.0790      7.0696      8.2794      9.6482      11.059      12.356      13.428    
  12.162      12.169      12.169      12.163      12.076      11.796      11.224      10.340      9.2368      8.0957    
  7.0696      6.2357      5.6501      5.3488      5.3487      5.6501      6.2356      7.0696      8.0958      9.2369    
  10.340      11.224      11.796      12.076      9.0471      8.8469      9.0475      9.5617      10.161      10.566    
  10.558      10.076      9.2367      8.2794      7.3966      6.6903      6.2357      6.0789      6.2356      6.6902    
  7.3965      8.2794      9.2369      10.076      10.559      10.566      10.161      9.5612      5.4942      5.4944    
  6.2880      7.6110      9.0314      10.109      10.558      10.340      9.6483      8.7957      8.0025      7.3966    
  7.0696      7.0696      7.3966      8.0025      8.7956      9.6482      10.340      10.559      10.109      9.0312    
  7.6107      6.2877      2.3843      3.0023      4.6687      6.8872      9.0312      10.566      11.224      11.060    
  10.375      9.5446      8.7957      8.2794      8.0957      8.2796      8.7958      9.5447      10.375      11.059    
  11.224      10.566      9.0312      6.8872      4.6687      3.0023     0.56871      2.0814      4.6685      7.6106    
  10.161      11.796      12.357      12.037      11.248      10.375      9.6483      9.2367      9.2368      9.6484    
  10.375      11.248      12.037      12.356      11.796      10.161      7.6107      4.6687      2.0815     0.56874    
 0.56876      3.0023      6.2876      9.5611      12.076      13.428      13.626      13.008      12.037      11.060    
  10.340      10.076      10.340      11.060      12.037      13.008      13.627      13.428      12.076      9.5612    
  6.2877      3.0023     0.56874     -.32888      6.2947      9.2141      12.080      14.214      15.253      15.178    
  14.231      12.823      11.359      10.258      9.8497      10.258      11.358      12.823      14.231      15.178    
  15.253      14.214      12.080      9.2142      6.2949      4.1137      3.3058      4.1136      9.2141      12.066    
  14.500      15.988      16.289      15.450      13.814      11.841      10.073      9.0302      9.0302      10.073    
  11.841      13.814      15.450      16.289      15.988      14.500      12.066      9.2143      6.6842      5.1968    
  5.1967      6.6839      12.080      14.500      16.242      16.881      16.242      14.500      12.080      9.5863    
  7.7150      7.0207      7.7153      9.5867      12.080      14.500      16.242      16.881      16.242      14.500    
  12.080      9.5867      7.7153      7.0207      7.7150      9.5863      14.214      15.988      16.881      16.517    
  14.852      12.169      9.0471      6.2876      4.6685      4.6687      6.2880      9.0475      12.169      14.852    
  16.517      16.881      15.988      14.214      12.076      10.161      9.0314      9.0312      10.161      12.076    
  15.253      16.289      16.242      14.852      12.189      8.7028      5.1957      2.5930      1.6318      2.5929    
  5.1957      8.7029      12.189      14.852      16.242      16.289      15.253      13.637      11.945      10.669    
  10.194      10.669      11.945      13.637      15.178      15.450      14.500      12.169      8.7028      4.7882    
  1.3797     -.60473     -.60495      1.3792      4.7878      8.7027      12.169      14.501      15.450      15.178    
  14.113      12.769      11.563      10.852      10.852      11.563      12.769      14.113      14.231      13.814    