Si                                      
   3.90000000000000     
     0.700176    0.700176   -0.000000
     0.000000    0.700176    0.700176
     0.700176    0.000000    0.700176
   Si
     2
Direct
 -0.000000 -0.000000  0.000000
  0.250000  0.250000  0.250000
 
   24   24   24
 -.75787442097E+01 -.46081498269E+01 0.27077491711E+01 0.10664694713E+02 0.15844353991E+02
 0.17025301700E+02 0.15356470888E+02 0.12873274456E+02 0.10564356260E+02 0.87614213945E+01
 0.75446432251E+01 0.68648596654E+01 0.66489726801E+01 0.68650453081E+01 0.75446411937E+01
 0.87607545096E+01 0.10562989990E+02 0.12872002877E+02 0.15356475839E+02 0.17027003564E+02
 0.15846758128E+02 0.10666205170E+02 0.27077479996E+01 -.46087602864E+01 -.46081498269E+01
 0.81122856802E+00 0.87861740961E+01 0.15512913989E+02 0.18594984630E+02 0.18117193239E+02
 0.15900442143E+02 0.13475652296E+02 0.11380775576E+02 0.98254929711E+01 0.88348086404E+01
 0.83611542603E+01 0.83613134141E+01 0.88351858119E+01 0.98256987938E+01 0.11380218491E+02
 0.13474144590E+02 0.15898745374E+02 0.18116590141E+02 0.18596070955E+02 0.15514968361E+02
 0.87879151274E+01 0.81204727696E+00 -.46079732490E+01 0.27077491711E+01 0.87861740961E+01
 0.15274120866E+02 0.19311963096E+02 0.19993246392E+02 0.18414324447E+02 0.16195436526E+02
 0.14049988907E+02 0.12290161918E+02 0.11028413120E+02 0.10280000982E+02 0.10032907550E+02
 0.10280199825E+02 0.11028907652E+02 0.12290710083E+02 0.14049940585E+02 0.16194384830E+02
 0.18412737523E+02 0.19992200378E+02 0.19312183188E+02 0.15275386829E+02 0.87876434760E+01
 0.27086601296E+01 0.22084407464E+00 0.10664694713E+02 0.15512913989E+02 0.19311963096E+02
 0.20652994128E+02 0.19852342186E+02 0.18156592475E+02 0.16281973890E+02 0.14566516556E+02
 0.13176764509E+02 0.12197156688E+02 0.11688038122E+02 0.11687956762E+02 0.12197118440E+02
 0.13177081044E+02 0.14567087607E+02 0.16282249856E+02 0.18156128866E+02 0.19851332745E+02
 0.20652177122E+02 0.19311983429E+02 0.15513767893E+02 0.10665739664E+02 0.72674547172E+01
 0.72669938226E+01 0.15844353991E+02 0.18594984630E+02 0.19993246392E+02 0.19852342186E+02
 0.18874247945E+02 0.17564212918E+02 0.16195436526E+02 0.14918785648E+02 0.13845283043E+02
 0.13109567480E+02 0.12844450883E+02 0.13109310042E+02 0.13844975545E+02 0.14918633978E+02
 0.16195437836E+02 0.17564171134E+02 0.18874017102E+02 0.19852053218E+02 0.19993250678E+02
 0.18595516408E+02 0.15845227284E+02 0.13067248522E+02 0.11896111974E+02 0.13066575327E+02
 0.17025301700E+02 0.18117193239E+02 0.18414324447E+02 0.18156592475E+02 0.17564212918E+02
 0.16789250601E+02 0.15900442143E+02 0.14961886102E+02 0.14111736077E+02 0.13576298411E+02
 0.13576340300E+02 0.14111776073E+02 0.14961734858E+02 0.15899961074E+02 0.16788484265E+02
 0.17563408582E+02 0.18156090633E+02 0.18414380038E+02 0.18117824292E+02 0.17026250281E+02
 0.15462538253E+02 0.14303333222E+02 0.14303001136E+02 0.15461700925E+02 0.15356470888E+02
 0.15900442143E+02 0.16195436526E+02 0.16281973890E+02 0.16195436526E+02 0.15900442143E+02
 0.15356470888E+02 0.14603777228E+02 0.13874973808E+02 0.13566674010E+02 0.13875522742E+02
 0.14604584731E+02 0.15357017838E+02 0.15900232844E+02 0.16194378886E+02 0.16280543353E+02
 0.16194378886E+02 0.15900232844E+02 0.15357017838E+02 0.14604584731E+02 0.13875522742E+02
 0.13566674010E+02 0.13874973808E+02 0.14603777228E+02 0.12873274456E+02 0.13475652296E+02
 0.14049988907E+02 0.14566516556E+02 0.14918785648E+02 0.14961886102E+02 0.14603777228E+02
 0.13935482642E+02 0.13392388772E+02 0.13392606748E+02 0.13936232909E+02 0.14605066692E+02
 0.14963223278E+02 0.14919344932E+02 0.14565845119E+02 0.14048478768E+02 0.13474226735E+02
 0.12872625552E+02 0.12260951707E+02 0.11720500387E+02 0.11392852721E+02 0.11392635981E+02
 0.11720060033E+02 0.12260810858E+02 0.10564356260E+02 0.11380775576E+02 0.12290161918E+02
 0.13176764509E+02 0.13845283043E+02 0.14111736077E+02 0.13874973808E+02 0.13392388772E+02
 0.13150668194E+02 0.13392020853E+02 0.13874980449E+02 0.14112704148E+02 0.13846876263E+02
 0.13177948034E+02 0.12290158436E+02 0.11379736903E+02 0.10563129597E+02 0.98753853317E+01
 0.93309281010E+01 0.89679836829E+01 0.88386335224E+01 0.89677623036E+01 0.93309298447E+01
 0.98760501607E+01 0.87614213945E+01 0.98254929711E+01 0.11028413120E+02 0.12197156688E+02
 0.13109567480E+02 0.13576298411E+02 0.13566674010E+02 0.13392606748E+02 0.13392020853E+02
 0.13565395001E+02 0.13575364771E+02 0.13109719734E+02 0.12198247066E+02 0.11029583979E+02
 0.98259459404E+01 0.87610641541E+01 0.79096077413E+01 0.72771368228E+01 0.68529664865E+01
 0.66373972343E+01 0.66372975836E+01 0.68528862421E+01 0.72774290993E+01 0.79102175603E+01
 0.75446432251E+01 0.88348086404E+01 0.10280000982E+02 0.11688038122E+02 0.12844450883E+02
 0.13576340300E+02 0.13875522742E+02 0.13936232909E+02 0.13874980449E+02 0.13575364771E+02
 0.12843416510E+02 0.11687488736E+02 0.10280202616E+02 0.88354534717E+01 0.75451452712E+01
 0.65114193569E+01 0.57497122200E+01 0.52333172471E+01 0.49335132683E+01 0.48348929885E+01
 0.49334544562E+01 0.52333616926E+01 0.57498450760E+01 0.65113383529E+01 0.68648596654E+01
 0.83611542603E+01 0.10032907550E+02 0.11687956762E+02 0.13109310042E+02 0.14111776073E+02
 0.14604584731E+02 0.14605066692E+02 0.14112704148E+02 0.13109719734E+02 0.11687488736E+02
 0.10032092385E+02 0.83607104057E+01 0.68649493573E+01 0.56549549719E+01 0.47531893700E+01
 0.41286200249E+01 0.37379790272E+01 0.35498827186E+01 0.35499135652E+01 0.37380689758E+01
 0.41286948109E+01 0.47530955199E+01 0.56546954533E+01 0.66489726801E+01 0.83613134141E+01
 0.10280199825E+02 0.12197118440E+02 0.13844975545E+02 0.14961734858E+02 0.15357017838E+02
 0.14963223278E+02 0.13846876263E+02 0.12198247066E+02 0.10280202616E+02 0.83607104057E+01
 0.66484573981E+01 0.52569419964E+01 0.42083402472E+01 0.34670623023E+01 0.29799910678E+01
 0.27038633076E+01 0.26143328039E+01 0.27039955131E+01 0.29801451336E+01 0.34671198169E+01
 0.42083371283E+01 0.52571105195E+01 0.68650453081E+01 0.88351858119E+01 0.11028907652E+02
 0.13177081044E+02 0.14918633978E+02 0.15899961074E+02 0.15900232844E+02 0.14919344932E+02
 0.13177948034E+02 0.11029583979E+02 0.88354534717E+01 0.68649493573E+01 0.52569419964E+01
 0.40369628807E+01 0.31626251973E+01 0.25696540297E+01 0.22025888796E+01 0.20266863494E+01
 0.20267245081E+01 0.22026573343E+01 0.25696924223E+01 0.31626702974E+01 0.40371067188E+01
 0.52571639205E+01 0.75446411937E+01 0.98256987938E+01 0.12290710083E+02 0.14567087607E+02
 0.16195437836E+02 0.16788484265E+02 0.16194378886E+02 0.14565845119E+02 0.12290158436E+02
 0.98259459404E+01 0.75451452712E+01 0.56549549719E+01 0.42083402472E+01 0.31626251973E+01
 0.24407402759E+01 0.19715305132E+01 0.17065445867E+01 0.16206497753E+01 0.17064763428E+01
 0.19714180259E+01 0.24406696132E+01 0.31626551527E+01 0.42083410529E+01 0.56546884629E+01
 0.87607545096E+01 0.11380218491E+02 0.14049940585E+02 0.16282249856E+02 0.17564171134E+02
 0.17563408582E+02 0.16280543353E+02 0.14048478768E+02 0.11379736903E+02 0.87610641541E+01
 0.65114193569E+01 0.47531893700E+01 0.34670623023E+01 0.25696540297E+01 0.19715305132E+01
 0.16051521974E+01 0.14305572766E+01 0.14304994197E+01 0.16050154130E+01 0.19714162915E+01
 0.25696472383E+01 0.34670846864E+01 0.47530111245E+01 0.65109738619E+01 0.10562989990E+02
 0.13474144590E+02 0.16194384830E+02 0.18156128866E+02 0.18874017102E+02 0.18156090633E+02
 0.16194378886E+02 0.13474226735E+02 0.10563129597E+02 0.79096077413E+01 0.57497122200E+01
 0.41286200249E+01 0.29799910678E+01 0.22025888796E+01 0.17065445867E+01 0.14305572766E+01
 0.13418611705E+01 0.14305393070E+01 0.17065453452E+01 0.22026461174E+01 0.29800980649E+01
 0.41287129188E+01 0.57497152776E+01 0.79095050491E+01 0.12872002877E+02 0.15898745374E+02
 0.18412737523E+02 0.19851332745E+02 0.19852053218E+02 0.18414380038E+02 0.15900232844E+02
 0.12872625552E+02 0.98753853317E+01 0.72771368228E+01 0.52333172471E+01 0.37379790272E+01
 0.27038633076E+01 0.20266863494E+01 0.16206497753E+01 0.14304994197E+01 0.14305393070E+01
 0.16207537716E+01 0.20268019023E+01 0.27039398079E+01 0.37380666063E+01 0.52335564073E+01
 0.72775194710E+01 0.98755340961E+01 0.15356475839E+02 0.18116590141E+02 0.19992200378E+02
 0.20652177122E+02 0.19993250678E+02 0.18117824292E+02 0.15357017838E+02 0.12260951707E+02
 0.93309281010E+01 0.68529664865E+01 0.49335132683E+01 0.35498827186E+01 0.26143328039E+01
 0.20267245081E+01 0.17064763428E+01 0.16050154130E+01 0.17065453452E+01 0.20268019023E+01
 0.26143160222E+01 0.35497514102E+01 0.49334548732E+01 0.68532362277E+01 0.93314637910E+01
 0.12261222240E+02 0.17027003564E+02 0.18596070955E+02 0.19312183188E+02 0.19311983429E+02
 0.18595516408E+02 0.17026250281E+02 0.14604584731E+02 0.11720500387E+02 0.89679836829E+01
 0.66373972343E+01 0.48348929885E+01 0.35499135652E+01 0.27039955131E+01 0.22026573343E+01
 0.19714180259E+01 0.19714162915E+01 0.22026461174E+01 0.27039398079E+01 0.35497514102E+01
 0.48346154585E+01 0.66371352764E+01 0.89679649495E+01 0.11720872085E+02 0.14605273297E+02
 0.15846758128E+02 0.15514968361E+02 0.15275386829E+02 0.15513767893E+02 0.15845227284E+02
 0.15462538253E+02 0.13875522742E+02 0.11392852721E+02 0.88386335224E+01 0.66372975836E+01
 0.49334544562E+01 0.37380689758E+01 0.29801451336E+01 0.25696924223E+01 0.24406696132E+01
 0.25696472383E+01 0.29800980649E+01 0.37380666063E+01 0.49334548732E+01 0.66371352764E+01
 0.88381933920E+01 0.11392352511E+02 0.13875517516E+02 0.15463443633E+02 0.10666205170E+02
 0.87879151274E+01 0.87876434760E+01 0.10665739664E+02 0.13067248522E+02 0.14303333222E+02
 0.13566674010E+02 0.11392635981E+02 0.89677623036E+01 0.68528862421E+01 0.52333616926E+01
 0.41286948109E+01 0.34671198169E+01 0.31626702974E+01 0.31626551527E+01 0.34670846864E+01
 0.41287129188E+01 0.52335564073E+01 0.68532362277E+01 0.89679649495E+01 0.11392352511E+02
 0.13565978807E+02 0.14302769544E+02 0.13067281150E+02 0.27077479996E+01 0.81204727696E+00
 0.27086601296E+01 0.72674547172E+01 0.11896111974E+02 0.14303001136E+02 0.13874973808E+02
 0.11720060033E+02 0.93309298447E+01 0.72774290993E+01 0.57498450760E+01 0.47530955199E+01
 0.42083371283E+01 0.40371067188E+01 0.42083410529E+01 0.47530111245E+01 0.57497152776E+01
 0.72775194710E+01 0.93314637910E+01 0.11720872085E+02 0.13875517516E+02 0.14302769544E+02
 0.11895075883E+02 0.72661225410E+01 -.46087602864E+01 -.46079732490E+01 0.22084407464E+00
 0.72669938226E+01 0.13066575327E+02 0.15461700925E+02 0.14603777228E+02 0.12260810858E+02
 0.98760501607E+01 0.79102175603E+01 0.65113383529E+01 0.56546954533E+01 0.52571105195E+01
 0.52571639205E+01 0.56546884629E+01 0.65109738619E+01 0.79095050491E+01 0.98755340961E+01
 0.12261222240E+02 0.14605273297E+02 0.15463443633E+02 0.13067281150E+02 0.72661225410E+01
 0.21924560792E+00 -.46081498269E+01 0.81122856802E+00 0.87861740961E+01 0.15512913989E+02
 0.18594984630E+02 0.18117193239E+02 0.15900442143E+02 0.13475652296E+02 0.11380775576E+02
 0.98254929711E+01 0.88348086404E+01 0.83611542603E+01 0.83613134141E+01 0.88351858119E+01
 0.98256987938E+01 0.11380218491E+02 0.13474144590E+02 0.15898745374E+02 0.18116590141E+02
 0.18596070955E+02 0.15514968361E+02 0.87879151274E+01 0.81204727696E+00 -.46079732490E+01
 0.81122856802E+00 0.75449149701E+01 0.14822622223E+02 0.19510671983E+02 0.20551534253E+02
 0.19053245630E+02 0.16789250601E+02 0.14570299476E+02 0.12737054059E+02 0.11417386503E+02
 0.10633035952E+02 0.10373898645E+02 0.10633350586E+02 0.11418130187E+02 0.12737883207E+02
 0.14570306736E+02 0.16787815735E+02 0.19050921966E+02 0.20549793150E+02 0.19510657275E+02
 0.14824228008E+02 0.75470257960E+01 0.81262607508E+00 -.19305982194E+01 0.87861740961E+01
 0.14822622223E+02 0.19766515608E+02 0.21854518559E+02 0.21310853538E+02 0.19569256352E+02
 0.17564212918E+02 0.15692727927E+02 0.14158765867E+02 0.13070341181E+02 0.12502871374E+02
 0.12502832649E+02 0.13070577776E+02 0.14159792262E+02 0.15694275083E+02 0.17565113983E+02
 0.19568458527E+02 0.21308536559E+02 0.21852117381E+02 0.19765558589E+02 0.14823461668E+02
 0.87877428951E+01 0.46284768567E+01 0.46277175125E+01 0.15512913989E+02 0.19510671983E+02
 0.21854518559E+02 0.22131208852E+02 0.21169279611E+02 0.19729733622E+02 0.18156592475E+02
 0.16651148497E+02 0.15367469879E+02 0.14475146879E+02 0.14148364931E+02 0.14474738014E+02
 0.15367353192E+02 0.16651991389E+02 0.18158222171E+02 0.19731066052E+02 0.21169189830E+02
 0.22129608488E+02 0.21852548089E+02 0.19509691583E+02 0.15513239434E+02 0.11660184411E+02
 0.10063466724E+02 0.11659483774E+02 0.18594984630E+02 0.20551534253E+02 0.21310853538E+02
 0.21169279611E+02 0.20523373711E+02 0.19569256352E+02 0.18414324447E+02 0.17154623391E+02
 0.15952182713E+02 0.15178141240E+02 0.15177893458E+02 0.15951619704E+02 0.17154214856E+02
 0.18414542730E+02 0.19570126342E+02 0.20524295010E+02 0.21169493681E+02 0.21310200976E+02
 0.20550641897E+02 0.18594584598E+02 0.16056657394E+02 0.14249388508E+02 0.14249224376E+02
 0.16056504670E+02 0.18117193239E+02 0.19053245630E+02 0.19569256352E+02 0.19729733622E+02
 0.19569256352E+02 0.19053245630E+02 0.18117193239E+02 0.16775153770E+02 0.15497029566E+02
 0.14964012459E+02 0.15497131433E+02 0.16775165266E+02 0.18117014975E+02 0.19053020202E+02
 0.19569162563E+02 0.19729732020E+02 0.19569162563E+02 0.19053020202E+02 0.18117014975E+02
 0.16775165266E+02 0.15497131433E+02 0.14964012459E+02 0.15497029566E+02 0.16775153770E+02
 0.15900442143E+02 0.16789250601E+02 0.17564212918E+02 0.18156592475E+02 0.18414324447E+02
 0.18117193239E+02 0.17025301700E+02 0.15461700925E+02 0.14303001136E+02 0.14303333222E+02
 0.15462538253E+02 0.17026250281E+02 0.18117824292E+02 0.18414380038E+02 0.18156090633E+02
 0.17563408582E+02 0.16788484265E+02 0.15899961074E+02 0.14961734858E+02 0.14111776073E+02
 0.13576340300E+02 0.13576298411E+02 0.14111736077E+02 0.14961886102E+02 0.13475652296E+02
 0.14570299476E+02 0.15692727927E+02 0.16651148497E+02 0.17154623391E+02 0.16775153770E+02
 0.15461700925E+02 0.13960115242E+02 0.13300451261E+02 0.13960398735E+02 0.15462509352E+02
 0.16776530930E+02 0.17156100449E+02 0.16651989043E+02 0.15692517868E+02 0.14569277873E+02
 0.13474475555E+02 0.12496869538E+02 0.11694844585E+02 0.11151308407E+02 0.10956680900E+02
 0.11151325593E+02 0.11695128486E+02 0.12497655204E+02 0.11380775576E+02 0.12737054059E+02
 0.14158765867E+02 0.15367469879E+02 0.15952182713E+02 0.15497029566E+02 0.14303001136E+02
 0.13300451261E+02 0.13300019070E+02 0.14302184762E+02 0.15496811444E+02 0.15953113220E+02
 0.15369142069E+02 0.14160167387E+02 0.12737424353E+02 0.11380163660E+02 0.10239762509E+02
 0.93643280283E+01 0.87661044780E+01 0.84596748077E+01 0.84596813397E+01 0.87662911862E+01
 0.93649477108E+01 0.10240690448E+02 0.98254929711E+01 0.11417386503E+02 0.13070341181E+02
 0.14475146879E+02 0.15178141240E+02 0.14964012459E+02 0.14303333222E+02 0.13960398735E+02
 0.14302184762E+02 0.14962377017E+02 0.15176986804E+02 0.14475146719E+02 0.13071391999E+02
 0.11418695262E+02 0.98262436507E+01 0.84913811312E+01 0.74824853906E+01 0.67911442233E+01
 0.63893440639E+01 0.62574783702E+01 0.63893850936E+01 0.67913767460E+01 0.74828325344E+01
 0.84913859401E+01 0.88348086404E+01 0.10633035952E+02 0.12502871374E+02 0.14148364931E+02
 0.15177893458E+02 0.15497131433E+02 0.15462538253E+02 0.15462509352E+02 0.15496811444E+02
 0.15176986804E+02 0.14147140947E+02 0.12502082399E+02 0.10633157084E+02 0.88355528561E+01
 0.73157866807E+01 0.61574497533E+01 0.53507974802E+01 0.48492680430E+01 0.46099947398E+01
 0.46100180518E+01 0.48493467435E+01 0.53508397616E+01 0.61571918692E+01 0.73150993760E+01
 0.83611542603E+01 0.10373898645E+02 0.12502832649E+02 0.14474738014E+02 0.15951619704E+02
 0.16775165266E+02 0.17026250281E+02 0.16776530930E+02 0.15953113220E+02 0.14475146719E+02
 0.12502082399E+02 0.10372887248E+02 0.83606994124E+01 0.66589972455E+01 0.53491553425E+01
 0.44193426359E+01 0.38136351909E+01 0.34749656472E+01 0.33662357455E+01 0.34750777506E+01
 0.38137337654E+01 0.44192462653E+01 0.53488544807E+01 0.66588432087E+01 0.83613134141E+01
 0.10633350586E+02 0.13070577776E+02 0.15367353192E+02 0.17154214856E+02 0.18117014975E+02
 0.18117824292E+02 0.17156100449E+02 0.15369142069E+02 0.13071391999E+02 0.10633157084E+02
 0.83606994124E+01 0.64500081428E+01 0.49738674146E+01 0.39112788510E+01 0.31961129691E+01
 0.27595926401E+01 0.25530765462E+01 0.25531448333E+01 0.27597275159E+01 0.31961916627E+01
 0.39113016963E+01 0.49740203804E+01 0.64504692460E+01 0.88351858119E+01 0.11418130187E+02
 0.14159792262E+02 0.16651991389E+02 0.18414542730E+02 0.19053020202E+02 0.18414380038E+02
 0.16651989043E+02 0.14160167387E+02 0.11418695262E+02 0.88355528561E+01 0.66589972455E+01
 0.49738674146E+01 0.37514340098E+01 0.29117631764E+01 0.23717684044E+01 0.20701938289E+01
 0.19731388649E+01 0.20702036962E+01 0.23717656041E+01 0.29117915169E+01 0.37515729040E+01
 0.49740566615E+01 0.66589942652E+01 0.98256987938E+01 0.12737883207E+02 0.15694275083E+02
 0.18158222171E+02 0.19570126342E+02 0.19569162563E+02 0.18156090633E+02 0.15692517868E+02
 0.12737424353E+02 0.98262436507E+01 0.73157866807E+01 0.53491553425E+01 0.39112788510E+01
 0.29117631764E+01 0.22495737628E+01 0.18464017515E+01 0.16550782033E+01 0.16550219210E+01
 0.18462637144E+01 0.22494545834E+01 0.29117588778E+01 0.39112909022E+01 0.53488804068E+01
 0.73151185639E+01 0.11380218491E+02 0.14570306736E+02 0.17565113983E+02 0.19731066052E+02
 0.20524295010E+02 0.19729732020E+02 0.17563408582E+02 0.14569277873E+02 0.11380163660E+02
 0.84913811312E+01 0.61574497533E+01 0.44193426359E+01 0.31961129691E+01 0.23717684044E+01
 0.18464017515E+01 0.15537997275E+01 0.14596189561E+01 0.15537054635E+01 0.18462875260E+01
 0.23717281322E+01 0.31961356308E+01 0.44192484188E+01 0.61570780332E+01 0.84909277532E+01
 0.13474144590E+02 0.16787815735E+02 0.19568458527E+02 0.21169189830E+02 0.21169493681E+02
 0.19569162563E+02 0.16788484265E+02 0.13474475555E+02 0.10239762509E+02 0.74824853906E+01
 0.53507974802E+01 0.38136351909E+01 0.27595926401E+01 0.20701938289E+01 0.16550782033E+01
 0.14596189561E+01 0.14596275521E+01 0.16551110423E+01 0.20702556631E+01 0.27596730808E+01
 0.38137336973E+01 0.53509324547E+01 0.74826268761E+01 0.10239762056E+02 0.15898745374E+02
 0.19050921966E+02 0.21308536559E+02 0.22129608488E+02 0.21310200976E+02 0.19053020202E+02
 0.15899961074E+02 0.12496869538E+02 0.93643280283E+01 0.67911442233E+01 0.48492680430E+01
 0.34749656472E+01 0.25530765462E+01 0.19731388649E+01 0.16550219210E+01 0.15537054635E+01
 0.16551110423E+01 0.19732636313E+01 0.25531434458E+01 0.34749668119E+01 0.48493983854E+01
 0.67916143164E+01 0.93649293092E+01 0.12496872177E+02 0.18116590141E+02 0.20549793150E+02
 0.21852117381E+02 0.21852548089E+02 0.20550641897E+02 0.18117014975E+02 0.14961734858E+02
 0.11694844585E+02 0.87661044780E+01 0.63893440639E+01 0.46099947398E+01 0.33662357455E+01
 0.25531448333E+01 0.20702036962E+01 0.18462637144E+01 0.18462875260E+01 0.20702556631E+01
 0.25531434458E+01 0.33660795449E+01 0.46097468196E+01 0.63893123204E+01 0.87665500020E+01
 0.11695559525E+02 0.14962086998E+02 0.18596070955E+02 0.19510657275E+02 0.19765558589E+02
 0.19509691583E+02 0.18594584598E+02 0.16775165266E+02 0.14111776073E+02 0.11151308407E+02
 0.84596748077E+01 0.62574783702E+01 0.46100180518E+01 0.34750777506E+01 0.27597275159E+01
 0.23717656041E+01 0.22494545834E+01 0.23717281322E+01 0.27596730808E+01 0.34749668119E+01
 0.46097468196E+01 0.62570270947E+01 0.84592597267E+01 0.11151322798E+02 0.14112508136E+02
 0.16776523157E+02 0.15514968361E+02 0.14824228008E+02 0.14823461668E+02 0.15513239434E+02
 0.16056657394E+02 0.15497131433E+02 0.13576340300E+02 0.10956680900E+02 0.84596813397E+01
 0.63893850936E+01 0.48493467435E+01 0.38137337654E+01 0.31961916627E+01 0.29117915169E+01
 0.29117588778E+01 0.31961356308E+01 0.38137336973E+01 0.48493983854E+01 0.63893123204E+01
 0.84592597267E+01 0.10955971205E+02 0.13575878365E+02 0.15497592891E+02 0.16058154203E+02
 0.87879151274E+01 0.75470257960E+01 0.87877428951E+01 0.11660184411E+02 0.14249388508E+02
 0.14964012459E+02 0.13576298411E+02 0.11151325593E+02 0.87662911862E+01 0.67913767460E+01
 0.53508397616E+01 0.44192462653E+01 0.39113016963E+01 0.37515729040E+01 0.39112909022E+01
 0.44192484188E+01 0.53509324547E+01 0.67916143164E+01 0.87665500020E+01 0.11151322798E+02
 0.13575878365E+02 0.14963389679E+02 0.14248985366E+02 0.11660188103E+02 0.81204727696E+00
 0.81262607508E+00 0.46284768567E+01 0.10063466724E+02 0.14249224376E+02 0.15497029566E+02
 0.14111736077E+02 0.11695128486E+02 0.93649477108E+01 0.74828325344E+01 0.61571918692E+01
 0.53488544807E+01 0.49740203804E+01 0.49740566615E+01 0.53488804068E+01 0.61570780332E+01
 0.74826268761E+01 0.93649293092E+01 0.11695559525E+02 0.14112508136E+02 0.15497592891E+02
 0.14248985366E+02 0.10062363437E+02 0.46271723118E+01 -.46079732490E+01 -.19305982194E+01
 0.46277175125E+01 0.11659483774E+02 0.16056504670E+02 0.16775153770E+02 0.14961886102E+02
 0.12497655204E+02 0.10240690448E+02 0.84913859401E+01 0.73150993760E+01 0.66588432087E+01
 0.64504692460E+01 0.66589942652E+01 0.73151185639E+01 0.84909277532E+01 0.10239762056E+02
 0.12496872177E+02 0.14962086998E+02 0.16776523157E+02 0.16058154203E+02 0.11660188103E+02
 0.46271723118E+01 -.19314370619E+01 0.27077491711E+01 0.87861740961E+01 0.15274120866E+02
 0.19311963096E+02 0.19993246392E+02 0.18414324447E+02 0.16195436526E+02 0.14049988907E+02
 0.12290161918E+02 0.11028413120E+02 0.10280000982E+02 0.10032907550E+02 0.10280199825E+02
 0.11028907652E+02 0.12290710083E+02 0.14049940585E+02 0.16194384830E+02 0.18412737523E+02
 0.19992200378E+02 0.19312183188E+02 0.15275386829E+02 0.87876434760E+01 0.27086601296E+01
 0.22084407464E+00 0.87861740961E+01 0.14822622223E+02 0.19766515608E+02 0.21854518559E+02
 0.21310853538E+02 0.19569256352E+02 0.17564212918E+02 0.15692727927E+02 0.14158765867E+02
 0.13070341181E+02 0.12502871374E+02 0.12502832649E+02 0.13070577776E+02 0.14159792262E+02
 0.15694275083E+02 0.17565113983E+02 0.19568458527E+02 0.21308536559E+02 0.21852117381E+02
 0.19765558589E+02 0.14823461668E+02 0.87877428951E+01 0.46284768567E+01 0.46277175125E+01
 0.15274120866E+02 0.19766515608E+02 0.22495395605E+02 0.22955803598E+02 0.22009240343E+02
 0.20523373711E+02 0.18874247945E+02 0.17282650267E+02 0.15918760758E+02 0.14962542314E+02
 0.14610503237E+02 0.14962085975E+02 0.15918763246E+02 0.17283976527E+02 0.18876643448E+02
 0.20525355038E+02 0.22009239702E+02 0.22953620547E+02 0.22492505891E+02 0.19764779681E+02
 0.15274104706E+02 0.10999796963E+02 0.92371715432E+01 0.10999151111E+02 0.19311963096E+02
 0.21854518559E+02 0.22955803598E+02 0.22903383762E+02 0.22230168056E+02 0.21169279611E+02
 0.19852342186E+02 0.18374802784E+02 0.16931037085E+02 0.15996336963E+02 0.15995862961E+02
 0.16930019021E+02 0.18374252749E+02 0.19853216576E+02 0.21171569028E+02 0.22232582115E+02
 0.22904271968E+02 0.22954633662E+02 0.21852345741E+02 0.19310303852E+02 0.16134247615E+02
 0.13908963079E+02 0.13909024935E+02 0.16134849033E+02 0.19993246392E+02 0.21310853538E+02
 0.22009240343E+02 0.22230168056E+02 0.22009240343E+02 0.21310853538E+02 0.19993246392E+02
 0.18109032696E+02 0.16345169378E+02 0.15616506422E+02 0.16344585241E+02 0.18107945957E+02
 0.19992203455E+02 0.21310765699E+02 0.22010526919E+02 0.22232115102E+02 0.22010526919E+02
 0.21310765699E+02 0.19992203455E+02 0.18107945957E+02 0.16344585241E+02 0.15616506422E+02
 0.16345169378E+02 0.18109032696E+02 0.18414324447E+02 0.19569256352E+02 0.20523373711E+02
 0.21169279611E+02 0.21310853538E+02 0.20551534253E+02 0.18594984630E+02 0.16056504670E+02
 0.14249224376E+02 0.14249388508E+02 0.16056657394E+02 0.18594584598E+02 0.20550641897E+02
 0.21310200976E+02 0.21169493681E+02 0.20524295010E+02 0.19570126342E+02 0.18414542730E+02
 0.17154214856E+02 0.15951619704E+02 0.15177893458E+02 0.15178141240E+02 0.15952182713E+02
 0.17154623391E+02 0.16195436526E+02 0.17564212918E+02 0.18874247945E+02 0.19852342186E+02
 0.19993246392E+02 0.18594984630E+02 0.15844353991E+02 0.13066575327E+02 0.11896111974E+02
 0.13067248522E+02 0.15845227284E+02 0.18595516408E+02 0.19993250678E+02 0.19852053218E+02
 0.18874017102E+02 0.17564171134E+02 0.16195437836E+02 0.14918633978E+02 0.13844975545E+02
 0.13109310042E+02 0.12844450883E+02 0.13109567480E+02 0.13845283043E+02 0.14918785648E+02
 0.14049988907E+02 0.15692727927E+02 0.17282650267E+02 0.18374802784E+02 0.18109032696E+02
 0.16056504670E+02 0.13066575327E+02 0.10872337691E+02 0.10872326239E+02 0.13066701012E+02
 0.16057038057E+02 0.18109977046E+02 0.18375793365E+02 0.17283240683E+02 0.15692740478E+02
 0.14049584892E+02 0.12600637265E+02 0.11453130711E+02 0.10654745317E+02 0.10242461442E+02
 0.10242547625E+02 0.10655007962E+02 0.11453563517E+02 0.12601162243E+02 0.12290161918E+02
 0.14158765867E+02 0.15918760758E+02 0.16931037085E+02 0.16345169378E+02 0.14249224376E+02
 0.11896111974E+02 0.10872326239E+02 0.11895059270E+02 0.14247918766E+02 0.16344583550E+02
 0.16931583164E+02 0.15920041538E+02 0.14159968539E+02 0.12290706167E+02 0.10636851390E+02
 0.93463518670E+01 0.84467692649E+01 0.79204036210E+01 0.77474573688E+01 0.79205214995E+01
 0.84470674686E+01 0.93467393991E+01 0.10636969260E+02 0.11028413120E+02 0.13070341181E+02
 0.14962542314E+02 0.15996336963E+02 0.15616506422E+02 0.14249388508E+02 0.13067248522E+02
 0.13066701012E+02 0.14247918766E+02 0.15614661230E+02 0.15994932941E+02 0.14962226555E+02
 0.13071102758E+02 0.11029590918E+02 0.91942607135E+01 0.77464643991E+01 0.67220663098E+01
 0.60832579728E+01 0.57794945584E+01 0.57795244710E+01 0.60833507194E+01 0.67221182852E+01
 0.77461765816E+01 0.91934022300E+01 0.10280000982E+02 0.12502871374E+02 0.14610503237E+02
 0.15995862961E+02 0.16344585241E+02 0.16056657394E+02 0.15845227284E+02 0.16057038057E+02
 0.16344583550E+02 0.15994932941E+02 0.14609052853E+02 0.12501873456E+02 0.10280000087E+02
 0.82790460769E+01 0.66809376685E+01 0.55275778062E+01 0.47754523641E+01 0.43581187111E+01
 0.42250950153E+01 0.43581881049E+01 0.47754536838E+01 0.55272772351E+01 0.66802569772E+01
 0.82783633471E+01 0.10032907550E+02 0.12502832649E+02 0.14962085975E+02 0.16930019021E+02
 0.18107945957E+02 0.18594584598E+02 0.18595516408E+02 0.18109977046E+02 0.16931583164E+02
 0.14962226555E+02 0.12501873456E+02 0.10031869699E+02 0.78412051069E+01 0.60876667488E+01
 0.48034175580E+01 0.39379993529E+01 0.34147272232E+01 0.31700112862E+01 0.31700799580E+01
 0.34148399170E+01 0.39379686988E+01 0.48031996902E+01 0.60875481727E+01 0.78416326637E+01
 0.10280199825E+02 0.13070577776E+02 0.15918763246E+02 0.18374252749E+02 0.19992203455E+02
 0.20550641897E+02 0.19993250678E+02 0.18375793365E+02 0.15920041538E+02 0.13071102758E+02
 0.10280000087E+02 0.78412051069E+01 0.58989884699E+01 0.44674122644E+01 0.34817210576E+01
 0.28531161791E+01 0.25064563117E+01 0.23959107122E+01 0.25065377629E+01 0.28531907226E+01
 0.34817718675E+01 0.44675741957E+01 0.58993886363E+01 0.78417140963E+01 0.11028907652E+02
 0.14159792262E+02 0.17283976527E+02 0.19853216576E+02 0.21310765699E+02 0.21310200976E+02
 0.19852053218E+02 0.17283240683E+02 0.14159968539E+02 0.11029590918E+02 0.82790460769E+01
 0.60876667488E+01 0.44674122644E+01 0.33379238823E+01 0.25936198290E+01 0.21449082923E+01
 0.19338862205E+01 0.19338669427E+01 0.21448540487E+01 0.25935865656E+01 0.33380109908E+01
 0.44675763859E+01 0.60876194068E+01 0.82785502417E+01 0.12290710083E+02 0.15694275083E+02
 0.18876643448E+02 0.21171569028E+02 0.22010526919E+02 0.21169493681E+02 0.18874017102E+02
 0.15692740478E+02 0.12290706167E+02 0.91942607135E+01 0.66809376685E+01 0.48034175580E+01
 0.34817210576E+01 0.25936198290E+01 0.20304108779E+01 0.17182416712E+01 0.16180457794E+01
 0.17181246107E+01 0.20302555091E+01 0.25935444174E+01 0.34817180587E+01 0.48032298277E+01
 0.66803148187E+01 0.91934905918E+01 0.14049940585E+02 0.17565113983E+02 0.20525355038E+02
 0.22232582115E+02 0.22232115102E+02 0.20524295010E+02 0.17564171134E+02 0.14049584892E+02
 0.10636851390E+02 0.77464643991E+01 0.55275778062E+01 0.39379993529E+01 0.28531161791E+01
 0.21449082923E+01 0.17182416712E+01 0.15170357479E+01 0.15170040904E+01 0.17181722176E+01
 0.21448593143E+01 0.28531163682E+01 0.39379796772E+01 0.55274134300E+01 0.77461623691E+01
 0.10636688548E+02 0.16194384830E+02 0.19568458527E+02 0.22009239702E+02 0.22904271968E+02
 0.22010526919E+02 0.19570126342E+02 0.16195437836E+02 0.12600637265E+02 0.93463518670E+01
 0.67220663098E+01 0.47754523641E+01 0.34147272232E+01 0.25064563117E+01 0.19338862205E+01
 0.16180457794E+01 0.15170040904E+01 0.16181077058E+01 0.19339824725E+01 0.25065368965E+01
 0.34147942140E+01 0.47756242791E+01 0.67224443072E+01 0.93467393343E+01 0.12600504885E+02
 0.18412737523E+02 0.21308536559E+02 0.22953620547E+02 0.22954633662E+02 0.21310765699E+02
 0.18414542730E+02 0.14918633978E+02 0.11453130711E+02 0.84467692649E+01 0.60832579728E+01
 0.43581187111E+01 0.31700112862E+01 0.23959107122E+01 0.19338669427E+01 0.17181246107E+01
 0.17181722176E+01 0.19339824725E+01 0.23959993156E+01 0.31699826750E+01 0.43580877914E+01
 0.60835577395E+01 0.84475198903E+01 0.11453778283E+02 0.14918223137E+02 0.19992200378E+02
 0.21852117381E+02 0.22492505891E+02 0.21852345741E+02 0.19992203455E+02 0.17154214856E+02
 0.13844975545E+02 0.10654745317E+02 0.79204036210E+01 0.57794945584E+01 0.42250950153E+01
 0.31700799580E+01 0.25065377629E+01 0.21448540487E+01 0.20302555091E+01 0.21448593143E+01
 0.25065368965E+01 0.31699826750E+01 0.42248159013E+01 0.57791726074E+01 0.79204048998E+01
 0.10655289232E+02 0.13845793712E+02 0.17154749812E+02 0.19312183188E+02 0.19765558589E+02
 0.19764779681E+02 0.19310303852E+02 0.18107945957E+02 0.15951619704E+02 0.13109310042E+02
 0.10242461442E+02 0.77474573688E+01 0.57795244710E+01 0.43581881049E+01 0.34148399170E+01
 0.28531907226E+01 0.25935865656E+01 0.25935444174E+01 0.28531163682E+01 0.34147942140E+01
 0.43580877914E+01 0.57791726074E+01 0.77468032547E+01 0.10241837516E+02 0.13109330132E+02