   2   2   1   0
  0.7414875E+01  0.2757716E-09  0.2757716E-09  0.2757716E-09  0.5000000E-15
  1.000000000000000E-004
  CAR 
 Si                                      
     17.43102202     -8.17822538  301      5.73130104      1.00000000
     -8.178  0.0000E+00  0.0000E+00
     -8.093  0.0000E+00  0.0000E+00
     -8.007  0.0000E+00  0.0000E+00
     -7.922  0.0000E+00  0.0000E+00
     -7.837 -0.2984E-32 -0.2548E-33
     -7.751 -0.2805E-29 -0.2397E-30
     -7.666 -0.1824E-26 -0.1560E-27
     -7.581 -0.8217E-24 -0.7030E-25
     -7.495 -0.2563E-21 -0.2195E-22
     -7.410 -0.5534E-19 -0.4746E-20
     -7.325 -0.8011E-17 -0.6886E-18
     -7.239 -0.8256E-15 -0.7116E-16
     -7.154 -0.5868E-13 -0.5081E-14
     -7.068 -0.2880E-11 -0.2510E-12
     -6.983 -0.9754E-10 -0.8577E-11
     -6.898 -0.2276E-08 -0.2029E-09
     -6.812 -0.3654E-07 -0.3322E-08
     -6.727 -0.4021E-06 -0.3764E-07
     -6.642 -0.3010E-05 -0.2946E-06
     -6.556 -0.1506E-04 -0.1580E-05
     -6.471 -0.4813E-04 -0.5689E-05
     -6.386 -0.8346E-04 -0.1281E-04
     -6.300  0.2006E-05 -0.1264E-04
     -6.215  0.4168E-03  0.2294E-04
     -6.129  0.1231E-02  0.1280E-03
     -6.044  0.2239E-02  0.3191E-03
     -5.959  0.3176E-02  0.5902E-03
     -5.873  0.3884E-02  0.9217E-03
     -5.788  0.4366E-02  0.1294E-02
     -5.703  0.4883E-02  0.1711E-02
     -5.617  0.5509E-02  0.2182E-02
     -5.532  0.5877E-02  0.2683E-02
     -5.447  0.6023E-02  0.3197E-02
     -5.361  0.6454E-02  0.3748E-02
     -5.276  0.7184E-02  0.4362E-02
     -5.190  0.7773E-02  0.5025E-02
     -5.105  0.7863E-02  0.5696E-02
     -5.020  0.7628E-02  0.6347E-02
     -4.934  0.7984E-02  0.7029E-02
     -4.849  0.9261E-02  0.7820E-02
     -4.764  0.1025E-01  0.8694E-02
     -4.678  0.1001E-01  0.9549E-02
     -4.593  0.9377E-02  0.1035E-01
     -4.508  0.9689E-02  0.1118E-01
     -4.422  0.1094E-01  0.1211E-01
     -4.337  0.1199E-01  0.1313E-01
     -4.251  0.1265E-01  0.1421E-01
     -4.166  0.1341E-01  0.1536E-01
     -4.081  0.1388E-01  0.1654E-01
     -3.995  0.1388E-01  0.1773E-01
     -3.910  0.1468E-01  0.1898E-01
     -3.825  0.1701E-01  0.2043E-01
     -3.739  0.1893E-01  0.2205E-01
     -3.654  0.1825E-01  0.2361E-01
     -3.569  0.1656E-01  0.2502E-01
     -3.483  0.1604E-01  0.2639E-01
     -3.398  0.1502E-01  0.2767E-01
     -3.312  0.1234E-01  0.2873E-01
     -3.227  0.1098E-01  0.2966E-01
     -3.142  0.1299E-01  0.3077E-01
     -3.056  0.1587E-01  0.3213E-01
     -2.971  0.1596E-01  0.3349E-01
     -2.886  0.1277E-01  0.3458E-01
     -2.800  0.8676E-02  0.3532E-01
     -2.715  0.5993E-02  0.3583E-01
     -2.630  0.5875E-02  0.3633E-01
     -2.544  0.8193E-02  0.3703E-01
     -2.459  0.1089E-01  0.3796E-01
     -2.373  0.1116E-01  0.3891E-01
     -2.288  0.8280E-02  0.3962E-01
     -2.203  0.4117E-02  0.3997E-01
     -2.117  0.9145E-03  0.4005E-01
     -2.032 -0.6056E-03  0.4000E-01
     -1.947 -0.8526E-03  0.3993E-01
     -1.861  0.5522E-03  0.3997E-01
     -1.776  0.4633E-02  0.4037E-01
     -1.691  0.9792E-02  0.4120E-01
     -1.605  0.1174E-01  0.4221E-01
     -1.520  0.9138E-02  0.4299E-01
     -1.434  0.5426E-02  0.4345E-01
     -1.349  0.4489E-02  0.4383E-01
     -1.264  0.8476E-02  0.4456E-01
     -1.178  0.1754E-01  0.4605E-01
     -1.093  0.2790E-01  0.4844E-01
     -1.008  0.3283E-01  0.5124E-01
     -0.922  0.2886E-01  0.5370E-01
     -0.837  0.2022E-01  0.5543E-01
     -0.752  0.1459E-01  0.5667E-01
     -0.666  0.1384E-01  0.5785E-01
     -0.581  0.1311E-01  0.5897E-01
     -0.495  0.1037E-01  0.5986E-01
     -0.410  0.9654E-02  0.6068E-01
     -0.325  0.1290E-01  0.6178E-01
     -0.239  0.1522E-01  0.6308E-01
     -0.154  0.1226E-01  0.6413E-01
     -0.069  0.7313E-02  0.6475E-01
      0.017  0.6170E-02  0.6528E-01
      0.102  0.8892E-02  0.6604E-01
      0.187  0.1051E-01  0.6694E-01
      0.273  0.8295E-02  0.6764E-01
      0.358  0.4826E-02  0.6806E-01
      0.444  0.3760E-02  0.6838E-01
      0.529  0.6186E-02  0.6891E-01
      0.614  0.9788E-02  0.6974E-01
      0.700  0.1028E-01  0.7062E-01
      0.785  0.6591E-02  0.7118E-01
      0.870  0.2655E-02  0.7141E-01
      0.956  0.2004E-02  0.7158E-01
      1.041  0.4123E-02  0.7193E-01
      1.126  0.6243E-02  0.7246E-01
      1.212  0.6603E-02  0.7303E-01
      1.297  0.6298E-02  0.7357E-01
      1.383  0.7646E-02  0.7422E-01
      1.468  0.1121E-01  0.7518E-01
      1.553  0.1661E-01  0.7659E-01
      1.639  0.2323E-01  0.7858E-01
      1.724  0.2774E-01  0.8094E-01
      1.809  0.2630E-01  0.8319E-01
      1.895  0.2053E-01  0.8494E-01
      1.980  0.1636E-01  0.8634E-01
      2.065  0.1752E-01  0.8783E-01
      2.151  0.2206E-01  0.8972E-01
      2.236  0.2460E-01  0.9182E-01
      2.322  0.2303E-01  0.9378E-01
      2.407  0.2092E-01  0.9557E-01
      2.492  0.2109E-01  0.9737E-01
      2.578  0.2181E-01  0.9923E-01
      2.663  0.2215E-01  0.1011E+00
      2.748  0.2486E-01  0.1032E+00
      2.834  0.3029E-01  0.1058E+00
      2.919  0.3337E-01  0.1087E+00
      3.004  0.3069E-01  0.1113E+00
      3.090  0.2630E-01  0.1135E+00
      3.175  0.2658E-01  0.1158E+00
      3.261  0.3090E-01  0.1185E+00
      3.346  0.3227E-01  0.1212E+00
      3.431  0.2854E-01  0.1236E+00
      3.517  0.2506E-01  0.1258E+00
      3.602  0.2553E-01  0.1280E+00
      3.687  0.2808E-01  0.1304E+00
      3.773  0.2884E-01  0.1328E+00
      3.858  0.2621E-01  0.1351E+00
      3.943  0.2240E-01  0.1370E+00
      4.029  0.2133E-01  0.1388E+00
      4.114  0.2474E-01  0.1409E+00
      4.200  0.2875E-01  0.1434E+00
      4.285  0.2736E-01  0.1457E+00
      4.370  0.2146E-01  0.1475E+00
      4.456  0.1754E-01  0.1490E+00
      4.541  0.1808E-01  0.1506E+00
      4.626  0.1902E-01  0.1522E+00
      4.712  0.1657E-01  0.1536E+00
      4.797  0.1235E-01  0.1547E+00
      4.882  0.9971E-02  0.1555E+00
      4.968  0.9606E-02  0.1563E+00
      5.053  0.8934E-02  0.1571E+00
      5.139  0.7238E-02  0.1577E+00
      5.224  0.5980E-02  0.1582E+00
      5.309  0.5824E-02  0.1587E+00
      5.395  0.5498E-02  0.1592E+00
      5.480  0.4240E-02  0.1595E+00
      5.565  0.2801E-02  0.1598E+00
      5.651  0.1702E-02  0.1599E+00
      5.736  0.8083E-03  0.1600E+00
      5.821  0.1705E-03  0.1600E+00
      5.907 -0.8079E-04  0.1600E+00
      5.992 -0.9201E-04  0.1600E+00
      6.078 -0.8983E-04  0.1600E+00
      6.163 -0.1525E-03  0.1600E+00
      6.248 -0.1010E-03  0.1600E+00
      6.334  0.4966E-03  0.1600E+00
      6.419  0.1737E-02  0.1602E+00
      6.504  0.2878E-02  0.1604E+00
      6.590  0.3556E-02  0.1607E+00
      6.675  0.4846E-02  0.1611E+00
      6.761  0.7287E-02  0.1617E+00
      6.846  0.9417E-02  0.1626E+00
      6.931  0.1022E-01  0.1634E+00
      7.017  0.1042E-01  0.1643E+00
      7.102  0.1026E-01  0.1652E+00
      7.187  0.9747E-02  0.1660E+00
      7.273  0.1053E-01  0.1669E+00
      7.358  0.1426E-01  0.1681E+00
      7.443  0.1961E-01  0.1698E+00
      7.529  0.2242E-01  0.1717E+00
      7.614  0.2056E-01  0.1735E+00
      7.700  0.1839E-01  0.1751E+00
      7.785  0.2141E-01  0.1769E+00
      7.870  0.2807E-01  0.1793E+00
      7.956  0.3232E-01  0.1820E+00
      8.041  0.3223E-01  0.1848E+00
      8.126  0.3076E-01  0.1874E+00
      8.212  0.3023E-01  0.1900E+00
      8.297  0.3026E-01  0.1926E+00
      8.382  0.2923E-01  0.1951E+00
      8.468  0.2612E-01  0.1973E+00
      8.553  0.2232E-01  0.1992E+00
      8.639  0.2021E-01  0.2009E+00
      8.724  0.1980E-01  0.2026E+00
      8.809  0.2014E-01  0.2043E+00
      8.895  0.2281E-01  0.2063E+00
      8.980  0.2936E-01  0.2088E+00
      9.065  0.3735E-01  0.2120E+00
      9.151  0.4247E-01  0.2156E+00
      9.236  0.4288E-01  0.2193E+00
      9.321  0.3962E-01  0.2226E+00
      9.407  0.3478E-01  0.2256E+00
      9.492  0.3074E-01  0.2282E+00
      9.578  0.2919E-01  0.2307E+00
      9.663  0.2890E-01  0.2332E+00
      9.748  0.2695E-01  0.2355E+00
      9.834  0.2376E-01  0.2375E+00
      9.919  0.2319E-01  0.2395E+00
     10.004  0.2566E-01  0.2417E+00
     10.090  0.2726E-01  0.2440E+00
     10.175  0.2642E-01  0.2463E+00
     10.260  0.2516E-01  0.2484E+00
     10.346  0.2478E-01  0.2505E+00
     10.431  0.2408E-01  0.2526E+00
     10.517  0.2251E-01  0.2545E+00
     10.602  0.2250E-01  0.2564E+00
     10.687  0.2559E-01  0.2586E+00
     10.773  0.2879E-01  0.2611E+00
     10.858  0.2875E-01  0.2635E+00
     10.943  0.2657E-01  0.2658E+00
     11.029  0.2451E-01  0.2679E+00
     11.114  0.2223E-01  0.2698E+00
     11.199  0.1928E-01  0.2714E+00
     11.285  0.1711E-01  0.2729E+00
     11.370  0.1789E-01  0.2744E+00
     11.456  0.2188E-01  0.2763E+00
     11.541  0.2573E-01  0.2785E+00
     11.626  0.2643E-01  0.2807E+00
     11.712  0.2498E-01  0.2829E+00
     11.797  0.2350E-01  0.2849E+00
     11.882  0.2201E-01  0.2868E+00
     11.968  0.1864E-01  0.2884E+00
     12.053  0.1309E-01  0.2895E+00
     12.138  0.9155E-02  0.2903E+00
     12.224  0.1072E-01  0.2912E+00
     12.309  0.1675E-01  0.2926E+00
     12.395  0.2261E-01  0.2945E+00
     12.480  0.2475E-01  0.2966E+00
     12.565  0.2377E-01  0.2987E+00
     12.651  0.2229E-01  0.3006E+00
     12.736  0.2003E-01  0.3023E+00
     12.821  0.1545E-01  0.3036E+00
     12.907  0.1066E-01  0.3045E+00
     12.992  0.8520E-02  0.3052E+00
     13.077  0.8472E-02  0.3060E+00
     13.163  0.8378E-02  0.3067E+00
     13.248  0.7162E-02  0.3073E+00
     13.334  0.6553E-02  0.3079E+00
     13.419  0.1044E-01  0.3087E+00
     13.504  0.1877E-01  0.3103E+00
     13.590  0.2421E-01  0.3124E+00
     13.675  0.2058E-01  0.3142E+00
     13.760  0.1143E-01  0.3151E+00
     13.846  0.4482E-02  0.3155E+00
     13.931  0.2532E-02  0.3157E+00
     14.016  0.3355E-02  0.3160E+00
     14.102  0.3748E-02  0.3164E+00
     14.187  0.2662E-02  0.3166E+00
     14.273  0.1803E-02  0.3167E+00
     14.358  0.3130E-02  0.3170E+00
     14.443  0.6195E-02  0.3175E+00
     14.529  0.8115E-02  0.3182E+00
     14.614  0.6658E-02  0.3188E+00
     14.699  0.3107E-02  0.3191E+00
     14.785  0.3899E-03  0.3191E+00
     14.870 -0.3931E-03  0.3191E+00
     14.955  0.1502E-03  0.3191E+00
     15.041  0.1203E-02  0.3192E+00
     15.126  0.1861E-02  0.3193E+00
     15.212  0.1672E-02  0.3195E+00
     15.297  0.1393E-02  0.3196E+00
     15.382  0.1660E-02  0.3197E+00
     15.468  0.1791E-02  0.3199E+00
     15.553  0.1179E-02  0.3200E+00
     15.638  0.3560E-03  0.3200E+00
     15.724 -0.4896E-04  0.3200E+00
     15.809 -0.8625E-04  0.3200E+00
     15.894 -0.3529E-04  0.3200E+00
     15.980 -0.8026E-05  0.3200E+00
     16.065 -0.1152E-05  0.3200E+00
     16.151 -0.1090E-06  0.3200E+00
     16.236 -0.6938E-08  0.3200E+00
     16.321 -0.3005E-09  0.3200E+00
     16.407 -0.8909E-11  0.3200E+00
     16.492 -0.1815E-12  0.3200E+00
     16.577 -0.2549E-14  0.3200E+00
     16.663 -0.2497E-16  0.3200E+00
     16.748  0.0000E+00  0.3200E+00
     16.833  0.0000E+00  0.3200E+00
     16.919  0.0000E+00  0.3200E+00
     17.004  0.0000E+00  0.3200E+00
     17.090  0.0000E+00  0.3200E+00
     17.175  0.0000E+00  0.3200E+00
     17.260  0.0000E+00  0.3200E+00
     17.346  0.0000E+00  0.3200E+00
     17.431  0.0000E+00  0.3200E+00
     17.43102202     -8.17822538  301      5.73130104      1.00000000
     -8.178  0.0000E+00  0.0000E+00  0.0000E+00
     -8.093  0.0000E+00  0.0000E+00  0.0000E+00
     -8.007  0.0000E+00  0.0000E+00  0.0000E+00
     -7.922  0.0000E+00  0.0000E+00  0.0000E+00
     -7.837 -0.4697E-31 -0.1008E-33 -0.6130E-35
     -7.751 -0.4414E-28 -0.9544E-31 -0.5808E-32
     -7.666 -0.2871E-25 -0.6228E-28 -0.3790E-29
     -7.581 -0.1293E-22 -0.2819E-25 -0.1716E-26
     -7.495 -0.4033E-20 -0.8855E-23 -0.5392E-24
     -7.410 -0.8709E-18 -0.1932E-20 -0.1177E-21
     -7.325 -0.1261E-15 -0.2841E-18 -0.1732E-19
     -7.239 -0.1299E-13 -0.2986E-16 -0.1822E-17
     -7.154 -0.9234E-12 -0.2186E-14 -0.1336E-15
     -7.068 -0.4532E-10 -0.1118E-12 -0.6846E-14
     -6.983 -0.1534E-08 -0.4008E-11 -0.2460E-12
     -6.898 -0.3581E-07 -0.1010E-09 -0.6221E-11
     -6.812 -0.5747E-06 -0.1795E-08 -0.1110E-09
     -6.727 -0.6321E-05 -0.2251E-07 -0.1400E-08
     -6.642 -0.4730E-04 -0.1987E-06 -0.1245E-07
     -6.556 -0.2365E-03 -0.1225E-05 -0.7746E-07
     -6.471 -0.7550E-03 -0.5168E-05 -0.3311E-06
     -6.386 -0.1305E-02 -0.1424E-04 -0.9323E-06
     -6.300  0.4616E-04 -0.2181E-04 -0.1506E-05
     -6.215  0.6565E-02  0.1286E-05 -0.2293E-06
     -6.129  0.1932E-01  0.1052E-03  0.6245E-05
     -6.044  0.3505E-01  0.3377E-03  0.2149E-04
     -5.959  0.4957E-01  0.7067E-03  0.4686E-04
     -5.873  0.6045E-01  0.1155E-02  0.7942E-04
     -5.788  0.6774E-01  0.1658E-02  0.1184E-03
     -5.703  0.7547E-01  0.2310E-02  0.1712E-03
     -5.617  0.8488E-01  0.3061E-02  0.2347E-03
     -5.532  0.9033E-01  0.3670E-02  0.2925E-03
     -5.447  0.9230E-01  0.4243E-02  0.3530E-03
     -5.361  0.9856E-01  0.5136E-02  0.4408E-03
     -5.276  0.1094E+00  0.6304E-02  0.5550E-03
     -5.190  0.1181E+00  0.7347E-02  0.6713E-03
     -5.105  0.1192E+00  0.7893E-02  0.7552E-03
     -5.020  0.1154E+00  0.8182E-02  0.8168E-03
     -4.934  0.1204E+00  0.9316E-02  0.9567E-03
     -4.849  0.1393E+00  0.1158E-01  0.1211E-02
     -4.764  0.1539E+00  0.1336E-01  0.1436E-02
     -4.678  0.1502E+00  0.1348E-01  0.1518E-02
     -4.593  0.1407E+00  0.1314E-01  0.1575E-02
     -4.508  0.1452E+00  0.1428E-01  0.1796E-02
     -4.422  0.1635E+00  0.1691E-01  0.2158E-02
     -4.337  0.1789E+00  0.1932E-01  0.2482E-02
     -4.251  0.1885E+00  0.2110E-01  0.2800E-02
     -4.166  0.2003E+00  0.2282E-01  0.3236E-02
     -4.081  0.2082E+00  0.2366E-01  0.3661E-02
     -3.995  0.2093E+00  0.2359E-01  0.4022E-02
     -3.910  0.2220E+00  0.2539E-01  0.4627E-02
     -3.825  0.2568E+00  0.3071E-01  0.5613E-02
     -3.739  0.2846E+00  0.3574E-01  0.6334E-02
     -3.654  0.2732E+00  0.3593E-01  0.6182E-02
     -3.569  0.2474E+00  0.3391E-01  0.5833E-02
     -3.483  0.2401E+00  0.3358E-01  0.5987E-02
     -3.398  0.2254E+00  0.3166E-01  0.5842E-02
     -3.312  0.1848E+00  0.2669E-01  0.4920E-02
     -3.227  0.1626E+00  0.2573E-01  0.4429E-02
     -3.142  0.1900E+00  0.3286E-01  0.5270E-02
     -3.056  0.2311E+00  0.4138E-01  0.6535E-02
     -2.971  0.2327E+00  0.4207E-01  0.6738E-02
     -2.886  0.1867E+00  0.3383E-01  0.5583E-02
     -2.800  0.1274E+00  0.2303E-01  0.3976E-02
     -2.715  0.8840E-01  0.1611E-01  0.2903E-02
     -2.630  0.8583E-01  0.1680E-01  0.2934E-02
     -2.544  0.1173E+00  0.2533E-01  0.4048E-02
     -2.459  0.1537E+00  0.3531E-01  0.5309E-02
     -2.373  0.1566E+00  0.3705E-01  0.5450E-02
     -2.288  0.1162E+00  0.2772E-01  0.4114E-02
     -2.203  0.5812E-01  0.1373E-01  0.2108E-02
     -2.117  0.1320E-01  0.2905E-02  0.4939E-03
     -2.032 -0.8133E-02 -0.2368E-02 -0.3190E-03
     -1.947 -0.1157E-01 -0.3313E-02 -0.4707E-03
     -1.861  0.7221E-02  0.2398E-02  0.3254E-03
     -1.776  0.6151E-01  0.1940E-01  0.2683E-02
     -1.691  0.1300E+00  0.4111E-01  0.5674E-02
     -1.605  0.1556E+00  0.4957E-01  0.6810E-02
     -1.520  0.1210E+00  0.3880E-01  0.5329E-02
     -1.434  0.7210E-01  0.2311E-01  0.3233E-02
     -1.349  0.5694E-01  0.2107E-01  0.2584E-02
     -1.264  0.9593E-01  0.4701E-01  0.4234E-02
     -1.178  0.1873E+00  0.1043E+00  0.8209E-02
     -1.093  0.2924E+00  0.1696E+00  0.1304E-01
     -1.008  0.3425E+00  0.2012E+00  0.1569E-01
     -0.922  0.3001E+00  0.1780E+00  0.1414E-01
     -0.837  0.2077E+00  0.1269E+00  0.1011E-01
     -0.752  0.1449E+00  0.9533E-01  0.7417E-02
     -0.666  0.1335E+00  0.9341E-01  0.7124E-02
     -0.581  0.1273E+00  0.8837E-01  0.6965E-02
     -0.495  0.1046E+00  0.6814E-01  0.5995E-02
     -0.410  0.9974E-01  0.6292E-01  0.6213E-02
     -0.325  0.1301E+00  0.8649E-01  0.8488E-02
     -0.239  0.1515E+00  0.1032E+00  0.1002E-01
     -0.154  0.1243E+00  0.8209E-01  0.8342E-02
     -0.069  0.7754E-01  0.4745E-01  0.5425E-02
      0.017  0.6378E-01  0.4162E-01  0.4827E-02
      0.102  0.8382E-01  0.6467E-01  0.6562E-02
      0.187  0.9460E-01  0.7879E-01  0.7469E-02
      0.273  0.7462E-01  0.6233E-01  0.5942E-02
      0.358  0.4661E-01  0.3482E-01  0.3782E-02
      0.444  0.3941E-01  0.2596E-01  0.3404E-02
      0.529  0.6053E-01  0.4531E-01  0.5589E-02
      0.614  0.9045E-01  0.7454E-01  0.8598E-02
      0.700  0.9291E-01  0.7929E-01  0.8941E-02
      0.785  0.5970E-01  0.5077E-01  0.5778E-02
      0.870  0.2542E-01  0.1985E-01  0.2489E-02
      0.956  0.2033E-01  0.1482E-01  0.2146E-02
      1.041  0.3881E-01  0.3215E-01  0.4289E-02
      1.126  0.5591E-01  0.5004E-01  0.6345E-02
      1.212  0.5521E-01  0.5491E-01  0.6510E-02
      1.297  0.4092E-01  0.5856E-01  0.5416E-02
      1.383  0.2719E-01  0.8308E-01  0.4963E-02
      1.468  0.2311E-01  0.1312E+00  0.6198E-02
      1.553  0.3312E-01  0.1960E+00  0.9567E-02
      1.639  0.5278E-01  0.2722E+00  0.1452E-01
      1.724  0.6298E-01  0.3264E+00  0.1783E-01
      1.809  0.5120E-01  0.3150E+00  0.1653E-01
      1.895  0.2970E-01  0.2525E+00  0.1230E-01
      1.980  0.1916E-01  0.2054E+00  0.9782E-02
      2.065  0.2631E-01  0.2191E+00  0.1157E-01
      2.151  0.4205E-01  0.2725E+00  0.1599E-01
      2.236  0.5257E-01  0.3016E+00  0.1885E-01
      2.322  0.5141E-01  0.2827E+00  0.1826E-01
      2.407  0.4293E-01  0.2616E+00  0.1663E-01
      2.492  0.3346E-01  0.2719E+00  0.1618E-01
      2.578  0.2523E-01  0.2888E+00  0.1610E-01
      2.663  0.2247E-01  0.2982E+00  0.1631E-01
      2.748  0.3056E-01  0.3355E+00  0.1932E-01
      2.834  0.4301E-01  0.4093E+00  0.2475E-01
      2.919  0.4389E-01  0.4571E+00  0.2719E-01
      3.004  0.3018E-01  0.4317E+00  0.2392E-01
      3.090  0.1735E-01  0.3793E+00  0.2011E-01
      3.175  0.1761E-01  0.3844E+00  0.2215E-01
      3.261  0.2542E-01  0.4434E+00  0.2813E-01
      3.346  0.2920E-01  0.4628E+00  0.3052E-01
      3.431  0.2749E-01  0.4112E+00  0.2787E-01
      3.517  0.2499E-01  0.3630E+00  0.2583E-01
      3.602  0.2218E-01  0.3736E+00  0.2763E-01
      3.687  0.1834E-01  0.4164E+00  0.3102E-01
      3.773  0.1497E-01  0.4328E+00  0.3209E-01
      3.858  0.1299E-01  0.3968E+00  0.2952E-01
      3.943  0.1249E-01  0.3405E+00  0.2626E-01
      4.029  0.1407E-01  0.3239E+00  0.2699E-01
      4.114  0.1706E-01  0.3766E+00  0.3325E-01
      4.200  0.1792E-01  0.4413E+00  0.3925E-01
      4.285  0.1406E-01  0.4253E+00  0.3721E-01
      4.370  0.8120E-02  0.3388E+00  0.2933E-01
      4.456  0.4701E-02  0.2805E+00  0.2522E-01
      4.541  0.4697E-02  0.2894E+00  0.2784E-01
      4.626  0.6224E-02  0.3031E+00  0.3064E-01
      4.712  0.7506E-02  0.2622E+00  0.2780E-01
      4.797  0.7335E-02  0.1940E+00  0.2200E-01
      4.882  0.5539E-02  0.1573E+00  0.1899E-01
      4.968  0.3457E-02  0.1536E+00  0.1893E-01
      5.053  0.2272E-02  0.1440E+00  0.1791E-01
      5.139  0.1819E-02  0.1169E+00  0.1498E-01
      5.224  0.1639E-02  0.9655E-01  0.1317E-01
      5.309  0.1574E-02  0.9410E-01  0.1361E-01
      5.395  0.1388E-02  0.8894E-01  0.1329E-01
      5.480  0.9457E-03  0.6876E-01  0.1060E-01
      5.565  0.4380E-03  0.4566E-01  0.7355E-02
      5.651  0.9696E-04  0.2793E-01  0.4701E-02
      5.736 -0.3161E-04  0.1332E-01  0.2317E-02
      5.821 -0.3788E-04  0.2830E-02  0.5257E-03
      5.907 -0.2192E-04 -0.1293E-02 -0.2071E-03
      5.992 -0.4567E-04 -0.1335E-02 -0.2683E-03
      6.078 -0.1822E-03 -0.7162E-03 -0.3214E-03
      6.163 -0.4443E-03 -0.6459E-03 -0.5997E-03
      6.248 -0.2989E-03 -0.3967E-03 -0.3999E-03
      6.334  0.1543E-02  0.1757E-02  0.1982E-02
      6.419  0.5356E-02  0.6273E-02  0.6903E-02
      6.504  0.8837E-02  0.1054E-01  0.1140E-01
      6.590  0.1080E-01  0.1310E-01  0.1415E-01
      6.675  0.1437E-01  0.1794E-01  0.1959E-01
      6.761  0.2114E-01  0.2778E-01  0.2964E-01
      6.846  0.2686E-01  0.3754E-01  0.3813E-01
      6.931  0.2876E-01  0.4220E-01  0.4127E-01
      7.017  0.2903E-01  0.4379E-01  0.4214E-01
      7.102  0.2850E-01  0.4436E-01  0.4132E-01
      7.187  0.2754E-01  0.4419E-01  0.3873E-01
      7.273  0.3162E-01  0.4848E-01  0.4170E-01
      7.358  0.4649E-01  0.6365E-01  0.5696E-01
      7.443  0.6791E-01  0.8680E-01  0.7821E-01
      7.529  0.8048E-01  0.1020E+00  0.8826E-01
      7.614  0.7620E-01  0.9798E-01  0.7953E-01
      7.700  0.7136E-01  0.9180E-01  0.6997E-01
      7.785  0.8629E-01  0.1098E+00  0.8109E-01
      7.870  0.1146E+00  0.1452E+00  0.1064E+00
      7.956  0.1331E+00  0.1691E+00  0.1224E+00
      8.041  0.1335E+00  0.1736E+00  0.1215E+00
      8.126  0.1243E+00  0.1746E+00  0.1155E+00
      8.212  0.1134E+00  0.1800E+00  0.1143E+00
      8.297  0.1044E+00  0.1829E+00  0.1165E+00
      8.382  0.9801E-01  0.1758E+00  0.1140E+00
      8.468  0.8893E-01  0.1584E+00  0.1017E+00
      8.553  0.7530E-01  0.1403E+00  0.8621E-01
      8.639  0.6446E-01  0.1334E+00  0.7775E-01
      8.724  0.5875E-01  0.1381E+00  0.7565E-01
      8.809  0.5348E-01  0.1469E+00  0.7714E-01
      8.895  0.5014E-01  0.1649E+00  0.9152E-01
      8.980  0.5331E-01  0.2042E+00  0.1256E+00
      9.065  0.6057E-01  0.2579E+00  0.1657E+00
      9.151  0.6719E-01  0.3016E+00  0.1896E+00
      9.236  0.7094E-01  0.3173E+00  0.1886E+00
      9.321  0.6936E-01  0.3023E+00  0.1711E+00
      9.407  0.6290E-01  0.2641E+00  0.1503E+00
      9.492  0.6004E-01  0.2230E+00  0.1352E+00
      9.578  0.6565E-01  0.2041E+00  0.1291E+00
      9.663  0.6879E-01  0.2064E+00  0.1272E+00
      9.748  0.5899E-01  0.2023E+00  0.1189E+00
      9.834  0.4403E-01  0.1854E+00  0.1060E+00
      9.919  0.3563E-01  0.1834E+00  0.1056E+00
     10.004  0.3283E-01  0.2029E+00  0.1206E+00
     10.090  0.3214E-01  0.2129E+00  0.1319E+00
     10.175  0.3490E-01  0.1992E+00  0.1300E+00
     10.260  0.3966E-01  0.1821E+00  0.1242E+00
     10.346  0.4288E-01  0.1772E+00  0.1211E+00
     10.431  0.4308E-01  0.1744E+00  0.1156E+00
     10.517  0.4134E-01  0.1658E+00  0.1061E+00
     10.602  0.4326E-01  0.1703E+00  0.1043E+00
     10.687  0.5135E-01  0.2014E+00  0.1171E+00
     10.773  0.5552E-01  0.2325E+00  0.1327E+00
     10.858  0.4732E-01  0.2313E+00  0.1372E+00
     10.943  0.3572E-01  0.2066E+00  0.1328E+00
     11.029  0.3274E-01  0.1836E+00  0.1249E+00
     11.114  0.3703E-01  0.1652E+00  0.1105E+00
     11.199  0.4017E-01  0.1454E+00  0.9088E-01
     11.285  0.3858E-01  0.1314E+00  0.7721E-01
     11.370  0.3718E-01  0.1390E+00  0.8127E-01
     11.456  0.4094E-01  0.1702E+00  0.1024E+00
     11.541  0.4539E-01  0.2015E+00  0.1227E+00
     11.626  0.4439E-01  0.2124E+00  0.1272E+00
     11.712  0.3898E-01  0.2096E+00  0.1215E+00
     11.797  0.3252E-01  0.2030E+00  0.1172E+00
     11.882  0.2680E-01  0.1879E+00  0.1129E+00
     11.968  0.2189E-01  0.1533E+00  0.9600E-01
     12.053  0.1696E-01  0.1028E+00  0.6566E-01
     12.138  0.1436E-01  0.6748E-01  0.4435E-01
     12.224  0.1794E-01  0.7869E-01  0.5250E-01
     12.309  0.2639E-01  0.1299E+00  0.8330E-01
     12.395  0.3324E-01  0.1830E+00  0.1123E+00
     12.480  0.3350E-01  0.2075E+00  0.1225E+00
     12.565  0.2822E-01  0.2087E+00  0.1187E+00
     12.651  0.2218E-01  0.2049E+00  0.1146E+00
     12.736  0.1773E-01  0.1868E+00  0.1054E+00
     12.821  0.1416E-01  0.1404E+00  0.8060E-01
     12.907  0.1146E-01  0.9044E-01  0.5346E-01
     12.992  0.9917E-02  0.6670E-01  0.4200E-01
     13.077  0.9007E-02  0.6438E-01  0.4355E-01
     13.163  0.8353E-02  0.6257E-01  0.4505E-01
     13.248  0.7680E-02  0.5200E-01  0.3874E-01
     13.334  0.7742E-02  0.5078E-01  0.3122E-01
     13.419  0.1030E-01  0.9358E-01  0.4205E-01
     13.504  0.1433E-01  0.1760E+00  0.7597E-01
     13.590  0.1545E-01  0.2280E+00  0.1031E+00
     13.675  0.1153E-01  0.1916E+00  0.9236E-01
     13.760  0.5617E-02  0.1020E+00  0.5348E-01
     13.846  0.1957E-02  0.3632E-01  0.1978E-01
     13.931  0.1912E-02  0.2236E-01  0.7731E-02
     14.016  0.3750E-02  0.3493E-01  0.1046E-01
     14.102  0.4461E-02  0.3990E-01  0.1355E-01
     14.187  0.2907E-02  0.2803E-01  0.1068E-01
     14.273  0.1151E-02  0.1939E-01  0.8059E-02
     14.358  0.1548E-02  0.3583E-01  0.1406E-01
     14.443  0.3638E-02  0.7232E-01  0.2743E-01
     14.529  0.4794E-02  0.9543E-01  0.3627E-01
     14.614  0.3601E-02  0.7861E-01  0.3040E-01
     14.699  0.1405E-02  0.3673E-01  0.1469E-01
     14.785  0.2664E-04  0.4480E-02  0.2220E-02
     14.870 -0.2429E-03 -0.4727E-02 -0.1667E-02
     14.955  0.9439E-04  0.2530E-02  0.1963E-04
     15.041  0.6525E-03  0.1662E-01  0.3431E-02
     15.126  0.9937E-03  0.2549E-01  0.5506E-02
     15.212  0.8107E-03  0.2287E-01  0.5102E-02
     15.297  0.4131E-03  0.1910E-01  0.4703E-02
     15.382  0.2613E-03  0.2286E-01  0.6014E-02
     15.468  0.2983E-03  0.2475E-01  0.6483E-02
     15.553  0.2450E-03  0.1634E-01  0.4198E-02
     15.638  0.9705E-04  0.4964E-02  0.1236E-02
     15.724 -0.3794E-06 -0.6644E-03 -0.1873E-03
     15.809 -0.1812E-04 -0.1194E-02 -0.3065E-03
     15.894 -0.8683E-05 -0.4901E-03 -0.1236E-03
     15.980 -0.2153E-05 -0.1117E-03 -0.2788E-04
     16.065 -0.3282E-06 -0.1605E-04 -0.3974E-05
     16.151 -0.3251E-07 -0.1521E-05 -0.3740E-06
     16.236 -0.2145E-08 -0.9691E-07 -0.2371E-07
     16.321 -0.9556E-10 -0.4201E-08 -0.1023E-08
     16.407 -0.2898E-11 -0.1246E-09 -0.3025E-10
     16.492 -0.6011E-13 -0.2541E-11 -0.6149E-12
     16.577 -0.8562E-15 -0.3569E-13 -0.8616E-14
     16.663 -0.8426E-17 -0.3497E-15 -0.8436E-16
     16.748  0.0000E+00  0.0000E+00  0.0000E+00
     16.833  0.0000E+00  0.0000E+00  0.0000E+00
     16.919  0.0000E+00  0.0000E+00  0.0000E+00
     17.004  0.0000E+00  0.0000E+00  0.0000E+00
     17.090  0.0000E+00  0.0000E+00  0.0000E+00
     17.175  0.0000E+00  0.0000E+00  0.0000E+00
     17.260  0.0000E+00  0.0000E+00  0.0000E+00
     17.346  0.0000E+00  0.0000E+00  0.0000E+00
     17.431  0.0000E+00  0.0000E+00  0.0000E+00
     17.43102202     -8.17822538  301      5.73130104      1.00000000
     -8.178  0.0000E+00  0.0000E+00  0.0000E+00
     -8.093  0.0000E+00  0.0000E+00  0.0000E+00
     -8.007  0.0000E+00  0.0000E+00  0.0000E+00
     -7.922  0.0000E+00  0.0000E+00  0.0000E+00
     -7.837 -0.4697E-31 -0.1008E-33 -0.6130E-35
     -7.751 -0.4414E-28 -0.9544E-31 -0.5808E-32
     -7.666 -0.2871E-25 -0.6228E-28 -0.3790E-29
     -7.581 -0.1293E-22 -0.2819E-25 -0.1716E-26
     -7.495 -0.4033E-20 -0.8855E-23 -0.5392E-24
     -7.410 -0.8709E-18 -0.1932E-20 -0.1177E-21
     -7.325 -0.1261E-15 -0.2841E-18 -0.1732E-19
     -7.239 -0.1299E-13 -0.2986E-16 -0.1822E-17
     -7.154 -0.9234E-12 -0.2186E-14 -0.1336E-15
     -7.068 -0.4532E-10 -0.1118E-12 -0.6846E-14
     -6.983 -0.1534E-08 -0.4008E-11 -0.2460E-12
     -6.898 -0.3581E-07 -0.1010E-09 -0.6221E-11
     -6.812 -0.5747E-06 -0.1795E-08 -0.1110E-09
     -6.727 -0.6321E-05 -0.2251E-07 -0.1400E-08
     -6.642 -0.4730E-04 -0.1987E-06 -0.1245E-07
     -6.556 -0.2365E-03 -0.1225E-05 -0.7746E-07
     -6.471 -0.7550E-03 -0.5168E-05 -0.3311E-06
     -6.386 -0.1305E-02 -0.1424E-04 -0.9323E-06
     -6.300  0.4616E-04 -0.2181E-04 -0.1506E-05
     -6.215  0.6565E-02  0.1286E-05 -0.2293E-06
     -6.129  0.1932E-01  0.1052E-03  0.6245E-05
     -6.044  0.3505E-01  0.3377E-03  0.2149E-04
     -5.959  0.4957E-01  0.7067E-03  0.4686E-04
     -5.873  0.6045E-01  0.1155E-02  0.7942E-04
     -5.788  0.6774E-01  0.1658E-02  0.1184E-03
     -5.703  0.7547E-01  0.2310E-02  0.1712E-03
     -5.617  0.8488E-01  0.3061E-02  0.2347E-03
     -5.532  0.9033E-01  0.3670E-02  0.2925E-03
     -5.447  0.9230E-01  0.4243E-02  0.3530E-03
     -5.361  0.9856E-01  0.5136E-02  0.4408E-03
     -5.276  0.1094E+00  0.6304E-02  0.5550E-03
     -5.190  0.1181E+00  0.7347E-02  0.6713E-03
     -5.105  0.1192E+00  0.7893E-02  0.7552E-03
     -5.020  0.1154E+00  0.8182E-02  0.8168E-03
     -4.934  0.1204E+00  0.9316E-02  0.9567E-03
     -4.849  0.1393E+00  0.1158E-01  0.1211E-02
     -4.764  0.1539E+00  0.1336E-01  0.1436E-02
     -4.678  0.1502E+00  0.1348E-01  0.1518E-02
     -4.593  0.1407E+00  0.1314E-01  0.1575E-02
     -4.508  0.1452E+00  0.1428E-01  0.1796E-02
     -4.422  0.1635E+00  0.1691E-01  0.2158E-02
     -4.337  0.1789E+00  0.1932E-01  0.2482E-02
     -4.251  0.1885E+00  0.2110E-01  0.2800E-02
     -4.166  0.2003E+00  0.2282E-01  0.3236E-02
     -4.081  0.2082E+00  0.2366E-01  0.3661E-02
     -3.995  0.2093E+00  0.2359E-01  0.4022E-02
     -3.910  0.2220E+00  0.2539E-01  0.4627E-02
     -3.825  0.2568E+00  0.3071E-01  0.5613E-02
     -3.739  0.2846E+00  0.3574E-01  0.6334E-02
     -3.654  0.2732E+00  0.3593E-01  0.6182E-02
     -3.569  0.2474E+00  0.3391E-01  0.5833E-02
     -3.483  0.2401E+00  0.3358E-01  0.5987E-02
     -3.398  0.2254E+00  0.3166E-01  0.5842E-02
     -3.312  0.1848E+00  0.2669E-01  0.4920E-02
     -3.227  0.1626E+00  0.2573E-01  0.4429E-02
     -3.142  0.1900E+00  0.3286E-01  0.5270E-02
     -3.056  0.2311E+00  0.4138E-01  0.6535E-02
     -2.971  0.2327E+00  0.4207E-01  0.6738E-02
     -2.886  0.1867E+00  0.3383E-01  0.5583E-02
     -2.800  0.1274E+00  0.2303E-01  0.3976E-02
     -2.715  0.8840E-01  0.1611E-01  0.2903E-02
     -2.630  0.8583E-01  0.1680E-01  0.2934E-02
     -2.544  0.1173E+00  0.2533E-01  0.4048E-02
     -2.459  0.1537E+00  0.3531E-01  0.5309E-02
     -2.373  0.1566E+00  0.3705E-01  0.5450E-02
     -2.288  0.1162E+00  0.2772E-01  0.4114E-02
     -2.203  0.5812E-01  0.1373E-01  0.2108E-02
     -2.117  0.1320E-01  0.2905E-02  0.4939E-03
     -2.032 -0.8133E-02 -0.2368E-02 -0.3190E-03
     -1.947 -0.1157E-01 -0.3313E-02 -0.4707E-03
     -1.861  0.7221E-02  0.2398E-02  0.3254E-03
     -1.776  0.6151E-01  0.1940E-01  0.2683E-02
     -1.691  0.1300E+00  0.4111E-01  0.5674E-02
     -1.605  0.1556E+00  0.4957E-01  0.6810E-02
     -1.520  0.1210E+00  0.3880E-01  0.5329E-02
     -1.434  0.7210E-01  0.2311E-01  0.3233E-02
     -1.349  0.5694E-01  0.2107E-01  0.2584E-02
     -1.264  0.9593E-01  0.4701E-01  0.4234E-02
     -1.178  0.1873E+00  0.1043E+00  0.8209E-02
     -1.093  0.2924E+00  0.1696E+00  0.1304E-01
     -1.008  0.3425E+00  0.2012E+00  0.1569E-01
     -0.922  0.3001E+00  0.1780E+00  0.1414E-01
     -0.837  0.2077E+00  0.1269E+00  0.1011E-01
     -0.752  0.1449E+00  0.9533E-01  0.7417E-02
     -0.666  0.1335E+00  0.9341E-01  0.7124E-02
     -0.581  0.1273E+00  0.8837E-01  0.6965E-02