    2    2   50    1
  0.7414875E+01  0.2757716E-09  0.2757716E-09  0.2757716E-09  0.5000000E-15
  1.000000000000000E-004
  CAR 
 Si                                      
      8    110      8
 
  0.5000000E-01  0.5000000E-01  0.5000000E-01  0.2000000E-02
    1       -6.178225   1.000000
    2        5.317408   1.006346
    3        5.626775   0.882274
    4        5.626775   0.882274
    5        8.312564  -0.000000
    6        8.351877  -0.000000
    7        8.351877  -0.000000
    8        9.054121  -0.000000
 
  0.1500000E+00  0.5000000E-01  0.5000000E-01  0.6000000E-02
    1       -6.005877   1.000000
    2        4.174681   1.000000
    3        5.064277   1.000013
    4        5.555561   1.007533
    5        8.369527  -0.000000
    6        8.524602  -0.000000
    7        8.765980  -0.000000
    8       10.212644  -0.000000
 
  0.2500000E+00  0.5000000E-01  0.5000000E-01  0.6000000E-02
    1       -5.585172   1.000000
    2        2.352940   1.000000
    3        4.622463   1.000000
    4        5.206067   1.000647
    5        7.998631  -0.000000
    6        8.997095  -0.000000
    7        9.336052  -0.000000
    8       11.725005   0.000000
 
  0.3500000E+00  0.5000000E-01  0.5000000E-01  0.6000000E-02
    1       -4.948092   1.000000
    2        0.631583   1.000000
    3        4.326696   1.000000
    4        4.828902   1.000000
    5        7.664815  -0.000000
    6        9.206228  -0.000000
    7        9.405751  -0.000000
    8       13.232790   0.000000
 
  0.4500000E+00  0.5000000E-01  0.5000000E-01  0.6000000E-02
    1       -4.217073   1.000000
    2       -0.734916   1.000000
    3        4.202447   1.000000
    4        4.553619   1.000000
    5        7.507848  -0.000000
    6        9.202563  -0.000000
    7        9.206481  -0.000000
    8       13.545110   0.000000
 
 -0.4500000E+00  0.5000000E-01  0.5000000E-01  0.6000000E-02
    1       -3.905767   1.000000
    2       -1.210678   1.000000
    3        4.237772   1.000000
    4        4.408464   1.000000
    5        7.454731  -0.000000
    6        9.067779  -0.000000
    7        9.254120  -0.000000
    8       13.519549   0.000000
 
 -0.3500000E+00  0.5000000E-01  0.5000000E-01  0.6000000E-02
    1       -4.453080   1.000000
    2       -0.339069   1.000000
    3        4.419844   1.000000
    4        4.426378   1.000000
    5        7.550751  -0.000000
    6        9.067487  -0.000000
    7        9.431122  -0.000000
    8       13.249372   0.000000
 
 -0.2500000E+00  0.5000000E-01  0.5000000E-01  0.6000000E-02
    1       -5.180060   1.000000
    2        1.179034   1.000000
    3        4.589892   1.000000
    4        4.747020   1.000000
    5        7.772994  -0.000000
    6        9.055581  -0.000000
    7        9.586455  -0.000000
    8       12.191893   0.000000
 
 -0.1500000E+00  0.5000000E-01  0.5000000E-01  0.6000000E-02
    1       -5.751958   1.000000
    2        2.965912   1.000000
    3        4.916183   1.000000
    4        5.148472   1.000150
    5        8.113521  -0.000000
    6        8.746754  -0.000000
    7        9.355139  -0.000000
    8       11.165101  -0.000000
 
 -0.5000000E-01  0.5000000E-01  0.5000000E-01  0.6000000E-02
    1       -6.091525   1.000000
    2        4.764441   1.000000
    3        5.330941   1.007948
    4        5.458537   1.033009
    5        8.168941  -0.000000
    6        8.579571  -0.000000
    7        8.774798  -0.000000
    8        9.619441  -0.000000
 
  0.1500000E+00  0.1500000E+00  0.5000000E-01  0.6000000E-02
    1       -5.919984   1.000000
    2        4.063489   1.000000
    3        4.889760   1.000000
    4        4.991386   1.000001
    5        7.855745  -0.000000
    6        9.141536  -0.000000
    7        9.424222  -0.000000
    8       10.177235  -0.000000
 
  0.2500000E+00  0.1500000E+00  0.5000000E-01  0.1200000E-01
    1       -5.581500   1.000000
    2        2.815753   1.000000
    3        4.142347   1.000000
    4        4.799388   1.000000
    5        7.915423  -0.000000
    6        9.300243  -0.000000
    7       10.045262  -0.000000
    8       10.547163  -0.000000
 
  0.3500000E+00  0.1500000E+00  0.5000000E-01  0.1200000E-01
    1       -5.010757   1.000000
    2        1.183511   1.000000
    3        3.709520   1.000000
    4        4.431888   1.000000
    5        8.129252  -0.000000
    6        9.282167  -0.000000
    7       10.326436  -0.000000
    8       10.807860  -0.000000
 
  0.4500000E+00  0.1500000E+00  0.5000000E-01  0.1200000E-01
    1       -4.283730   1.000000
    2       -0.281233   1.000000
    3        3.436610   1.000000
    4        4.151248   1.000000
    5        8.089150  -0.000000
    6        9.163759  -0.000000
    7       10.203099  -0.000000
    8       11.962192   0.000000
 
 -0.4500000E+00  0.1500000E+00  0.5000000E-01  0.1200000E-01
    1       -3.734019   1.000000
    2       -1.134449   1.000000
    3        3.256967   1.000000
    4        4.105428   1.000000
    5        8.093883  -0.000000
    6        9.046348  -0.000000
    7       10.036009  -0.000000
    8       13.553465   0.000000
 
 -0.3500000E+00  0.1500000E+00  0.5000000E-01  0.1200000E-01
    1       -4.049624   1.000000
    2       -0.662853   1.000000
    3        3.197929   1.000000
    4        4.295278   1.000000
    5        8.209629  -0.000000
    6        9.066935  -0.000000
    7       10.006917  -0.000000
    8       13.038818   0.000000
 
 -0.2500000E+00  0.1500000E+00  0.5000000E-01  0.1200000E-01
    1       -4.781496   1.000000
    2        0.666632   1.000000
    3        3.315812   1.000000
    4        4.651582   1.000000
    5        8.406968  -0.000000
    6        9.116442  -0.000000
    7       10.040954  -0.000000
    8       11.639180   0.000000
 
 -0.1500000E+00  0.1500000E+00  0.5000000E-01  0.1200000E-01
    1       -5.417098   1.000000
    2        2.242332   1.000000
    3        3.700373   1.000000
    4        5.061549   1.000012
    5        8.554877  -0.000000
    6        8.918839  -0.000000
    7        9.816786  -0.000000
    8       10.997475  -0.000000
 
 -0.5000000E-01  0.1500000E+00  0.5000000E-01  0.1200000E-01
    1       -5.835657   1.000000
    2        3.505875   1.000000
    3        4.615308   1.000000
    4        5.297992   1.004501
    5        8.244099  -0.000000
    6        8.755008  -0.000000
    7        9.298875  -0.000000
    8       10.731127  -0.000000
 
  0.2500000E+00  0.2500000E+00  0.5000000E-01  0.6000000E-02
    1       -5.324625   1.000000
    2        2.464939   1.000000
    3        3.981445   1.000000
    4        4.008988   1.000000
    5        7.146885  -0.000000
    6        9.315011  -0.000000
    7       10.878529  -0.000000
    8       10.992566  -0.000000
 
  0.3500000E+00  0.2500000E+00  0.5000000E-01  0.1200000E-01
    1       -4.828049   1.000000
    2        1.375919   1.000000
    3        3.294229   1.000000
    4        3.764738   1.000000
    5        7.282614  -0.000000
    6        8.941818  -0.000000
    7       11.031508  -0.000000
    8       11.754677   0.000000
 
  0.4500000E+00  0.2500000E+00  0.5000000E-01  0.1200000E-01
    1       -4.137852   1.000000
    2        0.097932   1.000000
    3        2.681941   1.000000
    4        3.538119   1.000000
    5        7.546572  -0.000000
    6        9.649474  -0.000000
    7       10.732437  -0.000000
    8       11.843485   0.000000
 
 -0.4500000E+00  0.2500000E+00  0.5000000E-01  0.1200000E-01
    1       -3.451062   1.000000
    2       -0.919659   1.000000
    3        2.208009   1.000000
    4        3.558006   1.000000
    5        7.673180  -0.000000
    6       10.408484  -0.000000
    7       11.310217   0.000000
    8       11.649046   0.000000
 
 -0.3500000E+00  0.2500000E+00  0.5000000E-01  0.1200000E-01
    1       -3.475326   1.000000
    2       -0.880186   1.000000
    3        1.960281   1.000000
    4        3.806938   1.000000
    5        7.944119  -0.000000
    6       10.174861  -0.000000
    7       11.453633   0.000000
    8       12.982552   0.000000
 
 -0.2500000E+00  0.2500000E+00  0.5000000E-01  0.1200000E-01
    1       -4.169807   1.000000
    2        0.125595   1.000000
    3        2.061849   1.000000
    4        4.223180   1.000000
    5        8.382842  -0.000000
    6        9.915895  -0.000000
    7       11.161177  -0.000000
    8       11.468173   0.000000
 
 -0.1500000E+00  0.2500000E+00  0.5000000E-01  0.1200000E-01
    1       -4.850872   1.000000
    2        1.104848   1.000000
    3        2.813317   1.000000
    4        4.689857   1.000000
    5        8.745242  -0.000000
    6        9.201611  -0.000000
    7       10.430424  -0.000000
    8       11.016978  -0.000000
 
 -0.5000000E-01  0.2500000E+00  0.5000000E-01  0.1200000E-01
    1       -5.337611   1.000000
    2        1.753090   1.000000
    3        4.182043   1.000000
    4        4.930414   1.000000
    5        8.172488  -0.000000
    6        8.962588  -0.000000
    7        9.743109  -0.000000
    8       11.461681   0.000000
 
  0.3500000E+00  0.3500000E+00  0.5000000E-01  0.6000000E-02
    1       -4.406122   1.000000
    2        0.759700   1.000000
    3        3.226596   1.000000
    4        3.336310   1.000000
    5        6.623380  -0.000000
    6        7.979188  -0.000000
    7       12.656472   0.000000
    8       12.735642   0.000000
 
  0.4500000E+00  0.3500000E+00  0.5000000E-01  0.1200000E-01
    1       -3.770976   1.000000
    2       -0.166531   1.000000
    3        2.684530   1.000000
    4        3.071598   1.000000
    5        6.887966  -0.000000
    6        7.853104  -0.000000
    7       12.675439   0.000000
    8       13.606609   0.000000
 
 -0.4500000E+00  0.3500000E+00  0.5000000E-01  0.1200000E-01
    1       -3.032480   1.000000
    2       -1.044799   1.000000
    3        1.876902   1.000000
    4        3.080078   1.000000
    5        7.119150  -0.000000
    6        9.063088  -0.000000
    7       12.340987   0.000000
    8       13.573578   0.000000
 
 -0.3500000E+00  0.3500000E+00  0.5000000E-01  0.1200000E-01
    1       -2.806523   1.000000
    2       -1.267830   1.000000
    3        1.381070   1.000000
    4        3.320950   1.000000
    5        7.394659  -0.000000
    6       10.969285  -0.000000
    7       11.987350   0.000000
    8       12.949063   0.000000
 
 -0.2500000E+00  0.3500000E+00  0.5000000E-01  0.1200000E-01
    1       -3.441314   1.000000
    2       -0.672902   1.000000
    3        1.544251   1.000000
    4        3.745413   1.000000
    5        7.874360  -0.000000
    6       10.840511  -0.000000
    7       11.979203   0.000000
    8       12.336373   0.000000
 
 -0.1500000E+00  0.3500000E+00  0.5000000E-01  0.1200000E-01
    1       -4.126108   1.000000
    2       -0.235589   1.000000
    3        2.541503   1.000000
    4        4.250512   1.000000
    5        8.364909  -0.000000
    6        9.424606  -0.000000
    7       10.608389  -0.000000
    8       12.167317   0.000000
 
 -0.5000000E-01  0.3500000E+00  0.5000000E-01  0.1200000E-01
    1       -4.646206   1.000000
    2        0.143188   1.000000
    3        3.933640   1.000000
    4        4.566251   1.000000
    5        7.923147  -0.000000
    6        9.062360  -0.000000
    7        9.692324  -0.000000
    8       12.461633   0.000000
 
  0.4500000E+00  0.4500000E+00  0.5000000E-01  0.6000000E-02
    1       -3.192049   1.000000
    2       -0.928568   1.000000
    3        2.802681   1.000000
    4        2.949503   1.000000
    5        6.445967  -0.000003
    6        7.028679  -0.000000
    7       14.546687   0.000000
    8       14.551933   0.000000
 
 -0.4500000E+00  0.4500000E+00  0.5000000E-01  0.1200000E-01
    1       -2.455398   1.000000
    2       -1.713126   1.000000
    3        2.407792   1.000000
    4        2.788737   1.000000
    5        6.783749  -0.000000
    6        7.306210  -0.000000
    7       14.433511   0.000000
    8       15.094844   0.000000
 
 -0.3500000E+00  0.4500000E+00  0.5000000E-01  0.1200000E-01
    1       -2.472923   1.000000
    2       -1.611594   1.000000
    3        1.702161   1.000000
    4        2.992567   1.000000
    5        7.022015  -0.000000
    6        8.948289  -0.000000
    7       13.163860   0.000000
    8       14.027861   0.000000
 
 -0.2500000E+00  0.4500000E+00  0.5000000E-01  0.1200000E-01
    1       -3.061785   1.000000
    2       -1.137074   1.000000
    3        1.686640   1.000000
    4        3.399179   1.000000
    5        7.490384  -0.000000
    6       10.969665  -0.000000
    7       11.315612   0.000000
    8       12.469268   0.000000
 
 -0.1500000E+00  0.4500000E+00  0.5000000E-01  0.1200000E-01
    1       -3.566094   1.000000
    2       -1.078613   1.000000
    3        2.586073   1.000000
    4        3.926980   1.000000
    5        8.068176  -0.000000
    6        9.520288  -0.000000
    7       10.714032  -0.000000
    8       13.448416   0.000000
 
 -0.5000000E-01  0.4500000E+00  0.5000000E-01  0.1200000E-01
    1       -3.964352   1.000000
    2       -1.012221   1.000000
    3        3.833313   1.000000
    4        4.346647   1.000000
    5        7.808918  -0.000000
    6        9.009723  -0.000000
    7        9.527841  -0.000000
    8       13.587797   0.000000
 
 -0.4500000E+00 -0.4500000E+00  0.5000000E-01  0.6000000E-02
    1       -2.487989   1.000000
    2       -1.728691   1.000000
    3        2.719805   1.000000
    4        2.873146   1.000000
    5        6.494913  -0.000000
    6        6.760206  -0.000000
    7       15.377518   0.000000
    8       15.431022   0.000000
 
 -0.3500000E+00 -0.4500000E+00  0.5000000E-01  0.1200000E-01
    1       -3.141142   1.000000
    2       -0.948271   1.000000
    3        2.499582   1.000000
    4        2.881566   1.000000
    5        6.806694  -0.000000
    6        7.500317  -0.000000
    7       13.552857   0.000000
    8       14.549599   0.000000
 
 -0.2500000E+00 -0.4500000E+00  0.5000000E-01  0.1200000E-01
    1       -3.606654   1.000000
    2       -0.458452   1.000000
    3        2.215664   1.000000
    4        3.259398   1.000000
    5        7.298798  -0.000000
    6        9.298027  -0.000000
    7       11.527570   0.000000
    8       12.704981   0.000000
 
 -0.1500000E+00 -0.4500000E+00  0.5000000E-01  0.1200000E-01
    1       -3.875956   1.000000
    2       -0.635309   1.000000
    3        2.829762   1.000000
    4        3.804596   1.000000
    5        7.904923  -0.000000
    6        9.715084  -0.000000
    7       10.866950  -0.000000
    8       11.578328   0.000000
 
 -0.3500000E+00 -0.3500000E+00  0.5000000E-01  0.6000000E-02
    1       -3.833648   1.000000
    2       -0.095607   1.000000
    3        2.972245   1.000000
    4        3.104731   1.000000
    5        6.482830  -0.000001
    6        7.439593  -0.000000
    7       13.584765   0.000000
    8       13.628363   0.000000
 
 -0.2500000E+00 -0.3500000E+00  0.5000000E-01  0.1200000E-01
    1       -4.335590   1.000000
    2        0.614098   1.000000
    3        2.952703   1.000000
    4        3.364518   1.000000
    5        7.045147  -0.000000
    6        8.344602  -0.000000
    7       11.832994   0.000000
    8       12.669642   0.000000
 
 -0.1500000E+00 -0.3500000E+00  0.5000000E-01  0.1200000E-01
    1       -4.609150   1.000000
    2        0.637204   1.000000
    3        3.202046   1.000000
    4        3.932427   1.000000
    5        7.843209  -0.000000
    6        9.905210  -0.000000
    7       10.196000  -0.000000
    8       11.055513  -0.000000
 
 -0.2500000E+00 -0.2500000E+00  0.5000000E-01  0.6000000E-02
    1       -4.904508   1.000000
    2        1.618175   1.000000
    3        3.563862   1.000000
    4        3.639764   1.000000
    5        6.849132  -0.000000
    6        8.621263  -0.000000
    7       11.740149   0.000000
    8       11.850630   0.000000
 
 -0.1500000E+00 -0.2500000E+00  0.5000000E-01  0.1200000E-01
    1       -5.244490   1.000000
    2        2.107815   1.000000
    3        3.694680   1.000000
    4        4.257294   1.000000
    5        7.580094  -0.000000
    6        9.516186  -0.000000
    7       10.373939  -0.000000
    8       10.874347  -0.000000
 
 -0.1500000E+00 -0.1500000E+00  0.5000000E-01  0.6000000E-02
    1       -5.663603   1.000000
    2        3.288317   1.000000
    3        4.433356   1.000000
    4        4.469217   1.000000
    5        7.495222  -0.000000
    6        9.709935  -0.000000
    7       10.180721  -0.000000
    8       10.290649  -0.000000
 
  0.1500000E+00  0.1500000E+00  0.1500000E+00  0.2000000E-02
    1       -5.921053   1.000000
    2        3.606698   1.000000
    3        5.306169   1.005217
    4        5.306169   1.005217
    5        8.056694  -0.000000
    6        8.847657  -0.000000
    7        8.847657  -0.000000
    8       10.678117  -0.000000
 
  0.2500000E+00  0.1500000E+00  0.1500000E+00  0.6000000E-02
    1       -5.667502   1.000000
    2        2.874865   1.000000
    3        4.171611   1.000000
    4        5.371991   1.014564
    5        8.532118  -0.000000
    6        8.862031  -0.000000
    7        9.170621  -0.000000
    8       11.232857   0.000000
 
  0.3500000E+00  0.1500000E+00  0.1500000E+00  0.6000000E-02
    1       -5.172964   1.000000
    2        1.663872   1.000000
    3        3.238855   1.000000
    4        5.033042   1.000005
    5        8.619879  -0.000000
    6        9.363574  -0.000000
    7        9.647546  -0.000000
    8       11.436467   0.000000
 
  0.4500000E+00  0.1500000E+00  0.1500000E+00  0.6000000E-02
    1       -4.483707   1.000000
    2        0.188536   1.000000
    3        2.917631   1.000000
    4        4.595009   1.000000
    5        8.295772  -0.000000
    6        9.716510  -0.000000
    7        9.747637  -0.000000
    8       12.497995   0.000000
 
 -0.4500000E+00  0.1500000E+00  0.1500000E+00  0.6000000E-02
    1       -3.797978   1.000000
    2       -0.939770   1.000000
    3        2.903122   1.000000
    4        4.221291   1.000000
    5        8.022696  -0.000000
    6        9.590810  -0.000000
    7        9.943182  -0.000000
    8       13.913501   0.000000
 
 -0.3500000E+00  0.1500000E+00  0.1500000E+00  0.6000000E-02
    1       -3.792103   1.000000
    2       -0.951477   1.000000
    3        3.108964   1.000000
    4        3.994137   1.000000
    5        7.865923  -0.000000
    6        9.576458  -0.000000
    7       10.183818  -0.000000
    8       12.600130   0.000000
 
 -0.2500000E+00  0.1500000E+00  0.1500000E+00  0.6000000E-02
    1       -4.475002   1.000000
    2        0.169666   1.000000
    3        3.496319   1.000000
    4        3.949065   1.000000
    5        7.839348  -0.000000
    6        9.675385  -0.000000
    7       10.495160  -0.000000
    8       10.989353  -0.000000
 
 -0.1500000E+00  0.1500000E+00  0.1500000E+00  0.6000000E-02
    1       -5.166465   1.000000
    2        1.702384   1.000000
    3        3.997324   1.000000
    4        4.100734   1.000000
    5        7.768120  -0.000000
    6        9.611696  -0.000000
    7       10.317205  -0.000000
    8       10.605416  -0.000000
 
  0.2500000E+00  0.2500000E+00  0.1500000E+00  0.6000000E-02
    1       -5.499546   1.000000
    2        2.331557   1.000000
    3        4.498575   1.000000
    4        4.628214   1.000000
    5        8.069396  -0.000000
    6        9.025344  -0.000000
    7        9.961394  -0.000000
    8       10.876517  -0.000000
 
  0.3500000E+00  0.2500000E+00  0.1500000E+00  0.1200000E-01
    1       -5.086059   1.000000
    2        1.618454   1.000000
    3        3.260841   1.000000
    4        4.536708   1.000000
    5        8.282716  -0.000000
    6        9.364405  -0.000000
    7       10.312476  -0.000000
    8       10.694298  -0.000000
 
  0.4500000E+00  0.2500000E+00  0.1500000E+00  0.1200000E-01
    1       -4.455536   1.000000
    2        0.561613   1.000000
    3        2.450667   1.000000
    4        4.142406   1.000000
    5        8.888366  -0.000000
    6        9.171260  -0.000000
    7       10.389552  -0.000000
    8       11.459981   0.000000
 
 -0.4500000E+00  0.2500000E+00  0.1500000E+00  0.1200000E-01
    1       -3.723026   1.000000
    2       -0.603060   1.000000
    3        2.204458   1.000000
    4        3.741778   1.000000
    5        8.697081  -0.000000
    6        9.150100  -0.000000
    7       11.504934   0.000000
    8       11.894956   0.000000
 
 -0.3500000E+00  0.2500000E+00  0.1500000E+00  0.1200000E-01
    1       -3.394774   1.000000
    2       -1.059695   1.000000
    3        2.248624   1.000000
    4        3.544841   1.000000
    5        8.394338  -0.000000
    6        9.348087  -0.000000
    7       11.672191   0.000000
    8       12.453522   0.000000
 
 -0.2500000E+00  0.2500000E+00  0.1500000E+00  0.1200000E-01
    1       -3.950916   1.000000
    2       -0.262646   1.000000
    3        2.462488   1.000000
    4        3.629933   1.000000
    5        8.231122  -0.000000
    6        9.689177  -0.000000
    7       10.632336  -0.000000
    8       11.766794   0.000000
 
 -0.1500000E+00  0.2500000E+00  0.1500000E+00  0.1200000E-01
    1       -4.677519   1.000000
    2        0.992832   1.000000
    3        2.878658   1.000000
    4        3.959671   1.000000
    5        8.000697  -0.000000
    6        9.524869  -0.000000
    7       10.107838  -0.000000
    8       11.619646   0.000000
 
  0.3500000E+00  0.3500000E+00  0.1500000E+00  0.6000000E-02
    1       -4.754546   1.000000
    2        1.072316   1.000000
    3        3.377713   1.000000
    4        3.749631   1.000000
    5        7.443812  -0.000000
    6        9.367170  -0.000000
    7       10.756312  -0.000000
    8       11.289902   0.000000
 
  0.4500000E+00  0.3500000E+00  0.1500000E+00  0.1200000E-01
    1       -4.196209   1.000000
    2        0.354337   1.000000
    3        2.564565   1.000000
    4        3.426724   1.000000
    5        7.767092  -0.000000
    6        9.007883  -0.000000
    7       10.755887  -0.000000
    8       12.601738   0.000000
 
 -0.4500000E+00  0.3500000E+00  0.1500000E+00  0.1200000E-01
    1       -3.474802   1.000000
    2       -0.522792   1.000000
    3        1.963230   1.000000
    4        2.988561   1.000000
    5        8.500357  -0.000000
    6        9.488112  -0.000000
    7       10.336270  -0.000000
    8       13.538778   0.000000
 
 -0.3500000E+00  0.3500000E+00  0.1500000E+00  0.1200000E-01
    1       -2.902974   1.000000
    2       -1.181615   1.000000
    3        1.659744   1.000000
    4        2.845048   1.000000
    5        8.764354  -0.000000
    6        9.874871  -0.000000
    7       11.284284   0.000000
    8       12.532976   0.000000
 
 -0.2500000E+00  0.3500000E+00  0.1500000E+00  0.1200000E-01
    1       -3.263076   1.000000
    2       -0.773204   1.000000
    3        1.661719   1.000000
    4        3.071405   1.000000
    5        9.150699  -0.000000
    6        9.562032  -0.000000
    7       10.618214  -0.000000
    8       13.432455   0.000000
 
 -0.1500000E+00  0.3500000E+00  0.1500000E+00  0.1200000E-01
    1       -3.994198   1.000000
    2        0.024139   1.000000
    3        2.162596   1.000000
    4        3.538166   1.000000
    5        8.673822  -0.000000
    6        9.659399  -0.000000
    7        9.909051  -0.000000
    8       12.496142   0.000000
 
  0.4500000E+00  0.4500000E+00  0.1500000E+00  0.6000000E-02
    1       -3.713837   1.000000
    2       -0.270390   1.000000
    3        2.425507   1.000000
    4        3.235110   1.000000
    5        6.928123  -0.000000
    6        8.442813  -0.000000
    7       12.596436   0.000000
    8       12.767904   0.000000
 
 -0.4500000E+00  0.4500000E+00  0.1500000E+00  0.1200000E-01
    1       -3.043999   1.000000
    2       -0.999945   1.000000
    3        2.160355   1.000000
    4        2.703736   1.000000
    5        7.483981  -0.000000
    6        8.272334  -0.000000
    7       12.310987   0.000000
    8       14.459271   0.000000
 
 -0.3500000E+00  0.4500000E+00  0.1500000E+00  0.1200000E-01
    1       -2.336287   1.000000
    2       -1.666390   1.000000
    3        1.827248   1.000000
    4        2.316476   1.000000
    5        8.320314  -0.000000
    6        9.091181  -0.000000
    7       11.879171   0.000000
    8       12.771482   0.000000
 
 -0.2500000E+00  0.4500000E+00  0.1500000E+00  0.1200000E-01
    1       -2.629327   1.000000
    2       -1.364501   1.000000
    3        1.506834   1.000000
    4        2.643001   1.000000
    5        8.683165  -0.000000
    6       10.545421  -0.000000
    7       11.218792   0.000000
    8       11.654216   0.000000
 
 -0.1500000E+00  0.4500000E+00  0.1500000E+00  0.1200000E-01
    1       -3.299916   1.000000
    2       -0.917915   1.000000
    3        1.906641   1.000000
    4        3.231576   1.000000
    5        8.921436  -0.000000
    6        9.227295  -0.000000
    7       11.454824   0.000000
    8       12.672313   0.000000
 
 -0.4500000E+00 -0.4500000E+00  0.1500000E+00  0.6000000E-02
    1       -2.455938   1.000000
    2       -1.680263   1.000000
    3        2.012867   1.000000
    4        3.009191   1.000000
    5        6.681328  -0.000000
    6        8.040956  -0.000000
    7       14.290844   0.000000
    8       14.497669   0.000000
 
 -0.3500000E+00 -0.4500000E+00  0.1500000E+00  0.1200000E-01
    1       -2.398339   1.000000
    2       -1.688621   1.000000
    3        2.081286   1.000000
    4        2.556326   1.000000
    5        7.435629  -0.000000
    6        8.117506  -0.000000
    7       13.165693   0.000000
    8       14.073554   0.000000
 
 -0.2500000E+00 -0.4500000E+00  0.1500000E+00  0.1200000E-01
    1       -2.912039   1.000000
    2       -1.090801   1.000000
    3        1.856063   1.000000
    4        2.562749   1.000000
    5        8.384358  -0.000000
    6        9.226017  -0.000000
    7       11.069489  -0.000000
    8       13.709588   0.000000
 
 -0.3500000E+00 -0.3500000E+00  0.1500000E+00  0.6000000E-02
    1       -3.101849   1.000000
    2       -0.980638   1.000000
    3        2.148640   1.000000
    4        3.084323   1.000000
    5        6.764027  -0.000000
    6        8.171584  -0.000000
    7       13.559829   0.000000
    8       13.562364   0.000000
 
 -0.2500000E+00 -0.3500000E+00  0.1500000E+00  0.1200000E-01
    1       -3.648619   1.000000
    2       -0.311096   1.000000
    3        2.322351   1.000000
    4        2.997921   1.000000
    5        7.595935  -0.000000
    6        8.575691  -0.000000
    7       11.508171   0.000000
    8       13.587367   0.000000
 
 -0.2500000E+00 -0.2500000E+00  0.1500000E+00  0.6000000E-02
    1       -4.268149   1.000000
    2        0.417879   1.000000
    3        2.840672   1.000000
    4        3.458621   1.000000
    5        7.154683  -0.000000
    6        8.853409  -0.000000
    7       11.651691   0.000000
    8       12.014298   0.000000
 
  0.2500000E+00  0.2500000E+00  0.2500000E+00  0.2000000E-02
    1       -5.422590   1.000000
    2        1.753462   1.000000
    3        4.919277   1.000000
    4        4.919277   1.000000
    5        7.660660  -0.000000
    6        9.242013  -0.000000
    7        9.242013  -0.000000
    8       13.144789   0.000000
 
  0.3500000E+00  0.2500000E+00  0.2500000E+00  0.6000000E-02
    1       -5.097157   1.000000
    2        1.190015   1.000000
    3        3.754378   1.000000
    4        4.966852   1.000000
    5        8.206539  -0.000000
    6        9.276217  -0.000000
    7        9.522240  -0.000000
    8       12.084815   0.000000
 
  0.4500000E+00  0.2500000E+00  0.2500000E+00  0.6000000E-02
    1       -4.543745   1.000000
    2        0.602417   1.000000
    3        2.403455   1.000000
    4        4.593984   1.000000
    5        8.400983  -0.000000
    6       10.039886  -0.000000
    7       10.300732  -0.000000
    8       11.704554   0.000000
 
 -0.4500000E+00  0.2500000E+00  0.2500000E+00  0.6000000E-02
    1       -3.826773   1.000000
    2       -0.289006   1.000000
    3        1.752640   1.000000
    4        4.112351   1.000000
    5        7.931078  -0.000000
    6       10.888216  -0.000000
    7       11.146107  -0.000000
    8       12.325571   0.000000
 
 -0.3500000E+00  0.2500000E+00  0.2500000E+00  0.6000000E-02
    1       -3.241987   1.000000
    2       -1.062752   1.000000
    3        1.775480   1.000000
    4        3.713562   1.000000
    5        7.508953  -0.000000
    6       11.247390   0.000000
    7       11.351361   0.000000
    8       12.222847   0.000000
 
 -0.2500000E+00  0.2500000E+00  0.2500000E+00  0.6000000E-02
    1       -3.533759   1.000000
    2       -0.691775   1.000000
    3        2.176425   1.000000
    4        3.483164   1.000000
    5        7.282991  -0.000000
    6       10.221548  -0.000000
    7       11.436741   0.000000
    8       11.718674   0.000000
 
  0.3500000E+00  0.3500000E+00  0.2500000E+00  0.6000000E-02
    1       -4.862618   1.000000
    2        0.651925   1.000000
    3        4.190674   1.000000
    4        4.256278   1.000000
    5        7.997501  -0.000000
    6        9.094820  -0.000000
    7       10.004590  -0.000000
    8       11.548149   0.000000
 
  0.4500000E+00  0.3500000E+00  0.2500000E+00  0.1200000E-01
    1       -4.396505   1.000000
    2        0.184698   1.000000
    3        2.885570   1.000000
    4        4.146131   1.000000
    5        8.460995  -0.000000
    6        9.184946  -0.000000
    7       10.769516  -0.000000
    8       11.160444  -0.000000
 
 -0.4500000E+00  0.3500000E+00  0.2500000E+00  0.1200000E-01
    1       -3.738466   1.000000
    2       -0.330242   1.000000
    3        1.810309   1.000000
    4        3.667730   1.000000
    5        8.661842  -0.000000
    6        9.710827  -0.000000
    7       10.934384  -0.000000
    8       12.372675   0.000000
 