<?xml version="1.0" encoding="ISO-8859-1"?>
<modeling>
 <generator>
  <i name="program" type="string">vasp </i>
  <i name="version" type="string">5.4.4.18Apr17-6-g9f103f2a35  </i>
  <i name="subversion" type="string">(build May 20 2018 16:52:39) complex            parallel </i>
  <i name="platform" type="string">LinuxIFC </i>
  <i name="date" type="string">2022 10 21 </i>
  <i name="time" type="string">20:54:51 </i>
 </generator>
 <incar>
  <i type="string" name="SYSTEM"> Si</i>
  <i type="string" name="PREC">normal</i>
  <i type="int" name="IBRION">     2</i>
  <i name="EDIFF">      0.00000100</i>
  <i type="int" name="NSW">    50</i>
  <i type="int" name="ISIF">     3</i>
  <v name="RWIGS">      1.31200000</v>
  <i type="logical" name="LWAVE"> F  </i>
  <v type="int" name="KPOINT_BSE">    -1     0     0     0</v>
 </incar>
 <structure name="primitive_cell" >
  <crystal>
   <varray name="basis" >
    <v>       1.95000000       1.95000000       0.00000000 </v>
    <v>       0.00000000       1.95000000       1.95000000 </v>
    <v>       1.95000000       0.00000000       1.95000000 </v>
   </varray>
   <i name="volume">     14.82975000 </i>
   <varray name="rec_basis" >
    <v>       0.25641026       0.25641026      -0.25641026 </v>
    <v>      -0.25641026       0.25641026       0.25641026 </v>
    <v>       0.25641026      -0.25641026       0.25641026 </v>
   </varray>
  </crystal>
  <varray name="positions" >
   <v>       0.00000000       0.00000000       0.00000000 </v>
   <v>       0.25000000       0.25000000       0.25000000 </v>
  </varray>
 </structure>
 <varray name="primitive_index" >
  <v type="int" >        1 </v>
  <v type="int" >        2 </v>
 </varray>
 <kpoints>
  <generation param="Monkhorst-Pack">
   <v type="int" name="divisions">      10       10       10 </v>
   <v name="usershift">      0.00000000       0.00000000       0.00000000 </v>
   <v name="genvec1">      0.10000000       0.00000000       0.00000000 </v>
   <v name="genvec2">      0.00000000       0.10000000       0.00000000 </v>
   <v name="genvec3">      0.00000000       0.00000000       0.10000000 </v>
   <v name="shift">      0.50000000       0.50000000       0.50000000 </v>
  </generation>
  <varray name="kpointlist" >
   <v>       0.05000000       0.05000000       0.05000000 </v>
   <v>       0.15000000       0.05000000       0.05000000 </v>
   <v>       0.25000000       0.05000000       0.05000000 </v>
   <v>       0.35000000       0.05000000       0.05000000 </v>
   <v>       0.45000000       0.05000000       0.05000000 </v>
   <v>      -0.45000000       0.05000000       0.05000000 </v>
   <v>      -0.35000000       0.05000000       0.05000000 </v>
   <v>      -0.25000000       0.05000000       0.05000000 </v>
   <v>      -0.15000000       0.05000000       0.05000000 </v>
   <v>      -0.05000000       0.05000000       0.05000000 </v>
   <v>       0.15000000       0.15000000       0.05000000 </v>
   <v>       0.25000000       0.15000000       0.05000000 </v>
   <v>       0.35000000       0.15000000       0.05000000 </v>
   <v>       0.45000000       0.15000000       0.05000000 </v>
   <v>      -0.45000000       0.15000000       0.05000000 </v>
   <v>      -0.35000000       0.15000000       0.05000000 </v>
   <v>      -0.25000000       0.15000000       0.05000000 </v>
   <v>      -0.15000000       0.15000000       0.05000000 </v>
   <v>      -0.05000000       0.15000000       0.05000000 </v>
   <v>       0.25000000       0.25000000       0.05000000 </v>
   <v>       0.35000000       0.25000000       0.05000000 </v>
   <v>       0.45000000       0.25000000       0.05000000 </v>
   <v>      -0.45000000       0.25000000       0.05000000 </v>
   <v>      -0.35000000       0.25000000       0.05000000 </v>
   <v>      -0.25000000       0.25000000       0.05000000 </v>
   <v>      -0.15000000       0.25000000       0.05000000 </v>
   <v>      -0.05000000       0.25000000       0.05000000 </v>
   <v>       0.35000000       0.35000000       0.05000000 </v>
   <v>       0.45000000       0.35000000       0.05000000 </v>
   <v>      -0.45000000       0.35000000       0.05000000 </v>
   <v>      -0.35000000       0.35000000       0.05000000 </v>
   <v>      -0.25000000       0.35000000       0.05000000 </v>
   <v>      -0.15000000       0.35000000       0.05000000 </v>
   <v>      -0.05000000       0.35000000       0.05000000 </v>
   <v>       0.45000000       0.45000000       0.05000000 </v>
   <v>      -0.45000000       0.45000000       0.05000000 </v>
   <v>      -0.35000000       0.45000000       0.05000000 </v>
   <v>      -0.25000000       0.45000000       0.05000000 </v>
   <v>      -0.15000000       0.45000000       0.05000000 </v>
   <v>      -0.05000000       0.45000000       0.05000000 </v>
   <v>      -0.45000000      -0.45000000       0.05000000 </v>
   <v>      -0.35000000      -0.45000000       0.05000000 </v>
   <v>      -0.25000000      -0.45000000       0.05000000 </v>
   <v>      -0.15000000      -0.45000000       0.05000000 </v>
   <v>      -0.35000000      -0.35000000       0.05000000 </v>
   <v>      -0.25000000      -0.35000000       0.05000000 </v>
   <v>      -0.15000000      -0.35000000       0.05000000 </v>
   <v>      -0.25000000      -0.25000000       0.05000000 </v>
   <v>      -0.15000000      -0.25000000       0.05000000 </v>
   <v>      -0.15000000      -0.15000000       0.05000000 </v>
   <v>       0.15000000       0.15000000       0.15000000 </v>
   <v>       0.25000000       0.15000000       0.15000000 </v>
   <v>       0.35000000       0.15000000       0.15000000 </v>
   <v>       0.45000000       0.15000000       0.15000000 </v>
   <v>      -0.45000000       0.15000000       0.15000000 </v>
   <v>      -0.35000000       0.15000000       0.15000000 </v>
   <v>      -0.25000000       0.15000000       0.15000000 </v>
   <v>      -0.15000000       0.15000000       0.15000000 </v>
   <v>       0.25000000       0.25000000       0.15000000 </v>
   <v>       0.35000000       0.25000000       0.15000000 </v>
   <v>       0.45000000       0.25000000       0.15000000 </v>
   <v>      -0.45000000       0.25000000       0.15000000 </v>
   <v>      -0.35000000       0.25000000       0.15000000 </v>
   <v>      -0.25000000       0.25000000       0.15000000 </v>
   <v>      -0.15000000       0.25000000       0.15000000 </v>
   <v>       0.35000000       0.35000000       0.15000000 </v>
   <v>       0.45000000       0.35000000       0.15000000 </v>
   <v>      -0.45000000       0.35000000       0.15000000 </v>
   <v>      -0.35000000       0.35000000       0.15000000 </v>
   <v>      -0.25000000       0.35000000       0.15000000 </v>
   <v>      -0.15000000       0.35000000       0.15000000 </v>
   <v>       0.45000000       0.45000000       0.15000000 </v>
   <v>      -0.45000000       0.45000000       0.15000000 </v>
   <v>      -0.35000000       0.45000000       0.15000000 </v>
   <v>      -0.25000000       0.45000000       0.15000000 </v>
   <v>      -0.15000000       0.45000000       0.15000000 </v>
   <v>      -0.45000000      -0.45000000       0.15000000 </v>
   <v>      -0.35000000      -0.45000000       0.15000000 </v>
   <v>      -0.25000000      -0.45000000       0.15000000 </v>
   <v>      -0.35000000      -0.35000000       0.15000000 </v>
   <v>      -0.25000000      -0.35000000       0.15000000 </v>
   <v>      -0.25000000      -0.25000000       0.15000000 </v>
   <v>       0.25000000       0.25000000       0.25000000 </v>
   <v>       0.35000000       0.25000000       0.25000000 </v>
   <v>       0.45000000       0.25000000       0.25000000 </v>
   <v>      -0.45000000       0.25000000       0.25000000 </v>
   <v>      -0.35000000       0.25000000       0.25000000 </v>
   <v>      -0.25000000       0.25000000       0.25000000 </v>
   <v>       0.35000000       0.35000000       0.25000000 </v>
   <v>       0.45000000       0.35000000       0.25000000 </v>
   <v>      -0.45000000       0.35000000       0.25000000 </v>
   <v>      -0.35000000       0.35000000       0.25000000 </v>
   <v>      -0.25000000       0.35000000       0.25000000 </v>
   <v>       0.45000000       0.45000000       0.25000000 </v>
   <v>      -0.45000000       0.45000000       0.25000000 </v>
   <v>      -0.35000000       0.45000000       0.25000000 </v>
   <v>      -0.25000000       0.45000000       0.25000000 </v>
   <v>      -0.45000000      -0.45000000       0.25000000 </v>
   <v>      -0.35000000      -0.45000000       0.25000000 </v>
   <v>      -0.35000000      -0.35000000       0.25000000 </v>
   <v>       0.35000000       0.35000000       0.35000000 </v>
   <v>       0.45000000       0.35000000       0.35000000 </v>
   <v>      -0.45000000       0.35000000       0.35000000 </v>
   <v>      -0.35000000       0.35000000       0.35000000 </v>
   <v>       0.45000000       0.45000000       0.35000000 </v>
   <v>      -0.45000000       0.45000000       0.35000000 </v>
   <v>      -0.35000000       0.45000000       0.35000000 </v>
   <v>      -0.45000000      -0.45000000       0.35000000 </v>
   <v>       0.45000000       0.45000000       0.45000000 </v>
   <v>      -0.45000000       0.45000000       0.45000000 </v>
  </varray>
  <varray name="weights" >
   <v>       0.00200000 </v>
   <v>       0.00600000 </v>
   <v>       0.00600000 </v>
   <v>       0.00600000 </v>
   <v>       0.00600000 </v>
   <v>       0.00600000 </v>
   <v>       0.00600000 </v>
   <v>       0.00600000 </v>
   <v>       0.00600000 </v>
   <v>       0.00600000 </v>
   <v>       0.00600000 </v>
   <v>       0.01200000 </v>
   <v>       0.01200000 </v>
   <v>       0.01200000 </v>
   <v>       0.01200000 </v>
   <v>       0.01200000 </v>
   <v>       0.01200000 </v>
   <v>       0.01200000 </v>
   <v>       0.01200000 </v>
   <v>       0.00600000 </v>
   <v>       0.01200000 </v>
   <v>       0.01200000 </v>
   <v>       0.01200000 </v>
   <v>       0.01200000 </v>
   <v>       0.01200000 </v>
   <v>       0.01200000 </v>
   <v>       0.01200000 </v>
   <v>       0.00600000 </v>
   <v>       0.01200000 </v>
   <v>       0.01200000 </v>
   <v>       0.01200000 </v>
   <v>       0.01200000 </v>
   <v>       0.01200000 </v>
   <v>       0.01200000 </v>
   <v>       0.00600000 </v>
   <v>       0.01200000 </v>
   <v>       0.01200000 </v>
   <v>       0.01200000 </v>
   <v>       0.01200000 </v>
   <v>       0.01200000 </v>
   <v>       0.00600000 </v>
   <v>       0.01200000 </v>
   <v>       0.01200000 </v>
   <v>       0.01200000 </v>
   <v>       0.00600000 </v>
   <v>       0.01200000 </v>
   <v>       0.01200000 </v>
   <v>       0.00600000 </v>
   <v>       0.01200000 </v>
   <v>       0.00600000 </v>
   <v>       0.00200000 </v>
   <v>       0.00600000 </v>
   <v>       0.00600000 </v>
   <v>       0.00600000 </v>
   <v>       0.00600000 </v>
   <v>       0.00600000 </v>
   <v>       0.00600000 </v>
   <v>       0.00600000 </v>
   <v>       0.00600000 </v>
   <v>       0.01200000 </v>
   <v>       0.01200000 </v>
   <v>       0.01200000 </v>
   <v>       0.01200000 </v>
   <v>       0.01200000 </v>
   <v>       0.01200000 </v>
   <v>       0.00600000 </v>
   <v>       0.01200000 </v>
   <v>       0.01200000 </v>
   <v>       0.01200000 </v>
   <v>       0.01200000 </v>
   <v>       0.01200000 </v>
   <v>       0.00600000 </v>
   <v>       0.01200000 </v>
   <v>       0.01200000 </v>
   <v>       0.01200000 </v>
   <v>       0.01200000 </v>
   <v>       0.00600000 </v>
   <v>       0.01200000 </v>
   <v>       0.01200000 </v>
   <v>       0.00600000 </v>
   <v>       0.01200000 </v>
   <v>       0.00600000 </v>
   <v>       0.00200000 </v>
   <v>       0.00600000 </v>
   <v>       0.00600000 </v>
   <v>       0.00600000 </v>
   <v>       0.00600000 </v>
   <v>       0.00600000 </v>
   <v>       0.00600000 </v>
   <v>       0.01200000 </v>
   <v>       0.01200000 </v>
   <v>       0.01200000 </v>
   <v>       0.01200000 </v>
   <v>       0.00600000 </v>
   <v>       0.01200000 </v>
   <v>       0.01200000 </v>
   <v>       0.01200000 </v>
   <v>       0.00600000 </v>
   <v>       0.01200000 </v>
   <v>       0.00600000 </v>
   <v>       0.00200000 </v>
   <v>       0.00600000 </v>
   <v>       0.00600000 </v>
   <v>       0.00600000 </v>
   <v>       0.00600000 </v>
   <v>       0.01200000 </v>
   <v>       0.01200000 </v>
   <v>       0.00600000 </v>
   <v>       0.00200000 </v>
   <v>       0.00600000 </v>
  </varray>
 </kpoints>
 <parameters>
  <separator name="general" >
   <i type="string" name="SYSTEM">Si</i>
   <i type="logical" name="LCOMPAT"> F  </i>
  </separator>
  <separator name="electronic" >
   <i type="string" name="PREC">normal</i>
   <i name="ENMAX">    245.43500000</i>
   <i name="ENAUG">    322.06900000</i>
   <i name="EDIFF">      0.00000100</i>
   <i type="int" name="IALGO">    38</i>
   <i type="int" name="IWAVPR">    11</i>
   <i type="int" name="NBANDS">     8</i>
   <i name="NELECT">      8.00000000</i>
   <i type="int" name="TURBO">     0</i>
   <i type="int" name="IRESTART">     0</i>
   <i type="int" name="NREBOOT">     0</i>
   <i type="int" name="NMIN">     0</i>
   <i name="EREF">      0.00000000</i>
   <separator name="electronic smearing" >
    <i type="int" name="ISMEAR">     1</i>
    <i name="SIGMA">      0.20000000</i>
    <i name="KSPACING">      0.50000000</i>
    <i type="logical" name="KGAMMA"> T  </i>
   </separator>
   <separator name="electronic projectors" >
    <i type="logical" name="LREAL"> F  </i>
    <v name="ROPT">      0.00000000</v>
    <i type="int" name="LMAXPAW">  -100</i>
    <i type="int" name="LMAXMIX">     2</i>
    <i type="logical" name="NLSPLINE"> F  </i>
   </separator>
   <separator name="electronic startup" >
    <i type="int" name="ISTART">     0</i>
    <i type="int" name="ICHARG">     2</i>
    <i type="int" name="INIWAV">     1</i>
   </separator>
   <separator name="electronic spin" >
    <i type="int" name="ISPIN">     1</i>
    <i type="logical" name="LNONCOLLINEAR"> F  </i>
    <v name="MAGMOM">      1.00000000      1.00000000</v>
    <i name="NUPDOWN">     -1.00000000</i>
    <i type="logical" name="LSORBIT"> F  </i>
    <v name="SAXIS">      0.00000000      0.00000000      1.00000000</v>
    <i type="logical" name="LSPIRAL"> F  </i>
    <v name="QSPIRAL">      0.00000000      0.00000000      0.00000000</v>
    <i type="logical" name="LZEROZ"> F  </i>
   </separator>
   <separator name="electronic exchange-correlation" >
    <i type="logical" name="LASPH"> F  </i>
    <i type="logical" name="LMETAGGA"> F  </i>
   </separator>
   <separator name="electronic convergence" >
    <i type="int" name="NELM">    60</i>
    <i type="int" name="NELMDL">    -5</i>
    <i type="int" name="NELMIN">     2</i>
    <i name="ENINI">    245.43500000</i>
    <separator name="electronic convergence detail" >
     <i type="logical" name="LDIAG"> T  </i>
     <i type="logical" name="LSUBROT"> F  </i>
     <i name="WEIMIN">      0.00100000</i>
     <i name="EBREAK">      0.00000003</i>
     <i name="DEPER">      0.30000000</i>
     <i type="int" name="NRMM">     4</i>
     <i name="TIME">      0.40000000</i>
    </separator>
   </separator>
   <separator name="electronic mixer" >
    <i name="AMIX">      0.40000000</i>
    <i name="BMIX">      1.00000000</i>
    <i name="AMIN">      0.10000000</i>
    <i name="AMIX_MAG">      1.60000000</i>
    <i name="BMIX_MAG">      1.00000000</i>
    <separator name="electronic mixer details" >
     <i type="int" name="IMIX">     4</i>
     <i type="logical" name="MIXFIRST"> F  </i>
     <i type="int" name="MAXMIX">   -45</i>
     <i name="WC">    100.00000000</i>
     <i type="int" name="INIMIX">     1</i>
     <i type="int" name="MIXPRE">     1</i>
     <i type="int" name="MREMOVE">     5</i>
    </separator>
   </separator>
   <separator name="electronic dipolcorrection" >
    <i type="logical" name="LDIPOL"> F  </i>
    <i type="logical" name="LMONO"> F  </i>
    <i type="int" name="IDIPOL">     0</i>
    <i name="EPSILON">      1.00000000</i>
    <v name="DIPOL">   -100.00000000   -100.00000000   -100.00000000</v>
    <i name="EFIELD">      0.00000000</i>
   </separator>
  </separator>
  <separator name="grids" >
   <i type="int" name="NGX">    12</i>
   <i type="int" name="NGY">    12</i>
   <i type="int" name="NGZ">    12</i>
   <i type="int" name="NGXF">    24</i>
   <i type="int" name="NGYF">    24</i>
   <i type="int" name="NGZF">    24</i>
   <i type="logical" name="ADDGRID"> F  </i>
  </separator>
  <separator name="ionic" >
   <i type="int" name="NSW">    50</i>
   <i type="int" name="IBRION">     2</i>
   <i type="int" name="MDALGO">     0</i>
   <i type="int" name="ISIF">     3</i>
   <i name="PSTRESS">      0.00000000</i>
   <i name="EDIFFG">      0.00001000</i>
   <i type="int" name="NFREE">     1</i>
   <i name="POTIM">      0.50000000</i>
   <i name="SMASS">     -3.00000000</i>
   <i name="SCALEE">      1.00000000</i>
  </separator>
  <separator name="ionic md" >
   <i name="TEBEG">      0.00010000</i>
   <i name="TEEND">      0.00010000</i>
   <i type="int" name="NBLOCK">     1</i>
   <i type="int" name="KBLOCK">    50</i>
   <i type="int" name="NPACO">   256</i>
   <i name="APACO">     16.00000000</i>
  </separator>
  <separator name="symmetry" >
   <i type="int" name="ISYM">     2</i>
   <i name="SYMPREC">      0.00001000</i>
  </separator>
  <separator name="dos" >
   <i type="int" name="LORBIT">     0</i>
   <v name="RWIGS">      1.31200000</v>
   <i type="int" name="NEDOS">   301</i>
   <i name="EMIN">     10.00000000</i>
   <i name="EMAX">    -10.00000000</i>
   <i name="EFERMI">      0.00000000</i>
  </separator>
  <separator name="writing" >
   <i type="int" name="NWRITE">     2</i>
   <i type="logical" name="LWAVE"> F  </i>
   <i type="logical" name="LDOWNSAMPLE"> F  </i>
   <i type="logical" name="LCHARG"> T  </i>
   <i type="logical" name="LPARD"> F  </i>
   <i type="logical" name="LVTOT"> F  </i>
   <i type="logical" name="LVHAR"> F  </i>
   <i type="logical" name="LELF"> F  </i>
   <i type="logical" name="LOPTICS"> F  </i>
   <v name="STM">      0.00000000      0.00000000      0.00000000      0.00000000      0.00000000      0.00000000      0.00000000</v>
  </separator>
  <separator name="performance" >
   <i type="int" name="NPAR">     1</i>
   <i type="int" name="NSIM">     4</i>
   <i type="int" name="NBLK">    -1</i>
   <i type="logical" name="LPLANE"> T  </i>
   <i type="logical" name="LSCALAPACK"> T  </i>
   <i type="logical" name="LSCAAWARE"> F  </i>
   <i type="logical" name="LSCALU"> F  </i>
   <i type="logical" name="LASYNC"> F  </i>
   <i type="logical" name="LORBITALREAL"> F  </i>
  </separator>
  <separator name="miscellaneous" >
   <i type="int" name="IDIOT">     3</i>
   <i type="int" name="ISPECIAL">     0</i>
   <i type="logical" name="LMUSIC"> F  </i>
   <v name="POMASS">     28.08500000</v>
   <v name="DARWINR">      0.00000000</v>
   <v name="DARWINV">      1.00000000</v>
   <i type="logical" name="LCORR"> T  </i>
  </separator>
  <i type="logical" name="GGA_COMPAT"> T  </i>
  <i type="logical" name="LBERRY"> F  </i>
  <i type="int" name="ICORELEVEL">     0</i>
  <i type="logical" name="LDAU"> F  </i>
  <i type="int" name="I_CONSTRAINED_M">     0</i>
  <separator name="electronic exchange-correlation" >
   <i type="string" name="GGA">--</i>
   <i type="int" name="VOSKOWN">     0</i>
   <i type="logical" name="LHFCALC"> F  </i>
   <i type="string" name="PRECFOCK"></i>
   <i type="logical" name="LSYMGRAD"> F  </i>
   <i type="logical" name="LHFONE"> F  </i>
   <i type="logical" name="LRHFCALC"> F  </i>
   <i type="logical" name="LTHOMAS"> F  </i>
   <i type="logical" name="LMODELHF"> F  </i>
   <i name="ENCUT4O">     -1.00000000</i>
   <i type="int" name="EXXOEP">     0</i>
   <i type="int" name="FOURORBIT">     0</i>
   <i name="AEXX">      0.00000000</i>
   <i name="HFALPHA">      0.00000000</i>
   <i name="MCALPHA">      0.00000000</i>
   <i name="ALDAX">      1.00000000</i>
   <i name="AGGAX">      1.00000000</i>
   <i name="ALDAC">      1.00000000</i>
   <i name="AGGAC">      1.00000000</i>
   <i type="int" name="NKREDX">     1</i>
   <i type="int" name="NKREDY">     1</i>
   <i type="int" name="NKREDZ">     1</i>
   <i type="logical" name="SHIFTRED"> F  </i>
   <i type="logical" name="ODDONLY"> F  </i>
   <i type="logical" name="EVENONLY"> F  </i>
   <i type="int" name="LMAXFOCK">     0</i>
   <i type="int" name="NMAXFOCKAE">     0</i>
   <i type="logical" name="LFOCKAEDFT"> F  </i>
   <i name="HFSCREEN">      0.00000000</i>
   <i name="HFSCREENC">      0.00000000</i>
   <i type="int" name="NBANDSGWLOW">     0</i>
  </separator>
  <separator name="vdW DFT" >
   <i type="logical" name="LUSE_VDW"> F  </i>
   <i name="Zab_VDW">     -0.84910000</i>
   <i name="PARAM1">      0.12340000</i>
   <i name="PARAM2">      1.00000000</i>
   <i name="PARAM3">      0.00000000</i>
  </separator>
  <separator name="model GW" >
   <i type="int" name="MODEL_GW">     0</i>
   <i name="MODEL_EPS0">      4.44892500</i>
   <i name="MODEL_ALPHA">      1.00000000</i>
  </separator>
  <separator name="linear response parameters" >
   <i type="logical" name="LEPSILON"> F  </i>
   <i type="logical" name="LRPA"> F  </i>
   <i type="logical" name="LNABLA"> F  </i>
   <i type="logical" name="LVEL"> F  </i>
   <i type="int" name="KINTER">     0</i>
   <i name="CSHIFT">      0.10000000</i>
   <i name="OMEGAMAX">     -1.00000000</i>
   <i name="DEG_THRESHOLD">      0.00200000</i>
   <i name="RTIME">     -0.10000000</i>
   <i name="WPLASMAI">      0.00000000</i>
   <v name="DFIELD">      0.00000000      0.00000000      0.00000000</v>
   <v name="WPLASMA">      0.00000000      0.00000000      0.00000000      0.00000000      0.00000000      0.00000000      0.00000000      0.00000000      0.00000000</v>
  </separator>
  <separator name="orbital magnetization" >
   <i type="logical" name="NUCIND"> F  </i>
   <v name="MAGPOS">      0.00000000      0.00000000      0.00000000</v>
   <i type="logical" name="LNICSALL"> T  </i>
   <i type="logical" name="ORBITALMAG"> F  </i>
   <i type="logical" name="LMAGBLOCH"> F  </i>
   <i type="logical" name="LCHIMAG"> F  </i>
   <i type="logical" name="LGAUGE"> T  </i>
   <i type="int" name="MAGATOM">     0</i>
   <v name="MAGDIPOL">      0.00000000      0.00000000      0.00000000</v>
   <v name="AVECCONST">      0.00000000      0.00000000      0.00000000</v>
  </separator>
  <separator name="response functions" >
   <i type="logical" name="LADDER"> F  </i>
   <i type="logical" name="LRPAFORCE"> F  </i>
   <i type="logical" name="LFXC"> F  </i>
   <i type="logical" name="LHARTREE"> T  </i>
   <i type="int" name="IBSE">     0</i>
   <v type="int" name="KPOINT">    -1     0     0     0</v>
   <i type="logical" name="LTCTE"> F  </i>
   <i type="logical" name="LTETE"> F  </i>
   <i type="logical" name="LTRIPLET"> F  </i>
   <i type="logical" name="LFXCEPS"> F  </i>
   <i type="logical" name="LFXHEG"> F  </i>
   <i type="int" name="NATURALO">     2</i>
   <i type="logical" name="L2ORDER"> F  </i>
   <i type="logical" name="LMP2LT"> F  </i>
   <i type="logical" name="LUSEW"> F  </i>
   <i name="ENCUTGW">     -2.00000000</i>
   <i name="ENCUTGWSOFT">     -2.00000000</i>
   <i name="ENCUTLF">     -1.00000000</i>
   <i type="int" name="LMAXMP2">    -1</i>
   <i name="SCISSOR">      0.00000000</i>
   <i type="int" name="NOMEGA">     0</i>
   <i type="int" name="NOMEGAR">     0</i>
   <i type="int" name="NBANDSGW">    -1</i>
   <i type="int" name="NBANDSO">    -1</i>
   <i type="int" name="NBANDSV">    -1</i>
   <i type="int" name="NELM">     1</i>
   <i type="int" name="NELMHF">     1</i>
   <i type="int" name="DIM">     3</i>
   <i type="int" name="ANTIRES">     0</i>
   <i name="OMEGAMAX">    -30.00000000</i>
   <i name="OMEGAMIN">    -30.00000000</i>
   <i name="OMEGATL">   -200.00000000</i>
   <i type="int" name="OMEGAGRID">   140</i>
   <i name="CSHIFT">     -0.10000000</i>
   <i type="logical" name="SELFENERGY"> F  </i>
   <i type="logical" name="LSPECTRAL"> F  </i>
   <i type="logical" name="LSPECTRALGW"> F  </i>
   <i type="logical" name="LSINGLES"> F  </i>
   <i type="logical" name="LFERMIGW"> F  </i>
   <i type="logical" name="ODDONLYGW"> F  </i>
   <i type="logical" name="EVENONLYGW"> F  </i>
   <i type="int" name="NKREDLFX">     1</i>
   <i type="int" name="NKREDLFY">     1</i>
   <i type="int" name="NKREDLFZ">     1</i>
   <i type="int" name="MAXMEM">  2800</i>
   <i type="int" name="TELESCOPE">     0</i>
   <i type="int" name="TAUPAR">     1</i>
   <i type="int" name="OMEGAPAR">    -1</i>
   <i name="LAMBDA">      1.00000000</i>
  </separator>
  <separator name="External order field" >
   <i name="OFIELD_KAPPA">      0.00000000</i>
   <v name="OFIELD_K">      0.00000000      0.00000000      0.00000000</v>
   <i name="OFIELD_Q6_NEAR">      0.00000000</i>
   <i name="OFIELD_Q6_FAR">      0.00000000</i>
   <i name="OFIELD_A">      0.00000000</i>
  </separator>
 </parameters>
 <atominfo>
  <atoms>       2 </atoms>
  <types>       1 </types>
  <array name="atoms" >
   <dimension dim="1">ion</dimension>
   <field type="string">element</field>
   <field type="int">atomtype</field>
   <set>
    <rc><c>Si</c><c>   1</c></rc>
    <rc><c>Si</c><c>   1</c></rc>
   </set>
  </array>
  <array name="atomtypes" >
   <dimension dim="1">type</dimension>
   <field type="int">atomspertype</field>
   <field type="string">element</field>
   <field>mass</field>
   <field>valence</field>
   <field type="string">pseudopotential</field>
   <set>
    <rc><c>   2</c><c>Si</c><c>     28.08500000</c><c>      4.00000000</c><c>  PAW Si                                </c></rc>
   </set>
  </array>
 </atominfo>
 <structure name="initialpos" >
  <crystal>
   <varray name="basis" >
    <v>       1.95000000       1.95000000       0.00000000 </v>
    <v>       0.00000000       1.95000000       1.95000000 </v>
    <v>       1.95000000       0.00000000       1.95000000 </v>
   </varray>
   <i name="volume">     14.82975000 </i>
   <varray name="rec_basis" >
    <v>       0.25641026       0.25641026      -0.25641026 </v>
    <v>      -0.25641026       0.25641026       0.25641026 </v>
    <v>       0.25641026      -0.25641026       0.25641026 </v>
   </varray>
  </crystal>
  <varray name="positions" >
   <v>       0.00000000       0.00000000       0.00000000 </v>
   <v>       0.25000000       0.25000000       0.25000000 </v>
  </varray>
 </structure>
 <calculation>
  <scstep>
   <time name="dav">    0.11    0.13</time>
   <time name="total">    0.13    0.14</time>
   <energy>
    <i name="alphaZ">      8.75287969 </i>
    <i name="ewald">   -318.23075394 </i>
    <i name="hartreedc">     -1.45333401 </i>
    <i name="XCdc">    -14.42487860 </i>
    <i name="pawpsdc">     66.48363344 </i>
    <i name="pawaedc">    -30.92422537 </i>
    <i name="eentropy">     -0.00024557 </i>
    <i name="bandstr">    102.48720998 </i>
    <i name="atom">    206.60389906 </i>
    <i name="e_fr_energy">     19.29418468 </i>
    <i name="e_wo_entrp">     19.29443026 </i>
    <i name="e_0_energy">     19.29426654 </i>
   </energy>
  </scstep>
  <scstep>
   <time name="dav">    0.17    0.24</time>
   <time name="total">    0.17    0.24</time>
   <energy>
    <i name="e_fr_energy">     10.26171557 </i>
    <i name="e_wo_entrp">     10.26248941 </i>
    <i name="e_0_energy">     10.26197352 </i>
   </energy>
  </scstep>
  <scstep>
   <time name="dav">    0.11    0.23</time>
   <time name="total">    0.12    0.25</time>
   <energy>
    <i name="e_fr_energy">     10.21584809 </i>
    <i name="e_wo_entrp">     10.21642583 </i>
    <i name="e_0_energy">     10.21604067 </i>
   </energy>
  </scstep>
  <scstep>
   <time name="dav">    0.18    0.19</time>
   <time name="total">    0.19    0.19</time>
   <energy>
    <i name="e_fr_energy">     10.21578405 </i>
    <i name="e_wo_entrp">     10.21636088 </i>
    <i name="e_0_energy">     10.21597632 </i>
   </energy>
  </scstep>
  <scstep>
   <time name="dav">    0.11    0.11</time>
   <time name="total">    0.12    0.13</time>
   <energy>
    <i name="e_fr_energy">     10.21578403 </i>
    <i name="e_wo_entrp">     10.21636087 </i>
    <i name="e_0_energy">     10.21597631 </i>
   </energy>
  </scstep>
  <scstep>
   <time name="dav">    0.11    0.11</time>
   <time name="total">    0.13    0.13</time>
   <energy>
    <i name="e_fr_energy">     11.10527680 </i>
    <i name="e_wo_entrp">     11.10561804 </i>
    <i name="e_0_energy">     11.10539055 </i>
   </energy>
  </scstep>
  <scstep>
   <time name="dav">    0.14    0.14</time>
   <time name="total">    0.17    0.17</time>
   <energy>
    <i name="e_fr_energy">     11.41739732 </i>
    <i name="e_wo_entrp">     11.41554899 </i>
    <i name="e_0_energy">     11.41678121 </i>
   </energy>
  </scstep>
  <scstep>
   <time name="dav">    0.11    0.11</time>
   <time name="total">    0.14    0.14</time>
   <energy>
    <i name="e_fr_energy">     11.42233590 </i>
    <i name="e_wo_entrp">     11.42049279 </i>
    <i name="e_0_energy">     11.42172153 </i>
   </energy>
  </scstep>
  <scstep>
   <time name="dav">    0.17    0.17</time>
   <time name="total">    0.20    0.20</time>
   <energy>
    <i name="e_fr_energy">     11.42243369 </i>
    <i name="e_wo_entrp">     11.42057837 </i>
    <i name="e_0_energy">     11.42181525 </i>
   </energy>
  </scstep>
  <scstep>
   <time name="dav">    0.12    0.12</time>
   <time name="total">    0.14    0.14</time>
   <energy>
    <i name="e_fr_energy">     11.42245334 </i>
    <i name="e_wo_entrp">     11.42059760 </i>
    <i name="e_0_energy">     11.42183476 </i>
   </energy>
  </scstep>
  <scstep>
   <time name="dav">    0.08    0.08</time>
   <time name="total">    0.11    0.11</time>
   <energy>
    <i name="e_fr_energy">     11.42245453 </i>
    <i name="e_wo_entrp">     11.42059873 </i>
    <i name="e_0_energy">     11.42183593 </i>
   </energy>
  </scstep>
  <scstep>
   <time name="dav">    0.06    0.06</time>
   <time name="total">    0.08    0.08</time>
   <energy>
    <i name="alphaZ">      8.75287969 </i>
    <i name="ewald">   -318.23075394 </i>
    <i name="hartreedc">     -4.34887897 </i>
    <i name="XCdc">    -13.33176022 </i>
    <i name="pawpsdc">    161.25545954 </i>
    <i name="pawaedc">   -127.88213103 </i>
    <i name="eentropy">      0.00185576 </i>
    <i name="bandstr">     98.60188444 </i>
    <i name="atom">    206.60389906 </i>
    <i name="e_fr_energy">     11.42245434 </i>
    <i name="e_wo_entrp">     11.42059858 </i>
    <i name="e_0_energy">     11.42183576 </i>
   </energy>
  </scstep>
  <structure>
   <crystal>
    <varray name="basis" >
     <v>       1.95000000       1.95000000       0.00000000 </v>
     <v>       0.00000000       1.95000000       1.95000000 </v>
     <v>       1.95000000       0.00000000       1.95000000 </v>
    </varray>
    <i name="volume">     14.82975000 </i>
    <varray name="rec_basis" >
     <v>       0.25641026       0.25641026      -0.25641026 </v>
     <v>      -0.25641026       0.25641026       0.25641026 </v>
     <v>       0.25641026      -0.25641026       0.25641026 </v>
    </varray>
   </crystal>
   <varray name="positions" >
    <v>       0.00000000       0.00000000       0.00000000 </v>
    <v>       0.25000000       0.25000000       0.25000000 </v>
   </varray>
  </structure>
  <varray name="forces" >
   <v>       0.00000000      -0.00000000       0.00000000 </v>
   <v>      -0.00000000       0.00000000      -0.00000000 </v>
  </varray>
  <varray name="stress" >
   <v>    5948.02606488       0.00000000       0.00000000 </v>
   <v>       0.00000000    5948.02606488      -0.00000000 </v>
   <v>       0.00000000      -0.00000000    5948.02606488 </v>
  </varray>
  <energy>
   <i name="e_fr_energy">     11.42245434 </i>
   <i name="e_wo_entrp">     11.42183576 </i>
   <i name="e_0_energy">      0.00185576 </i>
  </energy>
  <time name="totalsc">    1.86    2.13</time>
 </calculation>
 <calculation>
  <scstep>
   <time name="dav">    0.20    0.31</time>
   <time name="total">    0.22    0.34</time>
   <energy>
    <i name="alphaZ">      0.69375056 </i>
    <i name="ewald">   -136.69719706 </i>
    <i name="hartreedc">     -1.86808094 </i>
    <i name="XCdc">    -25.33138771 </i>
    <i name="pawpsdc">    161.25670167 </i>
    <i name="pawaedc">   -127.88340476 </i>
    <i name="eentropy">      0.02746469 </i>
    <i name="bandstr">   -102.43729424 </i>
    <i name="atom">    206.60389906 </i>
    <i name="e_fr_energy">    -25.63554874 </i>
    <i name="e_wo_entrp">    -25.66301342 </i>
    <i name="e_0_energy">    -25.64470363 </i>
   </energy>
  </scstep>
  <scstep>
   <time name="dav">    0.10    0.10</time>
   <time name="total">    0.13    0.13</time>
   <energy>
    <i name="e_fr_energy">    -15.70883008 </i>
    <i name="e_wo_entrp">    -15.71728249 </i>
    <i name="e_0_energy">    -15.71164755 </i>
   </energy>
  </scstep>
  <scstep>
   <time name="dav">    0.15    0.21</time>
   <time name="total">    0.17    0.26</time>
   <energy>
    <i name="e_fr_energy">     -1.40830560 </i>
    <i name="e_wo_entrp">     -1.41692695 </i>
    <i name="e_0_energy">     -1.41117938 </i>
   </energy>
  </scstep>
  <scstep>
   <time name="dav">    0.12    0.25</time>
   <time name="total">    0.15    0.31</time>
   <energy>
    <i name="e_fr_energy">     -1.23487575 </i>
    <i name="e_wo_entrp">     -1.24801893 </i>
    <i name="e_0_energy">     -1.23925681 </i>
   </energy>
  </scstep>
  <scstep>
   <time name="dav">    0.11    0.21</time>
   <time name="total">    0.13    0.27</time>
   <energy>
    <i name="e_fr_energy">     -1.30173654 </i>
    <i name="e_wo_entrp">     -1.31710596 </i>
    <i name="e_0_energy">     -1.30685968 </i>
   </energy>
  </scstep>
  <scstep>
   <time name="dav">    0.10    0.11</time>
   <time name="total">    0.13    0.14</time>
   <energy>
    <i name="e_fr_energy">     -1.46876190 </i>
    <i name="e_wo_entrp">     -1.48308896 </i>
    <i name="e_0_energy">     -1.47353759 </i>
   </energy>
  </scstep>
  <scstep>
   <time name="dav">    0.11    0.22</time>
   <time name="total">    0.14    0.26</time>
   <energy>
    <i name="e_fr_energy">     -1.47848503 </i>
    <i name="e_wo_entrp">     -1.49282321 </i>
    <i name="e_0_energy">     -1.48326442 </i>
   </energy>
  </scstep>
  <scstep>
   <time name="dav">    0.11    0.22</time>
   <time name="total">    0.14    0.27</time>
   <energy>
    <i name="e_fr_energy">     -1.48109599 </i>
    <i name="e_wo_entrp">     -1.49550940 </i>
    <i name="e_0_energy">     -1.48590046 </i>
   </energy>
  </scstep>
  <scstep>
   <time name="dav">    0.11    0.22</time>
   <time name="total">    0.14    0.27</time>
   <energy>
    <i name="e_fr_energy">     -1.48106577 </i>
    <i name="e_wo_entrp">     -1.49546916 </i>
    <i name="e_0_energy">     -1.48586690 </i>
   </energy>
  </scstep>
  <scstep>
   <time name="dav">    0.10    0.16</time>
   <time name="total">    0.12    0.19</time>
   <energy>
    <i name="alphaZ">      0.69375056 </i>
    <i name="ewald">   -136.69719706 </i>
    <i name="hartreedc">    -39.46580839 </i>
    <i name="XCdc">    -22.77152499 </i>
    <i name="pawpsdc">     58.90317911 </i>
    <i name="pawaedc">    -23.05869344 </i>
    <i name="eentropy">      0.01440108 </i>
    <i name="bandstr">    -45.70307221 </i>
    <i name="atom">    206.60389906 </i>
    <i name="e_fr_energy">     -1.48106628 </i>
    <i name="e_wo_entrp">     -1.49546736 </i>
    <i name="e_0_energy">     -1.48586664 </i>
   </energy>
  </scstep>
  <structure>
   <crystal>
    <varray name="basis" >
     <v>       4.53959542       4.53959542      -0.00000000 </v>
     <v>       0.00000000       4.53959542       4.53959542 </v>
     <v>       4.53959542       0.00000000       4.53959542 </v>
    </varray>
    <i name="volume">    187.10329864 </i>
    <varray name="rec_basis" >
     <v>       0.11014197       0.11014197      -0.11014197 </v>
     <v>      -0.11014197       0.11014197       0.11014197 </v>
     <v>       0.11014197      -0.11014197       0.11014197 </v>
    </varray>
   </crystal>
   <varray name="positions" >
    <v>      -0.00000000      -0.00000000       0.00000000 </v>
    <v>       0.25000000       0.25000000       0.25000000 </v>
   </varray>
  </structure>
  <varray name="forces" >
   <v>       0.00000000       0.00000000      -0.00000000 </v>
   <v>      -0.00000000      -0.00000000       0.00000000 </v>
  </varray>
  <varray name="stress" >
   <v>     -67.62975852       0.00000000       0.00000000 </v>
   <v>       0.00000000     -67.62975852       0.00000000 </v>
   <v>       0.00000000       0.00000000     -67.62975852 </v>
  </varray>
  <energy>
   <i name="e_fr_energy">     -1.48106628 </i>
   <i name="e_wo_entrp">     -1.48586664 </i>
   <i name="e_0_energy">      0.01440108 </i>
  </energy>
  <time name="totalsc">    1.60    2.59</time>
 </calculation>
 <calculation>
  <scstep>
   <time name="dav">    0.10    0.10</time>
   <time name="total">    0.13    0.13</time>
   <energy>
    <i name="alphaZ">      0.86686343 </i>
    <i name="ewald">   -147.23420702 </i>
    <i name="hartreedc">    -42.50946886 </i>
    <i name="XCdc">    -22.00636602 </i>
    <i name="pawpsdc">     58.90812708 </i>
    <i name="pawaedc">    -23.06378682 </i>
    <i name="eentropy">      0.00810632 </i>
    <i name="bandstr">    -35.15356581 </i>
    <i name="atom">    206.60389906 </i>
    <i name="e_fr_energy">     -3.58039865 </i>
    <i name="e_wo_entrp">     -3.58850497 </i>
    <i name="e_0_energy">     -3.58310076 </i>
   </energy>
  </scstep>
  <scstep>
   <time name="dav">    0.10    0.10</time>
   <time name="total">    0.13    0.13</time>
   <energy>
    <i name="e_fr_energy">     -3.31830048 </i>
    <i name="e_wo_entrp">     -3.32695824 </i>
    <i name="e_0_energy">     -3.32118640 </i>
   </energy>
  </scstep>
  <scstep>
   <time name="dav">    0.11    0.11</time>
   <time name="total">    0.14    0.14</time>
   <energy>
    <i name="e_fr_energy">     -3.16536108 </i>
    <i name="e_wo_entrp">     -3.17500351 </i>
    <i name="e_0_energy">     -3.16857522 </i>
   </energy>
  </scstep>
  <scstep>
   <time name="dav">    0.11    0.11</time>
   <time name="total">    0.13    0.13</time>
   <energy>
    <i name="e_fr_energy">     -3.16215588 </i>
    <i name="e_wo_entrp">     -3.17180264 </i>
    <i name="e_0_energy">     -3.16537147 </i>
   </energy>
  </scstep>
  <scstep>
   <time name="dav">    0.10    0.10</time>
   <time name="total">    0.13    0.13</time>
   <energy>
    <i name="e_fr_energy">     -3.16226853 </i>
    <i name="e_wo_entrp">     -3.17190956 </i>
    <i name="e_0_energy">     -3.16548221 </i>
   </energy>
  </scstep>
  <scstep>
   <time name="dav">    0.10    0.10</time>
   <time name="total">    0.13    0.13</time>
   <energy>
    <i name="e_fr_energy">     -3.16229940 </i>
    <i name="e_wo_entrp">     -3.17193680 </i>
    <i name="e_0_energy">     -3.16551187 </i>
   </energy>
  </scstep>
  <scstep>
   <time name="dav">    0.11    0.22</time>
   <time name="total">    0.14    0.27</time>
   <energy>
    <i name="e_fr_energy">     -3.16229472 </i>
    <i name="e_wo_entrp">     -3.17193205 </i>
    <i name="e_0_energy">     -3.16550716 </i>
   </energy>
  </scstep>
  <scstep>
   <time name="dav">    0.06    0.13</time>
   <time name="total">    0.08    0.16</time>
   <energy>
    <i name="alphaZ">      0.86686343 </i>
    <i name="ewald">   -147.23420702 </i>
    <i name="hartreedc">    -35.54807979 </i>
    <i name="XCdc">    -22.42314538 </i>
    <i name="pawpsdc">     60.34837121 </i>
    <i name="pawaedc">    -24.55442525 </i>
    <i name="eentropy">      0.00963724 </i>
    <i name="bandstr">    -41.23120871 </i>
    <i name="atom">    206.60389906 </i>
    <i name="e_fr_energy">     -3.16229521 </i>
    <i name="e_wo_entrp">     -3.17193245 </i>
    <i name="e_0_energy">     -3.16550762 </i>
   </energy>
  </scstep>
  <structure>
   <crystal>
    <varray name="basis" >
     <v>       4.21471330       4.21471330      -0.00000000 </v>
     <v>       0.00000000       4.21471330       4.21471330 </v>
     <v>       4.21471330       0.00000000       4.21471330 </v>
    </varray>
    <i name="volume">    149.73871711 </i>
    <varray name="rec_basis" >
     <v>       0.11863203       0.11863203      -0.11863203 </v>
     <v>      -0.11863203       0.11863203       0.11863203 </v>
     <v>       0.11863203      -0.11863203       0.11863203 </v>
    </varray>
   </crystal>
   <varray name="positions" >
    <v>      -0.00000000      -0.00000000       0.00000000 </v>
    <v>       0.25000000       0.25000000       0.25000000 </v>
   </varray>
  </structure>
  <varray name="forces" >
   <v>       0.00000000       0.00000000       0.00000000 </v>
   <v>      -0.00000000      -0.00000000      -0.00000000 </v>
  </varray>
  <varray name="stress" >
   <v>     -77.80916344       0.00000000       0.00000000 </v>
   <v>       0.00000000     -77.80916344       0.00000000 </v>
   <v>       0.00000000      -0.00000000     -77.80916344 </v>
  </varray>
  <energy>
   <i name="e_fr_energy">     -3.16229521 </i>
   <i name="e_wo_entrp">     -3.16550762 </i>
   <i name="e_0_energy">      0.00963724 </i>
  </energy>
  <time name="totalsc">    1.14    1.49</time>
 </calculation>
 <calculation>
  <scstep>
   <time name="dav">    0.10    0.21</time>
   <time name="total">    0.13    0.26</time>
   <energy>
    <i name="alphaZ">      1.05270345 </i>
    <i name="ewald">   -157.08227303 </i>
    <i name="hartreedc">    -37.92517838 </i>
    <i name="XCdc">    -21.74125176 </i>
    <i name="pawpsdc">     60.35063290 </i>
    <i name="pawaedc">    -24.55675705 </i>
    <i name="eentropy">      0.00506956 </i>
    <i name="bandstr">    -31.58957473 </i>
    <i name="atom">    206.60389906 </i>
    <i name="e_fr_energy">     -4.88272998 </i>
    <i name="e_wo_entrp">     -4.88779954 </i>
    <i name="e_0_energy">     -4.88441984 </i>
   </energy>
  </scstep>
  <scstep>
   <time name="dav">    0.10    0.21</time>
   <time name="total">    0.13    0.25</time>
   <energy>
    <i name="e_fr_energy">     -4.66629410 </i>
    <i name="e_wo_entrp">     -4.67165778 </i>
    <i name="e_0_energy">     -4.66808199 </i>
   </energy>
  </scstep>
  <scstep>
   <time name="dav">    0.10    0.17</time>
   <time name="total">    0.13    0.22</time>
   <energy>
    <i name="e_fr_energy">     -4.54934111 </i>
    <i name="e_wo_entrp">     -4.55512500 </i>
    <i name="e_0_energy">     -4.55126907 </i>
   </energy>
  </scstep>
  <scstep>
   <time name="dav">    0.10    0.19</time>
   <time name="total">    0.13    0.26</time>
   <energy>
    <i name="e_fr_energy">     -4.54892145 </i>
    <i name="e_wo_entrp">     -4.55470071 </i>
    <i name="e_0_energy">     -4.55084787 </i>
   </energy>
  </scstep>
  <scstep>
   <time name="dav">    0.10    0.21</time>
   <time name="total">    0.13    0.28</time>
   <energy>
    <i name="e_fr_energy">     -4.54930133 </i>
    <i name="e_wo_entrp">     -4.55508319 </i>
    <i name="e_0_energy">     -4.55122862 </i>
   </energy>
  </scstep>
  <scstep>
   <time name="dav">    0.13    0.27</time>
   <time name="total">    0.16    0.31</time>
   <energy>
    <i name="e_fr_energy">     -4.54931220 </i>
    <i name="e_wo_entrp">     -4.55509504 </i>
    <i name="e_0_energy">     -4.55123981 </i>
   </energy>
  </scstep>
  <scstep>
   <time name="dav">    0.10    0.20</time>
   <time name="total">    0.13    0.26</time>
   <energy>
    <i name="e_fr_energy">     -4.54930850 </i>
    <i name="e_wo_entrp">     -4.55509172 </i>
    <i name="e_0_energy">     -4.55123624 </i>
   </energy>
  </scstep>
  <scstep>
   <time name="dav">    0.06    0.13</time>
   <time name="total">    0.08    0.16</time>
   <energy>
    <i name="alphaZ">      1.05270345 </i>
    <i name="ewald">   -157.08227303 </i>
    <i name="hartreedc">    -32.00375888 </i>
    <i name="XCdc">    -22.06758272 </i>
    <i name="pawpsdc">     61.42989946 </i>
    <i name="pawaedc">    -25.67366955 </i>
    <i name="eentropy">      0.00578319 </i>
    <i name="bandstr">    -36.81431003 </i>
    <i name="atom">    206.60389906 </i>
    <i name="e_fr_energy">     -4.54930904 </i>
    <i name="e_wo_entrp">     -4.55509224 </i>
    <i name="e_0_energy">     -4.55123677 </i>
   </energy>
  </scstep>
  <structure>
   <crystal>
    <varray name="basis" >
     <v>       3.95047740       3.95047740      -0.00000000 </v>
     <v>       0.00000000       3.95047740       3.95047740 </v>
     <v>       3.95047740       0.00000000       3.95047740 </v>
    </varray>
    <i name="volume">    123.30444757 </i>
    <varray name="rec_basis" >
     <v>       0.12656698       0.12656698      -0.12656698 </v>
     <v>      -0.12656698       0.12656698       0.12656698 </v>
     <v>       0.12656698      -0.12656698       0.12656698 </v>
    </varray>
   </crystal>
   <varray name="positions" >
    <v>      -0.00000000      -0.00000000       0.00000000 </v>
    <v>       0.25000000       0.25000000       0.25000000 </v>
   </varray>
  </structure>
  <varray name="forces" >
   <v>       0.00000000       0.00000000       0.00000000 </v>
   <v>      -0.00000000      -0.00000000      -0.00000000 </v>
  </varray>
  <varray name="stress" >
   <v>     -91.61822034       0.00000000       0.00000000 </v>
   <v>       0.00000000     -91.61822034      -0.00000000 </v>
   <v>       0.00000000      -0.00000000     -91.61822034 </v>
  </varray>
  <energy>
   <i name="e_fr_energy">     -4.54930904 </i>
   <i name="e_wo_entrp">     -4.55123677 </i>
   <i name="e_0_energy">      0.00578319 </i>
  </energy>
  <time name="totalsc">    1.15    2.27</time>
 </calculation>
 <calculation>
  <scstep>
   <time name="dav">    0.14    0.28</time>
   <time name="total">    0.17    0.33</time>
   <energy>
    <i name="alphaZ">      2.52745438 </i>
    <i name="ewald">   -210.33890233 </i>
    <i name="hartreedc">    -42.85349997 </i>
    <i name="XCdc">    -19.10489018 </i>
    <i name="pawpsdc">     61.43056527 </i>
    <i name="pawaedc">    -25.67435645 </i>
    <i name="eentropy">      0.00043260 </i>
    <i name="bandstr">     10.43043065 </i>
    <i name="atom">    206.60389906 </i>
    <i name="e_fr_energy">    -16.97886698 </i>
    <i name="e_wo_entrp">    -16.97929958 </i>
    <i name="e_0_energy">    -16.97901118 </i>
   </energy>
  </scstep>
  <scstep>
   <time name="dav">    0.11    0.22</time>
   <time name="total">    0.14    0.28</time>
   <energy>
    <i name="e_fr_energy">    -12.44385208 </i>
    <i name="e_wo_entrp">    -12.44469923 </i>
    <i name="e_0_energy">    -12.44413446 </i>
   </energy>
  </scstep>
  <scstep>
   <time name="dav">    0.13    0.26</time>
   <time name="total">    0.16    0.31</time>
   <energy>
    <i name="e_fr_energy">    -10.13625322 </i>
    <i name="e_wo_entrp">    -10.13676221 </i>
    <i name="e_0_energy">    -10.13642288 </i>
   </energy>
  </scstep>
  <scstep>
   <time name="dav">    0.12    0.24</time>
   <time name="total">    0.15    0.30</time>
   <energy>
    <i name="e_fr_energy">    -10.12526230 </i>
    <i name="e_wo_entrp">    -10.12576747 </i>
    <i name="e_0_energy">    -10.12543069 </i>
   </energy>
  </scstep>
  <scstep>
   <time name="dav">    0.14    0.28</time>
   <time name="total">    0.17    0.35</time>
   <energy>
    <i name="e_fr_energy">    -10.12495367 </i>
    <i name="e_wo_entrp">    -10.12545784 </i>
    <i name="e_0_energy">    -10.12512173 </i>
   </energy>
  </scstep>
  <scstep>
   <time name="dav">    0.13    0.27</time>
   <time name="total">    0.16    0.33</time>
   <energy>
    <i name="e_fr_energy">    -10.12499060 </i>
    <i name="e_wo_entrp">    -10.12549502 </i>
    <i name="e_0_energy">    -10.12515874 </i>
   </energy>
  </scstep>
  <scstep>
   <time name="dav">    0.12    0.17</time>
   <time name="total">    0.15    0.21</time>
   <energy>
    <i name="e_fr_energy">    -10.12499930 </i>
    <i name="e_wo_entrp">    -10.12550394 </i>
    <i name="e_0_energy">    -10.12516751 </i>
   </energy>
  </scstep>
  <scstep>
   <time name="dav">    0.12    0.12</time>
   <time name="total">    0.14    0.14</time>
   <energy>
    <i name="alphaZ">      2.52745438 </i>
    <i name="ewald">   -210.33890233 </i>
    <i name="hartreedc">    -17.99137155 </i>
    <i name="XCdc">    -19.47594754 </i>
    <i name="pawpsdc">     70.04273546 </i>
    <i name="pawaedc">    -34.53238845 </i>
    <i name="eentropy">      0.00050464 </i>
    <i name="bandstr">     -6.96098375 </i>
    <i name="atom">    206.60389906 </i>
    <i name="e_fr_energy">    -10.12500007 </i>
    <i name="e_wo_entrp">    -10.12550471 </i>
    <i name="e_0_energy">    -10.12516828 </i>
   </energy>
  </scstep>
  <structure>
   <crystal>
    <varray name="basis" >
     <v>       2.95023870       2.95023870      -0.00000000 </v>
     <v>       0.00000000       2.95023870       2.95023870 </v>
     <v>       2.95023870       0.00000000       2.95023870 </v>
    </varray>
    <i name="volume">     51.35721483 </i>
    <varray name="rec_basis" >
     <v>       0.16947781       0.16947781      -0.16947781 </v>
     <v>      -0.16947781       0.16947781       0.16947781 </v>
     <v>       0.16947781      -0.16947781       0.16947781 </v>
    </varray>
   </crystal>
   <varray name="positions" >
    <v>      -0.00000000      -0.00000000       0.00000000 </v>
    <v>       0.25000000       0.25000000       0.25000000 </v>
   </varray>
  </structure>
  <varray name="forces" >
   <v>       0.00000000       0.00000000      -0.00000000 </v>
   <v>      -0.00000000      -0.00000000       0.00000000 </v>
  </varray>
  <varray name="stress" >
   <v>    -128.57325678       0.00000000       0.00000000 </v>
   <v>       0.00000000    -128.57325678      -0.00000000 </v>
   <v>       0.00000000      -0.00000000    -128.57325678 </v>
  </varray>
  <energy>
   <i name="e_fr_energy">    -10.12500007 </i>
   <i name="e_wo_entrp">    -10.12516828 </i>
   <i name="e_0_energy">      0.00050464 </i>
  </energy>
  <time name="totalsc">    1.38    2.42</time>
 </calculation>
 <calculation>
  <scstep>
   <time name="dav">    0.13    0.27</time>
   <time name="total">    0.16    0.31</time>
   <energy>
    <i name="alphaZ">      4.41258488 </i>
    <i name="ewald">   -253.27336398 </i>
    <i name="hartreedc">    -21.66316544 </i>
    <i name="XCdc">    -17.10313656 </i>
    <i name="pawpsdc">     70.04340216 </i>
    <i name="pawaedc">    -34.53303797 </i>
    <i name="eentropy">      0.00001452 </i>
    <i name="bandstr">     34.43001680 </i>
    <i name="atom">    206.60389906 </i>
    <i name="e_fr_energy">    -11.08278653 </i>
    <i name="e_wo_entrp">    -11.08280105 </i>
    <i name="e_0_energy">    -11.08279137 </i>
   </energy>
  </scstep>
  <scstep>
   <time name="dav">    0.15    0.31</time>
   <time name="total">    0.18    0.36</time>
   <energy>
    <i name="e_fr_energy">     -9.74040253 </i>
    <i name="e_wo_entrp">     -9.74071360 </i>
    <i name="e_0_energy">     -9.74050622 </i>
   </energy>
  </scstep>
  <scstep>
   <time name="dav">    0.12    0.25</time>
   <time name="total">    0.15    0.30</time>
   <energy>
    <i name="e_fr_energy">     -9.10982687 </i>
    <i name="e_wo_entrp">     -9.11002669 </i>
    <i name="e_0_energy">     -9.10989348 </i>
   </energy>
  </scstep>
  <scstep>
   <time name="dav">    0.15    0.31</time>
   <time name="total">    0.18    0.37</time>
   <energy>
    <i name="e_fr_energy">     -9.10231428 </i>
    <i name="e_wo_entrp">     -9.10239205 </i>
    <i name="e_0_energy">     -9.10234020 </i>
   </energy>
  </scstep>
  <scstep>
   <time name="dav">    0.14    0.28</time>
   <time name="total">    0.17    0.33</time>
   <energy>
    <i name="e_fr_energy">     -9.10226136 </i>
    <i name="e_wo_entrp">     -9.10236233 </i>
    <i name="e_0_energy">     -9.10229502 </i>
   </energy>
  </scstep>
  <scstep>
   <time name="dav">    0.14    0.16</time>
   <time name="total">    0.17    0.20</time>
   <energy>
    <i name="e_fr_energy">     -9.10225149 </i>
    <i name="e_wo_entrp">     -9.10235216 </i>
    <i name="e_0_energy">     -9.10228505 </i>
   </energy>
  </scstep>
  <scstep>
   <time name="dav">    0.08    0.08</time>
   <time name="total">    0.10    0.10</time>
   <energy>
    <i name="alphaZ">      4.41258488 </i>
    <i name="ewald">   -253.27336398 </i>
    <i name="hartreedc">    -11.48227281 </i>
    <i name="XCdc">    -16.96809273 </i>
    <i name="pawpsdc">     91.94659537 </i>
    <i name="pawaedc">    -56.98379984 </i>
    <i name="eentropy">      0.00010087 </i>
    <i name="bandstr">     26.64209783 </i>
    <i name="atom">    206.60389906 </i>
    <i name="e_fr_energy">     -9.10225137 </i>
    <i name="e_wo_entrp">     -9.10235223 </i>
    <i name="e_0_energy">     -9.10228499 </i>
   </energy>
  </scstep>
  <structure>
   <crystal>
    <varray name="basis" >
     <v>       2.45011935       2.45011935      -0.00000000 </v>
     <v>       0.00000000       2.45011935       2.45011935 </v>
     <v>       2.45011935       0.00000000       2.45011935 </v>
    </varray>
    <i name="volume">     29.41654864 </i>
    <varray name="rec_basis" >
     <v>       0.20407169       0.20407169      -0.20407169 </v>
     <v>      -0.20407169       0.20407169       0.20407169 </v>
     <v>       0.20407169      -0.20407169       0.20407169 </v>
    </varray>
   </crystal>
   <varray name="positions" >
    <v>      -0.00000000      -0.00000000       0.00000000 </v>
    <v>       0.25000000       0.25000000       0.25000000 </v>
   </varray>
  </structure>
  <varray name="forces" >
   <v>       0.00000000      -0.00000000       0.00000000 </v>
   <v>      -0.00000000       0.00000000      -0.00000000 </v>
  </varray>
  <varray name="stress" >
   <v>     573.83122855       0.00000000       0.00000000 </v>
   <v>       0.00000000     573.83122855      -0.00000000 </v>
   <v>       0.00000000      -0.00000000     573.83122855 </v>
  </varray>
  <energy>
   <i name="e_fr_energy">     -9.10225137 </i>
   <i name="e_wo_entrp">     -9.10228499 </i>
   <i name="e_0_energy">      0.00010087 </i>
  </energy>
  <time name="totalsc">    1.24    2.11</time>
 </calculation>
 <calculation>
  <scstep>
   <time name="dav">    0.15    0.31</time>
   <time name="total">    0.18    0.36</time>
   <energy>
    <i name="alphaZ">      2.92627796 </i>
    <i name="ewald">   -220.86675659 </i>
    <i name="hartreedc">    -10.01285615 </i>
    <i name="XCdc">    -19.00898477 </i>
    <i name="pawpsdc">     91.96490082 </i>
    <i name="pawaedc">    -57.00256105 </i>
    <i name="eentropy">      0.00053097 </i>
    <i name="bandstr">     -6.06000750 </i>
    <i name="atom">    206.60389906 </i>
    <i name="e_fr_energy">    -11.45555724 </i>
    <i name="e_wo_entrp">    -11.45608821 </i>
    <i name="e_0_energy">    -11.45573423 </i>
   </energy>
  </scstep>
  <scstep>
   <time name="dav">    0.12    0.24</time>
   <time name="total">    0.15    0.29</time>
   <energy>
    <i name="e_fr_energy">    -10.87724287 </i>
    <i name="e_wo_entrp">    -10.87771854 </i>
    <i name="e_0_energy">    -10.87740143 </i>
   </energy>
  </scstep>
  <scstep>
   <time name="dav">    0.12    0.21</time>
   <time name="total">    0.15    0.26</time>
   <energy>
    <i name="e_fr_energy">    -10.57181934 </i>
    <i name="e_wo_entrp">    -10.57222073 </i>
    <i name="e_0_energy">    -10.57195314 </i>
   </energy>
  </scstep>
  <scstep>
   <time name="dav">    0.13    0.26</time>
   <time name="total">    0.16    0.31</time>
   <energy>
    <i name="e_fr_energy">    -10.57205986 </i>
    <i name="e_wo_entrp">    -10.57246292 </i>
    <i name="e_0_energy">    -10.57219421 </i>
   </energy>
  </scstep>
  <scstep>
   <time name="dav">    0.15    0.30</time>
   <time name="total">    0.18    0.36</time>
   <energy>
    <i name="e_fr_energy">    -10.57202591 </i>
    <i name="e_wo_entrp">    -10.57242687 </i>
    <i name="e_0_energy">    -10.57215957 </i>
   </energy>
  </scstep>
  <scstep>
   <time name="dav">    0.13    0.26</time>
   <time name="total">    0.16    0.32</time>
   <energy>
    <i name="e_fr_energy">    -10.57203541 </i>
    <i name="e_wo_entrp">    -10.57243630 </i>
    <i name="e_0_energy">    -10.57216904 </i>
   </energy>
  </scstep>
  <scstep>
   <time name="dav">    0.14    0.28</time>
   <time name="total">    0.15    0.31</time>
   <energy>
    <i name="alphaZ">      2.92627796 </i>
    <i name="ewald">   -220.86675659 </i>
    <i name="hartreedc">    -16.14728481 </i>
    <i name="XCdc">    -18.86886144 </i>
    <i name="pawpsdc">     73.71858538 </i>
    <i name="pawaedc">    -38.30463105 </i>
    <i name="eentropy">      0.00040085 </i>
    <i name="bandstr">      0.36633613 </i>
    <i name="atom">    206.60389906 </i>
    <i name="e_fr_energy">    -10.57203450 </i>
    <i name="e_wo_entrp">    -10.57243534 </i>
    <i name="e_0_energy">    -10.57216811 </i>
   </energy>
  </scstep>
  <structure>
   <crystal>
    <varray name="basis" >
     <v>       2.80961236       2.80961236      -0.00000000 </v>
     <v>       0.00000000       2.80961236       2.80961236 </v>
     <v>       2.80961236       0.00000000       2.80961236 </v>
    </varray>
    <i name="volume">     44.35771967 </i>
    <varray name="rec_basis" >
     <v>       0.17796049       0.17796049      -0.17796049 </v>
     <v>      -0.17796049       0.17796049       0.17796049 </v>
     <v>       0.17796049      -0.17796049       0.17796049 </v>
    </varray>
   </crystal>
   <varray name="positions" >
    <v>      -0.00000000      -0.00000000       0.00000000 </v>
    <v>       0.25000000       0.25000000       0.25000000 </v>
   </varray>
  </structure>
  <varray name="forces" >
   <v>      -0.00000000      -0.00000000      -0.00000000 </v>
   <v>       0.00000000       0.00000000       0.00000000 </v>
  </varray>
  <varray name="stress" >
   <v>     -65.62068615       0.00000000       0.00000000 </v>
   <v>       0.00000000     -65.62068615      -0.00000000 </v>
   <v>       0.00000000       0.00000000     -65.62068615 </v>
  </varray>
  <energy>
   <i name="e_fr_energy">    -10.57203450 </i>
   <i name="e_wo_entrp">    -10.57216811 </i>
   <i name="e_0_energy">      0.00040085 </i>
  </energy>
  <time name="totalsc">    1.27    2.49</time>
 </calculation>
 <calculation>
  <scstep>
   <time name="dav">    0.13    0.26</time>
   <time name="total">    0.15    0.30</time>
   <energy>
    <i name="alphaZ">      3.24277869 </i>
    <i name="ewald">   -228.55861633 </i>
    <i name="hartreedc">    -16.71021392 </i>
    <i name="XCdc">    -18.40491013 </i>
    <i name="pawpsdc">     73.69579324 </i>
    <i name="pawaedc">    -38.28124277 </i>
    <i name="eentropy">      0.00033696 </i>
    <i name="bandstr">      7.70178159 </i>
    <i name="atom">    206.60389906 </i>
    <i name="e_fr_energy">    -10.71039361 </i>
    <i name="e_wo_entrp">    -10.71073057 </i>
    <i name="e_0_energy">    -10.71050593 </i>
   </energy>
  </scstep>
  <scstep>
   <time name="dav">    0.13    0.16</time>
   <time name="total">    0.16    0.20</time>
   <energy>
    <i name="e_fr_energy">    -10.66955019 </i>
    <i name="e_wo_entrp">    -10.66988743 </i>
    <i name="e_0_energy">    -10.66966260 </i>
   </energy>
  </scstep>
  <scstep>
   <time name="dav">    0.12    0.25</time>
   <time name="total">    0.15    0.29</time>
   <energy>
    <i name="e_fr_energy">    -10.64900702 </i>
    <i name="e_wo_entrp">    -10.64935571 </i>
    <i name="e_0_energy">    -10.64912325 </i>
   </energy>
  </scstep>
  <scstep>
   <time name="dav">    0.14    0.27</time>
   <time name="total">    0.16    0.32</time>
   <energy>
    <i name="e_fr_energy">    -10.64894654 </i>
    <i name="e_wo_entrp">    -10.64929521 </i>
    <i name="e_0_energy">    -10.64906277 </i>
   </energy>
  </scstep>
  <scstep>
   <time name="dav">    0.15    0.16</time>
   <time name="total">    0.17    0.20</time>
   <energy>
    <i name="e_fr_energy">    -10.64895254 </i>
    <i name="e_wo_entrp">    -10.64930132 </i>
    <i name="e_0_energy">    -10.64906880 </i>
   </energy>
  </scstep>
  <scstep>
   <time name="dav">    0.11    0.23</time>
   <time name="total">    0.14    0.27</time>
   <energy>
    <i name="e_fr_energy">    -10.64895116 </i>
    <i name="e_wo_entrp">    -10.64929997 </i>
    <i name="e_0_energy">    -10.64906743 </i>
   </energy>
  </scstep>
  <scstep>
   <time name="dav">    0.07    0.13</time>
   <time name="total">    0.08    0.17</time>
   <energy>
    <i name="alphaZ">      3.24277869 </i>
    <i name="ewald">   -228.55861633 </i>
    <i name="hartreedc">    -14.92595316 </i>
    <i name="XCdc">    -18.41947912 </i>
    <i name="pawpsdc">     77.01543087 </i>
    <i name="pawaedc">    -41.68644693 </i>
    <i name="eentropy">      0.00034881 </i>
    <i name="bandstr">      6.07908693 </i>
    <i name="atom">    206.60389906 </i>
    <i name="e_fr_energy">    -10.64895118 </i>
    <i name="e_wo_entrp">    -10.64929999 </i>
    <i name="e_0_energy">    -10.64906745 </i>
   </energy>
  </scstep>
  <structure>
   <crystal>
    <varray name="basis" >
     <v>       2.71505831       2.71505831      -0.00000000 </v>
     <v>       0.00000000       2.71505831       2.71505831 </v>
     <v>       2.71505831       0.00000000       2.71505831 </v>
    </varray>
    <i name="volume">     40.02833062 </i>
    <varray name="rec_basis" >
     <v>       0.18415811       0.18415811      -0.18415811 </v>
     <v>      -0.18415811       0.18415811       0.18415811 </v>
     <v>       0.18415811      -0.18415811       0.18415811 </v>
    </varray>
   </crystal>
   <varray name="positions" >
    <v>      -0.00000000      -0.00000000       0.00000000 </v>
    <v>       0.25000000       0.25000000       0.25000000 </v>
   </varray>
  </structure>
  <varray name="forces" >
   <v>      -0.00000000      -0.00000000      -0.00000000 </v>
   <v>       0.00000000       0.00000000       0.00000000 </v>
  </varray>
  <varray name="stress" >
   <v>      16.41149665       0.00000000       0.00000000 </v>
   <v>       0.00000000      16.41149665       0.00000000 </v>
   <v>       0.00000000       0.00000000      16.41149665 </v>
  </varray>
  <energy>
   <i name="e_fr_energy">    -10.64895118 </i>
   <i name="e_wo_entrp">    -10.64906745 </i>
   <i name="e_0_energy">      0.00034881 </i>
  </energy>
  <time name="totalsc">    1.16    2.04</time>
 </calculation>
 <calculation>
  <scstep>
   <time name="dav">    0.13    0.27</time>
   <time name="total">    0.16    0.31</time>
   <energy>
    <i name="alphaZ">      3.18118734 </i>
    <i name="ewald">   -227.10232305 </i>
    <i name="hartreedc">    -14.83079133 </i>
    <i name="XCdc">    -18.50842209 </i>
    <i name="pawpsdc">     77.01989804 </i>
    <i name="pawaedc">    -41.69102129 </i>
    <i name="eentropy">      0.00036175 </i>
    <i name="bandstr">      4.67273053 </i>
    <i name="atom">    206.60389906 </i>
    <i name="e_fr_energy">    -10.65448104 </i>
    <i name="e_wo_entrp">    -10.65484279 </i>
    <i name="e_0_energy">    -10.65460162 </i>
   </energy>
  </scstep>
  <scstep>
   <time name="dav">    0.13    0.26</time>
   <time name="total">    0.16    0.31</time>
   <energy>
    <i name="e_fr_energy">    -10.65309707 </i>
    <i name="e_wo_entrp">    -10.65345696 </i>
    <i name="e_0_energy">    -10.65321703 </i>
   </energy>
  </scstep>
  <scstep>
   <time name="dav">    0.12    0.25</time>
   <time name="total">    0.15    0.31</time>
   <energy>
    <i name="e_fr_energy">    -10.65238913 </i>
    <i name="e_wo_entrp">    -10.65274641 </i>
    <i name="e_0_energy">    -10.65250823 </i>
   </energy>
  </scstep>
  <scstep>
   <time name="dav">    0.14    0.27</time>
   <time name="total">    0.17    0.33</time>
   <energy>
    <i name="e_fr_energy">    -10.65238222 </i>
    <i name="e_wo_entrp">    -10.65273950 </i>
    <i name="e_0_energy">    -10.65250131 </i>
   </energy>
  </scstep>
  <scstep>
   <time name="dav">    0.10    0.22</time>
   <time name="total">    0.12    0.25</time>
   <energy>
    <i name="alphaZ">      3.18118734 </i>
    <i name="ewald">   -227.10232305 </i>
    <i name="hartreedc">    -15.14998326 </i>
    <i name="XCdc">    -18.50495041 </i>
    <i name="pawpsdc">     76.33723237 </i>
    <i name="pawaedc">    -40.99088724 </i>
    <i name="eentropy">      0.00035725 </i>
    <i name="bandstr">      4.97308652 </i>
    <i name="atom">    206.60389906 </i>
    <i name="e_fr_energy">    -10.65238141 </i>
    <i name="e_wo_entrp">    -10.65273866 </i>
    <i name="e_0_energy">    -10.65250049 </i>
   </energy>
  </scstep>
  <structure>
   <crystal>
    <varray name="basis" >
     <v>       2.73246862       2.73246862      -0.00000000 </v>
     <v>       0.00000000       2.73246862       2.73246862 </v>
     <v>       2.73246862       0.00000000       2.73246862 </v>
    </varray>
    <i name="volume">     40.80332390 </i>
    <varray name="rec_basis" >
     <v>       0.18298472       0.18298472      -0.18298472 </v>
     <v>      -0.18298472       0.18298472       0.18298472 </v>
     <v>       0.18298472      -0.18298472       0.18298472 </v>
    </varray>
   </crystal>
   <varray name="positions" >
    <v>      -0.00000000      -0.00000000       0.00000000 </v>
    <v>       0.25000000       0.25000000       0.25000000 </v>
   </varray>
  </structure>
  <varray name="forces" >
   <v>       0.00000000       0.00000000       0.00000000 </v>
   <v>      -0.00000000      -0.00000000      -0.00000000 </v>
  </varray>
  <varray name="stress" >
   <v>      -1.83609997       0.00000000      -0.00000000 </v>
   <v>       0.00000000      -1.83609997       0.00000000 </v>
   <v>       0.00000000      -0.00000000      -1.83609997 </v>
  </varray>
  <energy>
   <i name="e_fr_energy">    -10.65238141 </i>
   <i name="e_wo_entrp">    -10.65250049 </i>
   <i name="e_0_energy">      0.00035725 </i>
  </energy>
  <time name="totalsc">    0.89    1.80</time>
 </calculation>
 <calculation>
  <scstep>
   <time name="dav">    0.13    0.28</time>
   <time name="total">    0.16    0.32</time>
   <energy>
    <i name="alphaZ">      3.18742041 </i>
    <i name="ewald">   -227.25055085 </i>
    <i name="hartreedc">    -15.16021340 </i>
    <i name="XCdc">    -18.49575670 </i>
    <i name="pawpsdc">     76.34676598 </i>
    <i name="pawaedc">    -41.00066844 </i>
    <i name="eentropy">      0.00035591 </i>
    <i name="bandstr">      5.11629780 </i>
    <i name="atom">    206.60389906 </i>
    <i name="e_fr_energy">    -10.65245022 </i>
    <i name="e_wo_entrp">    -10.65280613 </i>
    <i name="e_0_energy">    -10.65256886 </i>
   </energy>
  </scstep>
  <scstep>
   <time name="dav">    0.13    0.26</time>
   <time name="total">    0.16    0.30</time>
   <energy>
    <i name="e_fr_energy">    -10.65243642 </i>
    <i name="e_wo_entrp">    -10.65279251 </i>
    <i name="e_0_energy">    -10.65255512 </i>
   </energy>
  </scstep>
  <scstep>
   <time name="dav">    0.12    0.27</time>
   <time name="total">    0.15    0.32</time>
   <energy>
    <i name="e_fr_energy">    -10.65243021 </i>
    <i name="e_wo_entrp">    -10.65278656 </i>
    <i name="e_0_energy">    -10.65254899 </i>
   </energy>
  </scstep>
  <scstep>
   <time name="dav">    0.06    0.12</time>
   <time name="total">    0.08    0.16</time>
   <energy>
    <i name="alphaZ">      3.18742041 </i>
    <i name="ewald">   -227.25055085 </i>
    <i name="hartreedc">    -15.12752074 </i>
    <i name="XCdc">    -18.49613552 </i>
    <i name="pawpsdc">     76.41212244 </i>
    <i name="pawaedc">    -41.06768189 </i>
    <i name="eentropy">      0.00035635 </i>
    <i name="bandstr">      5.08566007 </i>
    <i name="atom">    206.60389906 </i>
    <i name="e_fr_energy">    -10.65243066 </i>
    <i name="e_wo_entrp">    -10.65278702 </i>
    <i name="e_0_energy">    -10.65254945 </i>
   </energy>
  </scstep>
  <structure>
   <crystal>
    <varray name="basis" >
     <v>       2.73068632       2.73068632      -0.00000000 </v>
     <v>       0.00000000       2.73068632       2.73068632 </v>
     <v>       2.73068632       0.00000000       2.73068632 </v>
    </varray>
    <i name="volume">     40.72353211 </i>
    <varray name="rec_basis" >
     <v>       0.18310415       0.18310415      -0.18310415 </v>
     <v>      -0.18310415       0.18310415       0.18310415 </v>
     <v>       0.18310415      -0.18310415       0.18310415 </v>
    </varray>
   </crystal>
   <varray name="positions" >
    <v>      -0.00000000      -0.00000000       0.00000000 </v>
    <v>       0.25000000       0.25000000       0.25000000 </v>
   </varray>
  </structure>
  <varray name="forces" >
   <v>      -0.00000000      -0.00000000      -0.00000000 </v>
   <v>       0.00000000       0.00000000       0.00000000 </v>
  </varray>
  <varray name="stress" >
   <v>      -0.04619008       0.00000000       0.00000000 </v>
   <v>       0.00000000      -0.04619008      -0.00000000 </v>
   <v>       0.00000000       0.00000000      -0.04619008 </v>
  </varray>
  <energy>
   <i name="e_fr_energy">    -10.65243066 </i>
   <i name="e_wo_entrp">    -10.65254945 </i>
   <i name="e_0_energy">      0.00035635 </i>
  </energy>
  <time name="totalsc">    0.67    1.37</time>
  <eigenvalues>
   <array>
    <dimension dim="1">band</dimension>
    <dimension dim="2">kpoint</dimension>
    <dimension dim="3">spin</dimension>
    <field>eigene</field>
    <field>occ</field>
    <set>
     <set comment="spin 1">
      <set comment="kpoint 1">
       <r>   -6.1782    1.0000 </r>
       <r>    5.3174    1.0063 </r>
       <r>    5.6268    0.8823 </r>
       <r>    5.6268    0.8823 </r>
       <r>    8.3126   -0.0000 </r>
       <r>    8.3519   -0.0000 </r>
       <r>    8.3519   -0.0000 </r>
       <r>    9.0541   -0.0000 </r>
      </set>
      <set comment="kpoint 2">
       <r>   -6.0059    1.0000 </r>
       <r>    4.1747    1.0000 </r>
       <r>    5.0643    1.0000 </r>
       <r>    5.5556    1.0075 </r>
       <r>    8.3695   -0.0000 </r>
       <r>    8.5246   -0.0000 </r>
       <r>    8.7660   -0.0000 </r>
       <r>   10.2126   -0.0000 </r>
      </set>
      <set comment="kpoint 3">
       <r>   -5.5852    1.0000 </r>
       <r>    2.3529    1.0000 </r>
       <r>    4.6225    1.0000 </r>
       <r>    5.2061    1.0006 </r>
       <r>    7.9986   -0.0000 </r>
       <r>    8.9971   -0.0000 </r>
       <r>    9.3361   -0.0000 </r>
       <r>   11.7250    0.0000 </r>
      </set>
      <set comment="kpoint 4">
       <r>   -4.9481    1.0000 </r>
       <r>    0.6316    1.0000 </r>
       <r>    4.3267    1.0000 </r>
       <r>    4.8289    1.0000 </r>
       <r>    7.6648   -0.0000 </r>
       <r>    9.2062   -0.0000 </r>
       <r>    9.4058   -0.0000 </r>
       <r>   13.2328    0.0000 </r>
      </set>
      <set comment="kpoint 5">
       <r>   -4.2171    1.0000 </r>
       <r>   -0.7349    1.0000 </r>
       <r>    4.2024    1.0000 </r>
       <r>    4.5536    1.0000 </r>
       <r>    7.5078   -0.0000 </r>
       <r>    9.2026   -0.0000 </r>
       <r>    9.2065   -0.0000 </r>
       <r>   13.5451    0.0000 </r>
      </set>
      <set comment="kpoint 6">
       <r>   -3.9058    1.0000 </r>
       <r>   -1.2107    1.0000 </r>
       <r>    4.2378    1.0000 </r>
       <r>    4.4085    1.0000 </r>
       <r>    7.4547   -0.0000 </r>
       <r>    9.0678   -0.0000 </r>
       <r>    9.2541   -0.0000 </r>
       <r>   13.5195    0.0000 </r>
      </set>
      <set comment="kpoint 7">
       <r>   -4.4531    1.0000 </r>
       <r>   -0.3391    1.0000 </r>
       <r>    4.4198    1.0000 </r>
       <r>    4.4264    1.0000 </r>
       <r>    7.5508   -0.0000 </r>
       <r>    9.0675   -0.0000 </r>
       <r>    9.4311   -0.0000 </r>
       <r>   13.2494    0.0000 </r>
      </set>
      <set comment="kpoint 8">
       <r>   -5.1801    1.0000 </r>
       <r>    1.1790    1.0000 </r>
       <r>    4.5899    1.0000 </r>
       <r>    4.7470    1.0000 </r>
       <r>    7.7730   -0.0000 </r>
       <r>    9.0556   -0.0000 </r>
       <r>    9.5865   -0.0000 </r>
       <r>   12.1919    0.0000 </r>
      </set>
      <set comment="kpoint 9">
       <r>   -5.7520    1.0000 </r>
       <r>    2.9659    1.0000 </r>
       <r>    4.9162    1.0000 </r>
       <r>    5.1485    1.0001 </r>
       <r>    8.1135   -0.0000 </r>
       <r>    8.7468   -0.0000 </r>
       <r>    9.3551   -0.0000 </r>
       <r>   11.1651   -0.0000 </r>
      </set>
      <set comment="kpoint 10">
       <r>   -6.0915    1.0000 </r>
       <r>    4.7644    1.0000 </r>
       <r>    5.3309    1.0079 </r>
       <r>    5.4585    1.0330 </r>
       <r>    8.1689   -0.0000 </r>
       <r>    8.5796   -0.0000 </r>
       <r>    8.7748   -0.0000 </r>
       <r>    9.6194   -0.0000 </r>
      </set>
      <set comment="kpoint 11">
       <r>   -5.9200    1.0000 </r>
       <r>    4.0635    1.0000 </r>
       <r>    4.8898    1.0000 </r>
       <r>    4.9914    1.0000 </r>
       <r>    7.8557   -0.0000 </r>
       <r>    9.1415   -0.0000 </r>
       <r>    9.4242   -0.0000 </r>
       <r>   10.1772   -0.0000 </r>
      </set>
      <set comment="kpoint 12">
       <r>   -5.5815    1.0000 </r>
       <r>    2.8158    1.0000 </r>
       <r>    4.1423    1.0000 </r>
       <r>    4.7994    1.0000 </r>
       <r>    7.9154   -0.0000 </r>
       <r>    9.3002   -0.0000 </r>
       <r>   10.0453   -0.0000 </r>
       <r>   10.5472   -0.0000 </r>
      </set>
      <set comment="kpoint 13">
       <r>   -5.0108    1.0000 </r>
       <r>    1.1835    1.0000 </r>
       <r>    3.7095    1.0000 </r>
       <r>    4.4319    1.0000 </r>
       <r>    8.1293   -0.0000 </r>
       <r>    9.2822   -0.0000 </r>
       <r>   10.3264   -0.0000 </r>
       <r>   10.8079   -0.0000 </r>
      </set>
      <set comment="kpoint 14">
       <r>   -4.2837    1.0000 </r>
       <r>   -0.2812    1.0000 </r>
       <r>    3.4366    1.0000 </r>
       <r>    4.1512    1.0000 </r>
       <r>    8.0891   -0.0000 </r>
       <r>    9.1638   -0.0000 </r>
       <r>   10.2031   -0.0000 </r>
       <r>   11.9622    0.0000 </r>
      </set>
      <set comment="kpoint 15">
       <r>   -3.7340    1.0000 </r>
       <r>   -1.1344    1.0000 </r>
       <r>    3.2570    1.0000 </r>
       <r>    4.1054    1.0000 </r>
       <r>    8.0939   -0.0000 </r>
       <r>    9.0463   -0.0000 </r>
       <r>   10.0360   -0.0000 </r>
       <r>   13.5535    0.0000 </r>
      </set>
      <set comment="kpoint 16">
       <r>   -4.0496    1.0000 </r>
       <r>   -0.6629    1.0000 </r>
       <r>    3.1979    1.0000 </r>
       <r>    4.2953    1.0000 </r>
       <r>    8.2096   -0.0000 </r>
       <r>    9.0669   -0.0000 </r>
       <r>   10.0069   -0.0000 </r>
       <r>   13.0388    0.0000 </r>
      </set>
      <set comment="kpoint 17">
       <r>   -4.7815    1.0000 </r>
       <r>    0.6666    1.0000 </r>
       <r>    3.3158    1.0000 </r>
       <r>    4.6516    1.0000 </r>
       <r>    8.4070   -0.0000 </r>
       <r>    9.1164   -0.0000 </r>
       <r>   10.0410   -0.0000 </r>
       <r>   11.6392    0.0000 </r>
      </set>
      <set comment="kpoint 18">
       <r>   -5.4171    1.0000 </r>
       <r>    2.2423    1.0000 </r>
       <r>    3.7004    1.0000 </r>
       <r>    5.0615    1.0000 </r>
       <r>    8.5549   -0.0000 </r>
       <r>    8.9188   -0.0000 </r>
       <r>    9.8168   -0.0000 </r>
       <r>   10.9975   -0.0000 </r>
      </set>
      <set comment="kpoint 19">
       <r>   -5.8357    1.0000 </r>
       <r>    3.5059    1.0000 </r>
       <r>    4.6153    1.0000 </r>
       <r>    5.2980    1.0045 </r>
       <r>    8.2441   -0.0000 </r>
       <r>    8.7550   -0.0000 </r>
       <r>    9.2989   -0.0000 </r>
       <r>   10.7311   -0.0000 </r>
      </set>
      <set comment="kpoint 20">
       <r>   -5.3246    1.0000 </r>
       <r>    2.4649    1.0000 </r>
       <r>    3.9814    1.0000 </r>
       <r>    4.0090    1.0000 </r>
       <r>    7.1469   -0.0000 </r>
       <r>    9.3150   -0.0000 </r>
       <r>   10.8785   -0.0000 </r>
       <r>   10.9926   -0.0000 </r>
      </set>
      <set comment="kpoint 21">
       <r>   -4.8280    1.0000 </r>
       <r>    1.3759    1.0000 </r>
       <r>    3.2942    1.0000 </r>
       <r>    3.7647    1.0000 </r>
       <r>    7.2826   -0.0000 </r>
       <r>    8.9418   -0.0000 </r>
       <r>   11.0315   -0.0000 </r>
       <r>   11.7547    0.0000 </r>
      </set>
      <set comment="kpoint 22">
       <r>   -4.1379    1.0000 </r>
       <r>    0.0979    1.0000 </r>
       <r>    2.6819    1.0000 </r>
       <r>    3.5381    1.0000 </r>
       <r>    7.5466   -0.0000 </r>
       <r>    9.6495   -0.0000 </r>
       <r>   10.7324   -0.0000 </r>
       <r>   11.8435    0.0000 </r>
      </set>
      <set comment="kpoint 23">
       <r>   -3.4511    1.0000 </r>
       <r>   -0.9197    1.0000 </r>
       <r>    2.2080    1.0000 </r>
       <r>    3.5580    1.0000 </r>
       <r>    7.6732   -0.0000 </r>
       <r>   10.4085   -0.0000 </r>
       <r>   11.3102    0.0000 </r>
       <r>   11.6490    0.0000 </r>
      </set>
      <set comment="kpoint 24">
       <r>   -3.4753    1.0000 </r>
       <r>   -0.8802    1.0000 </r>
       <r>    1.9603    1.0000 </r>
       <r>    3.8069    1.0000 </r>
       <r>    7.9441   -0.0000 </r>
       <r>   10.1749   -0.0000 </r>
       <r>   11.4536    0.0000 </r>
       <r>   12.9826    0.0000 </r>
      </set>
      <set comment="kpoint 25">
       <r>   -4.1698    1.0000 </r>
       <r>    0.1256    1.0000 </r>
       <r>    2.0618    1.0000 </r>
       <r>    4.2232    1.0000 </r>
       <r>    8.3828   -0.0000 </r>
       <r>    9.9159   -0.0000 </r>
       <r>   11.1612   -0.0000 </r>
       <r>   11.4682    0.0000 </r>
      </set>
      <set comment="kpoint 26">
       <r>   -4.8509    1.0000 </r>
       <r>    1.1048    1.0000 </r>
       <r>    2.8133    1.0000 </r>
       <r>    4.6899    1.0000 </r>
       <r>    8.7452   -0.0000 </r>
       <r>    9.2016   -0.0000 </r>
       <r>   10.4304   -0.0000 </r>
       <r>   11.0170   -0.0000 </r>
      </set>
      <set comment="kpoint 27">
       <r>   -5.3376    1.0000 </r>
       <r>    1.7531    1.0000 </r>
       <r>    4.1820    1.0000 </r>
       <r>    4.9304    1.0000 </r>
       <r>    8.1725   -0.0000 </r>
       <r>    8.9626   -0.0000 </r>
       <r>    9.7431   -0.0000 </r>
       <r>   11.4617    0.0000 </r>
      </set>
      <set comment="kpoint 28">
       <r>   -4.4061    1.0000 </r>
       <r>    0.7597    1.0000 </r>
       <r>    3.2266    1.0000 </r>
       <r>    3.3363    1.0000 </r>
       <r>    6.6234   -0.0000 </r>
       <r>    7.9792   -0.0000 </r>
       <r>   12.6565    0.0000 </r>
       <r>   12.7356    0.0000 </r>
      </set>
      <set comment="kpoint 29">
       <r>   -3.7710    1.0000 </r>
       <r>   -0.1665    1.0000 </r>
       <r>    2.6845    1.0000 </r>
       <r>    3.0716    1.0000 </r>
       <r>    6.8880   -0.0000 </r>
       <r>    7.8531   -0.0000 </r>
       <r>   12.6754    0.0000 </r>
       <r>   13.6066    0.0000 </r>
      </set>
      <set comment="kpoint 30">
       <r>   -3.0325    1.0000 </r>
       <r>   -1.0448    1.0000 </r>
       <r>    1.8769    1.0000 </r>
       <r>    3.0801    1.0000 </r>
       <r>    7.1191   -0.0000 </r>
       <r>    9.0631   -0.0000 </r>
       <r>   12.3410    0.0000 </r>
       <r>   13.5736    0.0000 </r>
      </set>
      <set comment="kpoint 31">
       <r>   -2.8065    1.0000 </r>
       <r>   -1.2678    1.0000 </r>
       <r>    1.3811    1.0000 </r>
       <r>    3.3210    1.0000 </r>
       <r>    7.3947   -0.0000 </r>
       <r>   10.9693   -0.0000 </r>
       <r>   11.9873    0.0000 </r>
       <r>   12.9491    0.0000 </r>
      </set>
      <set comment="kpoint 32">
       <r>   -3.4413    1.0000 </r>
       <r>   -0.6729    1.0000 </r>
       <r>    1.5443    1.0000 </r>
       <r>    3.7454    1.0000 </r>
[...]
        <r>  0.0382  0.1363  0.0971 </r>
       </set>
       <set comment="band 8">
        <r>  0.0296  0.1578  0.0917 </r>
        <r>  0.0296  0.1578  0.0917 </r>
       </set>
      </set>
      <set comment="kpoint 93">
       <set comment="band 1">
        <r>  0.2929  0.0527  0.0089 </r>
        <r>  0.2929  0.0527  0.0089 </r>
       </set>
       <set comment="band 2">
        <r>  0.2412  0.1043  0.0119 </r>
        <r>  0.2412  0.1043  0.0119 </r>
       </set>
       <set comment="band 3">
        <r>  0.0131  0.2527  0.0102 </r>
        <r>  0.0131  0.2527  0.0102 </r>
       </set>
       <set comment="band 4">
        <r>  0.0019  0.2922  0.0142 </r>
        <r>  0.0019  0.2922  0.0142 </r>
       </set>
       <set comment="band 5">
        <r>  0.0506  0.0982  0.0851 </r>
        <r>  0.0506  0.0982  0.0851 </r>
       </set>
       <set comment="band 6">
        <r>  0.0231  0.1228  0.1032 </r>
        <r>  0.0231  0.1228  0.1032 </r>
       </set>
       <set comment="band 7">
        <r>  0.0471  0.1587  0.0870 </r>
        <r>  0.0471  0.1587  0.0870 </r>
       </set>
       <set comment="band 8">
        <r>  0.0253  0.2307  0.0703 </r>
        <r>  0.0253  0.2307  0.0703 </r>
       </set>
      </set>
      <set comment="kpoint 94">
       <set comment="band 1">
        <r>  0.2977  0.0368  0.0054 </r>
        <r>  0.2977  0.0368  0.0054 </r>
       </set>
       <set comment="band 2">
        <r>  0.1853  0.1432  0.0120 </r>
        <r>  0.1853  0.1432  0.0120 </r>
       </set>
       <set comment="band 3">
        <r>  0.0446  0.2497  0.0202 </r>
        <r>  0.0446  0.2497  0.0202 </r>
       </set>
       <set comment="band 4">
        <r>  0.0000  0.3176  0.0181 </r>
        <r>  0.0000  0.3176  0.0181 </r>
       </set>
       <set comment="band 5">
        <r>  0.0601  0.0930  0.0815 </r>
        <r>  0.0601  0.0930  0.0815 </r>
       </set>
       <set comment="band 6">
        <r>  0.0834  0.1750  0.0682 </r>
        <r>  0.0834  0.1750  0.0682 </r>
       </set>
       <set comment="band 7">
        <r>  0.0198  0.1096  0.1110 </r>
        <r>  0.0198  0.1096  0.1110 </r>
       </set>
       <set comment="band 8">
        <r>  0.0000  0.1685  0.1160 </r>
        <r>  0.0000  0.1685  0.1160 </r>
       </set>
      </set>
      <set comment="kpoint 95">
       <set comment="band 1">
        <r>  0.2950  0.0453  0.0072 </r>
        <r>  0.2950  0.0453  0.0072 </r>
       </set>
       <set comment="band 2">
        <r>  0.2181  0.1216  0.0122 </r>
        <r>  0.2181  0.1216  0.0122 </r>
       </set>
       <set comment="band 3">
        <r>  0.0286  0.2490  0.0135 </r>
        <r>  0.0286  0.2490  0.0135 </r>
       </set>
       <set comment="band 4">
        <r>  0.0011  0.2969  0.0167 </r>
        <r>  0.0011  0.2969  0.0167 </r>
       </set>
       <set comment="band 5">
        <r>  0.0499  0.1058  0.0843 </r>
        <r>  0.0499  0.1058  0.0843 </r>
       </set>
       <set comment="band 6">
        <r>  0.0067  0.1190  0.1160 </r>
        <r>  0.0067  0.1190  0.1160 </r>
       </set>
       <set comment="band 7">
        <r>  0.0726  0.1557  0.0702 </r>
        <r>  0.0726  0.1557  0.0702 </r>
       </set>
       <set comment="band 8">
        <r>  0.0197  0.1869  0.1100 </r>
        <r>  0.0197  0.1869  0.1100 </r>
       </set>
      </set>
      <set comment="kpoint 96">
       <set comment="band 1">
        <r>  0.2911  0.0562  0.0093 </r>
        <r>  0.2911  0.0562  0.0093 </r>
       </set>
       <set comment="band 2">
        <r>  0.2561  0.0952  0.0127 </r>
        <r>  0.2561  0.0952  0.0127 </r>
       </set>
       <set comment="band 3">
        <r>  0.0068  0.2549  0.0091 </r>
        <r>  0.0068  0.2549  0.0091 </r>
       </set>
       <set comment="band 4">
        <r>  0.0014  0.2753  0.0141 </r>
        <r>  0.0014  0.2753  0.0141 </r>
       </set>
       <set comment="band 5">
        <r>  0.0224  0.1281  0.0978 </r>
        <r>  0.0224  0.1281  0.0978 </r>
       </set>
       <set comment="band 6">
        <r>  0.0300  0.1316  0.0978 </r>
        <r>  0.0300  0.1316  0.0978 </r>
       </set>
       <set comment="band 7">
        <r>  0.0601  0.1341  0.0824 </r>
        <r>  0.0601  0.1341  0.0824 </r>
       </set>
       <set comment="band 8">
        <r>  0.0303  0.1587  0.0932 </r>
        <r>  0.0303  0.1587  0.0932 </r>
       </set>
      </set>
      <set comment="kpoint 97">
       <set comment="band 1">
        <r>  0.2864  0.0649  0.0107 </r>
        <r>  0.2864  0.0649  0.0107 </r>
       </set>
       <set comment="band 2">
        <r>  0.2703  0.0820  0.0119 </r>
        <r>  0.2703  0.0820  0.0119 </r>
       </set>
       <set comment="band 3">
        <r>  0.0012  0.2590  0.0092 </r>
        <r>  0.0012  0.2590  0.0092 </r>
       </set>
       <set comment="band 4">
        <r>  0.0007  0.2686  0.0117 </r>
        <r>  0.0007  0.2686  0.0117 </r>
       </set>
       <set comment="band 5">
        <r>  0.0284  0.1237  0.0968 </r>
        <r>  0.0284  0.1237  0.0968 </r>
       </set>
       <set comment="band 6">
        <r>  0.0099  0.1255  0.1105 </r>
        <r>  0.0099  0.1255  0.1105 </r>
       </set>
       <set comment="band 7">
        <r>  0.0625  0.1487  0.0769 </r>
        <r>  0.0625  0.1487  0.0769 </r>
       </set>
       <set comment="band 8">
        <r>  0.0418  0.1521  0.0881 </r>
        <r>  0.0418  0.1521  0.0881 </r>
       </set>
      </set>
      <set comment="kpoint 98">
       <set comment="band 1">
        <r>  0.2940  0.0511  0.0087 </r>
        <r>  0.2940  0.0511  0.0087 </r>
       </set>
       <set comment="band 2">
        <r>  0.2340  0.1082  0.0115 </r>
        <r>  0.2340  0.1082  0.0115 </r>
       </set>
       <set comment="band 3">
        <r>  0.0137  0.2519  0.0103 </r>
        <r>  0.0137  0.2519  0.0103 </r>
       </set>
       <set comment="band 4">
        <r>  0.0000  0.3166  0.0129 </r>
        <r>  0.0000  0.3166  0.0129 </r>
       </set>
       <set comment="band 5">
        <r>  0.0616  0.0689  0.0843 </r>
        <r>  0.0616  0.0689  0.0843 </r>
       </set>
       <set comment="band 6">
        <r>  0.0282  0.1229  0.1003 </r>
        <r>  0.0282  0.1229  0.1003 </r>
       </set>
       <set comment="band 7">
        <r>  0.0609  0.1839  0.0791 </r>
        <r>  0.0609  0.1839  0.0791 </r>
       </set>
       <set comment="band 8">
        <r>  0.0000  0.1741  0.1157 </r>
        <r>  0.0000  0.1741  0.1157 </r>
       </set>
      </set>
      <set comment="kpoint 99">
       <set comment="band 1">
        <r>  0.2919  0.0587  0.0104 </r>
        <r>  0.2919  0.0587  0.0104 </r>
       </set>
       <set comment="band 2">
        <r>  0.2552  0.0920  0.0114 </r>
        <r>  0.2552  0.0920  0.0114 </r>
       </set>
       <set comment="band 3">
        <r>  0.0017  0.2564  0.0081 </r>
        <r>  0.0017  0.2564  0.0081 </r>
       </set>
       <set comment="band 4">
        <r>  0.0032  0.2896  0.0131 </r>
        <r>  0.0032  0.2896  0.0131 </r>
       </set>
       <set comment="band 5">
        <r>  0.0512  0.0946  0.0855 </r>
        <r>  0.0512  0.0946  0.0855 </r>
       </set>
       <set comment="band 6">
        <r>  0.0263  0.1250  0.1013 </r>
        <r>  0.0263  0.1250  0.1013 </r>
       </set>
       <set comment="band 7">
        <r>  0.0344  0.1655  0.0924 </r>
        <r>  0.0344  0.1655  0.0924 </r>
       </set>
       <set comment="band 8">
        <r>  0.0315  0.1667  0.0921 </r>
        <r>  0.0315  0.1667  0.0921 </r>
       </set>
      </set>
      <set comment="kpoint 100">
       <set comment="band 1">
        <r>  0.2941  0.0563  0.0103 </r>
        <r>  0.2941  0.0563  0.0103 </r>
       </set>
       <set comment="band 2">
        <r>  0.2483  0.0961  0.0110 </r>
        <r>  0.2483  0.0961  0.0110 </r>
       </set>
       <set comment="band 3">
        <r>  0.0017  0.2554  0.0077 </r>
        <r>  0.0017  0.2554  0.0077 </r>
       </set>
       <set comment="band 4">
        <r>  0.0000  0.3165  0.0118 </r>
        <r>  0.0000  0.3165  0.0118 </r>
       </set>
       <set comment="band 5">
        <r>  0.0627  0.0641  0.0850 </r>
        <r>  0.0627  0.0641  0.0850 </r>
       </set>
       <set comment="band 6">
        <r>  0.0290  0.1245  0.0995 </r>
        <r>  0.0290  0.1245  0.0995 </r>
       </set>
       <set comment="band 7">
        <r>  0.0000  0.2041  0.0988 </r>
        <r>  0.0000  0.2041  0.0988 </r>
       </set>
       <set comment="band 8">
        <r>  0.0507  0.1892  0.0818 </r>
        <r>  0.0507  0.1892  0.0818 </r>
       </set>
      </set>
      <set comment="kpoint 101">
       <set comment="band 1">
        <r>  0.3041  0.0243  0.0036 </r>
        <r>  0.3041  0.0243  0.0036 </r>
       </set>
       <set comment="band 2">
        <r>  0.1417  0.1684  0.0114 </r>
        <r>  0.1417  0.1684  0.0114 </r>
       </set>
       <set comment="band 3">
        <r>  0.0000  0.3325  0.0299 </r>
        <r>  0.0000  0.3325  0.0299 </r>
       </set>
       <set comment="band 4">
        <r>  0.0000  0.3325  0.0299 </r>
        <r>  0.0000  0.3325  0.0299 </r>
       </set>
       <set comment="band 5">
        <r>  0.2073  0.0458  0.0582 </r>
        <r>  0.2073  0.0458  0.0582 </r>
       </set>
       <set comment="band 6">
        <r>  0.0000  0.1637  0.1000 </r>
        <r>  0.0000  0.1637  0.1000 </r>
       </set>
       <set comment="band 7">
        <r>  0.0000  0.1637  0.1000 </r>
        <r>  0.0000  0.1637  0.1000 </r>
       </set>
       <set comment="band 8">
        <r>  0.0100  0.1480  0.0241 </r>
        <r>  0.0100  0.1480  0.0241 </r>
       </set>
      </set>
      <set comment="kpoint 102">
       <set comment="band 1">
        <r>  0.3038  0.0287  0.0049 </r>
        <r>  0.3038  0.0287  0.0049 </r>
       </set>
       <set comment="band 2">
        <r>  0.1514  0.1600  0.0094 </r>
        <r>  0.1514  0.1600  0.0094 </r>
       </set>
       <set comment="band 3">
        <r>  0.0349  0.2749  0.0241 </r>
        <r>  0.0349  0.2749  0.0241 </r>
       </set>
       <set comment="band 4">
        <r>  0.0000  0.3343  0.0282 </r>
        <r>  0.0000  0.3343  0.0282 </r>
       </set>
       <set comment="band 5">
        <r>  0.1611  0.0891  0.0620 </r>
        <r>  0.1611  0.0891  0.0620 </r>
       </set>
       <set comment="band 6">
        <r>  0.0118  0.1435  0.1005 </r>
        <r>  0.0118  0.1435  0.1005 </r>
       </set>
       <set comment="band 7">
        <r>  0.0000  0.1596  0.1000 </r>
        <r>  0.0000  0.1596  0.1000 </r>
       </set>
       <set comment="band 8">
        <r>  0.0000  0.0548  0.1802 </r>
        <r>  0.0000  0.0548  0.1802 </r>
       </set>
      </set>
      <set comment="kpoint 103">
       <set comment="band 1">
        <r>  0.3020  0.0366  0.0067 </r>
        <r>  0.3020  0.0366  0.0067 </r>
       </set>
       <set comment="band 2">
        <r>  0.1812  0.1419  0.0098 </r>
        <r>  0.1812  0.1419  0.0098 </r>
       </set>
       <set comment="band 3">
        <r>  0.0400  0.2441  0.0157 </r>
        <r>  0.0400  0.2441  0.0157 </r>
       </set>
       <set comment="band 4">
        <r>  0.0000  0.3260  0.0230 </r>
        <r>  0.0000  0.3260  0.0230 </r>
       </set>
       <set comment="band 5">
        <r>  0.0798  0.0888  0.0805 </r>
        <r>  0.0798  0.0888  0.0805 </r>
       </set>
       <set comment="band 6">
        <r>  0.0612  0.1459  0.0885 </r>
        <r>  0.0612  0.1459  0.0885 </r>
       </set>
       <set comment="band 7">
        <r>  0.0000  0.1719  0.1017 </r>
        <r>  0.0000  0.1719  0.1017 </r>
       </set>
       <set comment="band 8">
        <r>  0.0420  0.1780  0.0726 </r>
        <r>  0.0420  0.1780  0.0726 </r>
       </set>
      </set>
      <set comment="kpoint 104">
       <set comment="band 1">
        <r>  0.2992  0.0469  0.0089 </r>
        <r>  0.2992  0.0469  0.0089 </r>
       </set>
       <set comment="band 2">
        <r>  0.2297  0.1118  0.0117 </r>
        <r>  0.2297  0.1118  0.0117 </r>
       </set>
       <set comment="band 3">
        <r>  0.0100  0.2482  0.0084 </r>
        <r>  0.0100  0.2482  0.0084 </r>
       </set>
       <set comment="band 4">
        <r>  0.0000  0.3198  0.0167 </r>
        <r>  0.0000  0.3198  0.0167 </r>
       </set>
       <set comment="band 5">
        <r>  0.0653  0.0728  0.0843 </r>
        <r>  0.0653  0.0728  0.0843 </r>
       </set>
       <set comment="band 6">
        <r>  0.0000  0.2006  0.0941 </r>
        <r>  0.0000  0.2006  0.0941 </r>
       </set>
       <set comment="band 7">
        <r>  0.0064  0.0961  0.1511 </r>
        <r>  0.0064  0.0961  0.1511 </r>
       </set>
       <set comment="band 8">
        <r>  0.0654  0.2078  0.0497 </r>
        <r>  0.0654  0.2078  0.0497 </r>
       </set>
      </set>
      <set comment="kpoint 105">
       <set comment="band 1">
        <r>  0.3067  0.0296  0.0062 </r>
        <r>  0.3067  0.0296  0.0062 </r>
       </set>
       <set comment="band 2">
        <r>  0.1502  0.1571  0.0067 </r>
        <r>  0.1502  0.1571  0.0067 </r>
       </set>
       <set comment="band 3">
        <r>  0.0410  0.2765  0.0260 </r>
        <r>  0.0410  0.2765  0.0260 </r>
       </set>
       <set comment="band 4">
        <r>  0.0000  0.3263  0.0236 </r>
        <r>  0.0000  0.3263  0.0236 </r>
       </set>
       <set comment="band 5">
        <r>  0.1422  0.0921  0.0663 </r>
        <r>  0.1422  0.0921  0.0663 </r>
       </set>
       <set comment="band 6">
        <r>  0.0291  0.1363  0.0933 </r>
        <r>  0.0291  0.1363  0.0933 </r>
       </set>
       <set comment="band 7">
        <r>  0.0000  0.1544  0.1101 </r>
        <r>  0.0000  0.1544  0.1101 </r>
       </set>
       <set comment="band 8">
        <r>  0.0117  0.1391  0.0932 </r>
        <r>  0.0117  0.1391  0.0932 </r>
       </set>
      </set>
      <set comment="kpoint 106">
       <set comment="band 1">
        <r>  0.3071  0.0345  0.0077 </r>
        <r>  0.3071  0.0345  0.0077 </r>
       </set>
       <set comment="band 2">
        <r>  0.1661  0.1468  0.0066 </r>
        <r>  0.1661  0.1468  0.0066 </r>
       </set>
       <set comment="band 3">
        <r>  0.0506  0.2484  0.0193 </r>
        <r>  0.0506  0.2484  0.0193 </r>
       </set>
       <set comment="band 4">
        <r>  0.0014  0.3135  0.0218 </r>
        <r>  0.0014  0.3135  0.0218 </r>
       </set>
       <set comment="band 5">
        <r>  0.1056  0.1135  0.0732 </r>
        <r>  0.1056  0.1135  0.0732 </r>
       </set>
       <set comment="band 6">
        <r>  0.0167  0.1230  0.0972 </r>
        <r>  0.0167  0.1230  0.0972 </r>
       </set>
       <set comment="band 7">
        <r>  0.0238  0.1678  0.1020 </r>
        <r>  0.0238  0.1678  0.1020 </r>
       </set>
       <set comment="band 8">
        <r>  0.0183  0.1371  0.1071 </r>
        <r>  0.0183  0.1371  0.1071 </r>
       </set>
      </set>
      <set comment="kpoint 107">
       <set comment="band 1">
        <r>  0.3026  0.0443  0.0092 </r>
        <r>  0.3026  0.0443  0.0092 </r>
       </set>
       <set comment="band 2">
        <r>  0.2100  0.1217  0.0095 </r>
        <r>  0.2100  0.1217  0.0095 </r>
       </set>
       <set comment="band 3">
        <r>  0.0293  0.2438  0.0119 </r>
        <r>  0.0293  0.2438  0.0119 </r>
       </set>
       <set comment="band 4">
        <r>  0.0024  0.2977  0.0176 </r>
        <r>  0.0024  0.2977  0.0176 </r>
       </set>
       <set comment="band 5">
        <r>  0.0532  0.1045  0.0861 </r>
        <r>  0.0532  0.1045  0.0861 </r>
       </set>
       <set comment="band 6">
        <r>  0.0381  0.1386  0.0947 </r>
        <r>  0.0381  0.1386  0.0947 </r>
       </set>
       <set comment="band 7">
        <r>  0.0288  0.1531  0.0957 </r>
        <r>  0.0288  0.1531  0.0957 </r>
       </set>
       <set comment="band 8">
        <r>  0.0265  0.1885  0.0887 </r>
        <r>  0.0265  0.1885  0.0887 </r>
       </set>
      </set>
      <set comment="kpoint 108">
       <set comment="band 1">
        <r>  0.3084  0.0366  0.0087 </r>
        <r>  0.3084  0.0366  0.0087 </r>
       </set>
       <set comment="band 2">
        <r>  0.1740  0.1412  0.0064 </r>
        <r>  0.1740  0.1412  0.0064 </r>
       </set>
       <set comment="band 3">
        <r>  0.0470  0.2431  0.0173 </r>
        <r>  0.0470  0.2431  0.0173 </r>
       </set>
       <set comment="band 4">
        <r>  0.0000  0.3217  0.0189 </r>
        <r>  0.0000  0.3217  0.0189 </r>
       </set>
       <set comment="band 5">
        <r>  0.0704  0.0835  0.0824 </r>
        <r>  0.0704  0.0835  0.0824 </r>
       </set>
       <set comment="band 6">
        <r>  0.0696  0.1493  0.0844 </r>
        <r>  0.0696  0.1493  0.0844 </r>
       </set>
       <set comment="band 7">
        <r>  0.0000  0.1590  0.1127 </r>
        <r>  0.0000  0.1590  0.1127 </r>
       </set>
       <set comment="band 8">
        <r>  0.0222  0.1485  0.0980 </r>
        <r>  0.0222  0.1485  0.0980 </r>
       </set>
      </set>
      <set comment="kpoint 109">
       <set comment="band 1">
        <r>  0.3136  0.0260  0.0074 </r>
        <r>  0.3136  0.0260  0.0074 </r>
       </set>
       <set comment="band 2">
        <r>  0.1384  0.1605  0.0036 </r>
        <r>  0.1384  0.1605  0.0036 </r>
       </set>
       <set comment="band 3">
        <r>  0.0000  0.3359  0.0257 </r>
        <r>  0.0000  0.3359  0.0257 </r>
       </set>
       <set comment="band 4">
        <r>  0.0000  0.3359  0.0257 </r>
        <r>  0.0000  0.3359  0.0257 </r>
       </set>
       <set comment="band 5">
        <r>  0.2196  0.0332  0.0588 </r>
        <r>  0.2196  0.0332  0.0588 </r>
       </set>
       <set comment="band 6">
        <r>  0.0000  0.1429  0.1070 </r>
        <r>  0.0000  0.1429  0.1070 </r>
       </set>
       <set comment="band 7">
        <r>  0.0000  0.1429  0.1070 </r>
        <r>  0.0000  0.1429  0.1070 </r>
       </set>
       <set comment="band 8">
        <r>  0.0052  0.0762  0.0262 </r>
        <r>  0.0052  0.0762  0.0262 </r>
       </set>
      </set>
      <set comment="kpoint 110">
       <set comment="band 1">
        <r>  0.3154  0.0277  0.0084 </r>
        <r>  0.3154  0.0277  0.0084 </r>
       </set>
       <set comment="band 2">
        <r>  0.1431  0.1571  0.0032 </r>
        <r>  0.1431  0.1571  0.0032 </r>
       </set>
       <set comment="band 3">
        <r>  0.0394  0.2751  0.0236 </r>
        <r>  0.0394  0.2751  0.0236 </r>
       </set>
       <set comment="band 4">
        <r>  0.0000  0.3312  0.0240 </r>
        <r>  0.0000  0.3312  0.0240 </r>
       </set>
       <set comment="band 5">
        <r>  0.1574  0.0844  0.0643 </r>
        <r>  0.1574  0.0844  0.0643 </r>
       </set>
       <set comment="band 6">
        <r>  0.0192  0.1321  0.0993 </r>
        <r>  0.0192  0.1321  0.0993 </r>
       </set>
       <set comment="band 7">
        <r>  0.0000  0.1469  0.1087 </r>
        <r>  0.0000  0.1469  0.1087 </r>
       </set>
       <set comment="band 8">
        <r>  0.0001  0.1376  0.0339 </r>
        <r>  0.0001  0.1376  0.0339 </r>
       </set>
      </set>
     </set>
    </set>
   </array>
  </projected>
 </calculation>
 <structure name="finalpos" >
  <crystal>
   <varray name="basis" >
    <v>       2.73068632       2.73068632      -0.00000000 </v>
    <v>       0.00000000       2.73068632       2.73068632 </v>
    <v>       2.73068632       0.00000000       2.73068632 </v>
   </varray>
   <i name="volume">     40.72353211 </i>
   <varray name="rec_basis" >
    <v>       0.18310415       0.18310415      -0.18310415 </v>
    <v>      -0.18310415       0.18310415       0.18310415 </v>
    <v>       0.18310415      -0.18310415       0.18310415 </v>
   </varray>
  </crystal>
  <varray name="positions" >
   <v>      -0.00000000      -0.00000000       0.00000000 </v>
   <v>       0.25000000       0.25000000       0.25000000 </v>
  </varray>
 </structure>
</modeling>
