 running on    1 total cores
 distrk:  each k-point on    1 cores,    1 groups
 distr:  one band on    1 cores,    1 groups
 using from now: INCAR     
 vasp.5.4.4.18Apr17-6-g9f103f2a35 (build May 20 2018 16:52:39) complex          
  
 POSCAR found type information on POSCAR  Si
 POSCAR found :  1 types and       2 ions
 scaLAPACK will be used
 LDA part: xc-table for Ceperly-Alder, standard interpolation
 POSCAR, INCAR and KPOINTS ok, starting setup
 FFT: planning ...
 WAVECAR not read
 entering main loop
       N       E                     dE             d eps       ncg     rms          rms(c)
DAV:   1     0.192941846811E+02    0.19294E+02   -0.28389E+03  1920   0.475E+02
DAV:   2     0.102617155713E+02   -0.90325E+01   -0.86396E+01  2792   0.669E+01
DAV:   3     0.102158480871E+02   -0.45867E-01   -0.45857E-01  1912   0.573E+00
DAV:   4     0.102157840466E+02   -0.64041E-04   -0.64041E-04  2968   0.191E-01
DAV:   5     0.102157840347E+02   -0.11840E-07   -0.95285E-08  1928   0.147E-03    0.542E+00
DAV:   6     0.111052768006E+02    0.88949E+00   -0.54952E-01  1880   0.453E+00    0.281E+00
DAV:   7     0.114173973221E+02    0.31212E+00   -0.44427E-01  2416   0.410E+00    0.446E-01
DAV:   8     0.114223359020E+02    0.49386E-02   -0.64652E-03  1968   0.807E-01    0.476E-02
DAV:   9     0.114224336876E+02    0.97786E-04   -0.23438E-04  2816   0.958E-02    0.106E-02
DAV:  10     0.114224533449E+02    0.19657E-04   -0.29201E-06  2000   0.164E-02    0.139E-03
DAV:  11     0.114224545274E+02    0.11826E-05   -0.37649E-08  1152   0.167E-03    0.343E-04
DAV:  12     0.114224543443E+02   -0.18313E-06   -0.46260E-09   896   0.566E-04
   1 F= 0.11422454E+02 E0= 0.11421836E+02  d E =0.114225E+02
 curvature:   0.00 expect dE= 0.000E+00 dE for cont linesearch  0.000E+00
 trial: gam= 0.00000 g(F)=  0.236E-45 g(S)=  0.219E+03 ort = 0.000E+00 (trialstep = 0.100E+01)
 search vector abs. value=  0.219E+03
 bond charge predicted
       N       E                     dE             d eps       ncg     rms          rms(c)
DAV:   1    -0.256355487371E+02   -0.37058E+02   -0.73272E+02  3032   0.779E+01    0.119E+01
DAV:   2    -0.157088300838E+02    0.99267E+01   -0.29058E+01  1760   0.282E+01    0.861E+00
DAV:   3    -0.140830559890E+01    0.14301E+02   -0.37215E+01  2440   0.256E+01    0.452E+00
DAV:   4    -0.123487575377E+01    0.17343E+00   -0.27142E+00  2032   0.627E+00    0.164E+00
DAV:   5    -0.130173653659E+01   -0.66861E-01   -0.83242E-01  1760   0.432E+00    0.762E-01
DAV:   6    -0.146876189766E+01   -0.16703E+00   -0.19110E-01  1760   0.198E+00    0.148E-01
DAV:   7    -0.147848502524E+01   -0.97231E-02   -0.10116E-02  1760   0.442E-01    0.392E-02
DAV:   8    -0.148109598614E+01   -0.26110E-02   -0.32551E-03  1760   0.243E-01    0.938E-03
DAV:   9    -0.148106576965E+01    0.30216E-04   -0.36296E-05  1760   0.288E-02    0.209E-03
DAV:  10    -0.148106627868E+01   -0.50903E-06   -0.46481E-06  1768   0.109E-02
   2 F= -.14810663E+01 E0= -.14858666E+01  d E =-.129035E+02
 trial-energy change:  -12.903521  1 .order  -93.936718 -219.338401   31.464966
 step:   0.8745(harm=  0.8745)  dis= 0.00000  next Energy=   -84.488009 (dE=-0.959E+02)
 bond charge predicted
       N       E                     dE             d eps       ncg     rms          rms(c)
DAV:   1    -0.358039864773E+01   -0.20993E+01   -0.14187E+01  1760   0.172E+01    0.216E+00
DAV:   2    -0.331830047946E+01    0.26210E+00   -0.17488E-01  1760   0.189E+00    0.121E+00
DAV:   3    -0.316536107831E+01    0.15294E+00   -0.38229E-01  1864   0.259E+00    0.114E-01
DAV:   4    -0.316215587693E+01    0.32052E-02   -0.73874E-03  1816   0.447E-01    0.326E-02
DAV:   5    -0.316226852911E+01   -0.11265E-03   -0.48933E-04  1768   0.119E-01    0.108E-02
DAV:   6    -0.316229940270E+01   -0.30874E-04   -0.42279E-05  1760   0.324E-02    0.590E-03
DAV:   7    -0.316229472003E+01    0.46827E-05   -0.30885E-06  1784   0.996E-03    0.484E-04
DAV:   8    -0.316229520785E+01   -0.48783E-06   -0.58481E-08   880   0.143E-03
   3 F= -.31622952E+01 E0= -.31655076E+01  d E =-.145847E+02
 curvature:  -0.44 expect dE=-0.167E+01 dE for cont linesearch -0.167E+01
 ZBRENT: interpolating
 opt :   0.7725  next Energy=    -4.640392 (dE=-0.161E+02)
 bond charge predicted
       N       E                     dE             d eps       ncg     rms          rms(c)
DAV:   1    -0.488272998454E+01   -0.17204E+01   -0.11327E+01  1768   0.157E+01BRMIX: very serious problems
 the old and the new charge density differ
 old charge density:     8.00006 new    7.99996
    0.201E+00
DAV:   2    -0.466629409928E+01    0.21644E+00   -0.15395E-01  1768   0.180E+00    0.112E+00
DAV:   3    -0.454934110541E+01    0.11695E+00   -0.28311E-01  1760   0.230E+00    0.100E-01
DAV:   4    -0.454892144605E+01    0.41966E-03   -0.27737E-03  1768   0.320E-01    0.274E-02
DAV:   5    -0.454930133430E+01   -0.37989E-03   -0.45784E-04  1800   0.105E-01    0.130E-02
DAV:   6    -0.454931219568E+01   -0.10861E-04   -0.60727E-05  2240   0.365E-02    0.466E-03
DAV:   7    -0.454930850000E+01    0.36957E-05   -0.16075E-06  1760   0.734E-03    0.452E-04
DAV:   8    -0.454930904385E+01   -0.54384E-06   -0.89138E-08   880   0.175E-03
   4 F= -.45493090E+01 E0= -.45512368E+01  d E =-.159718E+02
 curvature:  -0.39 expect dE=-0.139E+01 dE for cont linesearch -0.139E+01
 ZBRENT: bisectioning
 opt :   0.3863  next Energy=   -14.755849 (dE=-0.262E+02)
 bond charge predicted
       N       E                     dE             d eps       ncg     rms          rms(c)
DAV:   1    -0.169788669778E+02   -0.12430E+02   -0.27605E+02  2328   0.959E+01    0.105E+01
DAV:   2    -0.124438520783E+02    0.45350E+01   -0.27049E+00  1872   0.812E+00    0.600E+00
DAV:   3    -0.101362532181E+02    0.23076E+01   -0.47191E+00  2120   0.104E+01    0.674E-01
DAV:   4    -0.101252622981E+02    0.10991E-01   -0.23191E-02  2072   0.109E+00    0.162E-01
DAV:   5    -0.101249536723E+02    0.30863E-03   -0.10400E-03  2288   0.182E-01    0.126E-02
DAV:   6    -0.101249905996E+02   -0.36927E-04   -0.26601E-05  2184   0.353E-02    0.584E-03
DAV:   7    -0.101249993007E+02   -0.87011E-05   -0.15854E-05  2008   0.266E-02    0.101E-03
DAV:   8    -0.101250000671E+02   -0.76638E-06   -0.27799E-07  2032   0.334E-03
   5 F= -.10125000E+02 E0= -.10125168E+02  d E =-.215475E+02
 curvature:  -2.84 expect dE=-0.349E+01 dE for cont linesearch -0.349E+01
 ZBRENT: bisectioning
 opt :   0.1931  next Energy=   -12.732518 (dE=-0.242E+02)
 bond charge predicted
       N       E                     dE             d eps       ncg     rms          rms(c)
DAV:   1    -0.110827865312E+02   -0.95779E+00   -0.78881E+01  2136   0.546E+01    0.590E+00
DAV:   2    -0.974040253259E+01    0.13424E+01   -0.99166E-01  2376   0.613E+00    0.328E+00
DAV:   3    -0.910982687100E+01    0.63058E+00   -0.13003E+00  1992   0.597E+00    0.572E-01
DAV:   4    -0.910231427617E+01    0.75126E-02   -0.12422E-02  2408   0.939E-01    0.396E-02
DAV:   5    -0.910226136417E+01    0.52912E-04   -0.25058E-04  2280   0.927E-02    0.120E-02
DAV:   6    -0.910225149467E+01    0.98695E-05   -0.64995E-06  2400   0.235E-02    0.850E-04
DAV:   7    -0.910225136905E+01    0.12561E-06   -0.28580E-08  1336   0.130E-03
   6 F= -.91022514E+01 E0= -.91022850E+01  d E =-.205247E+02
 curvature:  -2.12 expect dE=-0.170E+02 dE for cont linesearch -0.170E+02
 ZBRENT: interpolating
 opt :   0.3319  next Energy=   -10.570825 (dE=-0.220E+02)
 bond charge predicted
       N       E                     dE             d eps       ncg     rms          rms(c)
DAV:   1    -0.114555572409E+02   -0.23533E+01   -0.30413E+01  2432   0.282E+01    0.346E+00
DAV:   2    -0.108772428716E+02    0.57831E+00   -0.43061E-01  2024   0.393E+00    0.198E+00
DAV:   3    -0.105718193449E+02    0.30542E+00   -0.65801E-01  2072   0.395E+00    0.253E-01
DAV:   4    -0.105720598598E+02   -0.24051E-03   -0.58451E-03  2112   0.512E-01    0.763E-02
DAV:   5    -0.105720259124E+02    0.33947E-04   -0.42757E-04  2392   0.136E-01    0.130E-02
DAV:   6    -0.105720354129E+02   -0.95005E-05   -0.16047E-05  2176   0.266E-02    0.252E-03
DAV:   7    -0.105720344978E+02    0.91511E-06   -0.79495E-07  2272   0.605E-03
   7 F= -.10572034E+02 E0= -.10572168E+02  d E =-.219945E+02
 curvature:  -0.06 expect dE=-0.133E-01 dE for cont linesearch -0.133E-01
 ZBRENT: interpolating
 opt :   0.2954  next Energy=   -10.723610 (dE=-0.221E+02)
 bond charge predicted
       N       E                     dE             d eps       ncg     rms          rms(c)
DAV:   1    -0.107103936084E+02   -0.13836E+00   -0.23842E+00  2144   0.850E+00    0.978E-01
DAV:   2    -0.106695501903E+02    0.40843E-01   -0.30364E-02  2200   0.102E+00    0.553E-01
DAV:   3    -0.106490070207E+02    0.20543E-01   -0.43304E-02  2064   0.104E+00    0.722E-02
DAV:   4    -0.106489465438E+02    0.60477E-04   -0.29936E-04  2248   0.131E-01    0.118E-02
DAV:   5    -0.106489525379E+02   -0.59941E-05   -0.42009E-06  2456   0.147E-02    0.251E-03
DAV:   6    -0.106489511624E+02    0.13755E-05   -0.44811E-07  1840   0.495E-03    0.322E-04
DAV:   7    -0.106489511800E+02   -0.17641E-07   -0.22518E-08   952   0.105E-03
   8 F= -.10648951E+02 E0= -.10649067E+02  d E =-.220714E+02
 curvature:  -0.63 expect dE=-0.772E-02 dE for cont linesearch -0.772E-02
 ZBRENT: interpolating
 opt :   0.3022  next Energy=   -10.654442 (dE=-0.221E+02)
 bond charge predicted
       N       E                     dE             d eps       ncg     rms          rms(c)
DAV:   1    -0.106544810370E+02   -0.55299E-02   -0.78219E-02  2224   0.152E+00    0.177E-01
DAV:   2    -0.106530970709E+02    0.13840E-02   -0.10339E-03  2144   0.189E-01    0.100E-01
DAV:   3    -0.106523891349E+02    0.70794E-03   -0.14724E-03  2088   0.190E-01    0.130E-02
DAV:   4    -0.106523822180E+02    0.69169E-05   -0.10328E-05  2272   0.241E-02    0.244E-03
DAV:   5    -0.106523814054E+02    0.81258E-06   -0.20003E-07  1592   0.320E-03
   9 F= -.10652381E+02 E0= -.10652500E+02  d E =-.220748E+02
 curvature:  -0.45 expect dE=-0.714E-04 dE for cont linesearch -0.714E-04
 ZBRENT: interpolating
 opt :   0.3015  next Energy=   -10.652446 (dE=-0.221E+02)
 bond charge predicted
       N       E                     dE             d eps       ncg     rms          rms(c)
DAV:   1    -0.106524502220E+02   -0.68004E-04   -0.82497E-04  2200   0.156E-01    0.182E-02
DAV:   2    -0.106524364172E+02    0.13805E-04   -0.10823E-05  2152   0.193E-02    0.103E-02
DAV:   3    -0.106524302090E+02    0.62082E-05   -0.15452E-05  2096   0.195E-02    0.133E-03
DAV:   4    -0.106524306614E+02   -0.45239E-06   -0.10193E-07   944   0.246E-03
  10 F= -.10652431E+02 E0= -.10652549E+02  d E =-.220749E+02
 curvature:  -0.41 expect dE=-0.404E-07 dE for cont linesearch -0.404E-07
 trial: gam= 0.00000 g(F)=  0.640E-42 g(S)=  0.997E-07 ort =-0.468E-02 (trialstep = 0.860E+00)
 search vector abs. value=  0.998E-07
 reached required accuracy - stopping structural energy minimisation
