Si                                      
           1
     1.950000    1.950000    0.000000
     0.000000    1.950000    1.950000
     1.950000    0.000000    1.950000
   Si
   2
Direct configuration=     1
   0.00000000  0.00000000  0.00000000
   0.25000000  0.25000000  0.25000000
Si                                      
           1
     4.539595    4.539595   -0.000000
     0.000000    4.539595    4.539595
     4.539595    0.000000    4.539595
   Si
   2
Direct configuration=     2
  -0.00000000 -0.00000000  0.00000000
   0.25000000  0.25000000  0.25000000
Si                                      
           1
     4.214713    4.214713   -0.000000
     0.000000    4.214713    4.214713
     4.214713    0.000000    4.214713
   Si
   2
Direct configuration=     3
  -0.00000000 -0.00000000  0.00000000
   0.25000000  0.25000000  0.25000000
Si                                      
           1
     3.950477    3.950477   -0.000000
     0.000000    3.950477    3.950477
     3.950477    0.000000    3.950477
   Si
   2
Direct configuration=     4
  -0.00000000 -0.00000000  0.00000000
   0.25000000  0.25000000  0.25000000
Si                                      
           1
     2.950239    2.950239   -0.000000
     0.000000    2.950239    2.950239
     2.950239    0.000000    2.950239
   Si
   2
Direct configuration=     5
  -0.00000000 -0.00000000  0.00000000
   0.25000000  0.25000000  0.25000000
Si                                      
           1
     2.450119    2.450119   -0.000000
     0.000000    2.450119    2.450119
     2.450119    0.000000    2.450119
   Si
   2
Direct configuration=     6
  -0.00000000 -0.00000000  0.00000000
   0.25000000  0.25000000  0.25000000
Si                                      
           1
     2.809612    2.809612   -0.000000
     0.000000    2.809612    2.809612
     2.809612    0.000000    2.809612
   Si
   2
Direct configuration=     7
  -0.00000000 -0.00000000  0.00000000
   0.25000000  0.25000000  0.25000000
Si                                      
           1
     2.715058    2.715058   -0.000000
     0.000000    2.715058    2.715058
     2.715058    0.000000    2.715058
   Si
   2
Direct configuration=     8
  -0.00000000 -0.00000000  0.00000000
   0.25000000  0.25000000  0.25000000
Si                                      
           1
     2.732469    2.732469   -0.000000
     0.000000    2.732469    2.732469
     2.732469    0.000000    2.732469
   Si
   2
Direct configuration=     9
  -0.00000000 -0.00000000  0.00000000
   0.25000000  0.25000000  0.25000000
Si                                      
           1
     2.730686    2.730686   -0.000000
     0.000000    2.730686    2.730686
     2.730686    0.000000    2.730686
   Si
   2
Direct configuration=    10
  -0.00000000 -0.00000000  0.00000000
   0.25000000  0.25000000  0.25000000
