Nb                                      
   3.30080000000000     
    -0.500000    0.500000    0.500000
     0.500000   -0.500000    0.500000
     0.500000    0.500000   -0.500000
   Nb
     1
Direct
  0.000000  0.000000  0.000000
 
   24   24   24
 0.84430013903E+02 0.82791296678E+02 0.77880928156E+02 0.69784869226E+02 0.58883382036E+02
 0.46131732592E+02 0.33141776111E+02 0.21805215048E+02 0.13548257199E+02 0.86970993791E+01
 0.64256602398E+01 0.54150550569E+01 0.51057061726E+01 0.54150550569E+01 0.64256602398E+01
 0.86970993791E+01 0.13548257199E+02 0.21805215048E+02 0.33141776111E+02 0.46131732592E+02
 0.58883382036E+02 0.69784869226E+02 0.77880928156E+02 0.82791296678E+02 0.82791296678E+02
 0.82226411581E+02 0.78358627798E+02 0.71268429646E+02 0.61259460641E+02 0.49112576469E+02
 0.36242727930E+02 0.24476995476E+02 0.15411119202E+02 0.97106984061E+01 0.68642308996E+01
 0.56016131162E+01 0.50945627019E+01 0.51930883284E+01 0.59247871326E+01 0.75702753521E+01
 0.11251815818E+02 0.18078532354E+02 0.28184405701E+02 0.40534771723E+02 0.53367557997E+02
 0.64933628040E+02 0.74023802390E+02 0.80043403015E+02 0.77880928156E+02 0.78358627798E+02
 0.75460422559E+02 0.69323283580E+02 0.60291034003E+02 0.49084029204E+02 0.36944925659E+02
 0.25522692545E+02 0.16378009795E+02 0.10337793983E+02 0.71485867590E+01 0.57079958716E+01
 0.50549218026E+01 0.49692939117E+01 0.54263907551E+01 0.65559580973E+01 0.90311917173E+01
 0.14071628385E+02 0.22276145784E+02 0.33165079474E+02 0.45340068507E+02 0.57080804143E+02
 0.66943864575E+02 0.74023802390E+02 0.69784869226E+02 0.71268429646E+02 0.69323283580E+02
 0.64140634112E+02 0.56160129572E+02 0.46130036990E+02 0.35179512710E+02 0.24742470032E+02
 0.16204648515E+02 0.10384291860E+02 0.71838319758E+01 0.56946925619E+01 0.49727292073E+01
 0.47590711355E+01 0.49877399835E+01 0.57302662671E+01 0.72532261049E+01 0.10518770914E+02
 0.16459234709E+02 0.25181496834E+02 0.35840945538E+02 0.46982746507E+02 0.57080804143E+02
 0.64933628040E+02 0.58883382036E+02 0.61259460641E+02 0.60291034003E+02 0.56160129572E+02
 0.49379480202E+02 0.40749199498E+02 0.31328566953E+02 0.22345241863E+02 0.14945736088E+02
 0.98229653085E+01 0.69350281123E+01 0.55453396245E+01 0.48367839160E+01 0.45632975211E+01
 0.46341201286E+01 0.50738731445E+01 0.60151212257E+01 0.78818526862E+01 0.11625800428E+02
 0.17813166596E+02 0.26210503689E+02 0.35840945538E+02 0.45340068507E+02 0.53367557997E+02
 0.46131732592E+02 0.49112576469E+02 0.49084029204E+02 0.46130036990E+02 0.40749199498E+02
 0.33743585268E+02 0.26100127078E+02 0.18858318338E+02 0.12919554713E+02 0.88020109327E+01
 0.64533860261E+01 0.52762310322E+01 0.46486683383E+01 0.43775202078E+01 0.43636270510E+01
 0.45965105988E+01 0.51612371577E+01 0.62175936651E+01 0.82571684149E+01 0.12033569095E+02
 0.17813166596E+02 0.25181496834E+02 0.33165079474E+02 0.40534771723E+02 0.33141776111E+02
 0.36242727930E+02 0.36944925659E+02 0.35179512710E+02 0.31328566953E+02 0.26100127078E+02
 0.20359767559E+02 0.14961774061E+02 0.10585334012E+02 0.75779270457E+01 0.58526486048E+01
 0.49322213195E+01 0.44259379261E+01 0.42000046961E+01 0.41601987587E+01 0.42758927623E+01
 0.45900419747E+01 0.52117100284E+01 0.62919632454E+01 0.82571684149E+01 0.11625800428E+02
 0.16459234709E+02 0.22276145784E+02 0.28184405701E+02 0.21805215048E+02 0.24476995476E+02
 0.25522692545E+02 0.24742470032E+02 0.22345241863E+02 0.18858318338E+02 0.14961774061E+02
 0.11311793031E+02 0.83926343397E+01 0.64114645778E+01 0.52520004823E+01 0.45713604366E+01
 0.41970817428E+01 0.40348932576E+01 0.40051418576E+01 0.40700375536E+01 0.42432921307E+01
 0.45898254636E+01 0.52117100284E+01 0.62175936651E+01 0.78818526862E+01 0.10518770914E+02
 0.14071628385E+02 0.18078532354E+02 0.13548257199E+02 0.15411119202E+02 0.16378009795E+02
 0.16204648515E+02 0.14945736088E+02 0.12919554713E+02 0.10585334012E+02 0.83926343397E+01
 0.66548374163E+01 0.54726543319E+01 0.47210103825E+01 0.42460986747E+01 0.39914810651E+01
 0.38906447289E+01 0.38842028015E+01 0.39369419079E+01 0.40460685617E+01 0.42432921307E+01
 0.45900419747E+01 0.51612371577E+01 0.60151212257E+01 0.72532261049E+01 0.90311917173E+01
 0.11251815818E+02 0.86970993791E+01 0.97106984061E+01 0.10337793983E+02 0.10384291860E+02
 0.98229653085E+01 0.88020109327E+01 0.75779270457E+01 0.64114645778E+01 0.54726543319E+01
 0.47857312732E+01 0.42971219144E+01 0.39895837329E+01 0.38298668828E+01 0.37761854378E+01
 0.37906824858E+01 0.38473190790E+01 0.39369419079E+01 0.40700375536E+01 0.42758927623E+01
 0.45965105988E+01 0.50738731445E+01 0.57302662671E+01 0.65559580973E+01 0.75702753521E+01
 0.64256602398E+01 0.68642308996E+01 0.71485867590E+01 0.71838319758E+01 0.69350281123E+01
 0.64533860261E+01 0.58526486048E+01 0.52520004823E+01 0.47210103825E+01 0.42971219144E+01
 0.39971044409E+01 0.38119677030E+01 0.37199279020E+01 0.36976252414E+01 0.37258096403E+01
 0.37906824858E+01 0.38842028015E+01 0.40051418576E+01 0.41601987587E+01 0.43636270510E+01
 0.46341201286E+01 0.49877399835E+01 0.54263907551E+01 0.59247871326E+01 0.54150550569E+01
 0.56016131162E+01 0.57079958716E+01 0.56946925619E+01 0.55453396245E+01 0.52762310322E+01
 0.49322213195E+01 0.45713604366E+01 0.42460986747E+01 0.39895837329E+01 0.38119677030E+01
 0.37062309033E+01 0.36586469028E+01 0.36577211019E+01 0.36976252414E+01 0.37761854378E+01
 0.38906447289E+01 0.40348932576E+01 0.42000046961E+01 0.43775202078E+01 0.45632975211E+01
 0.47590711355E+01 0.49692939117E+01 0.51930883284E+01 0.51057061726E+01 0.50945627019E+01
 0.50549218026E+01 0.49727292073E+01 0.48367839160E+01 0.46486683383E+01 0.44259379261E+01
 0.41970817428E+01 0.39914810651E+01 0.38298668828E+01 0.37199279020E+01 0.36586469028E+01
 0.36393001555E+01 0.36586469028E+01 0.37199279020E+01 0.38298668828E+01 0.39914810651E+01
 0.41970817428E+01 0.44259379261E+01 0.46486683383E+01 0.48367839160E+01 0.49727292073E+01
 0.50549218026E+01 0.50945627019E+01 0.54150550569E+01 0.51930883284E+01 0.49692939117E+01
 0.47590711355E+01 0.45632975211E+01 0.43775202078E+01 0.42000046961E+01 0.40348932576E+01
 0.38906447289E+01 0.37761854378E+01 0.36976252414E+01 0.36577211019E+01 0.36586469028E+01
 0.37062309033E+01 0.38119677030E+01 0.39895837329E+01 0.42460986747E+01 0.45713604366E+01
 0.49322213195E+01 0.52762310322E+01 0.55453396245E+01 0.56946925619E+01 0.57079958716E+01
 0.56016131162E+01 0.64256602398E+01 0.59247871326E+01 0.54263907551E+01 0.49877399835E+01
 0.46341201286E+01 0.43636270510E+01 0.41601987587E+01 0.40051418576E+01 0.38842028015E+01
 0.37906824858E+01 0.37258096403E+01 0.36976252414E+01 0.37199279020E+01 0.38119677030E+01
 0.39971044409E+01 0.42971219144E+01 0.47210103825E+01 0.52520004823E+01 0.58526486048E+01
 0.64533860261E+01 0.69350281123E+01 0.71838319758E+01 0.71485867590E+01 0.68642308996E+01
 0.86970993791E+01 0.75702753521E+01 0.65559580973E+01 0.57302662671E+01 0.50738731445E+01
 0.45965105988E+01 0.42758927623E+01 0.40700375536E+01 0.39369419079E+01 0.38473190790E+01
 0.37906824858E+01 0.37761854378E+01 0.38298668828E+01 0.39895837329E+01 0.42971219144E+01
 0.47857312732E+01 0.54726543319E+01 0.64114645778E+01 0.75779270457E+01 0.88020109327E+01
 0.98229653085E+01 0.10384291860E+02 0.10337793983E+02 0.97106984061E+01 0.13548257199E+02
 0.11251815818E+02 0.90311917173E+01 0.72532261049E+01 0.60151212257E+01 0.51612371577E+01
 0.45900419747E+01 0.42432921307E+01 0.40460685617E+01 0.39369419079E+01 0.38842028015E+01
 0.38906447289E+01 0.39914810651E+01 0.42460986747E+01 0.47210103825E+01 0.54726543319E+01
 0.66548374163E+01 0.83926343397E+01 0.10585334012E+02 0.12919554713E+02 0.14945736088E+02
 0.16204648515E+02 0.16378009795E+02 0.15411119202E+02 0.21805215048E+02 0.18078532354E+02
 0.14071628385E+02 0.10518770914E+02 0.78818526862E+01 0.62175936651E+01 0.52117100284E+01
 0.45898254636E+01 0.42432921307E+01 0.40700375536E+01 0.40051418576E+01 0.40348932576E+01
 0.41970817428E+01 0.45713604366E+01 0.52520004823E+01 0.64114645778E+01 0.83926343397E+01
 0.11311793031E+02 0.14961774061E+02 0.18858318338E+02 0.22345241863E+02 0.24742470032E+02
 0.25522692545E+02 0.24476995476E+02 0.33141776111E+02 0.28184405701E+02 0.22276145784E+02
 0.16459234709E+02 0.11625800428E+02 0.82571684149E+01 0.62919632454E+01 0.52117100284E+01
 0.45900419747E+01 0.42758927623E+01 0.41601987587E+01 0.42000046961E+01 0.44259379261E+01
 0.49322213195E+01 0.58526486048E+01 0.75779270457E+01 0.10585334012E+02 0.14961774061E+02
 0.20359767559E+02 0.26100127078E+02 0.31328566953E+02 0.35179512710E+02 0.36944925659E+02
 0.36242727930E+02 0.46131732592E+02 0.40534771723E+02 0.33165079474E+02 0.25181496834E+02
 0.17813166596E+02 0.12033569095E+02 0.82571684149E+01 0.62175936651E+01 0.51612371577E+01
 0.45965105988E+01 0.43636270510E+01 0.43775202078E+01 0.46486683383E+01 0.52762310322E+01
 0.64533860261E+01 0.88020109327E+01 0.12919554713E+02 0.18858318338E+02 0.26100127078E+02
 0.33743585268E+02 0.40749199498E+02 0.46130036990E+02 0.49084029204E+02 0.49112576469E+02
 0.58883382036E+02 0.53367557997E+02 0.45340068507E+02 0.35840945538E+02 0.26210503689E+02
 0.17813166596E+02 0.11625800428E+02 0.78818526862E+01 0.60151212257E+01 0.50738731445E+01
 0.46341201286E+01 0.45632975211E+01 0.48367839160E+01 0.55453396245E+01 0.69350281123E+01
 0.98229653085E+01 0.14945736088E+02 0.22345241863E+02 0.31328566953E+02 0.40749199498E+02
 0.49379480202E+02 0.56160129572E+02 0.60291034003E+02 0.61259460641E+02 0.69784869226E+02
 0.64933628040E+02 0.57080804143E+02 0.46982746507E+02 0.35840945538E+02 0.25181496834E+02
 0.16459234709E+02 0.10518770914E+02 0.72532261049E+01 0.57302662671E+01 0.49877399835E+01
 0.47590711355E+01 0.49727292073E+01 0.56946925619E+01 0.71838319758E+01 0.10384291860E+02
 0.16204648515E+02 0.24742470032E+02 0.35179512710E+02 0.46130036990E+02 0.56160129572E+02
 0.64140634112E+02 0.69323283580E+02 0.71268429646E+02 0.77880928156E+02 0.74023802390E+02
 0.66943864575E+02 0.57080804143E+02 0.45340068507E+02 0.33165079474E+02 0.22276145784E+02
 0.14071628385E+02 0.90311917173E+01 0.65559580973E+01 0.54263907551E+01 0.49692939117E+01
 0.50549218026E+01 0.57079958716E+01 0.71485867590E+01 0.10337793983E+02 0.16378009795E+02
 0.25522692545E+02 0.36944925659E+02 0.49084029204E+02 0.60291034003E+02 0.69323283580E+02
 0.75460422559E+02 0.78358627798E+02 0.82791296678E+02 0.80043403015E+02 0.74023802390E+02
 0.64933628040E+02 0.53367557997E+02 0.40534771723E+02 0.28184405701E+02 0.18078532354E+02
 0.11251815818E+02 0.75702753521E+01 0.59247871326E+01 0.51930883284E+01 0.50945627019E+01
 0.56016131162E+01 0.68642308996E+01 0.97106984061E+01 0.15411119202E+02 0.24476995476E+02
 0.36242727930E+02 0.49112576469E+02 0.61259460641E+02 0.71268429646E+02 0.78358627798E+02
 0.82226411581E+02 0.82791296678E+02 0.82226411581E+02 0.78358627798E+02 0.71268429646E+02
 0.61259460641E+02 0.49112576469E+02 0.36242727930E+02 0.24476995476E+02 0.15411119202E+02
 0.97106984061E+01 0.68642308996E+01 0.56016131162E+01 0.50945627019E+01 0.51930883284E+01
 0.59247871326E+01 0.75702753521E+01 0.11251815818E+02 0.18078532354E+02 0.28184405701E+02
 0.40534771723E+02 0.53367557997E+02 0.64933628040E+02 0.74023802390E+02 0.80043403015E+02
 0.82226411581E+02 0.82791671429E+02 0.80043796820E+02 0.74023841377E+02 0.64933372433E+02
 0.53367361842E+02 0.40534787241E+02 0.28184439347E+02 0.18078407587E+02 0.11251662315E+02
 0.75703166100E+01 0.59249736180E+01 0.51931502802E+01 0.50944101059E+01 0.56014766990E+01
 0.68643240337E+01 0.97109032119E+01 0.15411168369E+02 0.24476875395E+02 0.36242690104E+02
 0.49112733113E+02 0.61259581996E+02 0.71268278583E+02 0.78358356400E+02 0.78358627798E+02
 0.80043796820E+02 0.78358476423E+02 0.73354671582E+02 0.65241759584E+02 0.54549933595E+02
 0.42329767482E+02 0.30162463117E+02 0.19777233959E+02 0.12381575231E+02 0.81349457364E+01
 0.61635060334E+01 0.52560326056E+01 0.49791366763E+01 0.52560438428E+01 0.61635139996E+01
 0.81349176211E+01 0.12381486870E+02 0.19777120528E+02 0.30162426257E+02 0.42329901323E+02
 0.54550234312E+02 0.65242118884E+02 0.73354961491E+02 0.71268429646E+02 0.74023841377E+02
 0.73354671582E+02 0.69322991740E+02 0.62205491885E+02 0.52566446539E+02 0.41377364024E+02
 0.30037640343E+02 0.20111153520E+02 0.12789870563E+02 0.83906202332E+01 0.62590108775E+01
 0.52562342597E+01 0.48527747480E+01 0.49341707006E+01 0.55258056597E+01 0.68099763557E+01
 0.95983876205E+01 0.14983834551E+02 0.23326354112E+02 0.33975048175E+02 0.45525030741E+02
 0.56381796338E+02 0.65242156654E+02 0.61259460641E+02 0.64933372433E+02 0.65241759584E+02
 0.62205491885E+02 0.56160324876E+02 0.47742453640E+02 0.37902861889E+02 0.27882381939E+02
 0.19019469704E+02 0.12358162170E+02 0.82402333472E+01 0.61739171136E+01 0.51716749299E+01
 0.47109023581E+01 0.46571350251E+01 0.49916011816E+01 0.58191241503E+01 0.74660475466E+01
 0.10894199353E+02 0.16852883530E+02 0.25285208145E+02 0.35301446962E+02 0.45524863254E+02
 0.54550088531E+02 0.49112576469E+02 0.53367361842E+02 0.54549933595E+02 0.52566446539E+02
 0.47742453640E+02 0.40749383135E+02 0.32522053308E+02 0.24163608708E+02 0.16778876916E+02
 0.11201876923E+02 0.77092285949E+01 0.59104182262E+01 0.49980377042E+01 0.45482650873E+01
 0.44264638663E+01 0.45842529793E+01 0.50795242578E+01 0.60584546996E+01 0.79663732587E+01
 0.11651182668E+02 0.17527842968E+02 0.25284970214E+02 0.33974749152E+02 0.42329694668E+02
 0.36242727930E+02 0.40534787241E+02 0.42329767482E+02 0.41377364024E+02 0.37902861889E+02
 0.32522053308E+02 0.26100139554E+02 0.19596083770E+02 0.13894917792E+02 0.96158668304E+01
 0.69341414156E+01 0.55181193454E+01 0.47541683809E+01 0.43668602736E+01 0.42341456715E+01
 0.42937281099E+01 0.45651253550E+01 0.51472925907E+01 0.61947952723E+01 0.81535673394E+01
 0.11651000426E+02 0.16852623054E+02 0.23326200244E+02 0.30162422250E+02 0.24476995476E+02
 0.28184439347E+02 0.30162463117E+02 0.30037640343E+02 0.27882381939E+02 0.24163608708E+02
 0.19596083770E+02 0.14961789516E+02 0.10939265068E+02 0.79586200763E+01 0.60987792596E+01
 0.50696186401E+01 0.44769564973E+01 0.41784418284E+01 0.40715547963E+01 0.40931004224E+01
 0.42379226402E+01 0.45619741788E+01 0.51716015252E+01 0.61947159890E+01 0.79662509467E+01
 0.10894168184E+02 0.14983959788E+02 0.19777310383E+02 0.15411119202E+02 0.18078407587E+02
 0.19777233959E+02 0.20111153520E+02 0.19019469704E+02 0.16778876916E+02 0.13894917792E+02
 0.10939265068E+02 0.83925561757E+01 0.65283771769E+01 0.53529929467E+01 0.46345869401E+01
 0.42086138213E+01 0.40009721707E+01 0.39340207278E+01 0.39531108185E+01 0.40410267085E+01
 0.42225944949E+01 0.45619742327E+01 0.51472931275E+01 0.60585151599E+01 0.74662071596E+01
 0.95985817921E+01 0.12381588169E+02 0.97106984061E+01 0.11251662315E+02 0.12381575231E+02
 0.12789870563E+02 0.12358162170E+02 0.11201876923E+02 0.96158668304E+01 0.79586200763E+01
 0.65283771769E+01 0.54725868211E+01 0.47517506738E+01 0.42666922374E+01 0.39829777994E+01
 0.38518912414E+01 0.38215328007E+01 0.38516779487E+01 0.39228619030E+01 0.40410576007E+01
 0.42379772461E+01 0.45652064378E+01 0.50796294101E+01 0.58192107718E+01 0.68099706729E+01
 0.81347833780E+01 0.68642308996E+01 0.75703166100E+01 0.81349457364E+01 0.83906202332E+01
 0.82402333472E+01 0.77092285949E+01 0.69341414156E+01 0.60987792596E+01 0.53529929467E+01
 0.47517506738E+01 0.42971268330E+01 0.39921613389E+01 0.38172423174E+01 0.37422559345E+01
 0.37373616949E+01 0.37787441526E+01 0.38517044259E+01 0.39531610417E+01 0.40931540133E+01
 0.42937547198E+01 0.45842217393E+01 0.49914942051E+01 0.55256374544E+01 0.61633424688E+01
 0.56016131162E+01 0.59249736180E+01 0.61635060334E+01 0.62590108775E+01 0.61739171136E+01
 0.59104182262E+01 0.55181193454E+01 0.50696186401E+01 0.46345869401E+01 0.42666922374E+01
 0.39921613389E+01 0.38119699766E+01 0.37120851518E+01 0.36749174385E+01 0.36864122831E+01
 0.37373739337E+01 0.38215573272E+01 0.39340382786E+01 0.40715326464E+01 0.42340622875E+01
 0.44263328369E+01 0.46570060992E+01 0.49341051803E+01 0.52560813570E+01 0.50945627019E+01
 0.51931502802E+01 0.52560326056E+01 0.52562342597E+01 0.51716749299E+01 0.49980377042E+01
 0.47541683809E+01 0.44769564973E+01 0.42086138213E+01 0.39829777994E+01 0.38172423174E+01
 0.37120851518E+01 0.36586464532E+01 0.36475699759E+01 0.36749211840E+01 0.37422624956E+01
 0.38518889912E+01 0.40009414253E+01 0.41783745491E+01 0.43667801247E+01 0.45482232918E+01
 0.47109455854E+01 0.48529091170E+01 0.49793170440E+01 0.51930883284E+01 0.50944101059E+01
 0.49791366763E+01 0.48527747480E+01 0.47109023581E+01 0.45482650873E+01 0.43668602736E+01
 0.41784418284E+01 0.40009721707E+01 0.38518912414E+01 0.37422559345E+01 0.36749174385E+01
 0.36475699759E+01 0.36586482122E+01 0.37120866720E+01 0.38172381598E+01 0.39829613126E+01
 0.42085895141E+01 0.44769487903E+01 0.47542105588E+01 0.49981445609E+01 0.51718219649E+01
 0.52563631629E+01 0.52560813570E+01 0.59247871326E+01 0.56014766990E+01 0.52560438428E+01
 0.49341707006E+01 0.46571350251E+01 0.44264638663E+01 0.42341456715E+01 0.40715547963E+01
 0.39340207278E+01 0.38215328007E+01 0.37373616949E+01 0.36864122831E+01 0.36749211840E+01
 0.37120866720E+01 0.38119680762E+01 0.39921594942E+01 0.42667021761E+01 0.46346284734E+01
 0.50697054448E+01 0.55182374619E+01 0.59105200302E+01 0.61739443522E+01 0.62589327196E+01
 0.61633424688E+01 0.75702753521E+01 0.68643240337E+01 0.61635139996E+01 0.55258056597E+01
 0.49916011816E+01 0.45842529793E+01 0.42937281099E+01 0.40931004224E+01 0.39531108185E+01
 0.38516779487E+01 0.37787441526E+01 0.37373739337E+01 0.37422624956E+01 0.38172381598E+01
 0.39921594942E+01 0.42971488241E+01 0.47518111681E+01 0.53530873821E+01 0.60988774905E+01
 0.69341923335E+01 0.77091834470E+01 0.82400825759E+01 0.83904163302E+01 0.81347833780E+01
 0.11251815818E+02 0.97109032119E+01 0.81349176211E+01 0.68099763557E+01 0.58191241503E+01
 0.50795242578E+01 0.45651253550E+01 0.42379226402E+01 0.40410267085E+01 0.39228619030E+01
 0.38517044259E+01 0.38215573272E+01 0.38518889912E+01 0.39829613126E+01 0.42667021761E+01
 0.47518111681E+01 0.54726787158E+01 0.65284546696E+01 0.79586418478E+01 0.96158101760E+01
 0.11201743672E+02 0.12357993892E+02 0.12789751595E+02 0.12381588169E+02 0.18078532354E+02
 0.15411168369E+02 0.12381486870E+02 0.95983876205E+01 0.74660475466E+01 0.60584546996E+01
 0.51472925907E+01 0.45619741788E+01 0.42225944949E+01 0.40410576007E+01 0.39531610417E+01
 0.39340382786E+01 0.40009414253E+01 0.42085895141E+01 0.46346284734E+01 0.53530873821E+01
 0.65284546696E+01 0.83925697817E+01 0.10939224784E+02 0.13894849976E+02 0.16778791380E+02
 0.19019387170E+02 0.20111130250E+02 0.19777310383E+02 0.28184405701E+02 0.24476875395E+02
 0.19777120528E+02 0.14983834551E+02 0.10894199353E+02 0.79663732587E+01 0.61947952723E+01
 0.51716015252E+01 0.45619742327E+01 0.42379772461E+01 0.40931540133E+01 0.40715326464E+01
 0.41783745491E+01 0.44769487903E+01 0.50697054448E+01 0.60988774905E+01 0.79586418478E+01
 0.10939224784E+02 0.14961756352E+02 0.19596065627E+02 0.24163548476E+02 0.27882264933E+02
 0.30037535520E+02 0.30162422250E+02 0.40534771723E+02 0.36242690104E+02 0.30162426257E+02
 0.23326354112E+02 0.16852883530E+02 0.11651182668E+02 0.81535673394E+01 0.61947159890E+01
 0.51472931275E+01 0.45652064378E+01 0.42937547198E+01 0.42340622875E+01 0.43667801247E+01
 0.47542105588E+01 0.55182374619E+01 0.69341923335E+01 0.96158101760E+01 0.13894849976E+02
 0.19596065627E+02 0.26100086852E+02 0.32521861223E+02 0.37902578630E+02 0.41377150031E+02
 0.42329694668E+02 0.53367557997E+02 0.49112733113E+02 0.42329901323E+02 0.33975048175E+02
 0.25285208145E+02 0.17527842968E+02 0.11651000426E+02 0.79662509467E+01 0.60585151599E+01
 0.50796294101E+01 0.45842217393E+01 0.44263328369E+01 0.45482232918E+01 0.49981445609E+01
 0.59105200302E+01 0.77091834470E+01 0.11201743672E+02 0.16778791380E+02 0.24163548476E+02
 0.32521861223E+02 0.40749027017E+02 0.47742133905E+02 0.52566375179E+02 0.54550088531E+02
 0.64933628040E+02 0.61259581996E+02 0.54550234312E+02 0.45525030741E+02 0.35301446962E+02
 0.25284970214E+02 0.16852623054E+02 0.10894168184E+02 0.74662071596E+01 0.58192107718E+01
 0.49914942051E+01 0.46570060992E+01 0.47109455854E+01 0.51718219649E+01 0.61739443522E+01
 0.82400825759E+01 0.12357993892E+02 0.19019387170E+02 0.27882264933E+02 0.37902578630E+02
 0.47742133905E+02 0.56160260772E+02 0.62205773762E+02 0.65242156654E+02 0.74023802390E+02
 0.71268278583E+02 0.65242118884E+02 0.56381796338E+02 0.45524863254E+02 0.33974749152E+02
 0.23326200244E+02 0.14983959788E+02 0.95985817921E+01 0.68099706729E+01 0.55256374544E+01
 0.49341051803E+01 0.48529091170E+01 0.52563631629E+01 0.62589327196E+01 0.83904163302E+01
 0.12789751595E+02 0.20111130250E+02 0.30037535520E+02 0.41377150031E+02 0.52566375179E+02
 0.62205773762E+02 0.69323466297E+02 0.73354961491E+02 0.80043403015E+02 0.78358356400E+02
 0.73354961491E+02 0.65242156654E+02 0.54550088531E+02 0.42329694668E+02 0.30162422250E+02
 0.19777310383E+02 0.12381588169E+02 0.81347833780E+01 0.61633424688E+01 0.52560813570E+01
 0.49793170440E+01 0.52560813570E+01 0.61633424688E+01 0.81347833780E+01 0.12381588169E+02
 0.19777310383E+02 0.30162422250E+02 0.42329694668E+02 0.54550088531E+02 0.65242156654E+02
 0.73354961491E+02 0.78358356400E+02 0.77880928156E+02 0.78358627798E+02 0.75460422559E+02
 0.69323283580E+02 0.60291034003E+02 0.49084029204E+02 0.36944925659E+02 0.25522692545E+02
 0.16378009795E+02 0.10337793983E+02 0.71485867590E+01 0.57079958716E+01 0.50549218026E+01
 0.49692939117E+01 0.54263907551E+01 0.65559580973E+01 0.90311917173E+01 0.14071628385E+02
 0.22276145784E+02 0.33165079474E+02 0.45340068507E+02 0.57080804143E+02 0.66943864575E+02
 0.74023802390E+02 0.78358627798E+02 0.80043796820E+02 0.78358476423E+02 0.73354671582E+02
 0.65241759584E+02 0.54549933595E+02 0.42329767482E+02 0.30162463117E+02 0.19777233959E+02
 0.12381575231E+02 0.81349457364E+01 0.61635060334E+01 0.52560326056E+01 0.49791366763E+01
 0.52560438428E+01 0.61635139996E+01 0.81349176211E+01 0.12381486870E+02 0.19777120528E+02
 0.30162426257E+02 0.42329901323E+02 0.54550234312E+02 0.65242118884E+02 0.73354961491E+02
 0.75460422559E+02 0.78358476423E+02 0.77880670646E+02 0.74023485419E+02 0.66943568141E+02
 0.57080636905E+02 0.45340094116E+02 0.33165251486E+02 0.22276339028E+02 0.14071742303E+02
 0.90312159950E+01 0.65559436372E+01 0.54263814510E+01 0.49692988246E+01 0.50549321742E+01
 0.57079994178E+01 0.71485672379E+01 0.10337747837E+02 0.16377980062E+02 0.25522764680E+02
 0.36945156653E+02 0.49084374115E+02 0.60291359972E+02 0.69323466297E+02 0.69323283580E+02
 0.73354671582E+02 0.74023485419E+02 0.71267998692E+02 0.65241946943E+02 0.56381800997E+02
 0.45525049636E+02 0.33975022593E+02 0.23326423523E+02 0.14984057482E+02 0.95985813564E+01
 0.68099455983E+01 0.55256304547E+01 0.49341128064E+01 0.48529160535E+01 0.52563634514E+01
 0.62589235160E+01 0.83904026822E+01 0.12789770024E+02 0.20111241780E+02 0.30037763401E+02
 0.41377423913E+02 0.52566561139E+02 0.62205773762E+02 0.60291034003E+02 0.65241759584E+02
 0.66943568141E+02 0.65241946943E+02 0.60291354122E+02 0.52566734131E+02 0.42896869017E+02
 0.32472492968E+02 0.22708355409E+02 0.14880282610E+02 0.96601549423E+01 0.68460705818E+01
 0.55176080629E+01 0.48606993521E+01 0.46633451832E+01 0.48606900567E+01 0.55176109085E+01
 0.68461075033E+01 0.96602206603E+01 0.14880331967E+02 0.22708320688E+02 0.32472324521E+02
 0.42896572029E+02 0.52566375179E+02 0.49084029204E+02 0.54549933595E+02 0.57080636905E+02
 0.56381800997E+02 0.52566734131E+02 0.46130391321E+02 0.37902856237E+02 0.28980935118E+02
 0.20585806625E+02 0.13791940195E+02 0.91838024790E+01 0.66331284531E+01 0.53865385488E+01
 0.47386387165E+01 0.44865813522E+01 0.45424129004E+01 0.49267793860E+01 0.57614499805E+01
 0.73707175828E+01 0.10609708707E+02 0.16070258210E+02 0.23630173086E+02 0.32472195587E+02
 0.41377150031E+02 0.36944925659E+02 0.42329767482E+02 0.45340094116E+02 0.45525049636E+02
 0.42896869017E+02 0.37902856237E+02 0.31328569747E+02 0.24163540011E+02 0.17435525048E+02
 0.11997840250E+02 0.82951696279E+01 0.62134215083E+01 0.51460496582E+01 0.45690534173E+01
 0.43184249414E+01 0.42989542309E+01 0.44989099484E+01 0.49950433742E+01 0.59296747359E+01
 0.76835242232E+01 0.10960178716E+02 0.16070208113E+02 0.22708175706E+02 0.30037535520E+02
 0.25522692545E+02 0.30162463117E+02 0.33165251486E+02 0.33975022593E+02 0.32472492968E+02
 0.28980935118E+02 0.24163540011E+02 0.18858262324E+02 0.13894779513E+02 0.99155092351E+01
 0.72203015193E+01 0.56834998579E+01 0.48360345852E+01 0.43676847221E+01 0.41574308987E+01
 0.41156278013E+01 0.42123245850E+01 0.44853950799E+01 0.50340839872E+01 0.59902045913E+01
 0.76835210291E+01 0.10609674873E+02 0.14880247729E+02 0.20111130250E+02 0.16378009795E+02
 0.19777233959E+02 0.22276339028E+02 0.23326423523E+02 0.22708355409E+02 0.20585806625E+02
 0.17435525048E+02 0.13894779513E+02 0.10585154557E+02 0.79585131239E+01 0.61906200270E+01
 0.51435597550E+01 0.45090901826E+01 0.41604652697E+01 0.40077153664E+01 0.39758525066E+01
 0.40288593045E+01 0.41781394060E+01 0.44821637757E+01 0.50340884901E+01 0.59296805810E+01
 0.73707117733E+01 0.96601978014E+01 0.12789751595E+02 0.10337793983E+02 0.12381575231E+02
 0.14071742303E+02 0.14984057482E+02 0.14880282610E+02 0.13791940195E+02 0.11997840250E+02
 0.99155092351E+01 0.79585131239E+01 0.64113350021E+01 0.53530247831E+01 0.46567609719E+01
 0.42133521997E+01 0.39743545562E+01 0.38773873404E+01 0.38672337506E+01 0.39108988978E+01
 0.40051016806E+01 0.41781394982E+01 0.44853978267E+01 0.49950482354E+01 0.57614528056E+01
 0.68461090744E+01 0.83904163302E+01 0.71485867590E+01 0.81349457364E+01 0.90312159950E+01
 0.95985813564E+01 0.96601549423E+01 0.91838024790E+01 0.82951696279E+01 0.72203015193E+01
 0.61906200270E+01 0.53530247831E+01 0.47210425647E+01 0.42667229117E+01 0.39795616136E+01
 0.38284296811E+01 0.37748393114E+01 0.37841279956E+01 0.38323651117E+01 0.39108992545E+01
 0.40288592466E+01 0.42123246377E+01 0.44989104102E+01 0.49267803199E+01 0.55176139170E+01
 0.62589327196E+01 0.57079958716E+01 0.61635060334E+01 0.65559436372E+01 0.68099455983E+01
 0.68460705818E+01 0.66331284531E+01 0.62134215083E+01 0.56834998579E+01 0.51435597550E+01
 0.46567609719E+01 0.42667229117E+01 0.39896072270E+01 0.38172461932E+01 0.37296455654E+01
 0.37055917262E+01 0.37278419935E+01 0.37841305291E+01 0.38672379414E+01 0.39758567636E+01
 0.41156307206E+01 0.42989558222E+01 0.45424142094E+01 0.48606912826E+01 0.52563631629E+01
 0.50549218026E+01 0.52560326056E+01 0.54263814510E+01 0.55256304547E+01 0.55176080629E+01
 0.53865385488E+01 0.51460496582E+01 0.48360345852E+01 0.45090901826E+01 0.42133521997E+01
 0.39795616136E+01 0.38172461932E+01 0.37199282837E+01 0.36749207375E+01 0.36717928295E+01
 0.37055942178E+01 0.37748447958E+01 0.38773947390E+01 0.40077219834E+01 0.41574345388E+01
 0.43184255969E+01 0.44865800571E+01 0.46633417344E+01 0.48529091170E+01 0.49692939117E+01
 0.49791366763E+01 0.49692988246E+01 0.49341128064E+01 0.48606993521E+01 0.47386387165E+01
 0.45690534173E+01 0.43676847221E+01 0.41604652697E+01 0.39743545562E+01 0.38284296811E+01
 0.37296455654E+01 0.36749207375E+01 0.36577241127E+01 0.36749223377E+01 0.37296487259E+01
 0.38284332881E+01 0.39743563430E+01 0.41604634774E+01 0.43676795701E+01 0.45690464618E+01
 0.47386310666E+01 0.48606912826E+01 0.49341051803E+01 0.54263907551E+01 0.52560438428E+01
 0.50549321742E+01 0.48529160535E+01 0.46633451832E+01 0.44865813522E+01 0.43184249414E+01
 0.41574308987E+01 0.40077153664E+01 0.38773873404E+01 0.37748393114E+01 0.37055917262E+01
 0.36717928295E+01 0.36749223377E+01 0.37199301072E+01 0.38172454759E+01 0.39795553085E+01
 0.42133402738E+01 0.45090771461E+01 0.48360263705E+01 0.51460486990E+01 0.53865426129E+01
 0.55176139170E+01 0.55256374544E+01 0.65559580973E+01 0.61635139996E+01 0.57079994178E+01
 0.52563634514E+01 0.48606900567E+01 0.45424129004E+01 0.42989542309E+01 0.41156278013E+01
 0.39758525066E+01 0.38672337506E+01 0.37841279956E+01 0.37278419935E+01 0.37055942178E+01
 0.37296487259E+01 0.38172454759E+01 0.39895975240E+01 0.42667044576E+01 0.46567433939E+01
 0.51435577934E+01 0.56835223532E+01 0.62134637313E+01 0.66331756407E+01 0.68461090744E+01
 0.68099706729E+01 0.90311917173E+01 0.81349176211E+01 0.71485672379E+01 0.62589235160E+01
 0.55176109085E+01 0.49267793860E+01 0.44989099484E+01 0.42123245850E+01 0.40288593045E+01
 0.39108988978E+01 0.38323651117E+01 0.37841305291E+01 0.37748447958E+01 0.38284332881E+01
 0.39795553085E+01 0.42667044576E+01 0.47210239687E+01 0.53530296109E+01 0.61906677621E+01
 0.72203905644E+01 0.82952742696E+01 0.91838877543E+01 0.96601978014E+01 0.95985817921E+01
 0.14071628385E+02 0.12381486870E+02 0.10337747837E+02 0.83904026822E+01 0.68461075033E+01
 0.57614499805E+01 0.49950433742E+01 0.44853950799E+01 0.41781394060E+01 0.40051016806E+01
 0.39108992545E+01 0.38672379414E+01 0.38773947390E+01 0.39743563430E+01 0.42133402738E+01
 0.46567433939E+01 0.53530296109E+01 0.64113930259E+01 0.79586312356E+01 0.99156573638E+01
 0.11997964261E+02 0.13791992228E+02 0.14880247729E+02 0.14983959788E+02 0.22276145784E+02
 0.19777120528E+02 0.16377980062E+02 0.12789770024E+02 0.96602206603E+01 0.73707175828E+01
 0.59296747359E+01 0.50340839872E+01 0.44821637757E+01 0.41781394982E+01 0.40288592466E+01
 0.39758567636E+01 0.40077219834E+01 0.41604634774E+01 0.45090771461E+01 0.51435577934E+01
 0.61906677621E+01 0.79586312356E+01 0.10585317424E+02 0.13894921063E+02 0.17435575569E+02
 0.20585732322E+02 0.22708175706E+02 0.23326200244E+02 0.33165079474E+02 0.30162426257E+02
 0.25522764680E+02 0.20111241780E+02 0.14880331967E+02 0.10609708707E+02 0.76835242232E+01
 0.59902045913E+01 0.50340884901E+01 0.44853978267E+01 0.42123246377E+01 0.41156307206E+01
 0.41574345388E+01 0.43676795701E+01 0.48360263705E+01 0.56835223532E+01 0.72203905644E+01
 0.99156573638E+01 0.13894921063E+02 0.18858310153E+02 0.24163441927E+02 0.28980703754E+02