   1   1   0   0
  0.1798157E+02  0.2858577E-09  0.2858577E-09  0.2858577E-09  0.5000000E-15
  1.000000000000000E-004
  CAR 
 Nb tetrahedron                          
    103.21551390    -32.22233266  301      4.83263154      1.00000000
    -32.222  0.0000E+00  0.0000E+00
    -31.771  0.0000E+00  0.0000E+00
    -31.319  0.0000E+00  0.0000E+00
    -30.868  0.0000E+00  0.0000E+00
    -30.416  0.0000E+00  0.0000E+00
    -29.965  0.0000E+00  0.0000E+00
    -29.514  0.0000E+00  0.0000E+00
    -29.062  0.0000E+00  0.0000E+00
    -28.611  0.0000E+00  0.0000E+00
    -28.159  0.0000E+00  0.0000E+00
    -27.708  0.0000E+00  0.0000E+00
    -27.256  0.0000E+00  0.0000E+00
    -26.805  0.0000E+00  0.0000E+00
    -26.353  0.0000E+00  0.0000E+00
    -25.902  0.3369E+01  0.3142E+00
    -25.450  0.3196E+01  0.2069E+01
    -24.999  0.4482E+01  0.4095E+01
    -24.548  0.0000E+00  0.6000E+01
    -24.096  0.0000E+00  0.6000E+01
    -23.645  0.0000E+00  0.6000E+01
    -23.193  0.0000E+00  0.6000E+01
    -22.742  0.0000E+00  0.6000E+01
    -22.290  0.0000E+00  0.6000E+01
    -21.839  0.0000E+00  0.6000E+01
    -21.387  0.0000E+00  0.6000E+01
    -20.936  0.0000E+00  0.6000E+01
    -20.484  0.0000E+00  0.6000E+01
    -20.033  0.0000E+00  0.6000E+01
    -19.581  0.0000E+00  0.6000E+01
    -19.130  0.0000E+00  0.6000E+01
    -18.679  0.0000E+00  0.6000E+01
    -18.227  0.0000E+00  0.6000E+01
    -17.776  0.0000E+00  0.6000E+01
    -17.324  0.0000E+00  0.6000E+01
    -16.873  0.0000E+00  0.6000E+01
    -16.421  0.0000E+00  0.6000E+01
    -15.970  0.0000E+00  0.6000E+01
    -15.518  0.0000E+00  0.6000E+01
    -15.067  0.0000E+00  0.6000E+01
    -14.615  0.0000E+00  0.6000E+01
    -14.164  0.0000E+00  0.6000E+01
    -13.712  0.0000E+00  0.6000E+01
    -13.261  0.0000E+00  0.6000E+01
    -12.810  0.0000E+00  0.6000E+01
    -12.358  0.0000E+00  0.6000E+01
    -11.907  0.0000E+00  0.6000E+01
    -11.455  0.0000E+00  0.6000E+01
    -11.004  0.0000E+00  0.6000E+01
    -10.552  0.0000E+00  0.6000E+01
    -10.101  0.0000E+00  0.6000E+01
     -9.649  0.0000E+00  0.6000E+01
     -9.198  0.0000E+00  0.6000E+01
     -8.746  0.0000E+00  0.6000E+01
     -8.295  0.0000E+00  0.6000E+01
     -7.844  0.0000E+00  0.6000E+01
     -7.392  0.0000E+00  0.6000E+01
     -6.941  0.0000E+00  0.6000E+01
     -6.489  0.0000E+00  0.6000E+01
     -6.038  0.0000E+00  0.6000E+01
     -5.586  0.0000E+00  0.6000E+01
     -5.135  0.0000E+00  0.6000E+01
     -4.683  0.0000E+00  0.6000E+01
     -4.232  0.0000E+00  0.6000E+01
     -3.780  0.0000E+00  0.6000E+01
     -3.329  0.0000E+00  0.6000E+01
     -2.877  0.0000E+00  0.6000E+01
     -2.426  0.0000E+00  0.6000E+01
     -1.975  0.0000E+00  0.6000E+01
     -1.523  0.0000E+00  0.6000E+01
     -1.072  0.0000E+00  0.6000E+01
     -0.620  0.4737E-01  0.6013E+01
     -0.169  0.7539E-01  0.6040E+01
      0.283  0.1085E+00  0.6082E+01
      0.734  0.1558E+00  0.6140E+01
      1.186  0.5213E+00  0.6242E+01
      1.637  0.1054E+01  0.6656E+01
      2.089  0.1468E+01  0.7193E+01
      2.540  0.1413E+01  0.7846E+01
      2.992  0.4298E+00  0.8193E+01
      3.443  0.2930E+01  0.8817E+01
      3.894  0.1157E+01  0.9591E+01
      4.346  0.1205E+01  0.1008E+02
      4.797  0.1701E+01  0.1094E+02
      5.249  0.6151E+00  0.1146E+02
      5.700  0.4706E+00  0.1170E+02
      6.152  0.4778E+00  0.1190E+02
      6.603  0.7196E+00  0.1215E+02
      7.055  0.9580E+00  0.1255E+02
      7.506  0.1307E+01  0.1305E+02
      7.958  0.1304E+01  0.1364E+02
      8.409  0.1443E+01  0.1429E+02
      8.860  0.4824E+01  0.1515E+02
      9.312  0.9525E+00  0.1586E+02
      9.763  0.6953E+00  0.1623E+02
     10.215  0.6100E+00  0.1652E+02
     10.666  0.3914E+00  0.1676E+02
     11.118  0.4087E+00  0.1691E+02
     11.569  0.3390E+00  0.1708E+02
     12.021  0.3138E+00  0.1723E+02
     12.472  0.3015E+00  0.1737E+02
     12.924  0.2843E+00  0.1750E+02
     13.375  0.2665E+00  0.1762E+02
     13.827  0.2471E+00  0.1774E+02
     14.278  0.2051E+00  0.1784E+02
     14.729  0.2855E+00  0.1794E+02
     15.181  0.8483E-01  0.1801E+02
     15.632  0.4037E+00  0.1812E+02
     16.084  0.4990E+00  0.1834E+02
     16.535  0.5412E+00  0.1857E+02
     16.987  0.6084E+00  0.1884E+02
     17.438  0.5652E+00  0.1910E+02
     17.890  0.7368E+00  0.1939E+02
     18.341  0.8895E+00  0.1978E+02
     18.793  0.7996E+00  0.2016E+02
     19.244  0.7529E+00  0.2051E+02
     19.696  0.7070E+00  0.2084E+02
     20.147  0.6373E+00  0.2114E+02
     20.598  0.6132E+00  0.2141E+02
     21.050  0.7681E+00  0.2173E+02
     21.501  0.7894E+00  0.2207E+02
     21.953  0.9923E+00  0.2249E+02
     22.404  0.7175E+00  0.2285E+02
     22.856  0.6363E+00  0.2315E+02
     23.307  0.4674E+00  0.2340E+02
     23.759  0.4598E+00  0.2360E+02
     24.210  0.5788E+00  0.2383E+02
     24.662  0.6546E+00  0.2411E+02
     25.113  0.9460E+00  0.2453E+02
     25.564  0.6627E+00  0.2487E+02
     26.016  0.5712E+00  0.2516E+02
     26.467  0.5619E+00  0.2541E+02
     26.919  0.5027E+00  0.2565E+02
     27.370  0.4355E+00  0.2586E+02
     27.822  0.6795E+00  0.2610E+02
     28.273  0.5222E+00  0.2639E+02
     28.725  0.7657E+00  0.2666E+02
     29.176  0.8720E+00  0.2706E+02
     29.628  0.7121E+00  0.2740E+02
     30.079  0.7172E+00  0.2773E+02
     30.531  0.6644E+00  0.2804E+02
     30.982  0.6260E+00  0.2834E+02
     31.433  0.6554E+00  0.2863E+02
     31.885  0.6600E+00  0.2891E+02
     32.336  0.8578E+00  0.2925E+02
     32.788  0.8930E+00  0.2966E+02
     33.239  0.9051E+00  0.3006E+02
     33.691  0.9513E+00  0.3046E+02
     34.142  0.8451E+00  0.3087E+02
     34.594  0.7839E+00  0.3124E+02
     35.045  0.7478E+00  0.3161E+02
     35.497  0.5987E+00  0.3191E+02
     35.948  0.5055E+00  0.3215E+02
     36.400  0.5620E+00  0.3239E+02
     36.851  0.7601E+00  0.3268E+02
     37.302  0.1067E+01  0.3311E+02
     37.754  0.1013E+01  0.3360E+02
     38.205  0.9696E+00  0.3403E+02
     38.657  0.6478E+00  0.3441E+02
     39.108  0.7251E+00  0.3472E+02
     39.560  0.7990E+00  0.3508E+02
     40.011  0.7529E+00  0.3543E+02
     40.463  0.8463E+00  0.3577E+02
     40.914  0.8944E+00  0.3619E+02
     41.366  0.1068E+01  0.3659E+02
     41.817  0.1980E+01  0.3727E+02
     42.268  0.2986E+01  0.3854E+02
     42.720  0.1615E+01  0.3941E+02
     43.171  0.1071E+01  0.3994E+02
     43.623  0.1141E+01  0.4044E+02
     44.074  0.1085E+01  0.4095E+02
     44.526  0.1066E+01  0.4142E+02
     44.977  0.8918E+00  0.4191E+02
     45.429  0.9730E+00  0.4229E+02
     45.880  0.7916E+00  0.4274E+02
     46.332  0.5699E+00  0.4303E+02
     46.783  0.6400E+00  0.4329E+02
     47.235  0.6136E+00  0.4355E+02
     47.686  0.9838E+00  0.4394E+02
     48.137  0.8485E+00  0.4438E+02
     48.589  0.6770E+00  0.4472E+02
     49.040  0.6390E+00  0.4501E+02
     49.492  0.7980E+00  0.4532E+02
     49.943  0.8921E+00  0.4569E+02
     50.395  0.1042E+01  0.4610E+02
     50.846  0.1065E+01  0.4657E+02
     51.298  0.9622E+00  0.4702E+02
     51.749  0.9167E+00  0.4745E+02
     52.201  0.8431E+00  0.4785E+02
     52.652  0.8395E+00  0.4822E+02
     53.104  0.1093E+01  0.4865E+02
     53.555  0.8144E+00  0.4908E+02
     54.006  0.8210E+00  0.4944E+02
     54.458  0.9265E+00  0.4983E+02
     54.909  0.9737E+00  0.5025E+02
     55.361  0.8743E+00  0.5066E+02
     55.812  0.1009E+01  0.5108E+02
     56.264  0.9490E+00  0.5153E+02
     56.715  0.1002E+01  0.5198E+02
     57.167  0.9810E+00  0.5242E+02
     57.618  0.1037E+01  0.5287E+02
     58.070  0.1045E+01  0.5333E+02
     58.521  0.1014E+01  0.5379E+02
     58.972  0.1045E+01  0.5426E+02
     59.424  0.1116E+01  0.5476E+02
     59.875  0.1219E+01  0.5526E+02
     60.327  0.1043E+01  0.5575E+02
     60.778  0.9301E+00  0.5618E+02
     61.230  0.9712E+00  0.5660E+02
     61.681  0.1030E+01  0.5706E+02
     62.133  0.1146E+01  0.5756E+02
     62.584  0.9877E+00  0.5806E+02
     63.036  0.7486E+00  0.5844E+02
     63.487  0.8719E+00  0.5879E+02
     63.939  0.9662E+00  0.5921E+02
     64.390  0.1093E+01  0.5967E+02
     64.841  0.8626E+00  0.6013E+02
     65.293  0.8445E+00  0.6051E+02
     65.744  0.1028E+01  0.6092E+02
     66.196  0.1039E+01  0.6140E+02
     66.647  0.1062E+01  0.6189E+02
     67.099  0.9337E+00  0.6235E+02
     67.550  0.1011E+01  0.6278E+02
     68.002  0.1057E+01  0.6325E+02
     68.453  0.1073E+01  0.6373E+02
     68.905  0.9867E+00  0.6420E+02
     69.356  0.9503E+00  0.6462E+02
     69.808  0.9524E+00  0.6506E+02
     70.259  0.9632E+00  0.6550E+02
     70.710  0.1069E+01  0.6596E+02
     71.162  0.1023E+01  0.6645E+02
     71.613  0.9357E+00  0.6689E+02
     72.065  0.1148E+01  0.6734E+02
     72.516  0.1220E+01  0.6788E+02
     72.968  0.9956E+00  0.6837E+02
     73.419  0.1039E+01  0.6884E+02
     73.871  0.1012E+01  0.6932E+02
     74.322  0.1082E+01  0.6979E+02
     74.774  0.9759E+00  0.7026E+02
     75.225  0.1034E+01  0.7071E+02
     75.676  0.1039E+01  0.7119E+02
     76.128  0.9862E+00  0.7164E+02
     76.579  0.1145E+01  0.7213E+02
     77.031  0.1425E+01  0.7269E+02
     77.482  0.1078E+01  0.7325E+02
     77.934  0.1008E+01  0.7372E+02
     78.385  0.9120E+00  0.7414E+02
     78.837  0.9489E+00  0.7456E+02
     79.288  0.9573E+00  0.7501E+02
     79.740  0.1059E+01  0.7546E+02
     80.191  0.1025E+01  0.7594E+02
     80.643  0.1288E+01  0.7647E+02
     81.094  0.1165E+01  0.7704E+02
     81.545  0.1020E+01  0.7752E+02
     81.997  0.9955E+00  0.7797E+02
     82.448  0.9156E+00  0.7840E+02
     82.900  0.9226E+00  0.7883E+02
     83.351  0.7078E+00  0.7920E+02
     83.803  0.4251E+00  0.7945E+02
     84.254  0.3034E+00  0.7961E+02
     84.706  0.2388E+00  0.7973E+02
     85.157  0.1179E+00  0.7981E+02
     85.609  0.8173E-01  0.7985E+02
     86.060  0.8389E-01  0.7989E+02
     86.512  0.4192E-01  0.7992E+02
     86.963  0.1822E-01  0.7993E+02
     87.414  0.1618E-01  0.7994E+02
     87.866  0.1337E-01  0.7994E+02
     88.317  0.1240E-01  0.7995E+02
     88.769  0.1154E-01  0.7995E+02
     89.220  0.1076E-01  0.7996E+02
     89.672  0.1002E-01  0.7996E+02
     90.123  0.9257E-02  0.7997E+02
     90.575  0.8461E-02  0.7997E+02
     91.026  0.8083E-02  0.7998E+02
     91.478  0.7752E-02  0.7998E+02
     91.929  0.7180E-02  0.7998E+02
     92.380  0.7763E-02  0.7999E+02
     92.832  0.5090E-02  0.7999E+02
     93.283  0.3454E-02  0.7999E+02
     93.735  0.3084E-02  0.7999E+02
     94.186  0.2731E-02  0.7999E+02
     94.638  0.2397E-02  0.8000E+02
     95.089  0.2081E-02  0.8000E+02
     95.541  0.1784E-02  0.8000E+02
     95.992  0.1504E-02  0.8000E+02
     96.444  0.1243E-02  0.8000E+02
     96.895  0.1001E-02  0.8000E+02
     97.347  0.0000E+00  0.8000E+02
     97.798  0.0000E+00  0.8000E+02
     98.249  0.0000E+00  0.8000E+02
     98.701  0.0000E+00  0.8000E+02
     99.152  0.0000E+00  0.8000E+02
     99.604  0.0000E+00  0.8000E+02
    100.055  0.0000E+00  0.8000E+02
    100.507  0.0000E+00  0.8000E+02
    100.958  0.0000E+00  0.8000E+02
    101.410  0.0000E+00  0.8000E+02
    101.861  0.0000E+00  0.8000E+02
    102.313  0.0000E+00  0.8000E+02
    102.764  0.0000E+00  0.8000E+02
    103.216  0.0000E+00  0.8000E+02
