<?xml version="1.0" encoding="ISO-8859-1"?>
<modeling>
 <generator>
  <i name="program" type="string">vasp </i>
  <i name="version" type="string">5.4.4.18Apr17-6-g9f103f2a35  </i>
  <i name="subversion" type="string">(build May 20 2018 16:52:39) complex            parallel </i>
  <i name="platform" type="string">LinuxIFC </i>
  <i name="date" type="string">2022 11 17 </i>
  <i name="time" type="string">22:01:41 </i>
 </generator>
 <incar>
  <i type="string" name="SYSTEM"> Nb tetrahedron</i>
  <i type="string" name="PREC">normal</i>
  <i type="int" name="ICHARG">    11</i>
  <i name="EDIFF">      0.00000010</i>
  <i name="ENCUT">    300.00000000</i>
  <i type="int" name="ISMEAR">    -5</i>
  <i type="logical" name="LCHARG"> F  </i>
  <v type="int" name="KPOINT_BSE">    -1     0     0     0</v>
 </incar>
 <structure name="primitive_cell" >
  <crystal>
   <varray name="basis" >
    <v>      -1.65040000       1.65040000       1.65040000 </v>
    <v>       1.65040000      -1.65040000       1.65040000 </v>
    <v>       1.65040000       1.65040000      -1.65040000 </v>
   </varray>
   <i name="volume">     17.98157117 </i>
   <varray name="rec_basis" >
    <v>       0.00000000       0.30295686       0.30295686 </v>
    <v>       0.30295686       0.00000000       0.30295686 </v>
    <v>       0.30295686       0.30295686       0.00000000 </v>
   </varray>
  </crystal>
  <varray name="positions" >
   <v>       0.00000000       0.00000000       0.00000000 </v>
  </varray>
 </structure>
 <varray name="primitive_index" >
  <v type="int" >        1 </v>
 </varray>
 <kpoints>
  <generation param="Monkhorst-Pack">
   <v type="int" name="divisions">      20       20       20 </v>
   <v name="usershift">      0.00000000       0.00000000       0.00000000 </v>
   <v name="genvec1">      0.05000000       0.00000000       0.00000000 </v>
   <v name="genvec2">      0.00000000       0.05000000       0.00000000 </v>
   <v name="genvec3">      0.00000000       0.00000000       0.05000000 </v>
   <v name="shift">      0.50000000       0.50000000       0.50000000 </v>
  </generation>
  <varray name="kpointlist" >
   <v>       0.02500000       0.02500000       0.02500000 </v>
   <v>       0.07500000       0.02500000       0.02500000 </v>
   <v>       0.12500000       0.02500000       0.02500000 </v>
   <v>       0.17500000       0.02500000       0.02500000 </v>
   <v>       0.22500000       0.02500000       0.02500000 </v>
   <v>       0.27500000       0.02500000       0.02500000 </v>
   <v>       0.32500000       0.02500000       0.02500000 </v>
   <v>       0.37500000       0.02500000       0.02500000 </v>
   <v>       0.42500000       0.02500000       0.02500000 </v>
   <v>       0.47500000       0.02500000       0.02500000 </v>
   <v>      -0.02500000       0.02500000       0.02500000 </v>
   <v>       0.07500000       0.07500000       0.02500000 </v>
   <v>       0.12500000       0.07500000       0.02500000 </v>
   <v>       0.17500000       0.07500000       0.02500000 </v>
   <v>       0.22500000       0.07500000       0.02500000 </v>
   <v>       0.27500000       0.07500000       0.02500000 </v>
   <v>       0.32500000       0.07500000       0.02500000 </v>
   <v>       0.37500000       0.07500000       0.02500000 </v>
   <v>       0.42500000       0.07500000       0.02500000 </v>
   <v>      -0.07500000       0.07500000       0.02500000 </v>
   <v>       0.12500000       0.12500000       0.02500000 </v>
   <v>       0.17500000       0.12500000       0.02500000 </v>
   <v>       0.22500000       0.12500000       0.02500000 </v>
   <v>       0.27500000       0.12500000       0.02500000 </v>
   <v>       0.32500000       0.12500000       0.02500000 </v>
   <v>       0.37500000       0.12500000       0.02500000 </v>
   <v>       0.42500000       0.12500000       0.02500000 </v>
   <v>      -0.12500000       0.12500000       0.02500000 </v>
   <v>      -0.07500000       0.12500000       0.02500000 </v>
   <v>       0.17500000       0.17500000       0.02500000 </v>
   <v>       0.22500000       0.17500000       0.02500000 </v>
   <v>       0.27500000       0.17500000       0.02500000 </v>
   <v>       0.32500000       0.17500000       0.02500000 </v>
   <v>       0.37500000       0.17500000       0.02500000 </v>
   <v>      -0.17500000       0.17500000       0.02500000 </v>
   <v>      -0.12500000       0.17500000       0.02500000 </v>
   <v>       0.22500000       0.22500000       0.02500000 </v>
   <v>       0.27500000       0.22500000       0.02500000 </v>
   <v>       0.32500000       0.22500000       0.02500000 </v>
   <v>       0.37500000       0.22500000       0.02500000 </v>
   <v>      -0.22500000       0.22500000       0.02500000 </v>
   <v>      -0.17500000       0.22500000       0.02500000 </v>
   <v>      -0.12500000       0.22500000       0.02500000 </v>
   <v>       0.27500000       0.27500000       0.02500000 </v>
   <v>       0.32500000       0.27500000       0.02500000 </v>
   <v>      -0.27500000       0.27500000       0.02500000 </v>
   <v>      -0.22500000       0.27500000       0.02500000 </v>
   <v>      -0.17500000       0.27500000       0.02500000 </v>
   <v>       0.32500000       0.32500000       0.02500000 </v>
   <v>      -0.32500000       0.32500000       0.02500000 </v>
   <v>      -0.27500000       0.32500000       0.02500000 </v>
   <v>      -0.22500000       0.32500000       0.02500000 </v>
   <v>      -0.17500000       0.32500000       0.02500000 </v>
   <v>      -0.37500000       0.37500000       0.02500000 </v>
   <v>      -0.32500000       0.37500000       0.02500000 </v>
   <v>      -0.27500000       0.37500000       0.02500000 </v>
   <v>      -0.22500000       0.37500000       0.02500000 </v>
   <v>      -0.42500000       0.42500000       0.02500000 </v>
   <v>      -0.37500000       0.42500000       0.02500000 </v>
   <v>      -0.32500000       0.42500000       0.02500000 </v>
   <v>      -0.27500000       0.42500000       0.02500000 </v>
   <v>      -0.22500000       0.42500000       0.02500000 </v>
   <v>      -0.47500000       0.47500000       0.02500000 </v>
   <v>      -0.42500000       0.47500000       0.02500000 </v>
   <v>      -0.37500000       0.47500000       0.02500000 </v>
   <v>      -0.32500000       0.47500000       0.02500000 </v>
   <v>      -0.27500000       0.47500000       0.02500000 </v>
   <v>      -0.47500000      -0.47500000       0.02500000 </v>
   <v>      -0.42500000      -0.47500000       0.02500000 </v>
   <v>      -0.37500000      -0.47500000       0.02500000 </v>
   <v>      -0.32500000      -0.47500000       0.02500000 </v>
   <v>      -0.27500000      -0.47500000       0.02500000 </v>
   <v>      -0.42500000      -0.42500000       0.02500000 </v>
   <v>      -0.37500000      -0.42500000       0.02500000 </v>
   <v>      -0.32500000      -0.42500000       0.02500000 </v>
   <v>      -0.37500000      -0.37500000       0.02500000 </v>
   <v>      -0.32500000      -0.37500000       0.02500000 </v>
   <v>       0.07500000       0.07500000       0.07500000 </v>
   <v>       0.12500000       0.07500000       0.07500000 </v>
   <v>       0.17500000       0.07500000       0.07500000 </v>
   <v>       0.22500000       0.07500000       0.07500000 </v>
   <v>       0.27500000       0.07500000       0.07500000 </v>
   <v>       0.32500000       0.07500000       0.07500000 </v>
   <v>       0.37500000       0.07500000       0.07500000 </v>
   <v>       0.42500000       0.07500000       0.07500000 </v>
   <v>      -0.07500000       0.07500000       0.07500000 </v>
   <v>       0.12500000       0.12500000       0.07500000 </v>
   <v>       0.17500000       0.12500000       0.07500000 </v>
   <v>       0.22500000       0.12500000       0.07500000 </v>
   <v>       0.27500000       0.12500000       0.07500000 </v>
   <v>       0.32500000       0.12500000       0.07500000 </v>
   <v>       0.37500000       0.12500000       0.07500000 </v>
   <v>      -0.12500000       0.12500000       0.07500000 </v>
   <v>       0.17500000       0.17500000       0.07500000 </v>
   <v>       0.22500000       0.17500000       0.07500000 </v>
   <v>       0.27500000       0.17500000       0.07500000 </v>
   <v>       0.32500000       0.17500000       0.07500000 </v>
   <v>       0.37500000       0.17500000       0.07500000 </v>
   <v>      -0.17500000       0.17500000       0.07500000 </v>
   <v>      -0.12500000       0.17500000       0.07500000 </v>
   <v>       0.22500000       0.22500000       0.07500000 </v>
   <v>       0.27500000       0.22500000       0.07500000 </v>
   <v>       0.32500000       0.22500000       0.07500000 </v>
   <v>      -0.22500000       0.22500000       0.07500000 </v>
   <v>      -0.17500000       0.22500000       0.07500000 </v>
   <v>       0.27500000       0.27500000       0.07500000 </v>
   <v>       0.32500000       0.27500000       0.07500000 </v>
   <v>      -0.27500000       0.27500000       0.07500000 </v>
   <v>      -0.22500000       0.27500000       0.07500000 </v>
   <v>      -0.17500000       0.27500000       0.07500000 </v>
   <v>      -0.32500000       0.32500000       0.07500000 </v>
   <v>      -0.27500000       0.32500000       0.07500000 </v>
   <v>      -0.22500000       0.32500000       0.07500000 </v>
   <v>      -0.37500000       0.37500000       0.07500000 </v>
   <v>      -0.32500000       0.37500000       0.07500000 </v>
   <v>      -0.27500000       0.37500000       0.07500000 </v>
   <v>      -0.22500000       0.37500000       0.07500000 </v>
   <v>      -0.42500000       0.42500000       0.07500000 </v>
   <v>      -0.37500000       0.42500000       0.07500000 </v>
   <v>      -0.32500000       0.42500000       0.07500000 </v>
   <v>      -0.27500000       0.42500000       0.07500000 </v>
   <v>      -0.47500000       0.47500000       0.07500000 </v>
   <v>      -0.42500000       0.47500000       0.07500000 </v>
   <v>      -0.37500000       0.47500000       0.07500000 </v>
   <v>      -0.32500000       0.47500000       0.07500000 </v>
   <v>      -0.27500000       0.47500000       0.07500000 </v>
   <v>      -0.47500000      -0.47500000       0.07500000 </v>
   <v>      -0.42500000      -0.47500000       0.07500000 </v>
   <v>      -0.37500000      -0.47500000       0.07500000 </v>
   <v>      -0.32500000      -0.47500000       0.07500000 </v>
   <v>      -0.42500000      -0.42500000       0.07500000 </v>
   <v>      -0.37500000      -0.42500000       0.07500000 </v>
   <v>      -0.32500000      -0.42500000       0.07500000 </v>
   <v>      -0.37500000      -0.37500000       0.07500000 </v>
   <v>       0.12500000       0.12500000       0.12500000 </v>
   <v>       0.17500000       0.12500000       0.12500000 </v>
   <v>       0.22500000       0.12500000       0.12500000 </v>
   <v>       0.27500000       0.12500000       0.12500000 </v>
   <v>       0.32500000       0.12500000       0.12500000 </v>
   <v>       0.37500000       0.12500000       0.12500000 </v>
   <v>      -0.12500000       0.12500000       0.12500000 </v>
   <v>       0.17500000       0.17500000       0.12500000 </v>
   <v>       0.22500000       0.17500000       0.12500000 </v>
   <v>       0.27500000       0.17500000       0.12500000 </v>
   <v>       0.32500000       0.17500000       0.12500000 </v>
   <v>      -0.17500000       0.17500000       0.12500000 </v>
   <v>       0.22500000       0.22500000       0.12500000 </v>
   <v>       0.27500000       0.22500000       0.12500000 </v>
   <v>       0.32500000       0.22500000       0.12500000 </v>
   <v>      -0.22500000       0.22500000       0.12500000 </v>
   <v>      -0.17500000       0.22500000       0.12500000 </v>
   <v>       0.27500000       0.27500000       0.12500000 </v>
   <v>      -0.27500000       0.27500000       0.12500000 </v>
   <v>      -0.22500000       0.27500000       0.12500000 </v>
   <v>      -0.32500000       0.32500000       0.12500000 </v>
   <v>      -0.27500000       0.32500000       0.12500000 </v>
   <v>      -0.22500000       0.32500000       0.12500000 </v>
   <v>      -0.37500000       0.37500000       0.12500000 </v>
   <v>      -0.32500000       0.37500000       0.12500000 </v>
   <v>      -0.27500000       0.37500000       0.12500000 </v>
   <v>      -0.42500000       0.42500000       0.12500000 </v>
   <v>      -0.37500000       0.42500000       0.12500000 </v>
   <v>      -0.32500000       0.42500000       0.12500000 </v>
   <v>      -0.27500000       0.42500000       0.12500000 </v>
   <v>      -0.47500000       0.47500000       0.12500000 </v>
   <v>      -0.42500000       0.47500000       0.12500000 </v>
   <v>      -0.37500000       0.47500000       0.12500000 </v>
   <v>      -0.32500000       0.47500000       0.12500000 </v>
   <v>      -0.47500000      -0.47500000       0.12500000 </v>
   <v>      -0.42500000      -0.47500000       0.12500000 </v>
   <v>      -0.37500000      -0.47500000       0.12500000 </v>
   <v>      -0.32500000      -0.47500000       0.12500000 </v>
   <v>      -0.42500000      -0.42500000       0.12500000 </v>
   <v>      -0.37500000      -0.42500000       0.12500000 </v>
   <v>      -0.37500000      -0.37500000       0.12500000 </v>
   <v>       0.17500000       0.17500000       0.17500000 </v>
   <v>       0.22500000       0.17500000       0.17500000 </v>
   <v>       0.27500000       0.17500000       0.17500000 </v>
   <v>       0.32500000       0.17500000       0.17500000 </v>
   <v>      -0.17500000       0.17500000       0.17500000 </v>
   <v>       0.22500000       0.22500000       0.17500000 </v>
   <v>       0.27500000       0.22500000       0.17500000 </v>
   <v>      -0.22500000       0.22500000       0.17500000 </v>
   <v>       0.27500000       0.27500000       0.17500000 </v>
   <v>      -0.27500000       0.27500000       0.17500000 </v>
   <v>      -0.22500000       0.27500000       0.17500000 </v>
   <v>      -0.32500000       0.32500000       0.17500000 </v>
   <v>      -0.27500000       0.32500000       0.17500000 </v>
   <v>      -0.37500000       0.37500000       0.17500000 </v>
   <v>      -0.32500000       0.37500000       0.17500000 </v>
   <v>      -0.27500000       0.37500000       0.17500000 </v>
   <v>      -0.42500000       0.42500000       0.17500000 </v>
   <v>      -0.37500000       0.42500000       0.17500000 </v>
   <v>      -0.32500000       0.42500000       0.17500000 </v>
   <v>      -0.47500000       0.47500000       0.17500000 </v>
   <v>      -0.42500000       0.47500000       0.17500000 </v>
   <v>      -0.37500000       0.47500000       0.17500000 </v>
   <v>      -0.32500000       0.47500000       0.17500000 </v>
   <v>      -0.47500000      -0.47500000       0.17500000 </v>
   <v>      -0.42500000      -0.47500000       0.17500000 </v>
   <v>      -0.37500000      -0.47500000       0.17500000 </v>
   <v>      -0.42500000      -0.42500000       0.17500000 </v>
   <v>      -0.37500000      -0.42500000       0.17500000 </v>
   <v>       0.22500000       0.22500000       0.22500000 </v>
   <v>       0.27500000       0.22500000       0.22500000 </v>
   <v>      -0.22500000       0.22500000       0.22500000 </v>
   <v>      -0.27500000       0.27500000       0.22500000 </v>
   <v>      -0.32500000       0.32500000       0.22500000 </v>
   <v>      -0.27500000       0.32500000       0.22500000 </v>
   <v>      -0.37500000       0.37500000       0.22500000 </v>
   <v>      -0.32500000       0.37500000       0.22500000 </v>
   <v>      -0.42500000       0.42500000       0.22500000 </v>
   <v>      -0.37500000       0.42500000       0.22500000 </v>
   <v>      -0.32500000       0.42500000       0.22500000 </v>
   <v>      -0.47500000       0.47500000       0.22500000 </v>
   <v>      -0.42500000       0.47500000       0.22500000 </v>
   <v>      -0.37500000       0.47500000       0.22500000 </v>
   <v>      -0.47500000      -0.47500000       0.22500000 </v>
   <v>      -0.42500000      -0.47500000       0.22500000 </v>
   <v>      -0.37500000      -0.47500000       0.22500000 </v>
   <v>      -0.42500000      -0.42500000       0.22500000 </v>
   <v>      -0.27500000       0.27500000       0.27500000 </v>
   <v>      -0.32500000       0.32500000       0.27500000 </v>
   <v>      -0.37500000       0.37500000       0.27500000 </v>
   <v>      -0.32500000       0.37500000       0.27500000 </v>
   <v>      -0.42500000       0.42500000       0.27500000 </v>
   <v>      -0.37500000       0.42500000       0.27500000 </v>
   <v>      -0.47500000       0.47500000       0.27500000 </v>
   <v>      -0.42500000       0.47500000       0.27500000 </v>
   <v>      -0.37500000       0.47500000       0.27500000 </v>
   <v>      -0.47500000      -0.47500000       0.27500000 </v>
   <v>      -0.42500000      -0.47500000       0.27500000 </v>
   <v>      -0.42500000      -0.42500000       0.27500000 </v>
   <v>      -0.32500000       0.32500000       0.32500000 </v>
   <v>      -0.37500000       0.37500000       0.32500000 </v>
   <v>      -0.42500000       0.42500000       0.32500000 </v>
   <v>      -0.37500000       0.42500000       0.32500000 </v>
   <v>      -0.47500000       0.47500000       0.32500000 </v>
   <v>      -0.42500000       0.47500000       0.32500000 </v>
   <v>      -0.47500000      -0.47500000       0.32500000 </v>
   <v>      -0.42500000      -0.47500000       0.32500000 </v>
   <v>      -0.37500000       0.37500000       0.37500000 </v>
   <v>      -0.42500000       0.42500000       0.37500000 </v>
   <v>      -0.47500000       0.47500000       0.37500000 </v>
   <v>      -0.42500000       0.47500000       0.37500000 </v>
   <v>      -0.47500000      -0.47500000       0.37500000 </v>
   <v>      -0.42500000       0.42500000       0.42500000 </v>
   <v>      -0.47500000       0.47500000       0.42500000 </v>
   <v>      -0.47500000      -0.47500000       0.42500000 </v>
   <v>      -0.47500000       0.47500000       0.47500000 </v>
  </varray>
  <varray name="weights" >
   <v>       0.00100000 </v>
   <v>       0.00300000 </v>
   <v>       0.00300000 </v>
   <v>       0.00300000 </v>
   <v>       0.00300000 </v>
   <v>       0.00300000 </v>
   <v>       0.00300000 </v>
   <v>       0.00300000 </v>
   <v>       0.00300000 </v>
   <v>       0.00150000 </v>
   <v>       0.00075000 </v>
   <v>       0.00300000 </v>
   <v>       0.00600000 </v>
   <v>       0.00600000 </v>
   <v>       0.00600000 </v>
   <v>       0.00600000 </v>
   <v>       0.00600000 </v>
   <v>       0.00600000 </v>
   <v>       0.00600000 </v>
   <v>       0.00300000 </v>
   <v>       0.00300000 </v>
   <v>       0.00600000 </v>
   <v>       0.00600000 </v>
   <v>       0.00600000 </v>
   <v>       0.00600000 </v>
   <v>       0.00600000 </v>
   <v>       0.00300000 </v>
   <v>       0.00300000 </v>
   <v>       0.00300000 </v>
   <v>       0.00300000 </v>
   <v>       0.00600000 </v>
   <v>       0.00600000 </v>
   <v>       0.00600000 </v>
   <v>       0.00600000 </v>
   <v>       0.00300000 </v>
   <v>       0.00600000 </v>
   <v>       0.00300000 </v>
   <v>       0.00600000 </v>
   <v>       0.00600000 </v>
   <v>       0.00300000 </v>
   <v>       0.00300000 </v>
   <v>       0.00600000 </v>
   <v>       0.00300000 </v>
   <v>       0.00300000 </v>
   <v>       0.00600000 </v>
   <v>       0.00300000 </v>
   <v>       0.00600000 </v>
   <v>       0.00600000 </v>
   <v>       0.00100000 </v>
   <v>       0.00300000 </v>
   <v>       0.00600000 </v>
   <v>       0.00600000 </v>
   <v>       0.00300000 </v>
   <v>       0.00300000 </v>
   <v>       0.00600000 </v>
   <v>       0.00600000 </v>
   <v>       0.00600000 </v>
   <v>       0.00300000 </v>
   <v>       0.00600000 </v>
   <v>       0.00600000 </v>
   <v>       0.00600000 </v>
   <v>       0.00300000 </v>
   <v>       0.00300000 </v>
   <v>       0.00600000 </v>
   <v>       0.00600000 </v>
   <v>       0.00600000 </v>
   <v>       0.00600000 </v>
   <v>       0.00300000 </v>
   <v>       0.00600000 </v>
   <v>       0.00600000 </v>
   <v>       0.00600000 </v>
   <v>       0.00300000 </v>
   <v>       0.00300000 </v>
   <v>       0.00600000 </v>
   <v>       0.00600000 </v>
   <v>       0.00300000 </v>
   <v>       0.00300000 </v>
   <v>       0.00100000 </v>
   <v>       0.00300000 </v>
   <v>       0.00300000 </v>
   <v>       0.00300000 </v>
   <v>       0.00300000 </v>
   <v>       0.00300000 </v>
   <v>       0.00300000 </v>
   <v>       0.00150000 </v>
   <v>       0.00075000 </v>
   <v>       0.00300000 </v>
   <v>       0.00600000 </v>
   <v>       0.00600000 </v>
   <v>       0.00600000 </v>
   <v>       0.00600000 </v>
   <v>       0.00600000 </v>
   <v>       0.00300000 </v>
   <v>       0.00300000 </v>
   <v>       0.00600000 </v>
   <v>       0.00600000 </v>
   <v>       0.00600000 </v>
   <v>       0.00300000 </v>
   <v>       0.00300000 </v>
   <v>       0.00300000 </v>
   <v>       0.00300000 </v>
   <v>       0.00600000 </v>
   <v>       0.00600000 </v>
   <v>       0.00300000 </v>
   <v>       0.00600000 </v>
   <v>       0.00300000 </v>
   <v>       0.00300000 </v>
   <v>       0.00300000 </v>
   <v>       0.00600000 </v>
   <v>       0.00300000 </v>
   <v>       0.00300000 </v>
   <v>       0.00600000 </v>
   <v>       0.00600000 </v>
   <v>       0.00300000 </v>
   <v>       0.00600000 </v>
   <v>       0.00600000 </v>
   <v>       0.00300000 </v>
   <v>       0.00300000 </v>
   <v>       0.00600000 </v>
   <v>       0.00600000 </v>
   <v>       0.00600000 </v>
   <v>       0.00300000 </v>
   <v>       0.00600000 </v>
   <v>       0.00600000 </v>
   <v>       0.00600000 </v>
   <v>       0.00300000 </v>
   <v>       0.00300000 </v>
   <v>       0.00600000 </v>
   <v>       0.00600000 </v>
   <v>       0.00600000 </v>
   <v>       0.00300000 </v>
   <v>       0.00600000 </v>
   <v>       0.00300000 </v>
   <v>       0.00300000 </v>
   <v>       0.00100000 </v>
   <v>       0.00300000 </v>
   <v>       0.00300000 </v>
   <v>       0.00300000 </v>
   <v>       0.00300000 </v>
   <v>       0.00150000 </v>
   <v>       0.00075000 </v>
   <v>       0.00300000 </v>
   <v>       0.00600000 </v>
   <v>       0.00600000 </v>
   <v>       0.00600000 </v>
   <v>       0.00300000 </v>
   <v>       0.00300000 </v>
   <v>       0.00600000 </v>
   <v>       0.00300000 </v>
   <v>       0.00300000 </v>
   <v>       0.00300000 </v>
   <v>       0.00300000 </v>
   <v>       0.00300000 </v>
   <v>       0.00600000 </v>
   <v>       0.00300000 </v>
   <v>       0.00600000 </v>
   <v>       0.00300000 </v>
   <v>       0.00300000 </v>
   <v>       0.00600000 </v>
   <v>       0.00600000 </v>
   <v>       0.00300000 </v>
   <v>       0.00600000 </v>
   <v>       0.00600000 </v>
   <v>       0.00300000 </v>
   <v>       0.00300000 </v>
   <v>       0.00600000 </v>
   <v>       0.00600000 </v>
   <v>       0.00600000 </v>
   <v>       0.00300000 </v>
   <v>       0.00600000 </v>
   <v>       0.00600000 </v>
   <v>       0.00300000 </v>
   <v>       0.00300000 </v>
   <v>       0.00600000 </v>
   <v>       0.00100000 </v>
   <v>       0.00100000 </v>
   <v>       0.00300000 </v>
   <v>       0.00300000 </v>
   <v>       0.00150000 </v>
   <v>       0.00075000 </v>
   <v>       0.00300000 </v>
   <v>       0.00600000 </v>
   <v>       0.00300000 </v>
   <v>       0.00100000 </v>
   <v>       0.00300000 </v>
   <v>       0.00300000 </v>
   <v>       0.00300000 </v>
   <v>       0.00600000 </v>
   <v>       0.00300000 </v>
   <v>       0.00600000 </v>
   <v>       0.00300000 </v>
   <v>       0.00300000 </v>
   <v>       0.00600000 </v>
   <v>       0.00600000 </v>
   <v>       0.00300000 </v>
   <v>       0.00600000 </v>
   <v>       0.00600000 </v>
   <v>       0.00300000 </v>
   <v>       0.00300000 </v>
   <v>       0.00600000 </v>
   <v>       0.00600000 </v>
   <v>       0.00300000 </v>
   <v>       0.00300000 </v>
   <v>       0.00100000 </v>
   <v>       0.00150000 </v>
   <v>       0.00075000 </v>
   <v>       0.00300000 </v>
   <v>       0.00300000 </v>
   <v>       0.00300000 </v>
   <v>       0.00300000 </v>
   <v>       0.00600000 </v>
   <v>       0.00300000 </v>
   <v>       0.00600000 </v>
   <v>       0.00300000 </v>
   <v>       0.00300000 </v>
   <v>       0.00600000 </v>
   <v>       0.00600000 </v>
   <v>       0.00300000 </v>
   <v>       0.00600000 </v>
   <v>       0.00300000 </v>
   <v>       0.00300000 </v>
   <v>       0.00075000 </v>
   <v>       0.00300000 </v>
   <v>       0.00300000 </v>
   <v>       0.00300000 </v>
   <v>       0.00300000 </v>
   <v>       0.00600000 </v>
   <v>       0.00300000 </v>
   <v>       0.00600000 </v>
   <v>       0.00300000 </v>
   <v>       0.00300000 </v>
   <v>       0.00600000 </v>
   <v>       0.00100000 </v>
   <v>       0.00075000 </v>
   <v>       0.00300000 </v>
   <v>       0.00300000 </v>
   <v>       0.00300000 </v>
   <v>       0.00300000 </v>
   <v>       0.00600000 </v>
   <v>       0.00300000 </v>
   <v>       0.00300000 </v>
   <v>       0.00075000 </v>
   <v>       0.00300000 </v>
   <v>       0.00300000 </v>
   <v>       0.00300000 </v>
   <v>       0.00300000 </v>
   <v>       0.00075000 </v>
   <v>       0.00300000 </v>
   <v>       0.00100000 </v>
   <v>       0.00075000 </v>
  </varray>
  <varray name="tetrahedronlist"  type="int" >
   <v type="int" >        4        1        2        2       12 </v>
   <v type="int" >        8        2        2       12       12 </v>
   <v type="int" >        4        2       12       12       78 </v>
   <v type="int" >        4        2        3       12       13 </v>
   <v type="int" >        4        2       12       12       13 </v>
   <v type="int" >       12       12       12       13       78 </v>
   <v type="int" >        8        3       12       13       13 </v>
   <v type="int" >        8       12       13       13       79 </v>
   <v type="int" >        8       12       13       78       79 </v>
   <v type="int" >        4        3        4       13       14 </v>
   <v type="int" >        4        3       13       13       14 </v>
   <v type="int" >       12       13       13       14       79 </v>
   <v type="int" >        8        4       13       14       14 </v>
   <v type="int" >        4       13       14       14       80 </v>
   <v type="int" >        4       13       14       79       80 </v>
   <v type="int" >        4        4        5       14       15 </v>
   <v type="int" >        4        4       14       14       15 </v>
   <v type="int" >        8       14       14       15       80 </v>
   <v type="int" >        8        5       14       15       15 </v>
   <v type="int" >        4       14       15       15       81 </v>
   <v type="int" >        4       14       15       80       81 </v>
   <v type="int" >        4        5        6       15       16 </v>
   <v type="int" >        4        5       15       15       16 </v>
   <v type="int" >        8       15       15       16       81 </v>
   <v type="int" >        8        6       15       16       16 </v>
   <v type="int" >        4       15       16       16       82 </v>
   <v type="int" >        4       15       16       81       82 </v>
   <v type="int" >        4        6        7       16       17 </v>
   <v type="int" >        4        6       16       16       17 </v>
   <v type="int" >        8       16       16       17       82 </v>
   <v type="int" >        8        7       16       17       17 </v>
   <v type="int" >        4       16       17       17       83 </v>
   <v type="int" >        4       16       17       82       83 </v>
   <v type="int" >        4        7        8       17       18 </v>
   <v type="int" >        4        7       17       17       18 </v>
   <v type="int" >        8       17       17       18       83 </v>
   <v type="int" >        8        8       17       18       18 </v>
   <v type="int" >        4       17       18       18       84 </v>
   <v type="int" >        4       17       18       83       84 </v>
   <v type="int" >        4        8        9       18       19 </v>
   <v type="int" >        4        8       18       18       19 </v>
   <v type="int" >        8       18       18       19       84 </v>
   <v type="int" >        8        9       18       19       19 </v>
   <v type="int" >        4       18       19       19       85 </v>
   <v type="int" >        4       18       19       84       85 </v>
   <v type="int" >        4        9       10       19       19 </v>
   <v type="int" >        4        9       19       19       19 </v>
   <v type="int" >        8       19       19       19       85 </v>
   <v type="int" >        8       10       19       19       19 </v>
   <v type="int" >        4       19       19       19       84 </v>
   <v type="int" >        4       19       19       84       85 </v>
   <v type="int" >        4        9       10       18       19 </v>
   <v type="int" >        4       10       18       19       19 </v>
   <v type="int" >        8       18       19       19       84 </v>
   <v type="int" >        8        9       18       18       19 </v>
   <v type="int" >        4       18       18       19       83 </v>
   <v type="int" >        4       18       19       83       84 </v>
   <v type="int" >        4        8        9       17       18 </v>
   <v type="int" >        4        9       17       18       18 </v>
   <v type="int" >        8       17       18       18       83 </v>
   <v type="int" >        8        8       17       17       18 </v>
   <v type="int" >        4       17       17       18       82 </v>
   <v type="int" >        4       17       18       82       83 </v>
   <v type="int" >        4        7        8       16       17 </v>
   <v type="int" >        4        8       16       17       17 </v>
   <v type="int" >        8       16       17       17       82 </v>
   <v type="int" >        8        7       16       16       17 </v>
   <v type="int" >        4       16       16       17       81 </v>
   <v type="int" >        4       16       17       81       82 </v>
   <v type="int" >        4        6        7       15       16 </v>
   <v type="int" >        4        7       15       16       16 </v>
   <v type="int" >        8       15       16       16       81 </v>
   <v type="int" >        8        6       15       15       16 </v>
   <v type="int" >        4       15       15       16       80 </v>
   <v type="int" >        4       15       16       80       81 </v>
   <v type="int" >        4        5        6       14       15 </v>
   <v type="int" >        4        6       14       15       15 </v>
   <v type="int" >        8       14       15       15       80 </v>
   <v type="int" >        8        5       14       14       15 </v>
   <v type="int" >        4       14       14       15       79 </v>
   <v type="int" >        4       14       15       79       80 </v>
   <v type="int" >        4        4        5       13       14 </v>
   <v type="int" >        4        5       13       14       14 </v>
   <v type="int" >        8       13       14       14       79 </v>
   <v type="int" >        8        4       13       13       14 </v>
   <v type="int" >        4       13       13       14       78 </v>
   <v type="int" >        4       13       14       78       79 </v>
   <v type="int" >        4        3        4       12       13 </v>
   <v type="int" >        4        4       12       13       13 </v>
   <v type="int" >       16       12       13       13       78 </v>
   <v type="int" >        8        3       12       12       13 </v>
   <v type="int" >        4       12       12       12       13 </v>
   <v type="int" >        4        2        2        3       12 </v>
   <v type="int" >        8        2        3       12       12 </v>
   <v type="int" >        4        2       12       12       12 </v>
   <v type="int" >        4        2        2        2       12 </v>
   <v type="int" >        8        2        2       12       29 </v>
   <v type="int" >        4        2       12       12       29 </v>
   <v type="int" >       16        1        2        2       20 </v>
   <v type="int" >        4        2        2        2       20 </v>
   <v type="int" >       12        2        2       20       29 </v>
   <v type="int" >       16        1        2       20       20 </v>
   <v type="int" >        4        2       20       20       86 </v>
   <v type="int" >        4        2       20       29       86 </v>
   <v type="int" >       20        1       11       20       20 </v>
   <v type="int" >        4        1       20       20       20 </v>
   <v type="int" >        4       20       20       20       86 </v>
   <v type="int" >        8       11       20       20       20 </v>
   <v type="int" >        4       20       20       20       29 </v>
   <v type="int" >        4       20       20       29       86 </v>
   <v type="int" >        8        1        2       11       20 </v>
   <v type="int" >        8        2       11       20       20 </v>
   <v type="int" >        8        2       20       20       29 </v>
   <v type="int" >        4        2        2       12       20 </v>
   <v type="int" >        4        2       12       20       29 </v>
   <v type="int" >        4       12       13       21       78 </v>
   <v type="int" >       12       13       21       78       79 </v>
   <v type="int" >        4       21       78       79       87 </v>
   <v type="int" >        4       13       14       22       79 </v>
   <v type="int" >        4       13       21       22       79 </v>
   <v type="int" >        8       21       22       79       87 </v>
   <v type="int" >       12       14       22       79       80 </v>
   <v type="int" >        4       22       79       80       88 </v>
   <v type="int" >        4       22       79       87       88 </v>
   <v type="int" >        4       14       15       23       80 </v>
   <v type="int" >        4       14       22       23       80 </v>
   <v type="int" >        8       22       23       80       88 </v>
   <v type="int" >       12       15       23       80       81 </v>
   <v type="int" >        4       23       80       81       89 </v>
   <v type="int" >        4       23       80       88       89 </v>
   <v type="int" >        4       15       16       24       81 </v>
   <v type="int" >        4       15       23       24       81 </v>
   <v type="int" >        8       23       24       81       89 </v>
   <v type="int" >       12       16       24       81       82 </v>
   <v type="int" >        4       24       81       82       90 </v>
   <v type="int" >        4       24       81       89       90 </v>
   <v type="int" >        4       16       17       25       82 </v>
   <v type="int" >        4       16       24       25       82 </v>
   <v type="int" >        8       24       25       82       90 </v>
   <v type="int" >       12       17       25       82       83 </v>
   <v type="int" >        4       25       82       83       91 </v>
   <v type="int" >        4       25       82       90       91 </v>
   <v type="int" >        4       17       18       26       83 </v>
   <v type="int" >        4       17       25       26       83 </v>
   <v type="int" >        8       25       26       83       91 </v>
   <v type="int" >       12       18       26       83       84 </v>
   <v type="int" >        4       26       83       84       92 </v>
   <v type="int" >        4       26       83       91       92 </v>
   <v type="int" >        4       18       19       27       84 </v>
   <v type="int" >        4       18       26       27       84 </v>
   <v type="int" >        8       26       27       84       92 </v>
   <v type="int" >       16       19       27       84       85 </v>
   <v type="int" >       16       27       84       85       92 </v>
   <v type="int" >        8       27       84       92       92 </v>
   <v type="int" >        8       19       19       26       85 </v>
   <v type="int" >       12       19       26       27       85 </v>
   <v type="int" >       12       26       27       85       92 </v>
   <v type="int" >       12       19       26       84       85 </v>
   <v type="int" >        4       26       84       85       91 </v>
   <v type="int" >        4       26       85       91       92 </v>
   <v type="int" >        4       18       19       25       84 </v>
   <v type="int" >        4       19       25       26       84 </v>
   <v type="int" >        8       25       26       84       91 </v>
   <v type="int" >       12       18       25       83       84 </v>
   <v type="int" >        4       25       83       84       90 </v>
   <v type="int" >        4       25       84       90       91 </v>
   <v type="int" >        4       17       18       24       83 </v>
   <v type="int" >        4       18       24       25       83 </v>
   <v type="int" >        8       24       25       83       90 </v>
   <v type="int" >       12       17       24       82       83 </v>
   <v type="int" >        4       24       82       83       89 </v>
   <v type="int" >        4       24       83       89       90 </v>
   <v type="int" >        4       16       17       23       82 </v>
   <v type="int" >        4       17       23       24       82 </v>
   <v type="int" >        8       23       24       82       89 </v>
   <v type="int" >       12       16       23       81       82 </v>
   <v type="int" >        4       23       81       82       88 </v>
   <v type="int" >        4       23       82       88       89 </v>
   <v type="int" >        4       15       16       22       81 </v>
   <v type="int" >        4       16       22       23       81 </v>
   <v type="int" >        8       22       23       81       88 </v>
   <v type="int" >       12       15       22       80       81 </v>
   <v type="int" >        4       22       80       81       87 </v>
   <v type="int" >        4       22       81       87       88 </v>
   <v type="int" >        4       14       15       21       80 </v>
   <v type="int" >        4       15       21       22       80 </v>
   <v type="int" >       12       21       22       80       87 </v>
   <v type="int" >       12       14       21       79       80 </v>
   <v type="int" >        4       21       79       79       80 </v>
   <v type="int" >       16       21       79       80       87 </v>
   <v type="int" >       16       13       14       21       79 </v>
   <v type="int" >        8       13       21       79       79 </v>
   <v type="int" >       16       13       13       78       79 </v>
   <v type="int" >        4       13       13       79       79 </v>
   <v type="int" >       12        3       12       13       78 </v>
   <v type="int" >        8        3       13       13       78 </v>
   <v type="int" >        8        3       12       12       78 </v>
   <v type="int" >        4        3       12       36       78 </v>
   <v type="int" >        4        3       13       36       78 </v>
   <v type="int" >        4        2       12       12       28 </v>
   <v type="int" >        4        3       12       12       28 </v>
   <v type="int" >        8        3       12       28       36 </v>
   <v type="int" >       12        2       12       28       29 </v>
   <v type="int" >        4       12       28       29       93 </v>
   <v type="int" >        4       12       28       36       93 </v>
   <v type="int" >        4        2       20       29       29 </v>
   <v type="int" >        4        2       28       29       29 </v>
   <v type="int" >        4       28       29       29       93 </v>
   <v type="int" >        8       20       29       29       86 </v>
   <v type="int" >        8       29       29       86       93 </v>
   <v type="int" >        4       29       29       93       93 </v>
   <v type="int" >        4       20       20       28       86 </v>
   <v type="int" >       12       20       28       29       86 </v>
   <v type="int" >       12       28       29       86       93 </v>
   <v type="int" >        4       28       29       36       86 </v>
   <v type="int" >        4       28       36       86       93 </v>
   <v type="int" >        4        2        3       20       29 </v>
   <v type="int" >        4        3       20       28       29 </v>
   <v type="int" >        8        3       28       29       36 </v>
   <v type="int" >       16        2        3       12       29 </v>
   <v type="int" >        4        3       12       13       29 </v>
   <v type="int" >        4        3       13       29       36 </v>
   <v type="int" >        4       21       22       30       87 </v>
   <v type="int" >        8       22       30       87       88 </v>
   <v type="int" >        4       30       87       88       94 </v>
   <v type="int" >        4       22       23       31       88 </v>
   <v type="int" >        4       22       30       31       88 </v>
   <v type="int" >        8       30       31       88       94 </v>
   <v type="int" >        8       23       31       88       89 </v>
   <v type="int" >        4       31       88       89       95 </v>
   <v type="int" >        4       31       88       94       95 </v>
   <v type="int" >        4       23       24       32       89 </v>
   <v type="int" >        4       23       31       32       89 </v>
   <v type="int" >        8       31       32       89       95 </v>
   <v type="int" >        8       24       32       89       90 </v>
   <v type="int" >        4       32       89       90       96 </v>
   <v type="int" >        4       32       89       95       96 </v>
   <v type="int" >        4       24       25       33       90 </v>
   <v type="int" >        4       24       32       33       90 </v>
   <v type="int" >        8       32       33       90       96 </v>
   <v type="int" >        8       25       33       90       91 </v>
   <v type="int" >        4       33       90       91       97 </v>
   <v type="int" >        4       33       90       96       97 </v>
   <v type="int" >        4       25       26       34       91 </v>
   <v type="int" >        4       25       33       34       91 </v>
   <v type="int" >        8       33       34       91       97 </v>
   <v type="int" >        8       26       34       91       92 </v>
   <v type="int" >        4       34       91       92       98 </v>
   <v type="int" >        4       34       91       97       98 </v>
   <v type="int" >        8       26       27       34       92 </v>
   <v type="int" >        4       26       34       34       92 </v>
   <v type="int" >        8       34       34       92       98 </v>
   <v type="int" >        8       27       34       92       92 </v>
   <v type="int" >        4       34       92       92       97 </v>
   <v type="int" >        8       34       92       97       98 </v>
   <v type="int" >        4       26       27       33       92 </v>
   <v type="int" >        4       27       33       34       92 </v>
   <v type="int" >        8       33       34       92       97 </v>
   <v type="int" >        8       26       33       91       92 </v>
   <v type="int" >        4       33       91       92       96 </v>
   <v type="int" >        4       33       92       96       97 </v>
   <v type="int" >        4       25       26       32       91 </v>
   <v type="int" >        4       26       32       33       91 </v>
   <v type="int" >        8       32       33       91       96 </v>
   <v type="int" >        8       25       32       90       91 </v>
   <v type="int" >        4       32       90       91       95 </v>
   <v type="int" >        4       32       91       95       96 </v>
   <v type="int" >        4       24       25       31       90 </v>
   <v type="int" >        4       25       31       32       90 </v>
   <v type="int" >        8       31       32       90       95 </v>
   <v type="int" >        8       24       31       89       90 </v>
   <v type="int" >        4       31       89       90       94 </v>
   <v type="int" >        4       31       90       94       95 </v>
   <v type="int" >        4       23       24       30       89 </v>
   <v type="int" >        4       24       30       31       89 </v>
   <v type="int" >       12       30       31       89       94 </v>
   <v type="int" >        8       23       30       88       89 </v>
   <v type="int" >        4       30       88       88       89 </v>
   <v type="int" >       12       30       88       89       94 </v>
   <v type="int" >        4       22       22       23       88 </v>
   <v type="int" >        8       22       23       30       88 </v>
   <v type="int" >        8       22       30       88       88 </v>
   <v type="int" >        8       22       22       87       88 </v>
   <v type="int" >       16       22       80       87       88 </v>
   <v type="int" >        4       22       80       88       88 </v>
   <v type="int" >       12       14       21       22       87 </v>
   <v type="int" >        4       14       22       22       87 </v>
   <v type="int" >        8       14       22       80       87 </v>
   <v type="int" >       12       14       21       79       87 </v>
   <v type="int" >        4       14       14       79       87 </v>
   <v type="int" >        4       14       14       80       87 </v>
   <v type="int" >        4        4       13       21       79 </v>
   <v type="int" >        4        4       14       21       79 </v>
   <v type="int" >        4        4       14       14       79 </v>
   <v type="int" >        4        4       13       13       79 </v>
   <v type="int" >        4        4       13       42       79 </v>
   <v type="int" >        4        4       14       42       79 </v>
   <v type="int" >        4        3       13       13       35 </v>
   <v type="int" >        4        4       13       13       35 </v>
   <v type="int" >        8        4       13       35       42 </v>
   <v type="int" >        8        3       13       35       36 </v>
   <v type="int" >        4       13       35       36       99 </v>
   <v type="int" >        4       13       35       42       99 </v>
   <v type="int" >        4        3       28       36       36 </v>
   <v type="int" >        4        3       35       36       36 </v>
   <v type="int" >        4       35       36       36       99 </v>
   <v type="int" >        8       28       36       36       93 </v>
   <v type="int" >       12       36       36       93      100 </v>
   <v type="int" >        4       36       36       99      100 </v>
   <v type="int" >        8       28       29       36       93 </v>
   <v type="int" >        8       29       36       93       93 </v>
   <v type="int" >        4       36       93       93       99 </v>
   <v type="int" >        8       36       93       99      100 </v>
   <v type="int" >        4       28       29       35       93 </v>
   <v type="int" >        4       29       35       36       93 </v>
   <v type="int" >        8       35       36       93       99 </v>
   <v type="int" >        8       28       35       36       93 </v>
   <v type="int" >        4       35       36       42       93 </v>
   <v type="int" >        4       35       42       93       99 </v>
   <v type="int" >        4        3        4       28       36 </v>
   <v type="int" >        4        4       28       35       36 </v>
   <v type="int" >        8        4       35       36       42 </v>
   <v type="int" >       12        3        4       13       36 </v>
   <v type="int" >        4        4       13       14       36 </v>
   <v type="int" >        4        4       14       36       42 </v>
   <v type="int" >        4       30       31       37       94 </v>
   <v type="int" >        8       31       37       94       95 </v>
   <v type="int" >        4       37       94       95      101 </v>
   <v type="int" >        4       31       32       38       95 </v>
   <v type="int" >        4       31       37       38       95 </v>
   <v type="int" >        8       37       38       95      101 </v>
   <v type="int" >        8       32       38       95       96 </v>
   <v type="int" >        4       38       95       96      102 </v>
   <v type="int" >        4       38       95      101      102 </v>
   <v type="int" >        4       32       33       39       96 </v>
   <v type="int" >        4       32       38       39       96 </v>
   <v type="int" >        8       38       39       96      102 </v>
   <v type="int" >        8       33       39       96       97 </v>
   <v type="int" >        4       39       96       97      103 </v>
   <v type="int" >        4       39       96      102      103 </v>
   <v type="int" >        4       33       34       40       97 </v>
   <v type="int" >        4       33       39       40       97 </v>
   <v type="int" >        8       39       40       97      103 </v>
   <v type="int" >       12       34       40       97       98 </v>
   <v type="int" >       12       40       97       98      103 </v>
   <v type="int" >        4       40       97      103      103 </v>
   <v type="int" >        4       34       34       39       98 </v>
   <v type="int" >       12       34       39       40       98 </v>
   <v type="int" >       12       39       40       98      103 </v>
   <v type="int" >        8       34       39       97       98 </v>
   <v type="int" >        4       39       97       98      102 </v>
   <v type="int" >        4       39       98      102      103 </v>
   <v type="int" >        4       33       34       38       97 </v>
   <v type="int" >        4       34       38       39       97 </v>
   <v type="int" >        8       38       39       97      102 </v>
   <v type="int" >        8       33       38       96       97 </v>
   <v type="int" >        4       38       96       97      101 </v>
   <v type="int" >        4       38       97      101      102 </v>
   <v type="int" >        4       32       33       37       96 </v>
   <v type="int" >        4       33       37       38       96 </v>
   <v type="int" >       12       37       38       96      101 </v>
   <v type="int" >        8       32       37       95       96 </v>
   <v type="int" >        4       37       95       95       96 </v>
   <v type="int" >       12       37       95       96      101 </v>
   <v type="int" >        4       31       31       32       95 </v>
   <v type="int" >        8       31       32       37       95 </v>
   <v type="int" >        8       31       37       95       95 </v>
   <v type="int" >        8       31       31       94       95 </v>
   <v type="int" >        8       31       89       94       95 </v>
   <v type="int" >        4       31       89       95       95 </v>
   <v type="int" >       12       23       30       31       94 </v>
   <v type="int" >        4       23       31       31       94 </v>
   <v type="int" >        8       23       31       89       94 </v>
   <v type="int" >       12       23       30       88       94 </v>
   <v type="int" >        4       23       81       88       94 </v>
   <v type="int" >        4       23       81       89       94 </v>
   <v type="int" >        4       15       22       30       88 </v>
   <v type="int" >        4       15       23       30       88 </v>
   <v type="int" >        8       15       23       81       88 </v>
   <v type="int" >        8       15       22       80       88 </v>
   <v type="int" >        4       15       15       80       88 </v>
   <v type="int" >        4       15       15       81       88 </v>
   <v type="int" >        4        5       14       22       80 </v>
   <v type="int" >        4        5       15       22       80 </v>
   <v type="int" >        4        5       15       15       80 </v>
   <v type="int" >        4        5       14       14       80 </v>
   <v type="int" >        4        5       14       47       80 </v>
   <v type="int" >        4        5       15       47       80 </v>
   <v type="int" >        4        4       14       14       41 </v>
   <v type="int" >        4        5       14       14       41 </v>
   <v type="int" >        8        5       14       41       47 </v>
   <v type="int" >        8        4       14       41       42 </v>
   <v type="int" >        4       14       41       42      104 </v>
   <v type="int" >        4       14       41       47      104 </v>
   <v type="int" >        4        4       35       42       42 </v>
   <v type="int" >        4        4       41       42       42 </v>
   <v type="int" >        4       41       42       42      104 </v>
   <v type="int" >        4       35       42       42       99 </v>
   <v type="int" >        4       42       42       99      105 </v>
   <v type="int" >        4       42       42      104      105 </v>
   <v type="int" >        4       35       36       43       99 </v>
   <v type="int" >        4       35       42       43       99 </v>
   <v type="int" >        8       42       43       99      105 </v>
   <v type="int" >       12       36       43       99      100 </v>
   <v type="int" >       12       43       99      100      105 </v>
   <v type="int" >        4       43       99      105      105 </v>
   <v type="int" >        4       36       36       42      100 </v>
   <v type="int" >       12       36       42       43      100 </v>
   <v type="int" >       12       42       43      100      105 </v>
   <v type="int" >        8       36       42       99      100 </v>
   <v type="int" >        4       42       99      100      104 </v>
   <v type="int" >        4       42      100      104      105 </v>
   <v type="int" >        4       35       36       41       99 </v>
   <v type="int" >        4       36       41       42       99 </v>
   <v type="int" >        8       41       42       99      104 </v>
   <v type="int" >        8       35       41       42       99 </v>
   <v type="int" >        4       41       42       47       99 </v>
   <v type="int" >        4       41       47       99      104 </v>
   <v type="int" >        4        4        5       35       42 </v>
   <v type="int" >        4        5       35       41       42 </v>
   <v type="int" >        8        5       41       42       47 </v>
   <v type="int" >       12        4        5       14       42 </v>
   <v type="int" >        4        5       14       15       42 </v>
   <v type="int" >        4        5       15       42       47 </v>
   <v type="int" >        4       37       38       44      101 </v>
   <v type="int" >        8       38       44      101      102 </v>
   <v type="int" >        4       44      101      102      106 </v>
   <v type="int" >        4       38       39       45      102 </v>
   <v type="int" >        4       38       44       45      102 </v>
   <v type="int" >        8       44       45      102      106 </v>
   <v type="int" >        8       39       45      102      103 </v>
   <v type="int" >        4       45      102      103      107 </v>
   <v type="int" >        4       45      102      106      107 </v>
   <v type="int" >        8       39       40       45      103 </v>
   <v type="int" >        4       39       45       45      103 </v>
   <v type="int" >       12       45       45      103      107 </v>
   <v type="int" >        8       40       45      103      103 </v>
   <v type="int" >        4       45      103      103      106 </v>
   <v type="int" >       16       45      103      106      107 </v>
   <v type="int" >        4       39       40       44      103 </v>
   <v type="int" >        4       40       44       45      103 </v>
   <v type="int" >       12       44       45      103      106 </v>
   <v type="int" >        8       39       44      102      103 </v>
   <v type="int" >        4       44      102      102      103 </v>
   <v type="int" >       12       44      102      103      106 </v>
   <v type="int" >        4       38       38       39      102 </v>
   <v type="int" >        8       38       39       44      102 </v>
   <v type="int" >        8       38       44      102      102 </v>
   <v type="int" >        8       38       38      101      102 </v>
   <v type="int" >        8       38       96      101      102 </v>
   <v type="int" >        4       38       96      102      102 </v>
   <v type="int" >       12       32       37       38      101 </v>
   <v type="int" >        4       32       38       38      101 </v>
   <v type="int" >        8       32       38       96      101 </v>
   <v type="int" >       12       32       37       95      101 </v>
   <v type="int" >        4       32       90       95      101 </v>
   <v type="int" >        4       32       90       96      101 </v>
   <v type="int" >        4       24       31       37       95 </v>
   <v type="int" >        4       24       32       37       95 </v>
   <v type="int" >        8       24       32       90       95 </v>
   <v type="int" >        8       24       31       89       95 </v>
   <v type="int" >        4       24       82       89       95 </v>
   <v type="int" >        4       24       82       90       95 </v>
   <v type="int" >        4       16       23       31       89 </v>
   <v type="int" >        4       16       24       31       89 </v>
   <v type="int" >        8       16       24       82       89 </v>
   <v type="int" >        8       16       23       81       89 </v>
   <v type="int" >        4       16       16       81       89 </v>
   <v type="int" >        4       16       16       82       89 </v>
   <v type="int" >        4        6       15       23       81 </v>
   <v type="int" >        4        6       16       23       81 </v>
   <v type="int" >        4        6       16       16       81 </v>
   <v type="int" >        4        6       15       15       81 </v>
   <v type="int" >        4        6       15       51       81 </v>
   <v type="int" >        4        6       16       51       81 </v>
   <v type="int" >        4        5       15       15       46 </v>
   <v type="int" >        4        6       15       15       46 </v>
   <v type="int" >        8        6       15       46       51 </v>
   <v type="int" >        8        5       15       46       47 </v>
   <v type="int" >        4       15       46       47      108 </v>
   <v type="int" >        4       15       46       51      108 </v>
   <v type="int" >        4        5       41       47       47 </v>
   <v type="int" >        4        5       46       47       47 </v>
   <v type="int" >        4       46       47       47      108 </v>
   <v type="int" >        4       41       47       47      104 </v>
   <v type="int" >        4       47       47      104      109 </v>
   <v type="int" >        4       47       47      108      109 </v>
   <v type="int" >        4       41       42       48      104 </v>
   <v type="int" >        4       41       47       48      104 </v>
   <v type="int" >        8       47       48      104      109 </v>
   <v type="int" >        8       42       48      104      105 </v>
   <v type="int" >        4       48      104      105      110 </v>
   <v type="int" >        4       48      104      109      110 </v>
   <v type="int" >        8       42       43       48      105 </v>
   <v type="int" >        4       42       48       48      105 </v>
   <v type="int" >        8       48       48      105      110 </v>
   <v type="int" >        8       43       48      105      105 </v>
   <v type="int" >        4       48      105      105      109 </v>
   <v type="int" >        8       48      105      109      110 </v>
   <v type="int" >        4       42       43       47      105 </v>
   <v type="int" >        4       43       47       48      105 </v>
   <v type="int" >        8       47       48      105      109 </v>
   <v type="int" >        8       42       47      104      105 </v>
   <v type="int" >        4       47      104      105      108 </v>
   <v type="int" >        4       47      105      108      109 </v>
   <v type="int" >        4       41       42       46      104 </v>
   <v type="int" >        4       42       46       47      104 </v>
   <v type="int" >        8       46       47      104      108 </v>
   <v type="int" >        8       41       46       47      104 </v>
   <v type="int" >        4       46       47       51      104 </v>
   <v type="int" >        4       46       51      104      108 </v>
   <v type="int" >        4        5        6       41       47 </v>
   <v type="int" >        4        6       41       46       47 </v>
   <v type="int" >        8        6       46       47       51 </v>
   <v type="int" >       12        5        6       15       47 </v>
   <v type="int" >        4        6       15       16       47 </v>
   <v type="int" >        4        6       16       47       51 </v>
   <v type="int" >        4       44       45       49      106 </v>
   <v type="int" >       12       45       49      106      107 </v>
   <v type="int" >        8       49      106      107      107 </v>
   <v type="int" >        4       45       45       45      107 </v>
   <v type="int" >       16       45       45       49      107 </v>
   <v type="int" >       12       45       49      107      107 </v>
   <v type="int" >        8       45       45      106      107 </v>
   <v type="int" >        4       45      103      107      107 </v>
   <v type="int" >       12       39       44       45      106 </v>
   <v type="int" >        4       39       45       45      106 </v>
   <v type="int" >        8       39       45      103      106 </v>
   <v type="int" >       12       39       44      102      106 </v>
   <v type="int" >        4       39       97      102      106 </v>
   <v type="int" >        4       39       97      103      106 </v>
   <v type="int" >        4       33       38       44      102 </v>
   <v type="int" >        4       33       39       44      102 </v>
   <v type="int" >        8       33       39       97      102 </v>
   <v type="int" >        8       33       38       96      102 </v>
   <v type="int" >        4       33       91       96      102 </v>
   <v type="int" >        4       33       91       97      102 </v>
   <v type="int" >        4       25       32       38       96 </v>
   <v type="int" >        4       25       33       38       96 </v>
   <v type="int" >        8       25       33       91       96 </v>
   <v type="int" >        8       25       32       90       96 </v>
   <v type="int" >        4       25       83       90       96 </v>
   <v type="int" >        4       25       83       91       96 </v>
   <v type="int" >        4       17       24       32       90 </v>
   <v type="int" >        4       17       25       32       90 </v>
   <v type="int" >        8       17       25       83       90 </v>
   <v type="int" >        8       17       24       82       90 </v>
   <v type="int" >        4       17       17       82       90 </v>
   <v type="int" >        4       17       17       83       90 </v>
   <v type="int" >        4        7       16       24       82 </v>
   <v type="int" >        4        7       17       24       82 </v>
   <v type="int" >        4        7       17       17       82 </v>
   <v type="int" >        4        7       16       16       82 </v>
   <v type="int" >        4        7       16       55       82 </v>
   <v type="int" >        4        7       17       55       82 </v>
   <v type="int" >        4        6       16       16       50 </v>
   <v type="int" >        4        7       16       16       50 </v>
   <v type="int" >        8        7       16       50       55 </v>
   <v type="int" >        8        6       16       50       51 </v>
   <v type="int" >        4       16       50       51      111 </v>
   <v type="int" >        4       16       50       55      111 </v>
   <v type="int" >        4        6       46       51       51 </v>
   <v type="int" >        4        6       50       51       51 </v>
   <v type="int" >        4       50       51       51      111 </v>
   <v type="int" >        4       46       51       51      108 </v>
   <v type="int" >        4       51       51      108      112 </v>
   <v type="int" >        4       51       51      111      112 </v>
   <v type="int" >        4       46       47       52      108 </v>
   <v type="int" >        4       46       51       52      108 </v>
   <v type="int" >        8       51       52      108      112 </v>
   <v type="int" >        8       47       52      108      109 </v>
   <v type="int" >        4       52      108      109      113 </v>
   <v type="int" >        4       52      108      112      113 </v>
   <v type="int" >        4       47       48       53      109 </v>
   <v type="int" >        4       47       52       53      109 </v>
   <v type="int" >        8       52       53      109      113 </v>
   <v type="int" >       12       48       53      109      110 </v>
   <v type="int" >       12       53      109      110      113 </v>
   <v type="int" >        4       53      109      113      113 </v>
   <v type="int" >        4       48       48       52      110 </v>
   <v type="int" >       12       48       52       53      110 </v>
   <v type="int" >       12       52       53      110      113 </v>
   <v type="int" >        8       48       52      109      110 </v>
   <v type="int" >        4       52      109      110      112 </v>
   <v type="int" >        4       52      110      112      113 </v>
   <v type="int" >        4       47       48       51      109 </v>
   <v type="int" >        4       48       51       52      109 </v>
   <v type="int" >        8       51       52      109      112 </v>
   <v type="int" >        8       47       51      108      109 </v>
   <v type="int" >        4       51      108      109      111 </v>
   <v type="int" >        4       51      109      111      112 </v>
   <v type="int" >        4       46       47       50      108 </v>
   <v type="int" >        4       47       50       51      108 </v>
   <v type="int" >        8       50       51      108      111 </v>
   <v type="int" >        8       46       50       51      108 </v>
   <v type="int" >        4       50       51       55      108 </v>
   <v type="int" >        4       50       55      108      111 </v>
   <v type="int" >        4        6        7       46       51 </v>
   <v type="int" >        4        7       46       50       51 </v>
   <v type="int" >        8        7       50       51       55 </v>
   <v type="int" >       12        6        7       16       51 </v>
   <v type="int" >        4        7       16       17       51 </v>
   <v type="int" >        4        7       17       51       55 </v>
   <v type="int" >        4       40       45       49      107 </v>
   <v type="int" >        8       40       45      103      107 </v>
   <v type="int" >        4       40       98      103      107 </v>
   <v type="int" >        4       34       39       45      103 </v>
   <v type="int" >        4       34       40       45      103 </v>
   <v type="int" >        8       34       40       98      103 </v>
   <v type="int" >        8       34       39       97      103 </v>
   <v type="int" >        4       34       92       97      103 </v>
   <v type="int" >        4       34       92       98      103 </v>
   <v type="int" >        4       26       33       39       97 </v>
   <v type="int" >        4       26       34       39       97 </v>
   <v type="int" >        8       26       34       92       97 </v>
   <v type="int" >        8       26       33       91       97 </v>
   <v type="int" >        4       26       84       91       97 </v>
   <v type="int" >        4       26       84       92       97 </v>
   <v type="int" >        4       18       25       33       91 </v>
   <v type="int" >        4       18       26       33       91 </v>
   <v type="int" >        8       18       26       84       91 </v>
   <v type="int" >        8       18       25       83       91 </v>
   <v type="int" >        4       18       18       83       91 </v>
   <v type="int" >        4       18       18       84       91 </v>
   <v type="int" >        4        8       17       25       83 </v>
   <v type="int" >        4        8       18       25       83 </v>
   <v type="int" >        4        8       18       18       83 </v>
   <v type="int" >        4        8       17       17       83 </v>
   <v type="int" >        4        8       17       59       83 </v>
   <v type="int" >        4        8       18       59       83 </v>
   <v type="int" >        4        7       17       17       54 </v>
   <v type="int" >        4        8       17       17       54 </v>
   <v type="int" >        8        8       17       54       59 </v>
   <v type="int" >        8        7       17       54       55 </v>
   <v type="int" >        4       17       54       55      114 </v>
   <v type="int" >        4       17       54       59      114 </v>
   <v type="int" >        4        7       50       55       55 </v>
   <v type="int" >        4        7       54       55       55 </v>
   <v type="int" >        4       54       55       55      114 </v>
   <v type="int" >        4       50       55       55      111 </v>
   <v type="int" >        4       55       55      111      115 </v>
   <v type="int" >        4       55       55      114      115 </v>
   <v type="int" >        4       50       51       56      111 </v>
   <v type="int" >        4       50       55       56      111 </v>
   <v type="int" >        8       55       56      111      115 </v>
   <v type="int" >        8       51       56      111      112 </v>
   <v type="int" >        4       56      111      112      116 </v>
   <v type="int" >        4       56      111      115      116 </v>
   <v type="int" >        4       51       52       57      112 </v>
   <v type="int" >        4       51       56       57      112 </v>
   <v type="int" >        8       56       57      112      116 </v>
   <v type="int" >        8       52       57      112      113 </v>
   <v type="int" >        4       57      112      113      117 </v>
   <v type="int" >        4       57      112      116      117 </v>
   <v type="int" >        8       52       53       57      113 </v>
   <v type="int" >        4       52       57       57      113 </v>
   <v type="int" >        8       57       57      113      117 </v>
   <v type="int" >        8       53       57      113      113 </v>
   <v type="int" >        4       57      113      113      116 </v>
   <v type="int" >        8       57      113      116      117 </v>
   <v type="int" >        4       52       53       56      113 </v>
   <v type="int" >        4       53       56       57      113 </v>
   <v type="int" >        8       56       57      113      116 </v>
   <v type="int" >        8       52       56      112      113 </v>
   <v type="int" >        4       56      112      113      115 </v>
   <v type="int" >        4       56      113      115      116 </v>
   <v type="int" >        4       51       52       55      112 </v>
   <v type="int" >        4       52       55       56      112 </v>
   <v type="int" >        8       55       56      112      115 </v>
   <v type="int" >        8       51       55      111      112 </v>
   <v type="int" >        4       55      111      112      114 </v>
   <v type="int" >        4       55      112      114      115 </v>
   <v type="int" >        4       50       51       54      111 </v>
   <v type="int" >        4       51       54       55      111 </v>
   <v type="int" >        8       54       55      111      114 </v>
   <v type="int" >        8       50       54       55      111 </v>
   <v type="int" >        4       54       55       59      111 </v>
   <v type="int" >        4       54       59      111      114 </v>
   <v type="int" >        4        7        8       50       55 </v>
   <v type="int" >        4        8       50       54       55 </v>
   <v type="int" >        8        8       54       55       59 </v>
   <v type="int" >       12        7        8       17       55 </v>
   <v type="int" >        4        8       17       18       55 </v>
   <v type="int" >        4        8       18       55       59 </v>
   <v type="int" >        4       27       34       40       98 </v>
   <v type="int" >        8       27       34       92       98 </v>
   <v type="int" >        4       27       85       92       98 </v>
   <v type="int" >        4       19       26       34       92 </v>
   <v type="int" >        4       19       27       34       92 </v>
   <v type="int" >        8       19       27       85       92 </v>
   <v type="int" >        8       19       26       84       92 </v>
   <v type="int" >        4       19       19       84       92 </v>
   <v type="int" >        8       19       19       85       92 </v>
   <v type="int" >        4        9       18       26       84 </v>
   <v type="int" >        4        9       19       26       84 </v>
   <v type="int" >        4        9       19       19       84 </v>
   <v type="int" >        4        9       18       18       84 </v>
   <v type="int" >        4        9       18       64       84 </v>
   <v type="int" >        4        9       19       64       84 </v>
   <v type="int" >        4        8       18       18       58 </v>
   <v type="int" >        4        9       18       18       58 </v>
   <v type="int" >        8        9       18       58       64 </v>
   <v type="int" >        8        8       18       58       59 </v>
   <v type="int" >        4       18       58       59      118 </v>
   <v type="int" >        4       18       58       64      118 </v>
   <v type="int" >        4        8       54       59       59 </v>
   <v type="int" >        4        8       58       59       59 </v>
   <v type="int" >        4       58       59       59      118 </v>
   <v type="int" >        4       54       59       59      114 </v>
   <v type="int" >        4       59       59      114      119 </v>
   <v type="int" >        4       59       59      118      119 </v>
   <v type="int" >        4       54       55       60      114 </v>
   <v type="int" >        4       54       59       60      114 </v>
   <v type="int" >        8       59       60      114      119 </v>
   <v type="int" >        8       55       60      114      115 </v>
   <v type="int" >        4       60      114      115      120 </v>
   <v type="int" >        4       60      114      119      120 </v>
   <v type="int" >        4       55       56       61      115 </v>
   <v type="int" >        4       55       60       61      115 </v>
   <v type="int" >        8       60       61      115      120 </v>
   <v type="int" >        8       56       61      115      116 </v>
   <v type="int" >        4       61      115      116      121 </v>
   <v type="int" >        4       61      115      120      121 </v>
   <v type="int" >        4       56       57       62      116 </v>
   <v type="int" >        4       56       61       62      116 </v>
   <v type="int" >        8       61       62      116      121 </v>
   <v type="int" >       12       57       62      116      117 </v>
   <v type="int" >       12       62      116      117      121 </v>
   <v type="int" >        4       62      116      121      121 </v>
   <v type="int" >        4       57       57       61      117 </v>
   <v type="int" >       12       57       61       62      117 </v>
   <v type="int" >       12       61       62      117      121 </v>
   <v type="int" >        8       57       61      116      117 </v>
   <v type="int" >        4       61      116      117      120 </v>
   <v type="int" >        4       61      117      120      121 </v>
   <v type="int" >        4       56       57       60      116 </v>
   <v type="int" >        4       57       60       61      116 </v>
   <v type="int" >        8       60       61      116      120 </v>
   <v type="int" >        8       56       60      115      116 </v>
   <v type="int" >        4       60      115      116      119 </v>
   <v type="int" >        4       60      116      119      120 </v>
   <v type="int" >        4       55       56       59      115 </v>
   <v type="int" >        4       56       59       60      115 </v>
   <v type="int" >        8       59       60      115      119 </v>
   <v type="int" >        8       55       59      114      115 </v>
   <v type="int" >        4       59      114      115      118 </v>
   <v type="int" >        4       59      115      118      119 </v>
   <v type="int" >        4       54       55       58      114 </v>
   <v type="int" >        4       55       58       59      114 </v>
   <v type="int" >        8       58       59      114      118 </v>
   <v type="int" >        8       54       58       59      114 </v>
   <v type="int" >        4       58       59       64      114 </v>
   <v type="int" >        4       58       64      114      118 </v>
   <v type="int" >        4        8        9       54       59 </v>
   <v type="int" >        4        9       54       58       59 </v>
   <v type="int" >        8        9       58       59       64 </v>
   <v type="int" >       12        8        9       18       59 </v>
   <v type="int" >        4        9       18       19       59 </v>
   <v type="int" >        4        9       19       59       64 </v>
   <v type="int" >        4       10       19       27       85 </v>
   <v type="int" >        8       10       19       19       85 </v>
   <v type="int" >        4       10       19       68       85 </v>
   <v type="int" >        4        9       19       19       63 </v>
   <v type="int" >        8       10       19       19       63 </v>
   <v type="int" >        8       10       19       63       68 </v>
   <v type="int" >        8        9       19       63       64 </v>
   <v type="int" >        4       19       63       64      122 </v>
   <v type="int" >        4       19       63       68      122 </v>
   <v type="int" >        4        9       58       64       64 </v>
   <v type="int" >        4        9       63       64       64 </v>
   <v type="int" >        4       63       64       64      122 </v>
   <v type="int" >        4       58       64       64      118 </v>
   <v type="int" >        4       64       64      118      123 </v>
   <v type="int" >        4       64       64      122      123 </v>
   <v type="int" >        4       58       59       65      118 </v>
   <v type="int" >        4       58       64       65      118 </v>
   <v type="int" >        8       64       65      118      123 </v>
   <v type="int" >        8       59       65      118      119 </v>
   <v type="int" >        4       65      118      119      124 </v>
   <v type="int" >        4       65      118      123      124 </v>
   <v type="int" >        4       59       60       66      119 </v>
   <v type="int" >        4       59       65       66      119 </v>
   <v type="int" >        8       65       66      119      124 </v>
   <v type="int" >        8       60       66      119      120 </v>
   <v type="int" >        4       66      119      120      125 </v>
   <v type="int" >        4       66      119      124      125 </v>
   <v type="int" >        4       60       61       67      120 </v>
   <v type="int" >        4       60       66       67      120 </v>
   <v type="int" >        8       66       67      120      125 </v>
   <v type="int" >        8       61       67      120      121 </v>
   <v type="int" >        4       67      120      121      126 </v>
   <v type="int" >        4       67      120      125      126 </v>
   <v type="int" >        8       61       62       67      121 </v>
[...]
       <r>   25.7320    0.0000 </r>
       <r>   25.8168    0.0000 </r>
       <r>   30.4142    0.0000 </r>
       <r>   40.1274    0.0000 </r>
       <r>   40.7307    0.0000 </r>
       <r>   42.0502    0.0000 </r>
       <r>   42.6497    0.0000 </r>
       <r>   45.2340    0.0000 </r>
       <r>   45.8721    0.0000 </r>
       <r>   46.8177    0.0000 </r>
       <r>   52.4416    0.0000 </r>
       <r>   53.4734    0.0000 </r>
       <r>   54.4072    0.0000 </r>
       <r>   54.6034    0.0000 </r>
       <r>   55.2805    0.0000 </r>
       <r>   55.8596    0.0000 </r>
       <r>   57.3959    0.0000 </r>
       <r>   58.7353    0.0000 </r>
       <r>   59.3131    0.0000 </r>
       <r>   60.3200    0.0000 </r>
       <r>   61.9078    0.0000 </r>
       <r>   62.0916    0.0000 </r>
       <r>   63.6833    0.0000 </r>
       <r>   65.0296    0.0000 </r>
       <r>   65.7996    0.0000 </r>
       <r>   68.8259    0.0000 </r>
       <r>   92.3081    0.0000 </r>
       <r>   92.9172    0.0000 </r>
      </set>
      <set comment="kpoint 249">
       <r>  -25.6429    1.0000 </r>
       <r>  -25.6429    1.0000 </r>
       <r>  -25.5947    1.0000 </r>
       <r>    1.1931    1.0000 </r>
       <r>    1.1931    1.0000 </r>
       <r>    9.5862    0.0000 </r>
       <r>   10.2651    0.0000 </r>
       <r>   10.2651    0.0000 </r>
       <r>   14.4443    0.0000 </r>
       <r>   14.4443    0.0000 </r>
       <r>   14.7172    0.0000 </r>
       <r>   23.8276    0.0000 </r>
       <r>   25.7929    0.0000 </r>
       <r>   25.7929    0.0000 </r>
       <r>   30.2730    0.0000 </r>
       <r>   40.3619    0.0000 </r>
       <r>   41.9596    0.0000 </r>
       <r>   41.9596    0.0000 </r>
       <r>   42.2358    0.0000 </r>
       <r>   45.5766    0.0000 </r>
       <r>   45.5766    0.0000 </r>
       <r>   46.5708    0.0000 </r>
       <r>   51.9735    0.0000 </r>
       <r>   53.7713    0.0000 </r>
       <r>   54.6733    0.0000 </r>
       <r>   54.6733    0.0000 </r>
       <r>   55.6993    0.0000 </r>
       <r>   55.6993    0.0000 </r>
       <r>   58.3241    0.0000 </r>
       <r>   58.5818    0.0000 </r>
       <r>   60.3065    0.0000 </r>
       <r>   60.3065    0.0000 </r>
       <r>   61.2830    0.0000 </r>
       <r>   61.2830    0.0000 </r>
       <r>   62.1172    0.0000 </r>
       <r>   65.0197    0.0000 </r>
       <r>   65.0197    0.0000 </r>
       <r>   67.3121    0.0000 </r>
       <r>   92.7637    0.0000 </r>
       <r>   96.8981    0.0000 </r>
      </set>
      <set comment="kpoint 250">
       <r>  -25.6387    1.0000 </r>
       <r>  -25.6319    1.0000 </r>
       <r>  -25.6319    1.0000 </r>
       <r>    1.1106    1.0000 </r>
       <r>    1.1280    1.0000 </r>
       <r>   10.2468    0.0000 </r>
       <r>   10.2468    0.0000 </r>
       <r>   10.3999    0.0000 </r>
       <r>   14.0657    0.0000 </r>
       <r>   14.4747    0.0000 </r>
       <r>   14.4747    0.0000 </r>
       <r>   23.5101    0.0000 </r>
       <r>   25.8701    0.0000 </r>
       <r>   25.9056    0.0000 </r>
       <r>   30.1296    0.0000 </r>
       <r>   41.6748    0.0000 </r>
       <r>   41.6748    0.0000 </r>
       <r>   41.7650    0.0000 </r>
       <r>   42.3347    0.0000 </r>
       <r>   45.8416    0.0000 </r>
       <r>   45.8641    0.0000 </r>
       <r>   45.8642    0.0000 </r>
       <r>   51.4302    0.0000 </r>
       <r>   54.2297    0.0000 </r>
       <r>   54.4559    0.0000 </r>
       <r>   54.4560    0.0000 </r>
       <r>   57.0408    0.0000 </r>
       <r>   57.0408    0.0000 </r>
       <r>   57.4545    0.0000 </r>
       <r>   59.6346    0.0000 </r>
       <r>   59.7376    0.0000 </r>
       <r>   60.2691    0.0000 </r>
       <r>   60.2691    0.0000 </r>
       <r>   61.1951    0.0000 </r>
       <r>   62.8386    0.0000 </r>
       <r>   63.4821    0.0000 </r>
       <r>   63.4821    0.0000 </r>
       <r>   65.8909    0.0000 </r>
       <r>   97.0580    0.0000 </r>
       <r>   97.0592    0.0000 </r>
      </set>
     </set>
    </set>
   </array>
  </eigenvalues>
  <separator name="orbital magnetization" >
   <v name="MAGDIPOLOUT">      0.00000000      0.00000000      0.00000000</v>
  </separator>
  <dos>
   <i name="efermi">      4.83263154 </i>
   <total>
    <array>
     <dimension dim="1">gridpoints</dimension>
     <dimension dim="2">spin</dimension>
     <field>energy</field>
     <field>total</field>
     <field>integrated</field>
     <set>
      <set comment="spin 1">
       <r>   -32.2223     0.0000     0.0000 </r>
       <r>   -31.7709     0.0000     0.0000 </r>
       <r>   -31.3194     0.0000     0.0000 </r>
       <r>   -30.8680     0.0000     0.0000 </r>
       <r>   -30.4165     0.0000     0.0000 </r>
       <r>   -29.9650     0.0000     0.0000 </r>
       <r>   -29.5136     0.0000     0.0000 </r>
       <r>   -29.0621     0.0000     0.0000 </r>
       <r>   -28.6107     0.0000     0.0000 </r>
       <r>   -28.1592     0.0000     0.0000 </r>
       <r>   -27.7077     0.0000     0.0000 </r>
       <r>   -27.2563     0.0000     0.0000 </r>
       <r>   -26.8048     0.0000     0.0000 </r>
       <r>   -26.3534     0.0000     0.0000 </r>
       <r>   -25.9019     3.3689     0.3142 </r>
       <r>   -25.4504     3.1965     2.0694 </r>
       <r>   -24.9990     4.4824     4.0948 </r>
       <r>   -24.5475     0.0000     6.0000 </r>
       <r>   -24.0961     0.0000     6.0000 </r>
       <r>   -23.6446     0.0000     6.0000 </r>
       <r>   -23.1931     0.0000     6.0000 </r>
       <r>   -22.7417     0.0000     6.0000 </r>
       <r>   -22.2902     0.0000     6.0000 </r>
       <r>   -21.8388     0.0000     6.0000 </r>
       <r>   -21.3873     0.0000     6.0000 </r>
       <r>   -20.9358     0.0000     6.0000 </r>
       <r>   -20.4844     0.0000     6.0000 </r>
       <r>   -20.0329     0.0000     6.0000 </r>
       <r>   -19.5815     0.0000     6.0000 </r>
       <r>   -19.1300     0.0000     6.0000 </r>
       <r>   -18.6785     0.0000     6.0000 </r>
       <r>   -18.2271     0.0000     6.0000 </r>
       <r>   -17.7756     0.0000     6.0000 </r>
       <r>   -17.3242     0.0000     6.0000 </r>
       <r>   -16.8727     0.0000     6.0000 </r>
       <r>   -16.4213     0.0000     6.0000 </r>
       <r>   -15.9698     0.0000     6.0000 </r>
       <r>   -15.5183     0.0000     6.0000 </r>
       <r>   -15.0669     0.0000     6.0000 </r>
       <r>   -14.6154     0.0000     6.0000 </r>
       <r>   -14.1640     0.0000     6.0000 </r>
       <r>   -13.7125     0.0000     6.0000 </r>
       <r>   -13.2610     0.0000     6.0000 </r>
       <r>   -12.8096     0.0000     6.0000 </r>
       <r>   -12.3581     0.0000     6.0000 </r>
       <r>   -11.9067     0.0000     6.0000 </r>
       <r>   -11.4552     0.0000     6.0000 </r>
       <r>   -11.0037     0.0000     6.0000 </r>
       <r>   -10.5523     0.0000     6.0000 </r>
       <r>   -10.1008     0.0000     6.0000 </r>
       <r>    -9.6494     0.0000     6.0000 </r>
       <r>    -9.1979     0.0000     6.0000 </r>
       <r>    -8.7464     0.0000     6.0000 </r>
       <r>    -8.2950     0.0000     6.0000 </r>
       <r>    -7.8435     0.0000     6.0000 </r>
       <r>    -7.3921     0.0000     6.0000 </r>
       <r>    -6.9406     0.0000     6.0000 </r>
       <r>    -6.4891     0.0000     6.0000 </r>
       <r>    -6.0377     0.0000     6.0000 </r>
       <r>    -5.5862     0.0000     6.0000 </r>
       <r>    -5.1348     0.0000     6.0000 </r>
       <r>    -4.6833     0.0000     6.0000 </r>
       <r>    -4.2318     0.0000     6.0000 </r>
       <r>    -3.7804     0.0000     6.0000 </r>
       <r>    -3.3289     0.0000     6.0000 </r>
       <r>    -2.8775     0.0000     6.0000 </r>
       <r>    -2.4260     0.0000     6.0000 </r>
       <r>    -1.9745     0.0000     6.0000 </r>
       <r>    -1.5231     0.0000     6.0000 </r>
       <r>    -1.0716     0.0000     6.0000 </r>
       <r>    -0.6202     0.0474     6.0127 </r>
       <r>    -0.1687     0.0754     6.0405 </r>
       <r>     0.2828     0.1085     6.0817 </r>
       <r>     0.7342     0.1558     6.1402 </r>
       <r>     1.1857     0.5213     6.2417 </r>
       <r>     1.6371     1.0544     6.6564 </r>
       <r>     2.0886     1.4682     7.1935 </r>
       <r>     2.5400     1.4134     7.8457 </r>
       <r>     2.9915     0.4298     8.1930 </r>
       <r>     3.4430     2.9296     8.8167 </r>
       <r>     3.8944     1.1570     9.5913 </r>
       <r>     4.3459     1.2046    10.0762 </r>
       <r>     4.7973     1.7008    10.9426 </r>
       <r>     5.2488     0.6151    11.4604 </r>
       <r>     5.7003     0.4706    11.6952 </r>
       <r>     6.1517     0.4778    11.9032 </r>
       <r>     6.6032     0.7196    12.1457 </r>
       <r>     7.0546     0.9580    12.5531 </r>
       <r>     7.5061     1.3071    13.0461 </r>
       <r>     7.9576     1.3036    13.6395 </r>
       <r>     8.4090     1.4430    14.2946 </r>
       <r>     8.8605     4.8243    15.1452 </r>
       <r>     9.3119     0.9525    15.8558 </r>
       <r>     9.7634     0.6953    16.2296 </r>
       <r>    10.2149     0.6100    16.5222 </r>
       <r>    10.6663     0.3914    16.7616 </r>
       <r>    11.1178     0.4087    16.9134 </r>
       <r>    11.5692     0.3390    17.0802 </r>
       <r>    12.0207     0.3138    17.2273 </r>
       <r>    12.4722     0.3015    17.3655 </r>
       <r>    12.9236     0.2843    17.4975 </r>
       <r>    13.3751     0.2665    17.6223 </r>
       <r>    13.8265     0.2471    17.7390 </r>
       <r>    14.2780     0.2051    17.8428 </r>
       <r>    14.7295     0.2855    17.9385 </r>
       <r>    15.1809     0.0848    18.0114 </r>
       <r>    15.6324     0.4037    18.1224 </r>
       <r>    16.0838     0.4990    18.3369 </r>
       <r>    16.5353     0.5412    18.5691 </r>
       <r>    16.9868     0.6084    18.8433 </r>
       <r>    17.4382     0.5652    19.0988 </r>
       <r>    17.8897     0.7368    19.3927 </r>
       <r>    18.3411     0.8895    19.7842 </r>
       <r>    18.7926     0.7996    20.1613 </r>
       <r>    19.2440     0.7529    20.5113 </r>
       <r>    19.6955     0.7070    20.8391 </r>
       <r>    20.1470     0.6373    21.1439 </r>
       <r>    20.5984     0.6132    21.4139 </r>
       <r>    21.0499     0.7681    21.7286 </r>
       <r>    21.5013     0.7894    22.0733 </r>
       <r>    21.9528     0.9923    22.4915 </r>
       <r>    22.4043     0.7175    22.8477 </r>
       <r>    22.8557     0.6363    23.1528 </r>
       <r>    23.3072     0.4674    23.3971 </r>
       <r>    23.7586     0.4598    23.6021 </r>
       <r>    24.2101     0.5788    23.8329 </r>
       <r>    24.6616     0.6546    24.1053 </r>
       <r>    25.1130     0.9460    24.5292 </r>
       <r>    25.5645     0.6627    24.8743 </r>
       <r>    26.0159     0.5712    25.1564 </r>
       <r>    26.4674     0.5619    25.4078 </r>
       <r>    26.9189     0.5027    25.6546 </r>
       <r>    27.3703     0.4355    25.8594 </r>
       <r>    27.8218     0.6795    26.0995 </r>
       <r>    28.2732     0.5222    26.3915 </r>
       <r>    28.7247     0.7657    26.6554 </r>
       <r>    29.1762     0.8720    27.0581 </r>
       <r>    29.6276     0.7121    27.4005 </r>
       <r>    30.0791     0.7172    27.7291 </r>
       <r>    30.5305     0.6644    28.0429 </r>
       <r>    30.9820     0.6260    28.3364 </r>
       <r>    31.4335     0.6554    28.6258 </r>
       <r>    31.8849     0.6600    28.9112 </r>
       <r>    32.3364     0.8578    29.2525 </r>
       <r>    32.7878     0.8930    29.6607 </r>
       <r>    33.2393     0.9051    30.0586 </r>
       <r>    33.6908     0.9513    30.4644 </r>
       <r>    34.1422     0.8451    30.8746 </r>
       <r>    34.5937     0.7839    31.2428 </r>
       <r>    35.0451     0.7478    31.6075 </r>
       <r>    35.4966     0.5987    31.9054 </r>
       <r>    35.9481     0.5055    32.1506 </r>
       <r>    36.3995     0.5620    32.3916 </r>
       <r>    36.8510     0.7601    32.6788 </r>
       <r>    37.3024     1.0667    33.1063 </r>
       <r>    37.7539     1.0134    33.5980 </r>
       <r>    38.2053     0.9696    34.0319 </r>
       <r>    38.6568     0.6478    34.4140 </r>
       <r>    39.1083     0.7251    34.7211 </r>
       <r>    39.5597     0.7990    35.0750 </r>
       <r>    40.0112     0.7529    35.4258 </r>
       <r>    40.4626     0.8463    35.7740 </r>
       <r>    40.9141     0.8944    36.1868 </r>
       <r>    41.3656     1.0677    36.5889 </r>
       <r>    41.8170     1.9803    37.2704 </r>
       <r>    42.2685     2.9863    38.5417 </r>
       <r>    42.7199     1.6148    39.4139 </r>
       <r>    43.1714     1.0711    39.9412 </r>
       <r>    43.6229     1.1406    40.4366 </r>
       <r>    44.0743     1.0848    40.9463 </r>
       <r>    44.5258     1.0663    41.4229 </r>
       <r>    44.9772     0.8918    41.9144 </r>
       <r>    45.4287     0.9730    42.2852 </r>
       <r>    45.8802     0.7916    42.7360 </r>
       <r>    46.3316     0.5699    43.0254 </r>
       <r>    46.7831     0.6400    43.2871 </r>
       <r>    47.2345     0.6136    43.5544 </r>
       <r>    47.6860     0.9838    43.9410 </r>
       <r>    48.1375     0.8485    44.3820 </r>
       <r>    48.5889     0.6770    44.7196 </r>
       <r>    49.0404     0.6390    45.0132 </r>
       <r>    49.4918     0.7980    45.3191 </r>
       <r>    49.9433     0.8921    45.6861 </r>
       <r>    50.3948     1.0417    46.1016 </r>
       <r>    50.8462     1.0652    46.5727 </r>
       <r>    51.2977     0.9622    47.0226 </r>
       <r>    51.7491     0.9167    47.4485 </r>
       <r>    52.2006     0.8431    47.8457 </r>
       <r>    52.6521     0.8395    48.2182 </r>
       <r>    53.1035     1.0929    48.6517 </r>
       <r>    53.5550     0.8144    49.0764 </r>
       <r>    54.0064     0.8210    49.4372 </r>
       <r>    54.4579     0.9265    49.8271 </r>
       <r>    54.9093     0.9737    50.2451 </r>
       <r>    55.3608     0.8743    50.6618 </r>
       <r>    55.8123     1.0089    51.0814 </r>
       <r>    56.2637     0.9490    51.5277 </r>
       <r>    56.7152     1.0018    51.9766 </r>
       <r>    57.1666     0.9810    52.4246 </r>
       <r>    57.6181     1.0365    52.8700 </r>
       <r>    58.0696     1.0455    53.3280 </r>
       <r>    58.5210     1.0135    53.7882 </r>
       <r>    58.9725     1.0451    54.2596 </r>
       <r>    59.4239     1.1157    54.7607 </r>
       <r>    59.8754     1.2185    55.2606 </r>
       <r>    60.3269     1.0426    55.7494 </r>
       <r>    60.7783     0.9301    56.1776 </r>
       <r>    61.2298     0.9712    56.6040 </r>
       <r>    61.6812     1.0301    57.0607 </r>
       <r>    62.1327     1.1464    57.5580 </r>
       <r>    62.5842     0.9877    58.0600 </r>
       <r>    63.0356     0.7486    58.4440 </r>
       <r>    63.4871     0.8719    58.7947 </r>
       <r>    63.9385     0.9662    59.2080 </r>
       <r>    64.3900     1.0934    59.6715 </r>
       <r>    64.8415     0.8626    60.1324 </r>
       <r>    65.2929     0.8445    60.5051 </r>
       <r>    65.7444     1.0278    60.9243 </r>
       <r>    66.1958     1.0389    61.4025 </r>
       <r>    66.6473     1.0618    61.8859 </r>
       <r>    67.0988     0.9337    62.3539 </r>
       <r>    67.5502     1.0114    62.7849 </r>
       <r>    68.0017     1.0570    63.2503 </r>
       <r>    68.4531     1.0727    63.7259 </r>
       <r>    68.9046     0.9867    64.1954 </r>
       <r>    69.3561     0.9503    64.6159 </r>
       <r>    69.8075     0.9524    65.0611 </r>
       <r>    70.2590     0.9632    65.4982 </r>
       <r>    70.7104     1.0688    65.9577 </r>
       <r>    71.1619     1.0232    66.4515 </r>
       <r>    71.6133     0.9357    66.8853 </r>
       <r>    72.0648     1.1478    67.3433 </r>
       <r>    72.5163     1.2204    67.8780 </r>
       <r>    72.9677     0.9956    68.3749 </r>
       <r>    73.4192     1.0386    68.8443 </r>
       <r>    73.8706     1.0119    69.3202 </r>
       <r>    74.3221     1.0822    69.7889 </r>
       <r>    74.7736     0.9759    70.2551 </r>
       <r>    75.2250     1.0342    70.7114 </r>
       <r>    75.6765     1.0395    71.1904 </r>
       <r>    76.1279     0.9862    71.6444 </r>
       <r>    76.5794     1.1446    72.1260 </r>
       <r>    77.0309     1.4245    72.6880 </r>
       <r>    77.4823     1.0777    73.2492 </r>
       <r>    77.9338     1.0076    73.7207 </r>
       <r>    78.3852     0.9120    74.1426 </r>
       <r>    78.8367     0.9489    74.5594 </r>
       <r>    79.2882     0.9573    75.0079 </r>
       <r>    79.7396     1.0588    75.4557 </r>
       <r>    80.1911     1.0246    75.9428 </r>
       <r>    80.6425     1.2878    76.4689 </r>
       <r>    81.0940     1.1652    77.0404 </r>
       <r>    81.5455     1.0198    77.5186 </r>
       <r>    81.9969     0.9955    77.9718 </r>
       <r>    82.4484     0.9156    78.4040 </r>
       <r>    82.8998     0.9226    78.8262 </r>
       <r>    83.3513     0.7078    79.2027 </r>
       <r>    83.8028     0.4251    79.4500 </r>
       <r>    84.2542     0.3034    79.6103 </r>
       <r>    84.7057     0.2388    79.7337 </r>
       <r>    85.1571     0.1179    79.8082 </r>
       <r>    85.6086     0.0817    79.8521 </r>
       <r>    86.0601     0.0839    79.8863 </r>
       <r>    86.5115     0.0419    79.9167 </r>
       <r>    86.9630     0.0182    79.9292 </r>
       <r>    87.4144     0.0162    79.9369 </r>
       <r>    87.8659     0.0134    79.9437 </r>
       <r>    88.3174     0.0124    79.9495 </r>
       <r>    88.7688     0.0115    79.9549 </r>
       <r>    89.2203     0.0108    79.9599 </r>
       <r>    89.6717     0.0100    79.9646 </r>
       <r>    90.1232     0.0093    79.9689 </r>
       <r>    90.5746     0.0085    79.9729 </r>
       <r>    91.0261     0.0081    79.9767 </r>
       <r>    91.4776     0.0078    79.9803 </r>
       <r>    91.9290     0.0072    79.9837 </r>
       <r>    92.3805     0.0078    79.9869 </r>
       <r>    92.8319     0.0051    79.9899 </r>
       <r>    93.2834     0.0035    79.9916 </r>
       <r>    93.7349     0.0031    79.9931 </r>
       <r>    94.1863     0.0027    79.9944 </r>
       <r>    94.6378     0.0024    79.9956 </r>
       <r>    95.0892     0.0021    79.9966 </r>
       <r>    95.5407     0.0018    79.9974 </r>
       <r>    95.9922     0.0015    79.9982 </r>
       <r>    96.4436     0.0012    79.9988 </r>
       <r>    96.8951     0.0010    79.9993 </r>
       <r>    97.3465     0.0000    80.0000 </r>
       <r>    97.7980     0.0000    80.0000 </r>
       <r>    98.2495     0.0000    80.0000 </r>
       <r>    98.7009     0.0000    80.0000 </r>
       <r>    99.1524     0.0000    80.0000 </r>
       <r>    99.6038     0.0000    80.0000 </r>
       <r>   100.0553     0.0000    80.0000 </r>
       <r>   100.5068     0.0000    80.0000 </r>
       <r>   100.9582     0.0000    80.0000 </r>
       <r>   101.4097     0.0000    80.0000 </r>
       <r>   101.8611     0.0000    80.0000 </r>
       <r>   102.3126     0.0000    80.0000 </r>
       <r>   102.7641     0.0000    80.0000 </r>
       <r>   103.2155     0.0000    80.0000 </r>
      </set>
     </set>
    </array>
   </total>
  </dos>
 </calculation>
 <structure name="finalpos" >
  <crystal>
   <varray name="basis" >
    <v>      -1.65040000       1.65040000       1.65040000 </v>
    <v>       1.65040000      -1.65040000       1.65040000 </v>
    <v>       1.65040000       1.65040000      -1.65040000 </v>
   </varray>
   <i name="volume">     17.98157117 </i>
   <varray name="rec_basis" >
    <v>       0.00000000       0.30295686       0.30295686 </v>
    <v>       0.30295686       0.00000000       0.30295686 </v>
    <v>       0.30295686       0.30295686       0.00000000 </v>
   </varray>
  </crystal>
  <varray name="positions" >
   <v>       0.00000000       0.00000000       0.00000000 </v>
  </varray>
 </structure>
</modeling>
