   8   8   0   0
  0.2001288E+02  0.5430000E-09  0.5430000E-09  0.5430000E-09  0.5000000E-15
  1.000000000000000E-004
  CAR 
 Si                                      
     12.62902391     -8.13052024  301      5.85622263      1.00000000
     -8.131  0.0000E+00  0.0000E+00
     -8.061  0.0000E+00  0.0000E+00
     -7.992  0.0000E+00  0.0000E+00
     -7.923  0.0000E+00  0.0000E+00
     -7.854  0.0000E+00  0.0000E+00
     -7.785  0.0000E+00  0.0000E+00
     -7.715  0.0000E+00  0.0000E+00
     -7.646  0.0000E+00  0.0000E+00
     -7.577  0.0000E+00  0.0000E+00
     -7.508  0.0000E+00  0.0000E+00
     -7.439  0.0000E+00  0.0000E+00
     -7.369  0.0000E+00  0.0000E+00
     -7.300  0.0000E+00  0.0000E+00
     -7.231  0.0000E+00  0.0000E+00
     -7.162  0.0000E+00  0.0000E+00
     -7.093  0.0000E+00  0.0000E+00
     -7.023  0.0000E+00  0.0000E+00
     -6.954  0.0000E+00  0.0000E+00
     -6.885  0.0000E+00  0.0000E+00
     -6.816  0.0000E+00  0.0000E+00
     -6.747  0.0000E+00  0.0000E+00
     -6.677  0.0000E+00  0.0000E+00
     -6.608  0.0000E+00  0.0000E+00
     -6.539  0.0000E+00  0.0000E+00
     -6.470  0.0000E+00  0.0000E+00
     -6.401  0.0000E+00  0.0000E+00
     -6.331  0.0000E+00  0.0000E+00
     -6.262  0.0000E+00  0.0000E+00
     -6.193  0.0000E+00  0.0000E+00
     -6.124  0.3530E-01  0.7949E-04
     -6.055  0.3601E+00  0.1715E-01
     -5.985  0.5103E+00  0.4793E-01
     -5.916  0.6302E+00  0.8790E-01
     -5.847  0.7382E+00  0.1353E+00
     -5.778  0.8205E+00  0.1891E+00
     -5.709  0.9064E+00  0.2490E+00
     -5.639  0.9801E+00  0.3142E+00
     -5.570  0.1056E+01  0.3848E+00
     -5.501  0.1121E+01  0.4601E+00
     -5.432  0.1194E+01  0.5402E+00
     -5.363  0.1253E+01  0.6248E+00
     -5.293  0.1317E+01  0.7137E+00
     -5.224  0.1380E+01  0.8071E+00
     -5.155  0.1438E+01  0.9046E+00
     -5.086  0.1500E+01  0.1006E+01
     -5.017  0.1561E+01  0.1112E+01
     -4.947  0.1617E+01  0.1222E+01
     -4.878  0.1679E+01  0.1336E+01
     -4.809  0.1742E+01  0.1455E+01
     -4.740  0.1799E+01  0.1577E+01
     -4.671  0.1861E+01  0.1704E+01
     -4.601  0.1927E+01  0.1835E+01
     -4.532  0.1992E+01  0.1970E+01
     -4.463  0.2058E+01  0.2110E+01
     -4.394  0.2130E+01  0.2255E+01
     -4.325  0.2209E+01  0.2405E+01
     -4.255  0.2318E+01  0.2561E+01
     -4.186  0.2481E+01  0.2727E+01
     -4.117  0.2544E+01  0.2901E+01
     -4.048  0.2517E+01  0.3076E+01
     -3.979  0.2620E+01  0.3252E+01
     -3.909  0.2865E+01  0.3441E+01
     -3.840  0.3099E+01  0.3647E+01
     -3.771  0.3754E+01  0.3886E+01
     -3.702  0.3388E+01  0.4134E+01
     -3.633  0.3762E+01  0.4374E+01
     -3.563  0.3310E+01  0.4606E+01
     -3.494  0.3268E+01  0.4832E+01
     -3.425  0.3098E+01  0.5052E+01
     -3.356  0.3002E+01  0.5262E+01
     -3.287  0.2913E+01  0.5472E+01
     -3.217  0.2842E+01  0.5672E+01
     -3.148  0.2729E+01  0.5863E+01
     -3.079  0.2619E+01  0.6051E+01
     -3.010  0.2518E+01  0.6230E+01
     -2.941  0.2437E+01  0.6405E+01
     -2.871  0.2415E+01  0.6572E+01
     -2.802  0.2225E+01  0.6732E+01
     -2.733  0.2088E+01  0.6881E+01
     -2.664  0.2056E+01  0.7029E+01
     -2.595  0.1978E+01  0.7170E+01
     -2.525  0.1820E+01  0.7302E+01
     -2.456  0.1657E+01  0.7423E+01
     -2.387  0.1531E+01  0.7533E+01
     -2.318  0.1589E+01  0.7644E+01
     -2.249  0.1409E+01  0.7750E+01
     -2.179  0.1125E+01  0.7838E+01
     -2.110  0.8398E+00  0.7905E+01
     -2.041  0.5507E+00  0.7954E+01
     -1.972  0.3838E+00  0.7987E+01
     -1.903  0.2282E+00  0.8006E+01
     -1.833  0.2813E+00  0.8023E+01
     -1.764  0.4602E+00  0.8048E+01
     -1.695  0.6497E+00  0.8087E+01
     -1.626  0.8624E+00  0.8139E+01
     -1.557  0.1373E+01  0.8218E+01
     -1.487  0.1338E+01  0.8313E+01
     -1.418  0.1431E+01  0.8409E+01
     -1.349  0.1566E+01  0.8512E+01
     -1.280  0.1773E+01  0.8627E+01
     -1.211  0.2142E+01  0.8761E+01
     -1.141  0.2221E+01  0.8928E+01
     -1.072  0.3482E+01  0.9126E+01
     -1.003  0.5251E+01  0.9427E+01
     -0.934  0.7825E+01  0.9915E+01
     -0.865  0.4952E+01  0.1033E+02
     -0.795  0.4194E+01  0.1064E+02
     -0.726  0.3624E+01  0.1091E+02
     -0.657  0.3269E+01  0.1115E+02
     -0.588  0.3063E+01  0.1137E+02
     -0.519  0.2845E+01  0.1157E+02
     -0.449  0.2669E+01  0.1176E+02
     -0.380  0.2484E+01  0.1194E+02
     -0.311  0.2359E+01  0.1211E+02
     -0.242  0.2268E+01  0.1227E+02
     -0.173  0.2143E+01  0.1242E+02
     -0.103  0.2068E+01  0.1257E+02
     -0.034  0.1959E+01  0.1271E+02
      0.035  0.1869E+01  0.1284E+02
      0.104  0.1807E+01  0.1297E+02
      0.173  0.1706E+01  0.1309E+02
      0.242  0.1606E+01  0.1321E+02
      0.312  0.1571E+01  0.1331E+02
      0.381  0.1550E+01  0.1342E+02
      0.450  0.1516E+01  0.1353E+02
      0.519  0.1447E+01  0.1363E+02
      0.588  0.1363E+01  0.1373E+02
      0.658  0.1314E+01  0.1382E+02
      0.727  0.1266E+01  0.1391E+02
      0.796  0.1219E+01  0.1400E+02
      0.865  0.1176E+01  0.1408E+02
      0.934  0.1134E+01  0.1416E+02
      1.004  0.1092E+01  0.1424E+02
      1.073  0.1053E+01  0.1431E+02
      1.142  0.1020E+01  0.1438E+02
      1.211  0.9917E+00  0.1445E+02
      1.280  0.9716E+00  0.1452E+02
      1.350  0.9862E+00  0.1459E+02
      1.419  0.1049E+01  0.1466E+02
      1.488  0.2491E+01  0.1479E+02
      1.557  0.2619E+01  0.1497E+02
      1.626  0.3534E+01  0.1519E+02
      1.696  0.4249E+01  0.1544E+02
      1.765  0.5124E+01  0.1576E+02
      1.834  0.4742E+01  0.1610E+02
      1.903  0.4467E+01  0.1643E+02
      1.972  0.4318E+01  0.1673E+02
      2.042  0.4285E+01  0.1703E+02
      2.111  0.4011E+01  0.1731E+02
      2.180  0.4017E+01  0.1759E+02
      2.249  0.4080E+01  0.1787E+02
      2.318  0.4223E+01  0.1816E+02
      2.388  0.4124E+01  0.1845E+02
      2.457  0.4119E+01  0.1874E+02
      2.526  0.4312E+01  0.1903E+02
      2.595  0.4501E+01  0.1933E+02
      2.664  0.4740E+01  0.1965E+02
      2.734  0.5033E+01  0.1999E+02
      2.803  0.4669E+01  0.2033E+02
      2.872  0.5417E+01  0.2066E+02
      2.941  0.5056E+01  0.2104E+02
      3.010  0.6053E+01  0.2142E+02
      3.080  0.6349E+01  0.2184E+02
      3.149  0.6043E+01  0.2228E+02
      3.218  0.5794E+01  0.2268E+02
      3.287  0.6485E+01  0.2309E+02
      3.356  0.5324E+01  0.2348E+02
      3.426  0.5813E+01  0.2386E+02
      3.495  0.5592E+01  0.2425E+02
      3.564  0.5605E+01  0.2464E+02
      3.633  0.5625E+01  0.2504E+02
      3.702  0.5512E+01  0.2542E+02
      3.772  0.5365E+01  0.2580E+02
      3.841  0.5070E+01  0.2617E+02
      3.910  0.4548E+01  0.2650E+02
      3.979  0.4932E+01  0.2682E+02
      4.048  0.5244E+01  0.2718E+02
      4.118  0.5066E+01  0.2754E+02
      4.187  0.4908E+01  0.2789E+02
      4.256  0.4788E+01  0.2822E+02
      4.325  0.4723E+01  0.2855E+02
      4.394  0.4754E+01  0.2888E+02
      4.464  0.4657E+01  0.2921E+02
      4.533  0.4442E+01  0.2952E+02
      4.602  0.4578E+01  0.2984E+02
      4.671  0.3717E+01  0.3014E+02
      4.740  0.3131E+01  0.3037E+02
      4.810  0.2858E+01  0.3058E+02
      4.879  0.2545E+01  0.3077E+02
      4.948  0.2297E+01  0.3093E+02
      5.017  0.2114E+01  0.3109E+02
      5.086  0.1900E+01  0.3123E+02
      5.156  0.1715E+01  0.3135E+02
      5.225  0.1611E+01  0.3146E+02
      5.294  0.1386E+01  0.3157E+02
      5.363  0.1248E+01  0.3166E+02
      5.432  0.1112E+01  0.3174E+02
      5.502  0.9477E+00  0.3181E+02
      5.571  0.7980E+00  0.3187E+02
      5.640  0.7051E+00  0.3193E+02
      5.709  0.4919E+00  0.3197E+02
      5.778  0.2430E+00  0.3199E+02
      5.848  0.0000E+00  0.3200E+02
      5.917  0.0000E+00  0.3200E+02
      5.986  0.0000E+00  0.3200E+02
      6.055  0.0000E+00  0.3200E+02
      6.124  0.0000E+00  0.3200E+02
      6.194  0.0000E+00  0.3200E+02
      6.263  0.0000E+00  0.3200E+02
      6.332  0.0000E+00  0.3200E+02
      6.401  0.0000E+00  0.3200E+02
      6.470  0.2820E+00  0.3201E+02
      6.540  0.4969E+00  0.3204E+02
      6.609  0.7437E+00  0.3208E+02
      6.678  0.1142E+01  0.3215E+02
      6.747  0.1139E+01  0.3223E+02
      6.816  0.1324E+01  0.3232E+02
      6.886  0.1606E+01  0.3242E+02
      6.955  0.1706E+01  0.3254E+02
      7.024  0.1885E+01  0.3266E+02
      7.093  0.1926E+01  0.3279E+02
      7.162  0.2120E+01  0.3293E+02
      7.232  0.2275E+01  0.3308E+02
      7.301  0.2406E+01  0.3325E+02
      7.370  0.2559E+01  0.3342E+02
      7.439  0.2868E+01  0.3360E+02
      7.508  0.3107E+01  0.3381E+02
      7.578  0.3407E+01  0.3403E+02
      7.647  0.3801E+01  0.3428E+02
      7.716  0.4055E+01  0.3456E+02
      7.785  0.4133E+01  0.3484E+02
      7.854  0.4449E+01  0.3514E+02
      7.924  0.4780E+01  0.3545E+02
      7.993  0.5730E+01  0.3581E+02
      8.062  0.6295E+01  0.3624E+02
      8.131  0.6160E+01  0.3667E+02
      8.200  0.5891E+01  0.3709E+02
      8.270  0.5823E+01  0.3750E+02
      8.339  0.5089E+01  0.3788E+02
      8.408  0.4779E+01  0.3822E+02
      8.477  0.4663E+01  0.3854E+02
      8.546  0.4114E+01  0.3884E+02
      8.616  0.3935E+01  0.3912E+02
      8.685  0.3569E+01  0.3938E+02
      8.754  0.3423E+01  0.3962E+02
      8.823  0.2961E+01  0.3984E+02
      8.892  0.2729E+01  0.4004E+02
      8.962  0.2408E+01  0.4021E+02
      9.031  0.3109E+01  0.4040E+02
      9.100  0.4566E+01  0.4067E+02
      9.169  0.4863E+01  0.4101E+02
      9.238  0.4221E+01  0.4133E+02
      9.307  0.2212E+01  0.4157E+02
      9.377  0.1455E+01  0.4169E+02
      9.446  0.1232E+01  0.4178E+02
      9.515  0.9619E+00  0.4185E+02
      9.584  0.5628E+00  0.4191E+02
      9.653  0.3360E+00  0.4194E+02
      9.723  0.2135E+00  0.4196E+02
      9.792  0.1163E+00  0.4197E+02
      9.861  0.8983E-01  0.4197E+02
      9.930  0.7373E-01  0.4198E+02
      9.999  0.6079E-01  0.4198E+02
     10.069  0.5183E-01  0.4199E+02
     10.138  0.4847E-01  0.4199E+02
     10.207  0.3210E-01  0.4200E+02
     10.276  0.2240E-01  0.4200E+02
     10.345  0.1601E-01  0.4200E+02
     10.415  0.1021E-01  0.4200E+02
     10.484  0.5427E-02  0.4200E+02
     10.553  0.1740E-02  0.4200E+02
     10.622  0.1377E-04  0.4200E+02
     10.691  0.0000E+00  0.4200E+02
     10.761  0.0000E+00  0.4200E+02
     10.830  0.0000E+00  0.4200E+02
     10.899  0.0000E+00  0.4200E+02
     10.968  0.0000E+00  0.4200E+02
     11.037  0.0000E+00  0.4200E+02
     11.107  0.0000E+00  0.4200E+02
     11.176  0.0000E+00  0.4200E+02
     11.245  0.0000E+00  0.4200E+02
     11.314  0.0000E+00  0.4200E+02
     11.383  0.0000E+00  0.4200E+02
     11.453  0.0000E+00  0.4200E+02
     11.522  0.0000E+00  0.4200E+02
     11.591  0.0000E+00  0.4200E+02
     11.660  0.0000E+00  0.4200E+02
     11.729  0.0000E+00  0.4200E+02
     11.799  0.0000E+00  0.4200E+02
     11.868  0.0000E+00  0.4200E+02
     11.937  0.0000E+00  0.4200E+02
     12.006  0.0000E+00  0.4200E+02
     12.075  0.0000E+00  0.4200E+02
     12.145  0.0000E+00  0.4200E+02
     12.214  0.0000E+00  0.4200E+02
     12.283  0.0000E+00  0.4200E+02
     12.352  0.0000E+00  0.4200E+02
     12.421  0.0000E+00  0.4200E+02
     12.491  0.0000E+00  0.4200E+02
     12.560  0.0000E+00  0.4200E+02
     12.629  0.0000E+00  0.4200E+02
