bulk MoS2                               
   1.00000000000000     
     3.190316    0.000000    0.000000
    -1.595158    2.762894    0.000000
     0.000000    0.000000   14.879004
   Mo   S 
     2     4
Direct
  0.333333  0.666667  0.250000
  0.666667  0.333333  0.750000
  0.666667  0.333333  0.355174
  0.333333  0.666667  0.855174
  0.666667  0.333333  0.144826
  0.333333  0.666667  0.644826
 
   36   36  168
 0.38864023050E+00 0.39135492085E+00 0.39961022591E+00 0.41367836242E+00 0.43383547504E+00
 0.46017587166E+00 0.49246916492E+00 0.53010487220E+00 0.57212676372E+00 0.61732078719E+00
 0.66430325593E+00 0.71157089623E+00 0.75751376601E+00 0.80042812527E+00 0.83857098182E+00
 0.87026883126E+00 0.89405588346E+00 0.90880114745E+00 0.91379636455E+00 0.90880114706E+00
 0.89405588392E+00 0.87026883238E+00 0.83857098194E+00 0.80042812405E+00 0.75751376504E+00
 0.71157089648E+00 0.66430325665E+00 0.61732078765E+00 0.57212676407E+00 0.53010487228E+00
 0.49246916421E+00 0.46017587070E+00 0.43383547502E+00 0.41367836327E+00 0.39961022641E+00
 0.39135492071E+00 0.39135492085E+00 0.39135451874E+00 0.39684118753E+00 0.40801447786E+00
 0.42516086929E+00 0.44847823375E+00 0.47790692702E+00 0.51302779532E+00 0.55305276374E+00
 0.59689034434E+00 0.64323738437E+00 0.69064777835E+00 0.73755997163E+00 0.78230591052E+00
 0.82314395341E+00 0.85834337355E+00 0.88631278010E+00 0.90573734861E+00 0.91568827597E+00
 0.91568802258E+00 0.90573688003E+00 0.88631252539E+00 0.85834330294E+00 0.82314379428E+00
 0.78230573030E+00 0.73756006553E+00 0.69064805069E+00 0.64323737366E+00 0.59688997872E+00
 0.55305258834E+00 0.51302816353E+00 0.47790739646E+00 0.44847821561E+00 0.42516057823E+00
 0.40801463777E+00 0.39684186799E+00 0.39961022592E+00 0.39684118754E+00 0.39961024861E+00
 0.40801462570E+00 0.42229178362E+00 0.44267881779E+00 0.46924224363E+00 0.50174334782E+00
 0.53958278182E+00 0.58182782723E+00 0.62728802054E+00 0.67459054820E+00 0.72222382134E+00
 0.76855361233E+00 0.81184531876E+00 0.85032737030E+00 0.88230457320E+00 0.90629728766E+00
 0.92116749584E+00 0.92620448966E+00 0.92116744122E+00 0.90629716638E+00 0.88230442421E+00
 0.85032727411E+00 0.81184529923E+00 0.76855360748E+00 0.72222379019E+00 0.67459054958E+00
 0.62728812160E+00 0.58182797176E+00 0.53958283577E+00 0.50174327467E+00 0.46924215187E+00
 0.44267880850E+00 0.42229182678E+00 0.40801463743E+00 0.41367836244E+00 0.40801447787E+00
 0.40801462571E+00 0.41367868741E+00 0.42516086355E+00 0.44267897250E+00 0.46636869731E+00
 0.49613888296E+00 0.53157900467E+00 0.57194171133E+00 0.61618649601E+00 0.66304572779E+00
 0.71107605783E+00 0.75868438223E+00 0.80414889395E+00 0.84566897907E+00 0.88146311296E+00
 0.90990334006E+00 0.92965210795E+00 0.93976812382E+00 0.93976817099E+00 0.92965223783E+00
 0.90990350936E+00 0.88146324377E+00 0.84566899821E+00 0.80414880446E+00 0.75868429046E+00
 0.71107609188E+00 0.66304590277E+00 0.61618667839E+00 0.57194174960E+00 0.53157888727E+00
 0.49613872559E+00 0.46636857131E+00 0.44267880888E+00 0.42516057828E+00 0.43383547506E+00
 0.42516086932E+00 0.42229178364E+00 0.42516086356E+00 0.43383555174E+00 0.44847835941E+00
 0.46924220571E+00 0.49613861786E+00 0.52892583882E+00 0.56705194980E+00 0.60965886695E+00
 0.65562379373E+00 0.70360471674E+00 0.75207129159E+00 0.79932909171E+00 0.84356307466E+00
 0.88292234327E+00 0.91564601931E+00 0.94020551591E+00 0.95542911860E+00 0.96058613616E+00
 0.95542911515E+00 0.94020556163E+00 0.91564609421E+00 0.88292235326E+00 0.84356301112E+00
 0.79932907645E+00 0.75207139038E+00 0.70360480745E+00 0.65562373086E+00 0.60965871360E+00
 0.56705190733E+00 0.52892595837E+00 0.49613872540E+00 0.46924215237E+00 0.44847821655E+00
 0.46017587169E+00 0.44847823379E+00 0.44267881782E+00 0.44267897252E+00 0.44847835942E+00
 0.46017551979E+00 0.47790678856E+00 0.50174302168E+00 0.53157909890E+00 0.56705209262E+00
 0.60750686019E+00 0.65200284562E+00 0.69934023750E+00 0.74808679353E+00 0.79660364906E+00
 0.84308549023E+00 0.88563487376E+00 0.92237801339E+00 0.95160752035E+00 0.97192183809E+00
 0.98233323622E+00 0.98233335860E+00 0.97192195425E+00 0.95160732262E+00 0.92237771142E+00
 0.88563489735E+00 0.84308578378E+00 0.79660373619E+00 0.74808653196E+00 0.69934002865E+00
 0.65200295417E+00 0.60750698211E+00 0.56705190725E+00 0.53157888651E+00 0.50174327423E+00
 0.47790739726E+00 0.49246916497E+00 0.47790692707E+00 0.46924224367E+00 0.46636869735E+00
 0.46924220573E+00 0.47790678857E+00 0.49246896797E+00 0.51302807315E+00 0.53958292793E+00
 0.57194189119E+00 0.60965874117E+00 0.65200290004E+00 0.69795740578E+00 0.74623177030E+00
 0.79528315398E+00 0.84335236778E+00 0.88852953329E+00 0.92885918100E+00 0.96247807685E+00
 0.98776287200E+00 0.10034603935E+01 0.10087824447E+01 0.10034604364E+01 0.98776290879E+00
 0.96247811437E+00 0.92885928169E+00 0.88852967974E+00 0.84335243047E+00 0.79528306300E+00
 0.74623163833E+00 0.69795738219E+00 0.65200295456E+00 0.60965871435E+00 0.57194174938E+00
 0.53958283461E+00 0.51302816313E+00 0.53010487227E+00 0.51302779539E+00 0.50174334788E+00
 0.49613888302E+00 0.49613861790E+00 0.50174302171E+00 0.51302807316E+00 0.53010555387E+00
 0.55305288356E+00 0.58182766661E+00 0.61618638311E+00 0.65562390541E+00 0.69934035673E+00
 0.74623164389E+00 0.79489828526E+00 0.84367411634E+00 0.89068356183E+00 0.93393506362E+00
 0.97144854654E+00 0.10014030236E+01 0.10222833927E+01 0.10330056515E+01 0.10330055326E+01
 0.10222832964E+01 0.10014032712E+01 0.97144893131E+00 0.93393515536E+00 0.89068340107E+00
 0.84367411243E+00 0.79489848462E+00 0.74623163784E+00 0.69934002841E+00 0.65562373187E+00
 0.61618667951E+00 0.58182797143E+00 0.55305258738E+00 0.57212676381E+00 0.55305276382E+00
 0.53958278190E+00 0.53157900474E+00 0.52892583888E+00 0.53157909895E+00 0.53958292797E+00
 0.55305288357E+00 0.57212678587E+00 0.59688989982E+00 0.62728801730E+00 0.66304585095E+00
 0.70360481660E+00 0.74808655803E+00 0.79528308234E+00 0.84367414819E+00 0.89147469661E+00
 0.93671526549E+00 0.97735498365E+00 0.10114210441E+01 0.10371621505E+01 0.10531980257E+01
 0.10586447654E+01 0.10531980353E+01 0.10371621607E+01 0.10114210297E+01 0.97735492314E+00
 0.93671517495E+00 0.89147462216E+00 0.84367411286E+00 0.79528306269E+00 0.74808653073E+00
 0.70360480715E+00 0.66304590403E+00 0.62728812253E+00 0.59688997834E+00 0.61732078730E+00
 0.59689034445E+00 0.58182782733E+00 0.57194171142E+00 0.56705194988E+00 0.56705209268E+00
 0.57194189124E+00 0.58182766665E+00 0.59688989984E+00 0.61732048890E+00 0.64323744580E+00
 0.67459074540E+00 0.71107606908E+00 0.75207115342E+00 0.79660355939E+00 0.84335247444E+00
 0.89068358563E+00 0.93671537772E+00 0.97941561212E+00 0.10167261954E+01 0.10467117869E+01
 0.10677217141E+01 0.10785469031E+01 0.10785469098E+01 0.10677216887E+01 0.10467116713E+01
 0.10167260128E+01 0.97941541612E+00 0.93671517484E+00 0.89068340198E+00 0.84335243157E+00
 0.79660373566E+00 0.75207138895E+00 0.71107609179E+00 0.67459055063E+00 0.64323737391E+00
 0.66430325606E+00 0.64323738450E+00 0.62728802066E+00 0.61618649612E+00 0.60965886705E+00
 0.60750686028E+00 0.60965874124E+00 0.61618638316E+00 0.62728801733E+00 0.64323744581E+00
 0.66430329878E+00 0.69064807395E+00 0.72222382846E+00 0.75868430884E+00 0.79932900725E+00
 0.84308564907E+00 0.88852959162E+00 0.93393517634E+00 0.97735499491E+00 0.10167260550E+01
 0.10500039878E+01 0.10753239167E+01 0.10911767845E+01 0.10965756523E+01 0.10911767370E+01
 0.10753238775E+01 0.10500039706E+01 0.10167260126E+01 0.97735492212E+00 0.93393515509E+00
 0.88852968123E+00 0.84308578507E+00 0.79932907585E+00 0.75868428949E+00 0.72222379053E+00
 0.69064805120E+00 0.71157089637E+00 0.69064777849E+00 0.67459054834E+00 0.66304572792E+00
 0.65562379385E+00 0.65200284572E+00 0.65200290012E+00 0.65562390548E+00 0.66304585100E+00
 0.67459074543E+00 0.69064807397E+00 0.71157112354E+00 0.73756004782E+00 0.76855344766E+00
 0.80414878901E+00 0.84356318767E+00 0.88563496615E+00 0.92885902281E+00 0.97144855006E+00
 0.10114208844E+01 0.10467117824E+01 0.10753239517E+01 0.10955073310E+01 0.11059512981E+01
 0.11059513823E+01 0.10955074305E+01 0.10753238781E+01 0.10467116722E+01 0.10114210292E+01
 0.97144892968E+00 0.92885928145E+00 0.88563489889E+00 0.84356301205E+00 0.80414880396E+00
 0.76855360739E+00 0.73756006635E+00 0.75751376617E+00 0.73755997179E+00 0.72222382149E+00
 0.71107605797E+00 0.70360471687E+00 0.69934023762E+00 0.69795740588E+00 0.69934035681E+00
 0.70360481667E+00 0.71107606913E+00 0.72222382849E+00 0.73756004784E+00 0.75751383761E+00
 0.78230569594E+00 0.81184520419E+00 0.84566898248E+00 0.88292243901E+00 0.92237777066E+00
 0.96247806383E+00 0.10014031879E+01 0.10371621532E+01 0.10677217434E+01 0.10911767698E+01
 0.11059513764E+01 0.11109987932E+01 0.11059513818E+01 0.10911767368E+01 0.10677216900E+01
 0.10371621621E+01 0.10014032705E+01 0.96247811281E+00 0.92237771140E+00 0.88292235435E+00
 0.84566899840E+00 0.81184529892E+00 0.78230573114E+00 0.80042812545E+00 0.78230591070E+00
 0.76855361250E+00 0.75868438239E+00 0.75207129174E+00 0.74808679367E+00 0.74623177042E+00
 0.74623164399E+00 0.74808655811E+00 0.75207115349E+00 0.75868430889E+00 0.76855344769E+00
 0.78230569596E+00 0.80042806640E+00 0.82314391580E+00 0.85032735213E+00 0.88146316181E+00
 0.91564604480E+00 0.95160750811E+00 0.98776320230E+00 0.10222834109E+01 0.10531979431E+01
 0.10785468540E+01 0.10965757489E+01 0.11059513769E+01 0.11059512978E+01 0.10965756509E+01
 0.10785469094E+01 0.10531980370E+01 0.10222832978E+01 0.98776290828E+00 0.95160732174E+00
 0.91564609454E+00 0.88146324418E+00 0.85032727355E+00 0.82314379419E+00 0.83857098201E+00
 0.82314395360E+00 0.81184531895E+00 0.80414889413E+00 0.79932909187E+00 0.79660364921E+00
 0.79528315411E+00 0.79489828538E+00 0.79528308244E+00 0.79660355947E+00 0.79932900731E+00
 0.80414878905E+00 0.81184520422E+00 0.82314391582E+00 0.83857108400E+00 0.85834347999E+00
 0.88230454527E+00 0.90990352119E+00 0.94020552501E+00 0.97192193616E+00 0.10034604256E+01
 0.10330054875E+01 0.10586446952E+01 0.10785468539E+01 0.10911767707E+01 0.10955073322E+01
 0.10911767840E+01 0.10785469014E+01 0.10586447651E+01 0.10330055340E+01 0.10034604374E+01
 0.97192195404E+00 0.94020556170E+00 0.90990351002E+00 0.88230442402E+00 0.85834330194E+00
 0.87026883147E+00 0.85834337376E+00 0.85032737050E+00 0.84566897926E+00 0.84356307483E+00
 0.84308549039E+00 0.84335236793E+00 0.84367411646E+00 0.84367414829E+00 0.84335247453E+00
 0.84308564914E+00 0.84356318772E+00 0.84566898252E+00 0.85032735215E+00 0.85834348000E+00
 0.87026905743E+00 0.88631269836E+00 0.90629716586E+00 0.92965212892E+00 0.95542902080E+00
 0.98233328174E+00 0.10087823134E+01 0.10330054873E+01 0.10531979422E+01 0.10677217431E+01
 0.10753239531E+01 0.10753239181E+01 0.10677217137E+01 0.10531980243E+01 0.10330056513E+01
 0.10087824454E+01 0.98233335889E+00 0.95542911527E+00 0.92965223869E+00 0.90629716722E+00
 0.88631252496E+00 0.89405588368E+00 0.88631278031E+00 0.88230457341E+00 0.88146311316E+00
 0.88292234346E+00 0.88563487393E+00 0.88852953345E+00 0.89068356197E+00 0.89147469673E+00
 0.89068358572E+00 0.88852959169E+00 0.88563496622E+00 0.88292243905E+00 0.88146316184E+00
 0.88230454529E+00 0.88631269837E+00 0.89405581100E+00 0.90573686906E+00 0.92116749241E+00
 0.93976824516E+00 0.96058619956E+00 0.98233328213E+00 0.10034604262E+01 0.10222834104E+01
 0.10371621518E+01 0.10467117819E+01 0.10500039891E+01 0.10467117882E+01 0.10371621505E+01
 0.10222833922E+01 0.10034603934E+01 0.98233323618E+00 0.96058613589E+00 0.93976817131E+00
 0.92116744239E+00 0.90573688085E+00 0.90880114767E+00 0.90573734883E+00 0.90629728787E+00
 0.90990334027E+00 0.91564601951E+00 0.92237801356E+00 0.92885918116E+00 0.93393506376E+00
 0.93671526561E+00 0.93671537783E+00 0.93393517642E+00 0.92885902288E+00 0.92237777071E+00
 0.91564604483E+00 0.90990352121E+00 0.90629716587E+00 0.90573686907E+00 0.90880083060E+00
 0.91568822646E+00 0.92620489424E+00 0.93976824481E+00 0.95542902078E+00 0.97192193712E+00
 0.98776320328E+00 0.10014031875E+01 0.10114208831E+01 0.10167260544E+01 0.10167261960E+01
 0.10114210449E+01 0.10014030241E+01 0.98776287236E+00 0.97192183818E+00 0.95542911813E+00
 0.93976812333E+00 0.92620448998E+00 0.91568802347E+00 0.91379636477E+00 0.91568827620E+00
 0.92116749606E+00 0.92965210816E+00 0.94020551610E+00 0.95160752053E+00 0.96247807702E+00
 0.97144854668E+00 0.97735498378E+00 0.97941561223E+00 0.97735499500E+00 0.97144855013E+00
 0.96247806388E+00 0.95160750814E+00 0.94020552503E+00 0.92965212893E+00 0.92116749242E+00
 0.91568822646E+00 0.91379629174E+00 0.91568822660E+00 0.92116749196E+00 0.92965212805E+00
 0.94020552490E+00 0.95160750912E+00 0.96247806485E+00 0.97144855012E+00 0.97735499428E+00
 0.97941561153E+00 0.97735498343E+00 0.97144854684E+00 0.96247807772E+00 0.95160752125E+00
 0.94020551612E+00 0.92965210754E+00 0.92116749556E+00 0.91568827609E+00 0.90880114729E+00
 0.91568802280E+00 0.92620448988E+00 0.93976812403E+00 0.95542911879E+00 0.97192183827E+00
 0.98776287216E+00 0.10014030238E+01 0.10114210442E+01 0.10167261955E+01 0.10167260551E+01
 0.10114208845E+01 0.10014031880E+01 0.98776320233E+00 0.97192193618E+00 0.95542902081E+00
 0.93976824517E+00 0.92620489424E+00 0.91568822660E+00 0.90880083125E+00 0.90573686942E+00
 0.90629716525E+00 0.90990352027E+00 0.91564604454E+00 0.92237777113E+00 0.92885902357E+00
 0.93393517704E+00 0.93671537796E+00 0.93671526490E+00 0.93393506275E+00 0.92885918096E+00
 0.92237801430E+00 0.91564602017E+00 0.90990334032E+00 0.90629728777E+00 0.90573734881E+00
 0.89405588413E+00 0.90573688025E+00 0.92116744144E+00 0.93976817120E+00 0.96058613635E+00
 0.98233323640E+00 0.10034603937E+01 0.10222833929E+01 0.10371621506E+01 0.10467117870E+01
 0.10500039879E+01 0.10467117824E+01 0.10371621532E+01 0.10222834109E+01 0.10034604257E+01
 0.98233328174E+00 0.96058619956E+00 0.93976824481E+00 0.92116749196E+00 0.90573686942E+00
 0.89405581191E+00 0.88631269875E+00 0.88230454496E+00 0.88146316136E+00 0.88292243854E+00
 0.88563496573E+00 0.88852959196E+00 0.89068358692E+00 0.89147469753E+00 0.89068356131E+00
 0.88852953229E+00 0.88563487371E+00 0.88292234390E+00 0.88146311328E+00 0.88230457345E+00
 0.88631278091E+00 0.87026883259E+00 0.88631252560E+00 0.90629716658E+00 0.92965223803E+00
 0.95542911534E+00 0.98233335876E+00 0.10087824449E+01 0.10330056517E+01 0.10531980258E+01
 0.10677217141E+01 0.10753239168E+01 0.10753239518E+01 0.10677217434E+01 0.10531979431E+01
 0.10330054875E+01 0.10087823134E+01 0.98233328212E+00 0.95542902076E+00 0.92965212803E+00
 0.90629716524E+00 0.88631269875E+00 0.87026905801E+00 0.85834348020E+00 0.85032735248E+00
 0.84566898283E+00 0.84356318700E+00 0.84308564778E+00 0.84335247443E+00 0.84367414974E+00
 0.84367411744E+00 0.84335236739E+00 0.84308548969E+00 0.84356307490E+00 0.84566897918E+00
 0.85032736986E+00 0.85834337381E+00 0.83857098214E+00 0.85834330313E+00 0.88230442440E+00
 0.90990350955E+00 0.94020556181E+00 0.97192195441E+00 0.10034604366E+01 0.10330055327E+01
 0.10586447655E+01 0.10785469032E+01 0.10911767846E+01 0.10955073311E+01 0.10911767698E+01
 0.10785468540E+01 0.10586446952E+01 0.10330054873E+01 0.10034604262E+01 0.97192193710E+00
 0.94020552488E+00 0.90990352025E+00 0.88230454494E+00 0.85834348019E+00 0.83857108375E+00
 0.82314391571E+00 0.81184520531E+00 0.80414879013E+00 0.79932900647E+00 0.79660355768E+00
 0.79528308221E+00 0.79489828662E+00 0.79528315469E+00 0.79660364885E+00 0.79932909201E+00
 0.80414889460E+00 0.81184531833E+00 0.82314395242E+00 0.80042812423E+00 0.82314379446E+00
 0.85032727429E+00 0.88146324394E+00 0.91564609437E+00 0.95160732277E+00 0.98776290892E+00
 0.10222832965E+01 0.10531980354E+01 0.10785469099E+01 0.10965756523E+01 0.11059512982E+01
 0.11059513765E+01 0.10965757489E+01 0.10785468539E+01 0.10531979422E+01 0.10222834104E+01
 0.98776320324E+00 0.95160750908E+00 0.91564604450E+00 0.88146316133E+00 0.85032735246E+00
 0.82314391570E+00 0.80042806517E+00 0.78230569555E+00 0.76855344932E+00 0.75868431035E+00
 0.75207115268E+00 0.74808655656E+00 0.74623164392E+00 0.74623177106E+00 0.74808679346E+00
 0.75207129157E+00 0.75868438338E+00 0.76855361324E+00 0.78230590974E+00 0.75751376520E+00
 0.78230573047E+00 0.81184529939E+00 0.84566899836E+00 0.88292235340E+00 0.92237771155E+00
 0.96247811448E+00 0.10014032713E+01 0.10371621608E+01 0.10677216887E+01 0.10911767370E+01
 0.11059513824E+01 0.11109987932E+01 0.11059513768E+01 0.10911767706E+01 0.10677217431E+01
 0.10371621517E+01 0.10014031875E+01 0.96247806480E+00 0.92237777108E+00 0.88292243849E+00
 0.84566898279E+00 0.81184520529E+00 0.78230569553E+00 0.75751383567E+00 0.73756004728E+00
 0.72222383018E+00 0.71107607039E+00 0.70360481605E+00 0.69934035609E+00 0.69795740615E+00
 0.69934023747E+00 0.70360471589E+00 0.71107605802E+00 0.72222382296E+00 0.73755997246E+00
 0.71157089662E+00 0.73756006568E+00 0.76855360762E+00 0.80414880460E+00 0.84356301124E+00
 0.88563489746E+00 0.92885928178E+00 0.97144893139E+00 0.10114210298E+01 0.10467116713E+01
 0.10753238776E+01 0.10955074305E+01 0.11059513818E+01 0.11059512977E+01 0.10955073321E+01
 0.10753239530E+01 0.10467117819E+01 0.10114208831E+01 0.97144855006E+00 0.92885902350E+00
 0.88563496567E+00 0.84356318694E+00 0.80414879009E+00 0.76855344929E+00 0.73756004726E+00
 0.71157112152E+00 0.69064807348E+00 0.67459074664E+00 0.66304585158E+00 0.65562390515E+00
 0.65200290046E+00 0.65200284632E+00 0.65562379305E+00 0.66304572653E+00 0.67459054857E+00
 0.69064777985E+00 0.66430325678E+00 0.69064805082E+00 0.72222379032E+00 0.75868429058E+00
 0.79932907655E+00 0.84308578388E+00 0.88852967982E+00 0.93393515542E+00 0.97735492318E+00
 0.10167260128E+01 0.10500039706E+01 0.10753238780E+01 0.10911767367E+01 0.10965756508E+01
 0.10911767839E+01 0.10753239181E+01 0.10500039890E+01 0.10167260543E+01 0.97735499419E+00
 0.93393517696E+00 0.88852959188E+00 0.84308564771E+00 0.79932900641E+00 0.75868431030E+00
 0.72222383015E+00 0.69064807346E+00 0.66430329734E+00 0.64323744559E+00 0.62728801770E+00
 0.61618638284E+00 0.60965874122E+00 0.60750686147E+00 0.60965886778E+00 0.61618649503E+00
 0.62728801944E+00 0.64323738487E+00 0.61732078776E+00 0.64323737376E+00 0.67459054969E+00
 0.71107609198E+00 0.75207139046E+00 0.79660373626E+00 0.84335243053E+00 0.89068340111E+00
 0.93671517497E+00 0.97941541612E+00 0.10167260126E+01 0.10467116721E+01 0.10677216899E+01
 0.10785469094E+01 0.10785469013E+01 0.10677217136E+01 0.10467117881E+01 0.10167261959E+01
 0.97941561142E+00 0.93671537786E+00 0.89068358682E+00 0.84335247434E+00 0.79660355761E+00
 0.75207115261E+00 0.71107607034E+00 0.67459074661E+00 0.64323744558E+00 0.61732048852E+00
 0.59688989997E+00 0.58182766615E+00 0.57194189020E+00 0.56705209291E+00 0.56705195139E+00
 0.57194171198E+00 0.58182782639E+00 0.59689034392E+00 0.57212676416E+00 0.59688997881E+00
 0.62728812168E+00 0.66304590285E+00 0.70360480751E+00 0.74808653201E+00 0.79528306304E+00
 0.84367411245E+00 0.89147462216E+00 0.93671517482E+00 0.97735492208E+00 0.10114210291E+01
 0.10371621620E+01 0.10531980369E+01 0.10586447650E+01 0.10531980242E+01 0.10371621504E+01
 0.10114210448E+01 0.97735498330E+00 0.93671526478E+00 0.89147469742E+00 0.84367414964E+00
 0.79528308212E+00 0.74808655648E+00 0.70360481598E+00 0.66304585153E+00 0.62728801766E+00
 0.59688989995E+00 0.57212678657E+00 0.55305288399E+00 0.53958292692E+00 0.53157909766E+00
 0.52892583922E+00 0.53157900592E+00 0.53958278205E+00 0.55305276336E+00 0.53010487235E+00
 0.55305258841E+00 0.58182797183E+00 0.61618667845E+00 0.65562373090E+00 0.69934002868E+00
 0.74623163835E+00 0.79489848462E+00 0.84367411284E+00 0.89068340194E+00 0.93393515504E+00
 0.97144892961E+00 0.10014032704E+01 0.10222832977E+01 0.10330055338E+01 0.10330056511E+01
 0.10222833921E+01 0.10014030240E+01 0.97144854670E+00 0.93393506261E+00 0.89068356118E+00
 0.84367411731E+00 0.79489828651E+00 0.74623164382E+00 0.69934035600E+00 0.65562390509E+00
 0.61618638279E+00 0.58182766611E+00 0.55305288397E+00 0.53010555525E+00 0.51302807367E+00
 0.50174302061E+00 0.49613861693E+00 0.49613888333E+00 0.50174334828E+00 0.51302779504E+00
 0.49246916427E+00 0.51302816358E+00 0.53958283582E+00 0.57194174964E+00 0.60965871363E+00
 0.65200295419E+00 0.69795738219E+00 0.74623163783E+00 0.79528306265E+00 0.84335243152E+00
 0.88852968116E+00 0.92885928135E+00 0.96247811270E+00 0.98776290815E+00 0.10034604373E+01
 0.10087824453E+01 0.10034603933E+01 0.98776287220E+00 0.96247807755E+00 0.92885918080E+00
 0.88852953214E+00 0.84335236725E+00 0.79528315456E+00 0.74623177094E+00 0.69795740605E+00
 0.65200290037E+00 0.60965874115E+00 0.57194189015E+00 0.53958292688E+00 0.51302807365E+00
 0.49246896937E+00 0.47790678895E+00 0.46924220505E+00 0.46636869708E+00 0.46924224387E+00
 0.47790692663E+00 0.46017587074E+00 0.47790739650E+00 0.50174327470E+00 0.53157888730E+00
 0.56705190734E+00 0.60750698211E+00 0.65200295455E+00 0.69934002838E+00 0.74808653067E+00
 0.79660373559E+00 0.84308578498E+00 0.88563489878E+00 0.92237771128E+00 0.95160732159E+00
 0.97192195388E+00 0.98233335872E+00 0.98233323600E+00 0.97192183800E+00 0.95160752107E+00
 0.92237801413E+00 0.88563487354E+00 0.84308548953E+00 0.79660364870E+00 0.74808679333E+00
 0.69934023735E+00 0.65200284621E+00 0.60750686139E+00 0.56705209284E+00 0.53157909761E+00
 0.50174302058E+00 0.47790678893E+00 0.46017552062E+00 0.44847835952E+00 0.44267897248E+00
 0.44267881829E+00 0.44847823386E+00 0.43383547505E+00 0.44847821563E+00 0.46924215189E+00
 0.49613872560E+00 0.52892595837E+00 0.56705190723E+00 0.60965871432E+00 0.65562373183E+00
 0.70360480708E+00 0.75207138887E+00 0.79932907575E+00 0.84356301192E+00 0.88292235421E+00
 0.91564609438E+00 0.94020556153E+00 0.95542911508E+00 0.96058613569E+00 0.95542911793E+00
 0.94020551592E+00 0.91564601998E+00 0.88292234371E+00 0.84356307473E+00 0.79932909185E+00
 0.75207129142E+00 0.70360471575E+00 0.65562379293E+00 0.60965886768E+00 0.56705195131E+00
 0.52892583916E+00 0.49613861689E+00 0.46924220502E+00 0.44847835951E+00 0.43383555171E+00
 0.42516086336E+00 0.42229178415E+00 0.42516087023E+00 0.41367836329E+00 0.42516057825E+00
 0.44267880851E+00 0.46636857131E+00 0.49613872539E+00 0.53157888648E+00 0.57194174934E+00
 0.61618667946E+00 0.66304590395E+00 0.71107609170E+00 0.75868428937E+00 0.80414880382E+00
 0.84566899825E+00 0.88146324401E+00 0.90990350984E+00 0.92965223850E+00 0.93976817111E+00
 0.93976812312E+00 0.92965210734E+00 0.90990334011E+00 0.88146311308E+00 0.84566897899E+00
 0.80414889443E+00 0.75868438322E+00 0.71107605787E+00 0.66304572640E+00 0.61618649492E+00
 0.57194171189E+00 0.53157900585E+00 0.49613888327E+00 0.46636869704E+00 0.44267897246E+00
 0.42516086335E+00 0.41367868666E+00 0.40801462534E+00 0.40801447859E+00 0.39961022642E+00
 0.40801463778E+00 0.42229182678E+00 0.44267880887E+00 0.46924215235E+00 0.50174327419E+00
 0.53958283457E+00 0.58182797136E+00 0.62728812244E+00 0.67459055053E+00 0.72222379041E+00
 0.76855360725E+00 0.81184529876E+00 0.85032727338E+00 0.88230442383E+00 0.90629716702E+00
 0.92116744218E+00 0.92620448976E+00 0.92116749534E+00 0.90629728756E+00 0.88230457324E+00
 0.85032736966E+00 0.81184531814E+00 0.76855361306E+00 0.72222382281E+00 0.67459054844E+00
 0.62728801932E+00 0.58182782629E+00 0.53958278197E+00 0.50174334822E+00 0.46924224383E+00
 0.44267881826E+00 0.42229178413E+00 0.40801462533E+00 0.39961024761E+00 0.39684118719E+00
 0.39135492071E+00 0.39684186799E+00 0.40801463743E+00 0.42516057827E+00 0.44847821652E+00
 0.47790739722E+00 0.51302816308E+00 0.55305258731E+00 0.59688997825E+00 0.64323737381E+00
 0.69064805107E+00 0.73756006620E+00 0.78230573097E+00 0.82314379401E+00 0.85834330175E+00
 0.88631252475E+00 0.90573688063E+00 0.91568802324E+00 0.91568827587E+00 0.90573734859E+00
 0.88631278070E+00 0.85834337361E+00 0.82314395222E+00 0.78230590956E+00 0.73755997230E+00
 0.69064777971E+00 0.64323738475E+00 0.59689034381E+00 0.55305276327E+00 0.51302779498E+00
 0.47790692658E+00 0.44847823382E+00 0.42516087021E+00 0.40801447858E+00 0.39684118719E+00
 0.39135451805E+00 0.39686126415E+00 0.39980352971E+00 0.40872022041E+00 0.42382759454E+00
 0.44533090477E+00 0.47325980983E+00 0.50733927483E+00 0.54693638332E+00 0.59108569056E+00
 0.63856093102E+00 0.68794695416E+00 0.73768118903E+00 0.78606891644E+00 0.83130591945E+00
 0.87154363686E+00 0.90500572715E+00 0.93013263359E+00 0.94571626150E+00 0.95099692205E+00
 0.94571610734E+00 0.93013239099E+00 0.90500550370E+00 0.87154353520E+00 0.83130598357E+00
 0.78606910413E+00 0.73768139487E+00 0.68794707121E+00 0.63856090861E+00 0.59108555280E+00
 0.54693620531E+00 0.50733913712E+00 0.47325975574E+00 0.44533092293E+00 0.42382763876E+00
 0.40872025155E+00 0.39980354029E+00 0.39980354044E+00 0.39980327782E+00 0.40621895254E+00
 0.41918421634E+00 0.43887483649E+00 0.46536405677E+00 0.49848136427E+00 0.53772531879E+00
 0.58225192666E+00 0.63092258407E+00 0.68237100154E+00 0.73505165051E+00 0.78726009045E+00
 0.83714761988E+00 0.88276607621E+00 0.92216493621E+00 0.95353351812E+00 0.97535700519E+00
 0.98655066877E+00 0.98655055219E+00 0.97535674880E+00 0.95353327579E+00 0.92216476117E+00
 0.88276597937E+00 0.83714767152E+00 0.78726029966E+00 0.73505181816E+00 0.68237090979E+00
 0.63092233570E+00 0.58225186929E+00 0.53772555547E+00 0.49848156751E+00 0.46536394112E+00
 0.43887462405E+00 0.41918434831E+00 0.40621941253E+00 0.40872025106E+00 0.40524942885E+00
 0.40872024419E+00 0.41918433304E+00 0.43675591898E+00 0.46150565187E+00 0.49333052341E+00
 0.53184902779E+00 0.57635484386E+00 0.62583043040E+00 0.67899322267E+00 0.73433966988E+00
 0.79016939270E+00 0.84459961890E+00 0.89559895683E+00 0.94106725633E+00 0.97896724509E+00
 0.10074880900E+01 0.10252067937E+01 0.10312167176E+01 0.10252068585E+01 0.10074881835E+01
 0.97896732656E+00 0.94106729622E+00 0.89559893000E+00 0.84459951981E+00 0.79016927379E+00
 0.73433963060E+00 0.67899331895E+00 0.62583060086E+00 0.57635496087E+00 0.53184902713E+00
 0.49333045624E+00 0.46150560458E+00 0.43675591790E+00 0.41918434797E+00 0.42382763793E+00
 0.41632854514E+00 0.41632860913E+00 0.42382782090E+00 0.43887483204E+00 0.46150565925E+00
 0.49164422112E+00 0.52900150805E+00 0.57300739222E+00 0.62278923778E+00 0.67718608963E+00
 0.73477370181E+00 0.79388280049E+00 0.85261343395E+00 0.90886580924E+00 0.96041076621E+00
 0.10050103376E+01 0.10405789392E+01 0.10653593370E+01 0.10780819505E+01 0.10780818523E+01
 0.10653592761E+01 0.10405792062E+01 0.10050107208E+01 0.96041078394E+00 0.90886542284E+00
 0.85261314624E+00 0.79388296347E+00 0.73477405241E+00 0.67718616525E+00 0.62278901268E+00
 0.57300722761E+00 0.52900159128E+00 0.49164435335E+00 0.46150560497E+00 0.43887462410E+00
 0.44533092299E+00 0.43330906578E+00 0.42930372989E+00 0.43330909338E+00 0.44533098444E+00
 0.46536399642E+00 0.49333042971E+00 0.52900147483E+00 0.57192613390E+00 0.62138543116E+00
 0.67637247202E+00 0.73558648443E+00 0.79743128961E+00 0.86002174435E+00 0.92121289177E+00
 0.97866769546E+00 0.10299713017E+01 0.10727874490E+01 0.11050398126E+01 0.11250917054E+01
 0.11318957702E+01 0.11250916699E+01 0.11050397721E+01 0.10727874091E+01 0.10299712376E+01
 0.97866761320E+00 0.92121284249E+00 0.86002174737E+00 0.79743128673E+00 0.73558641987E+00
 0.67637239017E+00 0.62138543369E+00 0.57192624179E+00 0.52900159109E+00 0.49333045676E+00
 0.46536394208E+00 0.47325975677E+00 0.45637692530E+00 0.44792079418E+00 0.44792100603E+00
 0.45637717400E+00 0.47325955079E+00 0.49848117422E+00 0.53184903365E+00 0.57300752578E+00
 0.62138536413E+00 0.67614931648E+00 0.73616344128E+00 0.79995643640E+00 0.86570796663E+00
 0.93126874915E+00 0.99422546075E+00 0.10520134606E+01 0.11020716445E+01 0.11420255911E+01
 0.11698783614E+01 0.11841847146E+01 0.11841849768E+01 0.11698786833E+01 0.11420253618E+01
 0.11020711547E+01 0.10520134571E+01 0.99422591332E+00 0.93126885910E+00 0.86570744162E+00
 0.79995598197E+00 0.73616367256E+00 0.67614983256E+00 0.62138543361E+00 0.57300722683E+00
 0.53184902669E+00 0.49848156833E+00 0.50733913793E+00 0.48547557227E+00 0.47230104925E+00
 0.46790091838E+00 0.47230105291E+00 0.48547553820E+00 0.50733907120E+00 0.53772552525E+00
 0.57635500418E+00 0.62278907756E+00 0.67637241067E+00 0.73616366420E+00 0.80086818142E+00
 0.86879297535E+00 0.93784495373E+00 0.10055853346E+01 0.10693406232E+01 0.11263590603E+01
 0.11739956035E+01 0.12099083420E+01 0.12322498551E+01 0.12398335827E+01 0.12322499480E+01
 0.12099084584E+01 0.11739956979E+01 0.11263591502E+01 0.10693407201E+01 0.10055853939E+01
 0.93784493608E+00 0.86879291912E+00 0.80086815698E+00 0.73616367296E+00 0.67637239094E+00
 0.62278901246E+00 0.57635495970E+00 0.53772555509E+00 0.54693620534E+00 0.52020624047E+00
 0.50227546361E+00 0.49327722358E+00 0.49327689132E+00 0.50227500113E+00 0.52020639385E+00
 0.54693674786E+00 0.58225199465E+00 0.62583023946E+00 0.67718607822E+00 0.73558693896E+00
 0.79995644991E+00 0.86879271977E+00 0.94013264402E+00 0.10115838432E+01 0.10804267476E+01
 0.11437706855E+01 0.11987406761E+01 0.12426774210E+01 0.12733404589E+01 0.12891013103E+01
 0.12891011054E+01 0.12733402258E+01 0.12426776451E+01 0.11987410962E+01 0.11437707212E+01
 0.10804264986E+01 0.10115839405E+01 0.94013314744E+00 0.86879291862E+00 0.79995598172E+00
 0.73558642092E+00 0.67718616641E+00 0.62583060053E+00 0.58225186832E+00 0.59108555255E+00
 0.55981301583E+00 0.53732361458E+00 0.52376778520E+00 0.51923850845E+00 0.52376780826E+00
 0.53732366802E+00 0.55981309332E+00 0.59108562632E+00 0.63092237756E+00 0.67899332650E+00
 0.73477404076E+00 0.79743127023E+00 0.86570742964E+00 0.93784493693E+00 0.10115839556E+01
 0.10842432772E+01 0.11528678813E+01 0.12144146982E+01 0.12659549060E+01 0.13048843416E+01
 0.13291358290E+01 0.13373738086E+01 0.13291357302E+01 0.13048842166E+01 0.12659548230E+01
 0.12144146645E+01 0.11528678647E+01 0.10842432583E+01 0.10115839409E+01 0.93784493577E+00
 0.86570744036E+00 0.79743128642E+00 0.73477405371E+00 0.67899331993E+00 0.63092233532E+00
 0.63856090825E+00 0.60323771200E+00 0.57659293065E+00 0.55875430063E+00 0.54981103074E+00