   6   6   0   0
  0.2185851E+02  0.3190316E-09  0.3190315E-09  0.1487900E-08  0.5000000E-15
  1.000000000000000E-004
  CAR 
 bulk MoS2                               
      8.60171936    -12.65631918  301      4.25038296      1.00000000
    -12.656  0.0000E+00  0.0000E+00
    -12.585  0.0000E+00  0.0000E+00
    -12.515  0.0000E+00  0.0000E+00
    -12.444  0.0000E+00  0.0000E+00
    -12.373  0.0000E+00  0.0000E+00
    -12.302  0.0000E+00  0.0000E+00
    -12.231  0.0000E+00  0.0000E+00
    -12.160  0.0000E+00  0.0000E+00
    -12.089  0.0000E+00  0.0000E+00
    -12.019  0.0000E+00  0.0000E+00
    -11.948  0.0000E+00  0.0000E+00
    -11.877  0.0000E+00  0.0000E+00
    -11.806  0.3395E-15  0.2405E-16
    -11.735  0.2089E-13  0.1504E-14
    -11.664  0.9323E-12  0.6757E-13
    -11.593  0.3265E-10  0.2381E-11
    -11.523  0.8952E-09  0.6582E-10
    -11.452  0.1922E-07  0.1428E-08
    -11.381  0.3235E-06  0.2435E-07
    -11.310  0.4271E-05  0.3270E-06
    -11.239  0.4426E-04  0.3463E-05
    -11.168  0.3605E-03  0.2901E-04
    -11.097  0.2310E-02  0.1927E-03
    -11.027  0.1167E-01  0.1019E-02
    -10.956  0.4656E-01  0.4318E-02
    -10.885  0.1472E+00  0.1475E-01
    -10.814  0.3704E+00  0.4100E-01
    -10.743  0.7468E+00  0.9392E-01
    -10.672  0.1218E+01  0.1802E+00
    -10.601  0.1632E+01  0.2958E+00
    -10.531  0.1840E+01  0.4262E+00
    -10.460  0.1810E+01  0.5545E+00
    -10.389  0.1633E+01  0.6702E+00
    -10.318  0.1424E+01  0.7711E+00
    -10.247  0.1254E+01  0.8600E+00
    -10.176  0.1134E+01  0.9403E+00
    -10.105  0.1052E+01  0.1015E+01
    -10.034  0.9950E+00  0.1085E+01
     -9.964  0.9538E+00  0.1153E+01
     -9.893  0.9259E+00  0.1219E+01
     -9.822  0.9178E+00  0.1284E+01
     -9.751  0.9553E+00  0.1351E+01
     -9.680  0.1097E+01  0.1429E+01
     -9.609  0.1422E+01  0.1530E+01
     -9.538  0.1972E+01  0.1670E+01
     -9.468  0.2660E+01  0.1858E+01
     -9.397  0.3275E+01  0.2090E+01
     -9.326  0.3616E+01  0.2346E+01
     -9.255  0.3655E+01  0.2605E+01
     -9.184  0.3548E+01  0.2857E+01
     -9.113  0.3519E+01  0.3106E+01
     -9.042  0.3753E+01  0.3372E+01
     -8.972  0.4342E+01  0.3680E+01
     -8.901  0.5259E+01  0.4052E+01
     -8.830  0.6367E+01  0.4503E+01
     -8.759  0.7470E+01  0.5033E+01
     -8.688  0.8328E+01  0.5623E+01
     -8.617  0.8634E+01  0.6235E+01
     -8.546  0.8106E+01  0.6809E+01
     -8.476  0.6714E+01  0.7285E+01
     -8.405  0.4803E+01  0.7625E+01
     -8.334  0.2915E+01  0.7832E+01
     -8.263  0.1477E+01  0.7936E+01
     -8.192  0.6164E+00  0.7980E+01
     -8.121  0.2093E+00  0.7995E+01
     -8.050  0.5720E-01  0.7999E+01
     -7.980  0.1249E-01  0.8000E+01
     -7.909  0.2167E-02  0.8000E+01
     -7.838  0.2974E-03  0.8000E+01
     -7.767  0.3218E-04  0.8000E+01
     -7.696  0.2739E-05  0.8000E+01
     -7.625  0.1831E-06  0.8000E+01
     -7.554  0.9600E-08  0.8000E+01
     -7.484  0.3944E-09  0.8000E+01
     -7.413  0.1269E-10  0.8000E+01
     -7.342  0.3193E-12  0.8000E+01
     -7.271  0.6319E-14  0.8000E+01
     -7.200  0.0000E+00  0.8000E+01
     -7.129  0.0000E+00  0.8000E+01
     -7.058  0.0000E+00  0.8000E+01
     -6.988  0.0000E+00  0.8000E+01
     -6.917  0.0000E+00  0.8000E+01
     -6.846  0.0000E+00  0.8000E+01
     -6.775  0.0000E+00  0.8000E+01
     -6.704  0.0000E+00  0.8000E+01
     -6.633  0.0000E+00  0.8000E+01
     -6.562  0.0000E+00  0.8000E+01
     -6.491  0.0000E+00  0.8000E+01
     -6.421  0.0000E+00  0.8000E+01
     -6.350  0.0000E+00  0.8000E+01
     -6.279  0.0000E+00  0.8000E+01
     -6.208  0.0000E+00  0.8000E+01
     -6.137  0.0000E+00  0.8000E+01
     -6.066  0.0000E+00  0.8000E+01
     -5.995  0.0000E+00  0.8000E+01
     -5.925  0.0000E+00  0.8000E+01
     -5.854  0.0000E+00  0.8000E+01
     -5.783  0.0000E+00  0.8000E+01
     -5.712  0.0000E+00  0.8000E+01
     -5.641  0.0000E+00  0.8000E+01
     -5.570  0.0000E+00  0.8000E+01
     -5.499  0.0000E+00  0.8000E+01
     -5.429  0.0000E+00  0.8000E+01
     -5.358  0.0000E+00  0.8000E+01
     -5.287  0.0000E+00  0.8000E+01
     -5.216  0.0000E+00  0.8000E+01
     -5.145  0.0000E+00  0.8000E+01
     -5.074  0.0000E+00  0.8000E+01
     -5.003  0.0000E+00  0.8000E+01
     -4.933  0.0000E+00  0.8000E+01
     -4.862  0.0000E+00  0.8000E+01
     -4.791  0.0000E+00  0.8000E+01
     -4.720  0.0000E+00  0.8000E+01
     -4.649  0.0000E+00  0.8000E+01
     -4.578  0.0000E+00  0.8000E+01
     -4.507  0.0000E+00  0.8000E+01
     -4.437  0.0000E+00  0.8000E+01
     -4.366  0.0000E+00  0.8000E+01
     -4.295  0.0000E+00  0.8000E+01
     -4.224  0.0000E+00  0.8000E+01
     -4.153  0.0000E+00  0.8000E+01
     -4.082  0.0000E+00  0.8000E+01
     -4.011  0.0000E+00  0.8000E+01
     -3.941  0.0000E+00  0.8000E+01
     -3.870  0.0000E+00  0.8000E+01
     -3.799  0.0000E+00  0.8000E+01
     -3.728  0.0000E+00  0.8000E+01
     -3.657  0.0000E+00  0.8000E+01
     -3.586  0.0000E+00  0.8000E+01
     -3.515  0.1306E-15  0.8000E+01
     -3.445  0.9401E-14  0.8000E+01
     -3.374  0.4445E-12  0.8000E+01
     -3.303  0.1647E-10  0.8000E+01
     -3.232  0.4780E-09  0.8000E+01
     -3.161  0.1088E-07  0.8000E+01
     -3.090  0.1944E-06  0.8000E+01
     -3.019  0.2729E-05  0.8000E+01
     -2.948  0.3013E-04  0.8000E+01
     -2.878  0.2622E-03  0.8000E+01
     -2.807  0.1800E-02  0.8000E+01
     -2.736  0.9780E-02  0.8001E+01
     -2.665  0.4216E-01  0.8004E+01
     -2.594  0.1448E+00  0.8014E+01
     -2.523  0.3983E+00  0.8042E+01
     -2.452  0.8855E+00  0.8105E+01
     -2.382  0.1611E+01  0.8219E+01
     -2.311  0.2449E+01  0.8393E+01
     -2.240  0.3211E+01  0.8620E+01
     -2.169  0.3804E+01  0.8890E+01
     -2.098  0.4279E+01  0.9193E+01
     -2.027  0.4722E+01  0.9528E+01
     -1.956  0.5135E+01  0.9891E+01
     -1.886  0.5463E+01  0.1028E+02
     -1.815  0.5702E+01  0.1068E+02
     -1.744  0.5905E+01  0.1110E+02
     -1.673  0.6073E+01  0.1153E+02
     -1.602  0.6121E+01  0.1197E+02
     -1.531  0.5950E+01  0.1239E+02
     -1.460  0.5533E+01  0.1278E+02
     -1.390  0.4915E+01  0.1313E+02
     -1.319  0.4172E+01  0.1342E+02
     -1.248  0.3392E+01  0.1366E+02
     -1.177  0.2654E+01  0.1385E+02
     -1.106  0.2014E+01  0.1399E+02
     -1.035  0.1527E+01  0.1410E+02
     -0.964  0.1278E+01  0.1419E+02
     -0.894  0.1390E+01  0.1429E+02
     -0.823  0.1988E+01  0.1443E+02
     -0.752  0.3093E+01  0.1465E+02
     -0.681  0.4492E+01  0.1497E+02
     -0.610  0.5737E+01  0.1538E+02
     -0.539  0.6390E+01  0.1583E+02
     -0.468  0.6319E+01  0.1628E+02
     -0.398  0.5773E+01  0.1669E+02
     -0.327  0.5143E+01  0.1705E+02
     -0.256  0.4674E+01  0.1738E+02
     -0.185  0.4375E+01  0.1769E+02
     -0.114  0.4189E+01  0.1799E+02
     -0.043  0.4172E+01  0.1828E+02
      0.028  0.4501E+01  0.1860E+02
      0.099  0.5276E+01  0.1898E+02
      0.169  0.6324E+01  0.1942E+02
      0.240  0.7226E+01  0.1994E+02
      0.311  0.7598E+01  0.2048E+02
      0.382  0.7357E+01  0.2100E+02
      0.453  0.6714E+01  0.2147E+02
      0.524  0.5977E+01  0.2190E+02
      0.595  0.5394E+01  0.2228E+02
      0.665  0.5087E+01  0.2264E+02
      0.736  0.4999E+01  0.2299E+02
      0.807  0.4934E+01  0.2334E+02
      0.878  0.4734E+01  0.2368E+02
      0.949  0.4435E+01  0.2399E+02
      1.020  0.4230E+01  0.2429E+02
      1.091  0.4307E+01  0.2460E+02
      1.161  0.4731E+01  0.2493E+02
      1.232  0.5425E+01  0.2532E+02
      1.303  0.6233E+01  0.2576E+02
      1.374  0.6974E+01  0.2625E+02
      1.445  0.7446E+01  0.2678E+02
      1.516  0.7448E+01  0.2731E+02
      1.587  0.6931E+01  0.2780E+02
      1.657  0.6122E+01  0.2823E+02
      1.728  0.5378E+01  0.2861E+02
      1.799  0.4902E+01  0.2896E+02
      1.870  0.4633E+01  0.2929E+02
      1.941  0.4418E+01  0.2960E+02
      2.012  0.4209E+01  0.2990E+02
      2.083  0.4080E+01  0.3019E+02
      2.153  0.4111E+01  0.3048E+02
      2.224  0.4307E+01  0.3079E+02
      2.295  0.4594E+01  0.3111E+02
      2.366  0.4841E+01  0.3145E+02
      2.437  0.4920E+01  0.3180E+02
      2.508  0.4787E+01  0.3214E+02
      2.579  0.4513E+01  0.3246E+02
      2.649  0.4218E+01  0.3276E+02
      2.720  0.3986E+01  0.3304E+02
      2.791  0.3849E+01  0.3332E+02
      2.862  0.3822E+01  0.3359E+02
      2.933  0.3911E+01  0.3386E+02
      3.004  0.4087E+01  0.3415E+02
      3.075  0.4259E+01  0.3446E+02
      3.145  0.4296E+01  0.3476E+02
      3.216  0.4103E+01  0.3505E+02
      3.287  0.3665E+01  0.3531E+02
      3.358  0.3056E+01  0.3553E+02
      3.429  0.2386E+01  0.3570E+02
      3.500  0.1744E+01  0.3582E+02
      3.571  0.1180E+01  0.3590E+02
      3.642  0.7202E+00  0.3595E+02
      3.712  0.3822E+00  0.3598E+02
      3.783  0.1705E+00  0.3599E+02
      3.854  0.6230E-01  0.3600E+02
      3.925  0.1833E-01  0.3600E+02
      3.996  0.4298E-02  0.3600E+02
      4.067  0.7977E-03  0.3600E+02
      4.138  0.1167E-03  0.3600E+02
      4.208  0.1348E-04  0.3600E+02
      4.279  0.1984E-05  0.3600E+02
      4.350  0.9398E-05  0.3600E+02
      4.421  0.8839E-04  0.3600E+02
      4.492  0.6595E-03  0.3600E+02
      4.563  0.3875E-02  0.3600E+02
      4.634  0.1798E-01  0.3600E+02
      4.704  0.6614E-01  0.3601E+02
      4.775  0.1939E+00  0.3602E+02
      4.846  0.4571E+00  0.3605E+02
      4.917  0.8774E+00  0.3611E+02
      4.988  0.1400E+01  0.3621E+02
      5.059  0.1917E+01  0.3635E+02
      5.130  0.2366E+01  0.3652E+02
      5.200  0.2808E+01  0.3672E+02
      5.271  0.3403E+01  0.3696E+02
      5.342  0.4265E+01  0.3726E+02
      5.413  0.5301E+01  0.3764E+02
      5.484  0.6175E+01  0.3807E+02
      5.555  0.6543E+01  0.3854E+02
      5.626  0.6384E+01  0.3899E+02
      5.696  0.6039E+01  0.3942E+02
      5.767  0.5890E+01  0.3983E+02
      5.838  0.6055E+01  0.4026E+02
      5.909  0.6386E+01  0.4072E+02
      5.980  0.6663E+01  0.4119E+02
      6.051  0.6708E+01  0.4166E+02
      6.122  0.6417E+01  0.4212E+02
      6.192  0.5801E+01  0.4253E+02
      6.263  0.5000E+01  0.4288E+02
      6.334  0.4187E+01  0.4318E+02
      6.405  0.3459E+01  0.4343E+02
      6.476  0.2801E+01  0.4362E+02
      6.547  0.2152E+01  0.4378E+02
      6.618  0.1499E+01  0.4388E+02
      6.688  0.9081E+00  0.4395E+02
      6.759  0.4641E+00  0.4398E+02
      6.830  0.1961E+00  0.4399E+02
      6.901  0.6767E-01  0.4400E+02
      6.972  0.1891E-01  0.4400E+02
      7.043  0.4257E-02  0.4400E+02
      7.114  0.7684E-03  0.4400E+02
      7.185  0.1108E-03  0.4400E+02
      7.255  0.1273E-04  0.4400E+02
      7.326  0.1161E-05  0.4400E+02
      7.397  0.8389E-07  0.4400E+02
      7.468  0.4793E-08  0.4400E+02
      7.539  0.2162E-09  0.4400E+02
      7.610  0.7681E-11  0.4400E+02
      7.681  0.2148E-12  0.4400E+02
      7.751  0.4726E-14  0.4400E+02
      7.822  0.5223E-16  0.4400E+02
      7.893  0.0000E+00  0.4400E+02
      7.964  0.0000E+00  0.4400E+02
      8.035  0.0000E+00  0.4400E+02
      8.106  0.0000E+00  0.4400E+02
      8.177  0.0000E+00  0.4400E+02
      8.247  0.0000E+00  0.4400E+02
      8.318  0.0000E+00  0.4400E+02
      8.389  0.0000E+00  0.4400E+02
      8.460  0.0000E+00  0.4400E+02
      8.531  0.0000E+00  0.4400E+02
      8.602  0.0000E+00  0.4400E+02
