       N       E                     dE             d eps       ncg     rms          rms(c)
DAV:   1     0.206423731252E+03    0.20642E+03   -0.15565E+04  5280   0.136E+03
DAV:   2    -0.239648479253E+02   -0.23039E+03   -0.22375E+03  7112   0.271E+02
DAV:   3    -0.423570648681E+02   -0.18392E+02   -0.18167E+02  6978   0.756E+01
DAV:   4    -0.429675331620E+02   -0.61047E+00   -0.60895E+00  7532   0.148E+01
DAV:   5    -0.429849510050E+02   -0.17418E-01   -0.17410E-01  7402   0.244E+00
DAV:   6    -0.429855283326E+02   -0.57733E-03   -0.57715E-03  7834   0.407E-01
DAV:   7    -0.429855458150E+02   -0.17482E-04   -0.17478E-04  7664   0.605E-02
DAV:   8    -0.429855463013E+02   -0.48633E-06   -0.48542E-06  5836   0.840E-03
   1 F= -.42985546E+02 E0= -.42985546E+02  d E =-.299544E-07
