 vasp.5.4.4.18Apr17-6-g9f103f2a35 (build May 20 2018 16:52:39) complex          
  
 executed on             LinuxIFC date 2022.11.14  01:01:26
 running on    1 total cores
 distrk:  each k-point on    1 cores,    1 groups
 distr:  one band on NCORES_PER_BAND=   1 cores,    1 groups


--------------------------------------------------------------------------------------------------------


 INCAR:
 POTCAR:   PAW_GGA Mo 08Jan2002                   
 POTCAR:   PAW_GGA S 21Jan2003                    
 POTCAR:   PAW_GGA Mo 08Jan2002                   
   VRHFIN =Mo: 4p5s4d                                                           
   LEXCH  = 91                                                                  
   EATOM  =   218.0124 eV,   16.0235 Ry                                         
                                                                                
   TITEL  = PAW_GGA Mo 08Jan2002                                                
   LULTRA =        F    use ultrasoft PP ?                                      
   IUNSCR =        1    unscreen: 0-lin 1-nonlin 2-no                           
   RPACOR =    2.200    partial core radius                                     
   POMASS =   95.940; ZVAL   =    6.000    mass and valenz                      
   RCORE  =    2.750    outmost cutoff radius                                   
   RWIGS  =    2.750; RWIGS  =    1.455    wigner-seitz radius (au A)           
   ENMAX  =  224.580; ENMIN  =  168.435 eV                                      
   RCLOC  =    2.111    cutoff for local pot                                    
   LCOR   =        T    correct aug charges                                     
   LPAW   =        T    paw PP                                                  
   EAUG   =  345.278                                                            
   DEXC   =    -.054                                                            
   RMAX   =    3.077    core radius for proj-oper                               
   RAUG   =    1.300    factor for augmentation sphere                          
   RDEP   =    2.815    radius for radial grids                                 
   QCUT   =   -4.063; QGAM   =    8.126    optimization parameters              
                                                                                
   Description                                                                  
     l     E      TYP  RCUT    TYP  RCUT                                        
     2   .000     23  2.500                                                     
     2   .000     23  2.500                                                     
     0   .000     23  2.600                                                     
     0  1.000     23  2.600                                                     
     1   .400     23  2.750                                                     
     1  2.000     23  2.750                                                     
     3   .000      7   .000                                                     
  local pseudopotential read in
  partial core-charges read in
  atomic valenz-charges read in
  non local Contribution for L=           2  read in
    real space projection operators read in
  non local Contribution for L=           2  read in
    real space projection operators read in
  non local Contribution for L=           0  read in
    real space projection operators read in
  non local Contribution for L=           0  read in
    real space projection operators read in
  non local Contribution for L=           1  read in
    real space projection operators read in
  non local Contribution for L=           1  read in
    real space projection operators read in
    PAW grid and wavefunctions read in
 
   number of l-projection  operators is LMAX  =           6
   number of lm-projection operators is LMMAX =          18
 
 POTCAR:   PAW_GGA S 21Jan2003                    
   VRHFIN =S : s2p4                                                             
   LEXCH  = 91                                                                  
   EATOM  =   277.2736 eV,   20.3790 Ry                                         
                                                                                
   TITEL  = PAW_GGA S 21Jan2003                                                 
   LULTRA =        F    use ultrasoft PP ?                                      
   IUNSCR =        1    unscreen: 0-lin 1-nonlin 2-no                           
   RPACOR =    1.500    partial core radius                                     
   POMASS =   32.066; ZVAL   =    6.000    mass and valenz                      
   RCORE  =    1.900    outmost cutoff radius                                   
   RWIGS  =    2.200; RWIGS  =    1.164    wigner-seitz radius (au A)           
   ENMAX  =  280.000; ENMIN  =  194.015 eV                                      
   ICORE  =        2    local potential                                         
   LCOR   =        T    correct aug charges                                     
   LPAW   =        T    paw PP                                                  
   EAUG   =  335.092                                                            
   DEXC   =     .000                                                            
   RMAX   =    2.867    core radius for proj-oper                               
   RAUG   =    1.300    factor for augmentation sphere                          
   RDEP   =    1.954    core radius for depl-charge                             
   QCUT   =   -4.360; QGAM   =    8.721    optimization parameters              
                                                                                
   Description                                                                  
     l     E      TYP  RCUT    TYP  RCUT                                        
     0   .000     23  1.900                                                     
     0   .000     23  1.900                                                     
     1   .000     23  1.900                                                     
     1   .000     23  1.900                                                     
     2   .000      7  1.900                                                     
  local pseudopotential read in
  partial core-charges read in
  atomic valenz-charges read in
  non local Contribution for L=           0  read in
    real space projection operators read in
  non local Contribution for L=           0  read in
    real space projection operators read in
  non local Contribution for L=           1  read in
    real space projection operators read in
  non local Contribution for L=           1  read in
    real space projection operators read in
    PAW grid and wavefunctions read in
 
   number of l-projection  operators is LMAX  =           4
   number of lm-projection operators is LMMAX =           8
 
 PAW_GGA Mo 08Jan2002                   :
 energy of atom  1       EATOM= -218.0124
 kinetic energy error for atom=    0.0017 (will be added to EATOM!!)
 PAW_GGA S 21Jan2003                    :
 energy of atom  2       EATOM= -277.2736
 kinetic energy error for atom=    0.0019 (will be added to EATOM!!)
 
 
 POSCAR: Mo2S4                                   
  positions in direct lattice
  No initial velocities read in
 exchange correlation table for  LEXCH =        7
   RHO(1)=    0.500       N(1)  =     2000
   RHO(2)=  100.500       N(2)  =     4000
 


--------------------------------------------------------------------------------------------------------


 ion  position               nearest neighbor table
   1  0.333  0.667  0.250-   3 2.42   5 2.42   3 2.42   5 2.42   3 2.42   5 2.42
   2  0.667  0.333  0.750-   4 2.42   6 2.42   4 2.42   6 2.42   4 2.42   6 2.42
   3  0.667  0.333  0.355-   1 2.42   1 2.42   1 2.42
   4  0.333  0.667  0.855-   2 2.42   2 2.42   2 2.42
   5  0.667  0.333  0.145-   1 2.42   1 2.42   1 2.42
   6  0.333  0.667  0.645-   2 2.42   2 2.42   2 2.42
 
  LATTYP: Found a hexagonal cell.
 ALAT       =     3.1903153920
 C/A-ratio  =     4.6638034714
  
  Lattice vectors:
  
 A1 = (   3.1903160000,   0.0000000000,   0.0000000000)
 A2 = (  -1.5951580000,   2.7628940000,   0.0000000000)
 A3 = (   0.0000000000,   0.0000000000,  14.8790040000)


Analysis of symmetry for initial positions (statically):
=====================================================================
 Subroutine PRICEL returns:
 Original cell was already a primitive cell.
 

 Routine SETGRP: Setting up the symmetry group for a 
 hexagonal supercell.


 Subroutine GETGRP returns: Found 24 space group operations
 (whereof 12 operations were pure point group operations)
 out of a pool of 24 trial point group operations.


The static configuration has the point symmetry D_3d.
 The point group associated with its full space group is D_6h.


Analysis of symmetry for dynamics (positions and initial velocities):
=====================================================================
 Subroutine PRICEL returns:
 Original cell was already a primitive cell.
 

 Routine SETGRP: Setting up the symmetry group for a 
 hexagonal supercell.


 Subroutine GETGRP returns: Found 24 space group operations
 (whereof 12 operations were pure point group operations)
 out of a pool of 24 trial point group operations.


The dynamic configuration has the point symmetry D_3d.
 The point group associated with its full space group is D_6h.


 Subroutine INISYM returns: Found 24 space group operations
 (whereof 12 operations are pure point group operations),
 and found     1 'primitive' translations

 
 
 KPOINTS: Hexagonal lattice 40                    
  interpolating k-points between supplied coordinates
  k-points in reciprocal lattice
Space group operators:
 irot       det(A)        alpha          n_x          n_y          n_z        tau_x        tau_y        tau_z
    1     1.000000     0.000000     1.000000     0.000000     0.000000     0.000000     0.000000     0.000000
    2    -1.000000     0.000000     1.000000     0.000000     0.000000     0.000000     0.000000     0.000000
    3     1.000000   120.000000     0.000000     0.000000    -1.000000     0.000000     0.000000     0.000000
    4    -1.000000   120.000000     0.000000     0.000000    -1.000000     0.000000     0.000000     0.000000
    5     1.000000   120.000000     0.000000     0.000000     1.000000     0.000000     0.000000     0.000000
    6    -1.000000   120.000000     0.000000     0.000000     1.000000     0.000000     0.000000     0.000000
    7     1.000000   180.000000     1.000000     0.000000     0.000000     0.000000     0.000000     0.000000
    8    -1.000000   180.000000     1.000000     0.000000     0.000000     0.000000     0.000000     0.000000
    9     1.000000   180.000000     0.500000    -0.866025     0.000000     0.000000     0.000000     0.000000
   10    -1.000000   180.000000     0.500000    -0.866025     0.000000     0.000000     0.000000     0.000000
   11     1.000000   180.000000    -0.500000    -0.866025     0.000000     0.000000     0.000000     0.000000
   12    -1.000000   180.000000    -0.500000    -0.866025     0.000000     0.000000     0.000000     0.000000
   13     1.000000    60.000000     0.000000     0.000000    -1.000000     0.000001     0.000000     0.500000
   14    -1.000000    60.000000     0.000000     0.000000    -1.000000     0.000001     0.000000     0.500000
   15     1.000000   180.000000     0.000000     0.000000     1.000000     0.000000     0.000000     0.500000
   16    -1.000000   180.000000     0.000000     0.000000     1.000000     0.000000     0.000000     0.500000
   17     1.000000    60.000000     0.000000     0.000000     1.000000     0.000000     0.000000     0.500000
   18    -1.000000    60.000000     0.000000     0.000000     1.000000     0.000000     0.000000     0.500000
   19     1.000000   180.000000     0.866025    -0.500000     0.000000     0.000000     0.000000     0.500000
   20    -1.000000   180.000000     0.866025    -0.500000     0.000000     0.000000     0.000000     0.500000
   21     1.000000   180.000000     0.000000     1.000000     0.000000     0.000001     0.000000     0.500000
   22    -1.000000   180.000000     0.000000     1.000000     0.000000     0.000001     0.000000     0.500000
   23     1.000000   180.000000     0.866025     0.500000     0.000000     0.000000     0.000000     0.500000
   24    -1.000000   180.000000     0.866025     0.500000     0.000000     0.000000     0.000000     0.500000


--------------------------------------------------------------------------------------------------------




 Dimension of arrays:
   k-points           NKPTS =    120   k-points in BZ     NKDIM =    120   number of bands    NBANDS=     22
   number of dos      NEDOS =    301   number of ions     NIONS =      6
   non local maximal  LDIM  =      6   non local SUM 2l+1 LMDIM =     18
   total plane-waves  NPLWV =  27216
   max r-space proj   IRMAX =      1   max aug-charges    IRDMAX=  13521
   dimension x,y,z NGX =    18 NGY =   18 NGZ =   84
   dimension x,y,z NGXF=    36 NGYF=   36 NGZF=  168
   support grid    NGXF=    36 NGYF=   36 NGZF=  168
   ions per type =               2   4
   NGX,Y,Z   is equivalent  to a cutoff of   9.38,  9.38,  9.39 a.u.
   NGXF,Y,Z  is equivalent  to a cutoff of  18.76, 18.76, 18.77 a.u.

 SYSTEM =  bulk MoS2                               
 POSCAR =  Mo2S4                                   

 Startparameter for this run:
   NWRITE =      2    write-flag & timer
   PREC   = normal    normal or accurate (medium, high low for compatibility)
   ISTART =      0    job   : 0-new  1-cont  2-samecut
   ICHARG =     11    charge: 1-file 2-atom 10-const
   ISPIN  =      1    spin polarized calculation?
   LNONCOLLINEAR =      F non collinear calculations
   LSORBIT =      F    spin-orbit coupling
   INIWAV =      1    electr: 0-lowe 1-rand  2-diag
   LASPH  =      F    aspherical Exc in radial PAW
   METAGGA=      F    non-selfconsistent MetaGGA calc.

 Electronic Relaxation 1
   ENCUT  =  500.0 eV  36.75 Ry    6.06 a.u.   5.82  5.82 27.13*2*pi/ulx,y,z
   ENINI  =  500.0     initial cutoff
   ENAUG  =  345.3 eV  augmentation charge cutoff
   NELM   =     60;   NELMIN=  2; NELMDL= -5     # of ELM steps 
   EDIFF  = 0.1E-05   stopping-criterion for ELM
   LREAL  =      F    real-space projection
   NLSPLINE    = F    spline interpolate recip. space projectors
   LCOMPAT=      F    compatible to vasp.4.4
   GGA_COMPAT  = T    GGA compatible to vasp.4.4-vasp.4.6
   LMAXPAW     = -100 max onsite density
   LMAXMIX     =    2 max onsite mixed and CHGCAR
   VOSKOWN=      0    Vosko Wilk Nusair interpolation
   ROPT   =    0.00000   0.00000
 Ionic relaxation
   EDIFFG = 0.1E-04   stopping-criterion for IOM
   NSW    =      0    number of steps for IOM
   NBLOCK =      1;   KBLOCK =      1    inner block; outer block 
   IBRION =     -1    ionic relax: 0-MD 1-quasi-New 2-CG
   NFREE  =      0    steps in history (QN), initial steepest desc. (CG)
   ISIF   =      2    stress and relaxation
   IWAVPR =     10    prediction:  0-non 1-charg 2-wave 3-comb
   ISYM   =      2    0-nonsym 1-usesym 2-fastsym
   LCORR  =      T    Harris-Foulkes like correction to forces

   POTIM  = 0.5000    time-step for ionic-motion
   TEIN   =    0.0    initial temperature
   TEBEG  =    0.0;   TEEND  =   0.0 temperature during run
   SMASS  =  -3.00    Nose mass-parameter (am)
   estimated Nose-frequenzy (Omega)   =  0.10E-29 period in steps =****** mass=  -0.233E-27a.u.
   SCALEE = 1.0000    scale energy and forces
   NPACO  =    256;   APACO  = 16.0  distance and # of slots for P.C.
   PSTRESS=    0.0 pullay stress

  Mass of Ions in am
   POMASS =  95.94 32.07
  Ionic Valenz
   ZVAL   =   6.00  6.00
  Atomic Wigner-Seitz radii
   RWIGS  =  -1.00 -1.00
  virtual crystal weights 
   VCA    =   1.00  1.00
   NELECT =      36.0000    total number of electrons
   NUPDOWN=      -1.0000    fix difference up-down

 DOS related values:
   EMIN   =  10.00;   EMAX   =-10.00  energy-range for DOS
   EFERMI =   0.00
   ISMEAR =     0;   SIGMA  =   0.20  broadening in eV -4-tet -1-fermi 0-gaus

 Electronic relaxation 2 (details)
   IALGO  =     38    algorithm
   LDIAG  =      T    sub-space diagonalisation (order eigenvalues)
   LSUBROT=      F    optimize rotation matrix (better conditioning)
   TURBO    =      0    0=normal 1=particle mesh
   IRESTART =      0    0=no restart 2=restart with 2 vectors
   NREBOOT  =      0    no. of reboots
   NMIN     =      0    reboot dimension
   EREF     =   0.00    reference energy to select bands
   IMIX   =      4    mixing-type and parameters
     AMIX     =   0.40;   BMIX     =  1.00
     AMIX_MAG =   1.60;   BMIX_MAG =  1.00
     AMIN     =   0.10
     WC   =   100.;   INIMIX=   1;  MIXPRE=   1;  MAXMIX= -45

 Intra band minimization:
   WEIMIN = 0.0000     energy-eigenvalue tresh-hold
   EBREAK =  0.11E-07  absolut break condition
   DEPER  =   0.30     relativ break condition  

   TIME   =   0.40     timestep for ELM

  volume/ion in A,a.u.               =      21.86       147.51
  Fermi-wavevector in a.u.,A,eV,Ry     =   1.063943  2.010561 15.401454  1.131975
  Thomas-Fermi vector in A             =   2.199445
 
 Write flags
   LWAVE        =      F    write WAVECAR
   LDOWNSAMPLE  =      F    k-point downsampling of WAVECAR
   LCHARG       =      F    write CHGCAR
   LVTOT        =      F    write LOCPOT, total local potential
   LVHAR        =      F    write LOCPOT, Hartree potential only
   LELF         =      F    write electronic localiz. function (ELF)
   LORBIT       =      0    0 simple, 1 ext, 2 COOP (PROOUT), +10 PAW based schemes


 Dipole corrections
   LMONO  =      F    monopole corrections only (constant potential shift)
   LDIPOL =      F    correct potential (dipole corrections)
   IDIPOL =      0    1-x, 2-y, 3-z, 4-all directions 
   EPSILON=  1.0000000 bulk dielectric constant

 Exchange correlation treatment:
   GGA     =    --    GGA type
   LEXCH   =     7    internal setting for exchange type
   VOSKOWN=      0    Vosko Wilk Nusair interpolation
   LHFCALC =     F    Hartree Fock is set to
   LHFONE  =     F    Hartree Fock one center treatment
   AEXX    =    0.0000 exact exchange contribution

 Linear response parameters
   LEPSILON=     F    determine dielectric tensor
   LRPA    =     F    only Hartree local field effects (RPA)
   LNABLA  =     F    use nabla operator in PAW spheres
   LVEL    =     F    velocity operator in full k-point grid
   LINTERFAST=   F  fast interpolation
   KINTER  =     0    interpolate to denser k-point grid
   CSHIFT  =0.1000    complex shift for real part using Kramers Kronig
   OMEGAMAX=  -1.0    maximum frequency
   DEG_THRESHOLD= 0.2000000E-02 threshold for treating states as degnerate
   RTIME   =   -0.100 relaxation time in fs
  (WPLASMAI=    0.000 imaginary part of plasma frequency in eV, 0.658/RTIME)
   DFIELD  = 0.0000000 0.0000000 0.0000000 field for delta impulse in time
 
 Orbital magnetization related:
   ORBITALMAG=     F  switch on orbital magnetization
   LCHIMAG   =     F  perturbation theory with respect to B field
   DQ        =  0.001000  dq finite difference perturbation B field
   LLRAUG    =     F  two centre corrections for induced B field



--------------------------------------------------------------------------------------------------------


 Static calculation
 charge density and potential remain constant during run
 non-spin polarized calculation
 Variant of blocked Davidson
 Davidson routine will perform the subspace rotation
 perform sub-space diagonalisation
    after iterative eigenvector-optimisation
 no mixing
 using additional bands            4
 reciprocal scheme for non local part
 use partial core corrections
 calculate Harris-corrections to forces 
   (improved forces if not selfconsistent)
 use gradient corrections 
 WARNING: stress and forces are not correct
  (second derivative of E(xc) not defined)
 use of overlap-Matrix (Vanderbilt PP)
 Gauss-broadening in eV      SIGMA  =   0.20


--------------------------------------------------------------------------------------------------------


  energy-cutoff  :      500.00
  volume of cell :      131.15
      direct lattice vectors                 reciprocal lattice vectors
     3.190316000  0.000000000  0.000000000     0.313448574  0.180969664  0.000000000
    -1.595158000  2.762894000  0.000000000     0.000000000  0.361939329  0.000000000
     0.000000000  0.000000000 14.879004000     0.000000000  0.000000000  0.067208800

  length of vectors
     3.190316000  3.190315392 14.879004000     0.361939260  0.361939329  0.067208800


 
 k-points in units of 2pi/SCALE and weight: Hexagonal lattice 40                    
   0.00000000  0.00000000  0.00000000       0.008
   0.00401857  0.00232012  0.00000000       0.008
   0.00803714  0.00464025  0.00000000       0.008
   0.01205571  0.00696037  0.00000000       0.008
   0.01607429  0.00928050  0.00000000       0.008
   0.02009286  0.01160062  0.00000000       0.008
   0.02411143  0.01392074  0.00000000       0.008
   0.02813000  0.01624087  0.00000000       0.008
   0.03214857  0.01856099  0.00000000       0.008
   0.03616714  0.02088112  0.00000000       0.008
   0.04018571  0.02320124  0.00000000       0.008
   0.04420429  0.02552136  0.00000000       0.008
   0.04822286  0.02784149  0.00000000       0.008
   0.05224143  0.03016161  0.00000000       0.008
   0.05626000  0.03248173  0.00000000       0.008
   0.06027857  0.03480186  0.00000000       0.008
   0.06429714  0.03712198  0.00000000       0.008
   0.06831571  0.03944211  0.00000000       0.008
   0.07233429  0.04176223  0.00000000       0.008
   0.07635286  0.04408235  0.00000000       0.008
   0.08037143  0.04640248  0.00000000       0.008
   0.08439000  0.04872260  0.00000000       0.008
   0.08840857  0.05104273  0.00000000       0.008
   0.09242714  0.05336285  0.00000000       0.008
   0.09644571  0.05568297  0.00000000       0.008
   0.10046429  0.05800310  0.00000000       0.008
   0.10448286  0.06032322  0.00000000       0.008
   0.10850143  0.06264335  0.00000000       0.008
   0.11252000  0.06496347  0.00000000       0.008
   0.11653857  0.06728359  0.00000000       0.008
   0.12055714  0.06960372  0.00000000       0.008
   0.12457572  0.07192384  0.00000000       0.008
   0.12859429  0.07424396  0.00000000       0.008
   0.13261286  0.07656409  0.00000000       0.008
   0.13663143  0.07888421  0.00000000       0.008
   0.14065000  0.08120434  0.00000000       0.008
   0.14466857  0.08352446  0.00000000       0.008
   0.14868714  0.08584458  0.00000000       0.008
   0.15270572  0.08816471  0.00000000       0.008
   0.15672429  0.09048483  0.00000000       0.008
   0.15672429  0.09048483  0.00000000       0.008
   0.15538476  0.09280496  0.00000000       0.008
   0.15404524  0.09512508  0.00000000       0.008
   0.15270572  0.09744520  0.00000000       0.008
   0.15136619  0.09976533  0.00000000       0.008
   0.15002667  0.10208545  0.00000000       0.008
   0.14868714  0.10440558  0.00000000       0.008
   0.14734762  0.10672570  0.00000000       0.008
   0.14600810  0.10904582  0.00000000       0.008
   0.14466857  0.11136595  0.00000000       0.008
   0.14332905  0.11368607  0.00000000       0.008
   0.14198952  0.11600620  0.00000000       0.008
   0.14065000  0.11832632  0.00000000       0.008
   0.13931048  0.12064644  0.00000000       0.008
   0.13797095  0.12296657  0.00000000       0.008
   0.13663143  0.12528669  0.00000000       0.008
   0.13529191  0.12760681  0.00000000       0.008
   0.13395238  0.12992694  0.00000000       0.008
   0.13261286  0.13224706  0.00000000       0.008
   0.13127333  0.13456719  0.00000000       0.008
   0.12993381  0.13688731  0.00000000       0.008
   0.12859429  0.13920743  0.00000000       0.008
   0.12725476  0.14152756  0.00000000       0.008
   0.12591524  0.14384768  0.00000000       0.008
   0.12457572  0.14616781  0.00000000       0.008
   0.12323619  0.14848793  0.00000000       0.008
   0.12189667  0.15080805  0.00000000       0.008
   0.12055714  0.15312818  0.00000000       0.008
   0.11921762  0.15544830  0.00000000       0.008
   0.11787810  0.15776843  0.00000000       0.008
   0.11653857  0.16008855  0.00000000       0.008
   0.11519905  0.16240867  0.00000000       0.008
   0.11385952  0.16472880  0.00000000       0.008
   0.11252000  0.16704892  0.00000000       0.008
   0.11118048  0.16936904  0.00000000       0.008
   0.10984095  0.17168917  0.00000000       0.008
   0.10850143  0.17400929  0.00000000       0.008
   0.10716191  0.17632942  0.00000000       0.008
   0.10582238  0.17864954  0.00000000       0.008
   0.10448286  0.18096966  0.00000000       0.008
   0.10448286  0.18096966  0.00000000       0.008
   0.10180381  0.17632942  0.00000000       0.008
   0.09912476  0.17168917  0.00000000       0.008
   0.09644571  0.16704892  0.00000000       0.008
   0.09376667  0.16240867  0.00000000       0.008
   0.09108762  0.15776843  0.00000000       0.008
   0.08840857  0.15312818  0.00000000       0.008
   0.08572952  0.14848793  0.00000000       0.008
   0.08305048  0.14384768  0.00000000       0.008
   0.08037143  0.13920743  0.00000000       0.008
   0.07769238  0.13456719  0.00000000       0.008
   0.07501333  0.12992694  0.00000000       0.008
   0.07233429  0.12528669  0.00000000       0.008
   0.06965524  0.12064644  0.00000000       0.008
   0.06697619  0.11600620  0.00000000       0.008
   0.06429714  0.11136595  0.00000000       0.008
   0.06161810  0.10672570  0.00000000       0.008
   0.05893905  0.10208545  0.00000000       0.008
   0.05626000  0.09744520  0.00000000       0.008
   0.05358095  0.09280496  0.00000000       0.008
   0.05090191  0.08816471  0.00000000       0.008
   0.04822286  0.08352446  0.00000000       0.008
   0.04554381  0.07888421  0.00000000       0.008
   0.04286476  0.07424396  0.00000000       0.008
   0.04018571  0.06960372  0.00000000       0.008
   0.03750667  0.06496347  0.00000000       0.008
   0.03482762  0.06032322  0.00000000       0.008
   0.03214857  0.05568297  0.00000000       0.008
   0.02946952  0.05104273  0.00000000       0.008
   0.02679048  0.04640248  0.00000000       0.008
   0.02411143  0.04176223  0.00000000       0.008
   0.02143238  0.03712198  0.00000000       0.008
   0.01875333  0.03248173  0.00000000       0.008
   0.01607429  0.02784149  0.00000000       0.008
   0.01339524  0.02320124  0.00000000       0.008
   0.01071619  0.01856099  0.00000000       0.008
   0.00803714  0.01392074  0.00000000       0.008
   0.00535810  0.00928050  0.00000000       0.008
   0.00267905  0.00464025  0.00000000       0.008
   0.00000000  0.00000000  0.00000000       0.008
 
 k-points in reciprocal lattice and weights: Hexagonal lattice 40                    
   0.00000000  0.00000000  0.00000000       0.008
   0.01282051  0.00000000  0.00000000       0.008
   0.02564103  0.00000000  0.00000000       0.008
   0.03846154  0.00000000  0.00000000       0.008
   0.05128205  0.00000000  0.00000000       0.008
   0.06410256  0.00000000  0.00000000       0.008
   0.07692308  0.00000000  0.00000000       0.008
   0.08974359  0.00000000  0.00000000       0.008
   0.10256410  0.00000000  0.00000000       0.008
   0.11538462  0.00000000  0.00000000       0.008
   0.12820513  0.00000000  0.00000000       0.008
   0.14102564  0.00000000  0.00000000       0.008
   0.15384615  0.00000000  0.00000000       0.008
   0.16666667  0.00000000  0.00000000       0.008
   0.17948718  0.00000000  0.00000000       0.008
   0.19230769  0.00000000  0.00000000       0.008
   0.20512821  0.00000000  0.00000000       0.008
   0.21794872  0.00000000  0.00000000       0.008
   0.23076923  0.00000000  0.00000000       0.008
   0.24358974  0.00000000  0.00000000       0.008
   0.25641026  0.00000000  0.00000000       0.008
   0.26923077  0.00000000  0.00000000       0.008
   0.28205128  0.00000000  0.00000000       0.008
   0.29487179  0.00000000  0.00000000       0.008
   0.30769231  0.00000000  0.00000000       0.008
   0.32051282  0.00000000  0.00000000       0.008
   0.33333333  0.00000000  0.00000000       0.008
   0.34615385  0.00000000  0.00000000       0.008
   0.35897436  0.00000000  0.00000000       0.008
   0.37179487  0.00000000  0.00000000       0.008
   0.38461538  0.00000000  0.00000000       0.008
   0.39743590  0.00000000  0.00000000       0.008
   0.41025641  0.00000000  0.00000000       0.008
   0.42307692  0.00000000  0.00000000       0.008
   0.43589744  0.00000000  0.00000000       0.008
   0.44871795  0.00000000  0.00000000       0.008
   0.46153846  0.00000000  0.00000000       0.008
   0.47435897  0.00000000  0.00000000       0.008
   0.48717949  0.00000000  0.00000000       0.008
   0.50000000  0.00000000  0.00000000       0.008
   0.50000000  0.00000000  0.00000000       0.008
   0.49572650  0.00854701  0.00000000       0.008
   0.49145299  0.01709402  0.00000000       0.008
   0.48717949  0.02564103  0.00000000       0.008
   0.48290598  0.03418803  0.00000000       0.008
   0.47863248  0.04273504  0.00000000       0.008
   0.47435897  0.05128205  0.00000000       0.008
   0.47008547  0.05982906  0.00000000       0.008
   0.46581197  0.06837607  0.00000000       0.008
   0.46153846  0.07692308  0.00000000       0.008
   0.45726496  0.08547009  0.00000000       0.008
   0.45299145  0.09401709  0.00000000       0.008
   0.44871795  0.10256410  0.00000000       0.008
   0.44444444  0.11111111  0.00000000       0.008
   0.44017094  0.11965812  0.00000000       0.008
   0.43589744  0.12820513  0.00000000       0.008
   0.43162393  0.13675214  0.00000000       0.008
   0.42735043  0.14529915  0.00000000       0.008
   0.42307692  0.15384615  0.00000000       0.008
   0.41880342  0.16239316  0.00000000       0.008
   0.41452991  0.17094017  0.00000000       0.008
   0.41025641  0.17948718  0.00000000       0.008
   0.40598291  0.18803419  0.00000000       0.008
   0.40170940  0.19658120  0.00000000       0.008
   0.39743590  0.20512821  0.00000000       0.008
   0.39316239  0.21367521  0.00000000       0.008
   0.38888889  0.22222222  0.00000000       0.008
   0.38461538  0.23076923  0.00000000       0.008
   0.38034188  0.23931624  0.00000000       0.008
   0.37606838  0.24786325  0.00000000       0.008
   0.37179487  0.25641026  0.00000000       0.008
   0.36752137  0.26495726  0.00000000       0.008
   0.36324786  0.27350427  0.00000000       0.008
   0.35897436  0.28205128  0.00000000       0.008
   0.35470085  0.29059829  0.00000000       0.008
   0.35042735  0.29914530  0.00000000       0.008
   0.34615385  0.30769231  0.00000000       0.008
   0.34188034  0.31623932  0.00000000       0.008
   0.33760684  0.32478632  0.00000000       0.008
   0.33333333  0.33333333  0.00000000       0.008
   0.33333333  0.33333333  0.00000000       0.008
   0.32478632  0.32478632  0.00000000       0.008
   0.31623932  0.31623932  0.00000000       0.008
   0.30769231  0.30769231  0.00000000       0.008
   0.29914530  0.29914530  0.00000000       0.008
   0.29059829  0.29059829  0.00000000       0.008
   0.28205128  0.28205128  0.00000000       0.008
   0.27350427  0.27350427  0.00000000       0.008
   0.26495726  0.26495726  0.00000000       0.008
   0.25641026  0.25641026  0.00000000       0.008
   0.24786325  0.24786325  0.00000000       0.008
   0.23931624  0.23931624  0.00000000       0.008
   0.23076923  0.23076923  0.00000000       0.008
   0.22222222  0.22222222  0.00000000       0.008
   0.21367521  0.21367521  0.00000000       0.008
   0.20512821  0.20512821  0.00000000       0.008
   0.19658120  0.19658120  0.00000000       0.008
   0.18803419  0.18803419  0.00000000       0.008
   0.17948718  0.17948718  0.00000000       0.008
   0.17094017  0.17094017  0.00000000       0.008
   0.16239316  0.16239316  0.00000000       0.008
   0.15384615  0.15384615  0.00000000       0.008
   0.14529915  0.14529915  0.00000000       0.008
   0.13675214  0.13675214  0.00000000       0.008
   0.12820513  0.12820513  0.00000000       0.008
   0.11965812  0.11965812  0.00000000       0.008
   0.11111111  0.11111111  0.00000000       0.008
   0.10256410  0.10256410  0.00000000       0.008
   0.09401709  0.09401709  0.00000000       0.008
   0.08547009  0.08547009  0.00000000       0.008
   0.07692308  0.07692308  0.00000000       0.008
   0.06837607  0.06837607  0.00000000       0.008
   0.05982906  0.05982906  0.00000000       0.008
   0.05128205  0.05128205  0.00000000       0.008
   0.04273504  0.04273504  0.00000000       0.008
   0.03418803  0.03418803  0.00000000       0.008
   0.02564103  0.02564103  0.00000000       0.008
   0.01709402  0.01709402  0.00000000       0.008
   0.00854701  0.00854701  0.00000000       0.008
   0.00000000  0.00000000  0.00000000       0.008
 
 position of ions in fractional coordinates (direct lattice) 
   0.33333300  0.66666700  0.25000000
   0.66666700  0.33333300  0.75000000
   0.66666700  0.33333300  0.35517400
   0.33333300  0.66666700  0.85517400
   0.66666700  0.33333300  0.14482600
   0.33333300  0.66666700  0.64482600
 
 position of ions in cartesian coordinates  (Angst):
  -0.00000160  1.84193025  3.71975100
   1.59515960  0.92096375 11.15925300
   1.59515960  0.92096375  5.28463537
  -0.00000160  1.84193025 12.72413737
   1.59515960  0.92096375  2.15486663
  -0.00000160  1.84193025  9.59436863
 


--------------------------------------------------------------------------------------------------------


 k-point  1 :   0.0000 0.0000 0.0000  plane waves:    3313
 k-point  2 :   0.0128 0.0000 0.0000  plane waves:    3315
 k-point  3 :   0.0256 0.0000 0.0000  plane waves:    3311
 k-point  4 :   0.0385 0.0000 0.0000  plane waves:    3304
 k-point  5 :   0.0513 0.0000 0.0000  plane waves:    3308
 k-point  6 :   0.0641 0.0000 0.0000  plane waves:    3314
 k-point  7 :   0.0769 0.0000 0.0000  plane waves:    3308
 k-point  8 :   0.0897 0.0000 0.0000  plane waves:    3306
 k-point  9 :   0.1026 0.0000 0.0000  plane waves:    3314
 k-point 10 :   0.1154 0.0000 0.0000  plane waves:    3318
 k-point 11 :   0.1282 0.0000 0.0000  plane waves:    3314
 k-point 12 :   0.1410 0.0000 0.0000  plane waves:    3312
 k-point 13 :   0.1538 0.0000 0.0000  plane waves:    3308
 k-point 14 :   0.1667 0.0000 0.0000  plane waves:    3312
 k-point 15 :   0.1795 0.0000 0.0000  plane waves:    3304
 k-point 16 :   0.1923 0.0000 0.0000  plane waves:    3314
 k-point 17 :   0.2051 0.0000 0.0000  plane waves:    3316
 k-point 18 :   0.2179 0.0000 0.0000  plane waves:    3324
 k-point 19 :   0.2308 0.0000 0.0000  plane waves:    3324
 k-point 20 :   0.2436 0.0000 0.0000  plane waves:    3322
 k-point 21 :   0.2564 0.0000 0.0000  plane waves:    3324
 k-point 22 :   0.2692 0.0000 0.0000  plane waves:    3320
 k-point 23 :   0.2821 0.0000 0.0000  plane waves:    3334
 k-point 24 :   0.2949 0.0000 0.0000  plane waves:    3334
 k-point 25 :   0.3077 0.0000 0.0000  plane waves:    3338
 k-point 26 :   0.3205 0.0000 0.0000  plane waves:    3342
 k-point 27 :   0.3333 0.0000 0.0000  plane waves:    3352
 k-point 28 :   0.3462 0.0000 0.0000  plane waves:    3346
 k-point 29 :   0.3590 0.0000 0.0000  plane waves:    3340
 k-point 30 :   0.3718 0.0000 0.0000  plane waves:    3348
 k-point 31 :   0.3846 0.0000 0.0000  plane waves:    3344
 k-point 32 :   0.3974 0.0000 0.0000  plane waves:    3346
 k-point 33 :   0.4103 0.0000 0.0000  plane waves:    3350
 k-point 34 :   0.4231 0.0000 0.0000  plane waves:    3352
 k-point 35 :   0.4359 0.0000 0.0000  plane waves:    3352
 k-point 36 :   0.4487 0.0000 0.0000  plane waves:    3346
 k-point 37 :   0.4615 0.0000 0.0000  plane waves:    3342
 k-point 38 :   0.4744 0.0000 0.0000  plane waves:    3344
 k-point 39 :   0.4872 0.0000 0.0000  plane waves:    3334
 k-point 40 :   0.5000 0.0000 0.0000  plane waves:    3328
 k-point 41 :   0.5000 0.0000 0.0000  plane waves:    3328
 k-point 42 :   0.4957 0.0085 0.0000  plane waves:    3332
 k-point 43 :   0.4915 0.0171 0.0000  plane waves:    3332
 k-point 44 :   0.4872 0.0256 0.0000  plane waves:    3342
 k-point 45 :   0.4829 0.0342 0.0000  plane waves:    3350
 k-point 46 :   0.4786 0.0427 0.0000  plane waves:    3354
 k-point 47 :   0.4744 0.0513 0.0000  plane waves:    3350
 k-point 48 :   0.4701 0.0598 0.0000  plane waves:    3342
 k-point 49 :   0.4658 0.0684 0.0000  plane waves:    3338
 k-point 50 :   0.4615 0.0769 0.0000  plane waves:    3342
 k-point 51 :   0.4573 0.0855 0.0000  plane waves:    3340
 k-point 52 :   0.4530 0.0940 0.0000  plane waves:    3328
 k-point 53 :   0.4487 0.1026 0.0000  plane waves:    3328
 k-point 54 :   0.4444 0.1111 0.0000  plane waves:    3334
 k-point 55 :   0.4402 0.1197 0.0000  plane waves:    3334
 k-point 56 :   0.4359 0.1282 0.0000  plane waves:    3330
 k-point 57 :   0.4316 0.1368 0.0000  plane waves:    3330
 k-point 58 :   0.4274 0.1453 0.0000  plane waves:    3334
 k-point 59 :   0.4231 0.1538 0.0000  plane waves:    3340
 k-point 60 :   0.4188 0.1624 0.0000  plane waves:    3336
 k-point 61 :   0.4145 0.1709 0.0000  plane waves:    3336
 k-point 62 :   0.4103 0.1795 0.0000  plane waves:    3328
 k-point 63 :   0.4060 0.1880 0.0000  plane waves:    3318
 k-point 64 :   0.4017 0.1966 0.0000  plane waves:    3310
 k-point 65 :   0.3974 0.2051 0.0000  plane waves:    3306
 k-point 66 :   0.3932 0.2137 0.0000  plane waves:    3308
 k-point 67 :   0.3889 0.2222 0.0000  plane waves:    3310
 k-point 68 :   0.3846 0.2308 0.0000  plane waves:    3314
 k-point 69 :   0.3803 0.2393 0.0000  plane waves:    3318
 k-point 70 :   0.3761 0.2479 0.0000  plane waves:    3318
 k-point 71 :   0.3718 0.2564 0.0000  plane waves:    3318
 k-point 72 :   0.3675 0.2650 0.0000  plane waves:    3318
 k-point 73 :   0.3632 0.2735 0.0000  plane waves:    3314
 k-point 74 :   0.3590 0.2821 0.0000  plane waves:    3314
 k-point 75 :   0.3547 0.2906 0.0000  plane waves:    3312
 k-point 76 :   0.3504 0.2991 0.0000  plane waves:    3318
 k-point 77 :   0.3462 0.3077 0.0000  plane waves:    3316
 k-point 78 :   0.3419 0.3162 0.0000  plane waves:    3316
 k-point 79 :   0.3376 0.3248 0.0000  plane waves:    3314
 k-point 80 :   0.3333 0.3333 0.0000  plane waves:    3324
 k-point 81 :   0.3333 0.3333 0.0000  plane waves:    3324
 k-point 82 :   0.3248 0.3248 0.0000  plane waves:    3318
 k-point 83 :   0.3162 0.3162 0.0000  plane waves:    3326
 k-point 84 :   0.3077 0.3077 0.0000  plane waves:    3322
 k-point 85 :   0.2991 0.2991 0.0000  plane waves:    3318
 k-point 86 :   0.2906 0.2906 0.0000  plane waves:    3326
 k-point 87 :   0.2821 0.2821 0.0000  plane waves:    3318
 k-point 88 :   0.2735 0.2735 0.0000  plane waves:    3338
 k-point 89 :   0.2650 0.2650 0.0000  plane waves:    3328
 k-point 90 :   0.2564 0.2564 0.0000  plane waves:    3336
 k-point 91 :   0.2479 0.2479 0.0000  plane waves:    3326
 k-point 92 :   0.2393 0.2393 0.0000  plane waves:    3338
 k-point 93 :   0.2308 0.2308 0.0000  plane waves:    3324
 k-point 94 :   0.2222 0.2222 0.0000  plane waves:    3336
 k-point 95 :   0.2137 0.2137 0.0000  plane waves:    3330
 k-point 96 :   0.2051 0.2051 0.0000  plane waves:    3334
 k-point 97 :   0.1966 0.1966 0.0000  plane waves:    3330
 k-point 98 :   0.1880 0.1880 0.0000  plane waves:    3334
 k-point 99 :   0.1795 0.1795 0.0000  plane waves:    3330
 k-point ** :   0.1709 0.1709 0.0000  plane waves:    3340
 k-point ** :   0.1624 0.1624 0.0000  plane waves:    3312
 k-point ** :   0.1538 0.1538 0.0000  plane waves:    3302
 k-point ** :   0.1453 0.1453 0.0000  plane waves:    3304
 k-point ** :   0.1368 0.1368 0.0000  plane waves:    3314
 k-point ** :   0.1282 0.1282 0.0000  plane waves:    3324
 k-point ** :   0.1197 0.1197 0.0000  plane waves:    3318
 k-point ** :   0.1111 0.1111 0.0000  plane waves:    3318
 k-point ** :   0.1026 0.1026 0.0000  plane waves:    3320
 k-point ** :   0.0940 0.0940 0.0000  plane waves:    3318
 k-point ** :   0.0855 0.0855 0.0000  plane waves:    3315
 k-point ** :   0.0769 0.0769 0.0000  plane waves:    3315
 k-point ** :   0.0684 0.0684 0.0000  plane waves:    3317
 k-point ** :   0.0598 0.0598 0.0000  plane waves:    3321
 k-point ** :   0.0513 0.0513 0.0000  plane waves:    3321
 k-point ** :   0.0427 0.0427 0.0000  plane waves:    3317
 k-point ** :   0.0342 0.0342 0.0000  plane waves:    3311
 k-point ** :   0.0256 0.0256 0.0000  plane waves:    3299
 k-point ** :   0.0171 0.0171 0.0000  plane waves:    3305
 k-point ** :   0.0085 0.0085 0.0000  plane waves:    3317
 k-point ** :   0.0000 0.0000 0.0000  plane waves:    3313

 maximum and minimum number of plane-waves per node :      3354     3299

 maximum number of plane-waves:      3354
 maximum index in each direction: 
   IXMAX=    5   IYMAX=    5   IZMAX=   27
   IXMIN=   -6   IYMIN=   -6   IZMIN=  -27


 serial   3D FFT for wavefunctions
 parallel 3D FFT for charge:
    minimum data exchange during FFTs selected (reduces bandwidth)


 total amount of memory used by VASP MPI-rank0   327442. kBytes
=======================================================================

   base      :      30000. kBytes
   nonl-proj :     116236. kBytes
   fftplans  :      14796. kBytes
   grid      :      21772. kBytes
   one-center:         93. kBytes
   wavefun   :     144545. kBytes
 
     INWAV:  cpu time    0.0001: real time    0.0002
 initial charge density was supplied:
 number of electron      36.0000013 magnetization 
 keeping initial charge density in first step


--------------------------------------------------------------------------------------------------------


 Maximum index for augmentation-charges        12837 (set IRDMAX)


--------------------------------------------------------------------------------------------------------


 First call to EWALD:  gamma=   0.349
 Maximum number of real-space cells 5x 5x 1
 Maximum number of reciprocal cells 2x 2x 7

    FEWALD:  cpu time    0.0016: real time    0.0016


--------------------------------------- Iteration      1(   1)  ---------------------------------------


    POTLOK:  cpu time    0.1534: real time    0.1549
    SETDIJ:  cpu time    0.0111: real time    0.0112
     EDDAV:  cpu time   14.8359: real time   14.9245
       DOS:  cpu time    0.0099: real time    0.0099
    --------------------------------------------
      LOOP:  cpu time   15.0114: real time   15.1006

 eigenvalue-minimisations  :  5280
 total energy-change (2. order) : 0.2064237E+03  (-0.1556455E+04)
 number of electron      36.0000013 magnetization 
 augmentation part       36.0000013 magnetization 

 Free energy of the ion-electron system (eV)
  ---------------------------------------------------
  alpha Z        PSCENC =        80.02335958
  Ewald energy   TEWEN  =     -1146.88908035
  -Hartree energ DENC   =      -543.58948541
  -exchange      EXHF   =         0.00000000
  -V(xc)+E(xc)   XCENC  =       -71.81684348
  PAW double counting   =       946.54871455     -794.39195555
  entropy T*S    EENTRO =        -0.04226977
  eigenvalues    EBANDS =       191.47328624
  atomic energy  EATOM  =      1545.10800544
  Solvation  Ediel_sol  =         0.00000000
  ---------------------------------------------------
  free energy    TOTEN  =       206.42373125 eV

  energy without entropy =      206.46600102  energy(sigma->0) =      206.44486614


--------------------------------------------------------------------------------------------------------




--------------------------------------- Iteration      1(   2)  ---------------------------------------


     EDDAV:  cpu time   18.4384: real time   18.4833
       DOS:  cpu time    0.0118: real time    0.0118
    --------------------------------------------
      LOOP:  cpu time   18.4493: real time   18.4951

 eigenvalue-minimisations  :  7112
 total energy-change (2. order) :-0.2303886E+03  (-0.2237463E+03)
 number of electron      36.0000013 magnetization 
 augmentation part       36.0000013 magnetization 

 Free energy of the ion-electron system (eV)
  ---------------------------------------------------
  alpha Z        PSCENC =        80.02335958
  Ewald energy   TEWEN  =     -1146.88908035
  -Hartree energ DENC   =      -543.58948541
  -exchange      EXHF   =         0.00000000
  -V(xc)+E(xc)   XCENC  =       -71.81684348
  PAW double counting   =       946.54871455     -794.39195555
  entropy T*S    EENTRO =        -0.01148062
  eigenvalues    EBANDS =       -38.94608209
  atomic energy  EATOM  =      1545.10800544
  Solvation  Ediel_sol  =         0.00000000
  ---------------------------------------------------
  free energy    TOTEN  =       -23.96484793 eV

  energy without entropy =      -23.95336731  energy(sigma->0) =      -23.95910762


--------------------------------------------------------------------------------------------------------




--------------------------------------- Iteration      1(   3)  ---------------------------------------


     EDDAV:  cpu time   17.8266: real time   17.8712
       DOS:  cpu time    0.0112: real time    0.0112
    --------------------------------------------
      LOOP:  cpu time   17.8378: real time   17.8823

 eigenvalue-minimisations  :  6978
 total energy-change (2. order) :-0.1839222E+02  (-0.1816726E+02)
 number of electron      36.0000013 magnetization 
 augmentation part       36.0000013 magnetization 

 Free energy of the ion-electron system (eV)
  ---------------------------------------------------
  alpha Z        PSCENC =        80.02335958
  Ewald energy   TEWEN  =     -1146.88908035
  -Hartree energ DENC   =      -543.58948541
  -exchange      EXHF   =         0.00000000
  -V(xc)+E(xc)   XCENC  =       -71.81684348
  PAW double counting   =       946.54871455     -794.39195555
  entropy T*S    EENTRO =        -0.00000004
  eigenvalues    EBANDS =       -57.34977961
  atomic energy  EATOM  =      1545.10800544
  Solvation  Ediel_sol  =         0.00000000
  ---------------------------------------------------
  free energy    TOTEN  =       -42.35706487 eV

  energy without entropy =      -42.35706483  energy(sigma->0) =      -42.35706485


--------------------------------------------------------------------------------------------------------




--------------------------------------- Iteration      1(   4)  ---------------------------------------


     EDDAV:  cpu time   18.5021: real time   18.5464
       DOS:  cpu time    0.0117: real time    0.0127
    --------------------------------------------
      LOOP:  cpu time   18.5138: real time   18.5592

 eigenvalue-minimisations  :  7532
 total energy-change (2. order) :-0.6104683E+00  (-0.6089474E+00)
 number of electron      36.0000013 magnetization 
 augmentation part       36.0000013 magnetization 

 Free energy of the ion-electron system (eV)
  ---------------------------------------------------
  alpha Z        PSCENC =        80.02335958
  Ewald energy   TEWEN  =     -1146.88908035
  -Hartree energ DENC   =      -543.58948541
  -exchange      EXHF   =         0.00000000
  -V(xc)+E(xc)   XCENC  =       -71.81684348
  PAW double counting   =       946.54871455     -794.39195555
  entropy T*S    EENTRO =        -0.00000003
  eigenvalues    EBANDS =       -57.96024792
  atomic energy  EATOM  =      1545.10800544
  Solvation  Ediel_sol  =         0.00000000
  ---------------------------------------------------
  free energy    TOTEN  =       -42.96753316 eV

  energy without entropy =      -42.96753313  energy(sigma->0) =      -42.96753315


--------------------------------------------------------------------------------------------------------




--------------------------------------- Iteration      1(   5)  ---------------------------------------


     EDDAV:  cpu time   17.9076: real time   17.9546
       DOS:  cpu time    0.0115: real time    0.0116
    --------------------------------------------
      LOOP:  cpu time   17.9192: real time   17.9661

 eigenvalue-minimisations  :  7402
 total energy-change (2. order) :-0.1741784E-01  (-0.1741037E-01)
 number of electron      36.0000013 magnetization 
 augmentation part       36.0000013 magnetization 

 Free energy of the ion-electron system (eV)
  ---------------------------------------------------
  alpha Z        PSCENC =        80.02335958
  Ewald energy   TEWEN  =     -1146.88908035
  -Hartree energ DENC   =      -543.58948541
  -exchange      EXHF   =         0.00000000
  -V(xc)+E(xc)   XCENC  =       -71.81684348
  PAW double counting   =       946.54871455     -794.39195555
  entropy T*S    EENTRO =        -0.00000003
  eigenvalues    EBANDS =       -57.97766576
  atomic energy  EATOM  =      1545.10800544
  Solvation  Ediel_sol  =         0.00000000
  ---------------------------------------------------
  free energy    TOTEN  =       -42.98495101 eV

  energy without entropy =      -42.98495098  energy(sigma->0) =      -42.98495099


--------------------------------------------------------------------------------------------------------




--------------------------------------- Iteration      1(   6)  ---------------------------------------


     EDDAV:  cpu time   18.9200: real time   18.9653
       DOS:  cpu time    0.0115: real time    0.0115
    --------------------------------------------
      LOOP:  cpu time   18.9315: real time   18.9768

 eigenvalue-minimisations  :  7834
 total energy-change (2. order) :-0.5773276E-03  (-0.5771540E-03)
 number of electron      36.0000013 magnetization 
 augmentation part       36.0000013 magnetization 

 Free energy of the ion-electron system (eV)
  ---------------------------------------------------
  alpha Z        PSCENC =        80.02335958
  Ewald energy   TEWEN  =     -1146.88908035
  -Hartree energ DENC   =      -543.58948541
  -exchange      EXHF   =         0.00000000
  -V(xc)+E(xc)   XCENC  =       -71.81684348
  PAW double counting   =       946.54871455     -794.39195555
  entropy T*S    EENTRO =        -0.00000003
  eigenvalues    EBANDS =       -57.97824309
  atomic energy  EATOM  =      1545.10800544
  Solvation  Ediel_sol  =         0.00000000
  ---------------------------------------------------
  free energy    TOTEN  =       -42.98552833 eV

  energy without entropy =      -42.98552830  energy(sigma->0) =      -42.98552832


--------------------------------------------------------------------------------------------------------




--------------------------------------- Iteration      1(   7)  ---------------------------------------


     EDDAV:  cpu time   19.7663: real time   19.8182
       DOS:  cpu time    0.0116: real time    0.0116
    --------------------------------------------
      LOOP:  cpu time   19.7779: real time   19.8298

 eigenvalue-minimisations  :  7664
 total energy-change (2. order) :-0.1748239E-04  (-0.1747845E-04)
 number of electron      36.0000013 magnetization 
 augmentation part       36.0000013 magnetization 

 Free energy of the ion-electron system (eV)
  ---------------------------------------------------
  alpha Z        PSCENC =        80.02335958
  Ewald energy   TEWEN  =     -1146.88908035
  -Hartree energ DENC   =      -543.58948541
  -exchange      EXHF   =         0.00000000
  -V(xc)+E(xc)   XCENC  =       -71.81684348
  PAW double counting   =       946.54871455     -794.39195555
  entropy T*S    EENTRO =        -0.00000003
  eigenvalues    EBANDS =       -57.97826057
  atomic energy  EATOM  =      1545.10800544
  Solvation  Ediel_sol  =         0.00000000
  ---------------------------------------------------
  free energy    TOTEN  =       -42.98554581 eV

  energy without entropy =      -42.98554579  energy(sigma->0) =      -42.98554580


--------------------------------------------------------------------------------------------------------




--------------------------------------- Iteration      1(   8)  ---------------------------------------


     EDDAV:  cpu time   15.7570: real time   15.7947
       DOS:  cpu time    0.0116: real time    0.0116
    --------------------------------------------
      LOOP:  cpu time   15.7685: real time   15.8062

 eigenvalue-minimisations  :  5836
 total energy-change (2. order) :-0.4863305E-06  (-0.4854236E-06)
 number of electron      36.0000013 magnetization 
 augmentation part       36.0000013 magnetization 

 Free energy of the ion-electron system (eV)
  ---------------------------------------------------
  alpha Z        PSCENC =        80.02335958
  Ewald energy   TEWEN  =     -1146.88908035
  -Hartree energ DENC   =      -543.58948541
  -exchange      EXHF   =         0.00000000
  -V(xc)+E(xc)   XCENC  =       -71.81684348
  PAW double counting   =       946.54871455     -794.39195555
  entropy T*S    EENTRO =        -0.00000003
  eigenvalues    EBANDS =       -57.97826106
  atomic energy  EATOM  =      1545.10800544
  Solvation  Ediel_sol  =         0.00000000
  ---------------------------------------------------
  free energy    TOTEN  =       -42.98554630 eV

  energy without entropy =      -42.98554627  energy(sigma->0) =      -42.98554629


--------------------------------------------------------------------------------------------------------




 average (electrostatic) potential at core
  the test charge radii are     1.2296  0.9698
  (the norm of the test charge is              1.0000)
       1 -40.1560       2 -40.1560       3-104.4623       4-104.4623       5-104.4623
       6-104.4623
 
 
 
 E-fermi :   4.2504     XC(G=0):  -9.3284     alpha+bet : -9.9201


 k-point     1 :       0.0000    0.0000    0.0000
  band No.  band energies     occupation 
      1     -10.6563      2.00000
      2     -10.6373      2.00000
      3      -9.4633      2.00000
      4      -9.4294      2.00000
      5      -2.2591      2.00000
      6      -2.0991      2.00000
      7       0.7624      2.00000
      8       0.7625      2.00000
      9       0.7630      2.00000
     10       0.7630      2.00000
     11       1.3567      2.00000
     12       1.8692      2.00000
     13       1.8692      2.00000
     14       1.8710      2.00000
     15       1.8711      2.00000
     16       1.9161      2.00000
     17       3.1608      2.00000
     18       3.5287      2.00000
     19       6.1123      0.00000
     20       6.1141      0.00000
     21       6.1471      0.00000
     22       6.2902      0.00000

 k-point     2 :       0.0128    0.0000    0.0000
  band No.  band energies     occupation 
      1     -10.6540      2.00000
      2     -10.6350      2.00000
      3      -9.4622      2.00000
      4      -9.4283      2.00000
      5      -2.2563      2.00000
      6      -2.0963      2.00000
      7       0.7569      2.00000
      8       0.7574      2.00000
      9       0.7650      2.00000
     10       0.7655      2.00000
     11       1.3432      2.00000
     12       1.7980      2.00000
     13       1.8652      2.00000
     14       1.8670      2.00000
     15       1.8814      2.00000
     16       1.9835      2.00000
     17       3.1603      2.00000
     18       3.5269      2.00000
     19       6.1099      0.00000
     20       6.1194      0.00000
     21       6.1284      0.00000
     22       6.2186      0.00000

 k-point     3 :       0.0256    0.0000    0.0000
  band No.  band energies     occupation 
      1     -10.6471      2.00000
      2     -10.6281      2.00000
      3      -9.4588      2.00000
      4      -9.4251      2.00000
      5      -2.2480      2.00000
      6      -2.0880      2.00000
      7       0.7403      2.00000
      8       0.7408      2.00000
      9       0.7727      2.00000
     10       0.7732      2.00000
     11       1.3056      2.00000
     12       1.7049      2.00000
     13       1.8530      2.00000
     14       1.8549      2.00000
     15       1.9096      2.00000
     16       2.0655      2.00000
     17       3.1590      2.00000
     18       3.5211      2.00000
     19       6.0993      0.00000
     20       6.1266      0.00000
     21       6.1823      0.00000
     22       6.2690      0.00000

 k-point     4 :       0.0385    0.0000    0.0000
  band No.  band energies     occupation 
      1     -10.6356      2.00000
      2     -10.6166      2.00000
      3      -9.4532      2.00000
      4      -9.4196      2.00000
      5      -2.2342      2.00000
      6      -2.0743      2.00000
      7       0.7130      2.00000
      8       0.7136      2.00000
      9       0.7854      2.00000
     10       0.7860      2.00000
     11       1.2504      2.00000
     12       1.6083      2.00000
     13       1.8331      2.00000
     14       1.8350      2.00000
     15       1.9486      2.00000
     16       2.1431      2.00000
     17       3.1565      2.00000
     18       3.5115      2.00000
     19       6.0755      0.00000
     20       6.0829      0.00000
     21       6.1654      0.00000
     22       6.1915      0.00000

 k-point     5 :       0.0513    0.0000    0.0000
  band No.  band energies     occupation 
      1     -10.6195      2.00000
      2     -10.6006      2.00000
      3      -9.4455      2.00000
      4      -9.4120      2.00000
      5      -2.2150      2.00000
      6      -2.0553      2.00000
      7       0.6755      2.00000
      8       0.6762      2.00000
      9       0.8031      2.00000
     10       0.8038      2.00000
     11       1.1836      2.00000
     12       1.5094      2.00000
     13       1.8057      2.00000
     14       1.8077      2.00000
     15       1.9924      2.00000
     16       2.2148      2.00000
     17       3.1527      2.00000
     18       3.4975      2.00000
     19       6.0491      0.00000
     20       6.0628      0.00000
     21       6.1859      0.00000
     22       6.2050      0.00000

 k-point     6 :       0.0641    0.0000    0.0000
  band No.  band energies     occupation 
      1     -10.5990      2.00000
      2     -10.5801      2.00000
      3      -9.4355      2.00000
      4      -9.4023      2.00000
      5      -2.1907      2.00000
      6      -2.0311      2.00000
      7       0.6285      2.00000
      8       0.6293      2.00000
      9       0.8258      2.00000
     10       0.8265      2.00000
     11       1.1090      2.00000
     12       1.4089      2.00000
     13       1.7714      2.00000
     14       1.7734      2.00000
     15       2.0366      2.00000
     16       2.2793      2.00000
     17       3.1471      2.00000
     18       3.4791      2.00000
     19       6.0504      0.00000
     20       6.0966      0.00000
     21       6.1733      0.00000
     22       6.2251      0.00000

 k-point     7 :       0.0769    0.0000    0.0000
  band No.  band energies     occupation 
      1     -10.5740      2.00000
      2     -10.5551      2.00000
      3      -9.4234      2.00000
      4      -9.3905      2.00000
      5      -2.1615      2.00000
      6      -2.0022      2.00000
      7       0.5729      2.00000
      8       0.5738      2.00000
      9       0.8533      2.00000
     10       0.8541      2.00000
     11       1.0291      2.00000
     12       1.3069      2.00000
     13       1.7308      2.00000
     14       1.7329      2.00000
     15       2.0781      2.00000
     16       2.3356      2.00000
     17       3.1394      2.00000
     18       3.4557      2.00000
     19       5.9817      0.00000
     20       6.0185      0.00000
     21       6.0840      0.00000
     22       6.2170      0.00000

 k-point     8 :       0.0897    0.0000    0.0000
  band No.  band energies     occupation 
      1     -10.5446      2.00000
      2     -10.5258      2.00000
      3      -9.4092      2.00000
      4      -9.3767      2.00000
      5      -2.1277      2.00000
      6      -1.9686      2.00000
      7       0.5095      2.00000
      8       0.5106      2.00000
      9       0.8854      2.00000
     10       0.8863      2.00000
     11       0.9456      2.00000
     12       1.2040      2.00000
     13       1.6845      2.00000
     14       1.6868      2.00000
     15       2.1147      2.00000
     16       2.3828      2.00000
     17       3.1288      2.00000
     18       3.4270      2.00000
     19       5.9733      0.00000
     20       5.9858      0.00000
     21       6.0337      0.00000
     22       6.1729      0.00000

 k-point     9 :       0.1026    0.0000    0.0000
  band No.  band energies     occupation 
      1     -10.5111      2.00000
      2     -10.4923      2.00000
      3      -9.3930      2.00000
      4      -9.3609      2.00000
      5      -2.0896      2.00000
      6      -1.9310      2.00000
      7       0.4393      2.00000
      8       0.4409      2.00000
      9       0.8594      2.00000
     10       0.9221      2.00000
     11       0.9231      2.00000
     12       1.1002      2.00000
     13       1.6333      2.00000
     14       1.6357      2.00000
     15       2.1449      2.00000
     16       2.4198      2.00000
     17       3.1149      2.00000
     18       3.3927      2.00000
     19       5.9055      0.00000
     20       5.9303      0.00000
     21       5.9630      0.00000
     22       6.0569      0.00000

 k-point    10 :       0.1154    0.0000    0.0000
  band No.  band energies     occupation 
      1     -10.4734      2.00000
      2     -10.4547      2.00000
      3      -9.3748      2.00000
      4      -9.3431      2.00000
      5      -2.0478      2.00000
      6      -1.8898      2.00000
      7       0.3636      2.00000
      8       0.3658      2.00000
      9       0.7712      2.00000
     10       0.9631      2.00000
     11       0.9642      2.00000
     12       0.9957      2.00000
     13       1.5779      2.00000
     14       1.5804      2.00000
     15       2.1677      2.00000
     16       2.4460      2.00000
     17       3.0970      2.00000
     18       3.3523      2.00000
     19       5.8168      0.00000
     20       5.9353      0.00000
     21       5.9645      0.00000
     22       5.9855      0.00000

 k-point    11 :       0.1282    0.0000    0.0000
  band No.  band energies     occupation 
      1     -10.4317      2.00000
      2     -10.4132      2.00000
      3      -9.3547      2.00000
      4      -9.3235      2.00000
      5      -2.0027      2.00000
      6      -1.8456      2.00000
      7       0.2836      2.00000
      8       0.2865      2.00000
      9       0.6814      2.00000
     10       0.8908      2.00000
     11       1.0082      2.00000
     12       1.0094      2.00000
     13       1.5190      2.00000
     14       1.5216      2.00000
     15       2.1821      2.00000
     16       2.4611      2.00000
     17       3.0743      2.00000
     18       3.3057      2.00000
     19       5.7341      0.00000
     20       5.8746      0.00000
     21       5.9412      0.00000
     22       6.0048      0.00000

 k-point    12 :       0.1410    0.0000    0.0000
  band No.  band energies     occupation 
      1     -10.3862      2.00000
      2     -10.3678      2.00000
      3      -9.3328      2.00000
      4      -9.3021      2.00000
      5      -1.9552      2.00000
      6      -1.7993      2.00000
      7       0.2003      2.00000
      8       0.2043      2.00000
      9       0.5902      2.00000
     10       0.7854      2.00000
     11       1.0572      2.00000
     12       1.0586      2.00000
     13       1.4573      2.00000
     14       1.4600      2.00000
     15       2.1879      2.00000
     16       2.4648      2.00000
     17       3.0462      2.00000
     18       3.2528      2.00000
     19       5.6585      0.00000
     20       5.8672      0.00000
     21       5.9065      0.00000
     22       6.0149      0.00000

 k-point    13 :       0.1538    0.0000    0.0000
  band No.  band energies     occupation 
      1     -10.3370      2.00000
      2     -10.3187      2.00000
      3      -9.3091      2.00000
      4      -9.2790      2.00000
      5      -1.9061      2.00000
      6      -1.7518      2.00000
      7       0.1152      2.00000
      8       0.1206      2.00000
      9       0.4980      2.00000
     10       0.6797      2.00000
     11       1.1097      2.00000
     12       1.1113      2.00000
     13       1.3934      2.00000
     14       1.3962      2.00000
     15       2.1850      2.00000
     16       2.4576      2.00000
     17       3.0124      2.00000
     18       3.1940      2.00000
     19       5.6001      0.00000
     20       5.8186      0.00000
     21       5.8759      0.00000
     22       5.9677      0.00000

 k-point    14 :       0.1667    0.0000    0.0000
  band No.  band energies     occupation 
      1     -10.2844      2.00000
      2     -10.2662      2.00000
      3      -9.2838      2.00000
      4      -9.2544      2.00000
      5      -1.8563      2.00000
      6      -1.7043      2.00000
      7       0.0296      2.00000
      8       0.0369      2.00000
      9       0.4049      2.00000
     10       0.5738      2.00000
     11       1.1656      2.00000
     12       1.1673      2.00000
     13       1.3280      2.00000
     14       1.3308      2.00000
     15       2.1736      2.00000
     16       2.4400      2.00000
     17       2.9726      2.00000
     18       3.1296      2.00000
     19       5.5216      0.00000
     20       5.7896      0.00000
     21       5.8723      0.00000
     22       5.9524      0.00000

 k-point    15 :       0.1795    0.0000    0.0000
  band No.  band energies     occupation 
      1     -10.2285      2.00000
      2     -10.2105      2.00000
      3      -9.2570      2.00000
      4      -9.2282      2.00000
      5      -1.8073      2.00000
      6      -1.6582      2.00000
      7      -0.0551      2.00000
      8      -0.0452      2.00000
      9       0.3110      2.00000
     10       0.4677      2.00000
     11       1.2244      2.00000
     12       1.2263      2.00000
     13       1.2616      2.00000
     14       1.2645      2.00000
     15       2.1543      2.00000
     16       2.4131      2.00000
     17       2.9269      2.00000
     18       3.0604      2.00000
     19       5.4670      0.00000
     20       5.7524      0.00000
     21       5.8812      0.00000
     22       5.9094      0.00000

 k-point    16 :       0.1923    0.0000    0.0000
  band No.  band energies     occupation 
      1     -10.1696      2.00000
      2     -10.1517      2.00000
      3      -9.2288      2.00000
      4      -9.2007      2.00000
      5      -1.7605      2.00000
      6      -1.6153      2.00000
      7      -0.1372      2.00000
      8      -0.1240      2.00000
      9       0.2165      2.00000
     10       0.3617      2.00000
     11       1.1947      2.00000
     12       1.1977      2.00000
     13       1.2858      2.00000
     14       1.2879      2.00000
     15       2.1280      2.00000
     16       2.3781      2.00000
     17       2.8756      2.00000
     18       2.9876      2.00000
     19       5.4232      0.00000
     20       5.7136      0.00000
     21       5.8556      0.00000
     22       5.8906      0.00000

 k-point    17 :       0.2051    0.0000    0.0000
  band No.  band energies     occupation 
      1     -10.1079      2.00000
      2     -10.0902      2.00000
      3      -9.1993      2.00000
      4      -9.1720      2.00000
      5      -1.7177      2.00000
      6      -1.5777      2.00000
      7      -0.2152      2.00000
      8      -0.1975      2.00000
      9       0.1215      2.00000
     10       0.2557      2.00000
     11       1.1278      2.00000
     12       1.1310      2.00000
     13       1.3494      2.00000
     14       1.3518      2.00000
     15       2.0958      2.00000
     16       2.3363      2.00000
     17       2.8198      2.00000
     18       2.9125      2.00000
     19       5.3903      0.00000
     20       5.6942      0.00000
     21       5.8090      0.00000
     22       5.8256      0.00000

 k-point    18 :       0.2179    0.0000    0.0000
  band No.  band energies     occupation 
      1     -10.0437      2.00000
      2     -10.0263      2.00000
      3      -9.1687      2.00000
      4      -9.1422      2.00000
      5      -1.6810      2.00000
      6      -1.5477      2.00000
      7      -0.2871      2.00000
      8      -0.2638      2.00000
      9       0.0262      2.00000
     10       0.1501      2.00000
     11       1.0614      2.00000
     12       1.0647      2.00000
     13       1.4147      2.00000
     14       1.4174      2.00000
     15       2.0588      2.00000
     16       2.2894      2.00000
     17       2.7606      2.00000
     18       2.8366      2.00000
     19       5.3676      0.00000
     20       5.6784      0.00000
     21       5.7701      0.00000
     22       5.7910      0.00000

 k-point    19 :       0.2308    0.0000    0.0000
  band No.  band energies     occupation 
      1      -9.9773      2.00000
      2      -9.9601      2.00000
      3      -9.1371      2.00000
      4      -9.1115      2.00000
      5      -1.6526      2.00000
      6      -1.5276      2.00000
      7      -0.3513      2.00000
      8      -0.3209      2.00000
      9      -0.0693      2.00000
     10       0.0449      2.00000
     11       0.9959      2.00000
     12       0.9992      2.00000
     13       1.4815      2.00000
     14       1.4844      2.00000
     15       2.0182      2.00000
     16       2.2386      2.00000
     17       2.6995      2.00000
     18       2.7619      2.00000
     19       5.3553      0.00000
     20       5.6681      0.00000
     21       5.7275      0.00000
     22       5.7452      0.00000

 k-point    20 :       0.2436    0.0000    0.0000
  band No.  band energies     occupation 
      1      -9.9090      2.00000
      2      -9.8921      2.00000
      3      -9.1048      2.00000
      4      -9.0800      2.00000
      5      -1.6346      2.00000
      6      -1.5197      2.00000
      7      -0.4061      2.00000
      8      -0.3672      2.00000
      9      -0.1646      2.00000
     10      -0.0596      2.00000
     11       0.9316      2.00000
     12       0.9350      2.00000
     13       1.5490      2.00000
     14       1.5523      2.00000
     15       1.9752      2.00000
     16       2.1853      2.00000
     17       2.6384      2.00000
     18       2.6903      2.00000
     19       5.3527      0.00000
     20       5.6653      0.00000
     21       5.6881      0.00000
     22       5.7031      0.00000

 k-point    21 :       0.2564    0.0000    0.0000
  band No.  band energies     occupation 
      1      -9.8392      2.00000
      2      -9.8226      2.00000
      3      -9.0718      2.00000
      4      -9.0480      2.00000
      5      -1.6289      2.00000
      6      -1.5253      2.00000
      7      -0.4505      2.00000
      8      -0.4022      2.00000
      9      -0.2595      2.00000
     10      -0.1630      2.00000
     11       0.8688      2.00000
     12       0.8723      2.00000
     13       1.6169      2.00000
     14       1.6206      2.00000
     15       1.9309      2.00000
     16       2.1306      2.00000
     17       2.5792      2.00000
     18       2.6238      2.00000
     19       5.3591      0.00000
     20       5.6531      0.00000
     21       5.6682      0.00000
     22       5.6757      0.00000

 k-point    22 :       0.2692    0.0000    0.0000
  band No.  band energies     occupation 
      1      -9.7682      2.00000
      2      -9.7520      2.00000
      3      -9.0384      2.00000
      4      -9.0155      2.00000
      5      -1.6364      2.00000
      6      -1.5446      2.00000
      7      -0.4841      2.00000
      8      -0.4264      2.00000
      9      -0.3536      2.00000
     10      -0.2651      2.00000
     11       0.8078      2.00000
     12       0.8114      2.00000
     13       1.6847      2.00000
     14       1.6888      2.00000
     15       1.8863      2.00000
     16       2.0757      2.00000
     17       2.5240      2.00000
     18       2.5643      2.00000
     19       5.3734      0.00000
     20       5.6206      0.00000
     21       5.6351      0.00000
     22       5.6755      0.00000

 k-point    23 :       0.2821    0.0000    0.0000
  band No.  band energies     occupation 
      1      -9.6965      2.00000
      2      -9.6807      2.00000
      3      -9.0048      2.00000
      4      -8.9829      2.00000
      5      -1.6570      2.00000
      6      -1.5768      2.00000
      7      -0.5079      2.00000
      8      -0.4466      2.00000
      9      -0.4415      2.00000
     10      -0.3655      2.00000
     11       0.7490      2.00000
     12       0.7526      2.00000
     13       1.7518      2.00000
     14       1.7564      2.00000
     15       1.8422      2.00000
     16       2.0214      2.00000
     17       2.4748      2.00000
     18       2.5135      2.00000
     19       5.3950      0.00000
     20       5.5917      0.00000
     21       5.6057      0.00000
     22       5.6873      0.00000

 k-point    24 :       0.2949    0.0000    0.0000
  band No.  band energies     occupation 
      1      -9.6245      2.00000
      2      -9.6091      2.00000
      3      -8.9712      2.00000
      4      -8.9503      2.00000
      5      -1.6894      2.00000
      6      -1.6197      2.00000
      7      -0.5381      2.00000
      8      -0.5239      2.00000
      9      -0.4638      2.00000
     10      -0.4502      2.00000
     11       0.6924      2.00000
     12       0.6961      2.00000
     13       1.7994      2.00000
     14       1.8178      2.00000
     15       1.8228      2.00000
     16       1.9684      2.00000
     17       2.4338      2.00000
     18       2.4727      2.00000
     19       5.4227      0.00000
     20       5.5663      0.00000
     21       5.5799      0.00000
     22       5.7029      0.00000

 k-point    25 :       0.3077    0.0000    0.0000
  band No.  band energies     occupation 
      1      -9.5526      2.00000
      2      -9.5377      2.00000
      3      -8.9378      2.00000
      4      -8.9179      2.00000
      5      -1.7316      2.00000
      6      -1.6711      2.00000
      7      -0.6275      2.00000
      8      -0.5595      2.00000
      9      -0.5345      2.00000
     10      -0.4553      2.00000
     11       0.6384      2.00000
     12       0.6422      2.00000
     13       1.7584      2.00000
     14       1.8820      2.00000
     15       1.8875      2.00000
     16       1.9172      2.00000
     17       2.4025      2.00000
     18       2.4430      2.00000
     19       5.4557      0.00000
     20       5.5445      0.00000
     21       5.5575      0.00000
     22       5.7218      0.00000

 k-point    26 :       0.3205    0.0000    0.0000
  band No.  band energies     occupation 
      1      -9.4814      2.00000
      2      -9.4670      2.00000
      3      -8.9048      2.00000
      4      -8.8860      2.00000
      5      -1.7813      2.00000
      6      -1.7283      2.00000
      7      -0.7145      2.00000
      8      -0.6522      2.00000
      9      -0.5425      2.00000
     10      -0.4597      2.00000
     11       0.5872      2.00000
     12       0.5910      2.00000
     13       1.7197      2.00000
     14       1.8684      2.00000
     15       1.9440      2.00000
     16       1.9500      2.00000
     17       2.3823      2.00000
     18       2.4249      2.00000
     19       5.4930      0.00000
     20       5.5264      0.00000
     21       5.5387      0.00000
     22       5.7436      0.00000

 k-point    27 :       0.3333    0.0000    0.0000
  band No.  band energies     occupation 
      1      -9.4113      2.00000
      2      -9.3974      2.00000
      3      -8.8726      2.00000
      4      -8.8549      2.00000
      5      -1.8361      2.00000
      6      -1.7892      2.00000
      7      -0.7984      2.00000
      8      -0.7414      2.00000
      9      -0.5500      2.00000
     10      -0.4653      2.00000
     11       0.5388      2.00000
     12       0.5426      2.00000
     13       1.6837      2.00000
     14       1.8223      2.00000
     15       2.0034      2.00000
     16       2.0099      2.00000
     17       2.3736      2.00000
     18       2.4186      2.00000
     19       5.5120      0.00000
     20       5.5236      0.00000
     21       5.5340      0.00000
     22       5.7678      0.00000

 k-point    28 :       0.3462    0.0000    0.0000
  band No.  band energies     occupation 
      1      -9.3430      2.00000
      2      -9.3297      2.00000
      3      -8.8414      2.00000
      4      -8.8247      2.00000
      5      -1.8939      2.00000
      6      -1.8519      2.00000
      7      -0.8788      2.00000
      8      -0.8266      2.00000
      9      -0.5588      2.00000
     10      -0.4734      2.00000
     11       0.4935      2.00000
     12       0.4973      2.00000
     13       1.6506      2.00000
     14       1.7791      2.00000
     15       2.0596      2.00000
     16       2.0667      2.00000
     17       2.3764      2.00000
     18       2.4236      2.00000
     19       5.5011      0.00000
     20       5.5119      0.00000
     21       5.5777      0.00000
     22       5.7935      0.00000

 k-point    29 :       0.3590    0.0000    0.0000
  band No.  band energies     occupation 
      1      -9.2769      2.00000
      2      -9.2643      2.00000
      3      -8.8113      2.00000
      4      -8.7957      2.00000
      5      -1.9528      2.00000
      6      -1.9146      2.00000
      7      -0.9551      2.00000
      8      -0.9073      2.00000
      9      -0.5698      2.00000
     10      -0.4846      2.00000
     11       0.4513      2.00000
     12       0.4552      2.00000
     13       1.6206      2.00000
     14       1.7389      2.00000
     15       2.1123      2.00000
     16       2.1200      2.00000
     17       2.3901      2.00000
     18       2.4391      2.00000
     19       5.4935      0.00000
     20       5.5036      0.00000
     21       5.6234      0.00000
     22       5.8209      0.00000

 k-point    30 :       0.3718    0.0000    0.0000
  band No.  band energies     occupation 
      1      -9.2138      2.00000
      2      -9.2018      2.00000
      3      -8.7827      2.00000
      4      -8.7682      2.00000
      5      -2.0113      2.00000
      6      -1.9760      2.00000
      7      -1.0268      2.00000
      8      -0.9830      2.00000
      9      -0.5832      2.00000
     10      -0.4989      2.00000
     11       0.4125      2.00000
     12       0.4164      2.00000
     13       1.5937      2.00000
     14       1.7018      2.00000
     15       2.1612      2.00000
     16       2.1695      2.00000
     17       2.4134      2.00000
     18       2.4634      2.00000
     19       5.4890      0.00000
     20       5.4982      0.00000
     21       5.6703      0.00000
     22       5.8491      0.00000

 k-point    31 :       0.3846    0.0000    0.0000
  band No.  band energies     occupation 
      1      -9.1542      2.00000
      2      -9.1428      2.00000
      3      -8.7559      2.00000
      4      -8.7425      2.00000
      5      -2.0679      2.00000
      6      -2.0349      2.00000
      7      -1.0935      2.00000
      8      -1.0532      2.00000
      9      -0.5989      2.00000
     10      -0.5159      2.00000
     11       0.3770      2.00000
     12       0.3810      2.00000
     13       1.5700      2.00000
     14       1.6679      2.00000
     15       2.2059      2.00000
     16       2.2148      2.00000
     17       2.4446      2.00000
     18       2.4947      2.00000
     19       5.4872      0.00000
     20       5.4956      0.00000
     21       5.7176      0.00000
     22       5.8779      0.00000

 k-point    32 :       0.3974    0.0000    0.0000
  band No.  band energies     occupation 
      1      -9.0986      2.00000
      2      -9.0880      2.00000
      3      -8.7310      2.00000
      4      -8.7187      2.00000
      5      -2.1217      2.00000
      6      -2.0904      2.00000
      7      -1.1545      2.00000
      8      -1.1175      2.00000
[...]
     12       1.0776      2.00000
     13       1.3052      2.00000
     14       1.3127      2.00000
     15       2.2835      2.00000
     16       2.5443      2.00000
     17       3.0312      2.00000
     18       3.2243      2.00000
     19       5.6154      0.00000
     20       5.7943      0.00000
     21       5.8494      0.00000
     22       5.8855      0.00000

 k-point   111 :       0.0769    0.0769    0.0000
  band No.  band energies     occupation 
      1     -10.4143      2.00000
      2     -10.3957      2.00000
      3      -9.3463      2.00000
      4      -9.3152      2.00000
      5      -1.9831      2.00000
      6      -1.8263      2.00000
      7       0.2555      2.00000
      8       0.2564      2.00000
      9       0.6715      2.00000
     10       0.8855      2.00000
     11       1.0216      2.00000
     12       1.0226      2.00000
     13       1.4125      2.00000
     14       1.4184      2.00000
     15       2.2531      2.00000
     16       2.5205      2.00000
     17       3.0654      2.00000
     18       3.2874      2.00000
     19       5.7045      0.00000
     20       5.8234      0.00000
     21       5.8897      0.00000
     22       5.9001      0.00000

 k-point   112 :       0.0684    0.0684    0.0000
  band No.  band energies     occupation 
      1     -10.4638      2.00000
      2     -10.4452      2.00000
      3      -9.3702      2.00000
      4      -9.3386      2.00000
      5      -2.0367      2.00000
      6      -1.8789      2.00000
      7       0.3479      2.00000
      8       0.3483      2.00000
      9       0.7660      2.00000
     10       0.9704      2.00000
     11       0.9713      2.00000
     12       0.9947      2.00000
     13       1.5092      2.00000
     14       1.5139      2.00000
     15       2.2169      2.00000
     16       2.4872      2.00000
     17       3.0928      2.00000
     18       3.3427      2.00000
     19       5.8029      0.00000
     20       5.9096      0.00000
     21       5.9755      0.00000
     22       6.0845      0.00000

 k-point   113 :       0.0598    0.0598    0.0000
  band No.  band energies     occupation 
      1     -10.5081      2.00000
      2     -10.4894      2.00000
      3      -9.3916      2.00000
      4      -9.3594      2.00000
      5      -2.0860      2.00000
      6      -1.9274      2.00000
      7       0.4352      2.00000
      8       0.4353      2.00000
      9       0.8614      2.00000
     10       0.9237      2.00000
     11       0.9245      2.00000
     12       1.1064      2.00000
     13       1.5947      2.00000
     14       1.5985      2.00000
     15       2.1751      2.00000
     16       2.4442      2.00000
     17       3.1139      2.00000
     18       3.3900      2.00000
     19       5.8938      0.00000
     20       5.8991      0.00000
     21       5.9420      0.00000
     22       6.0703      0.00000

 k-point   114 :       0.0513    0.0513    0.0000
  band No.  band energies     occupation 
      1     -10.5469      2.00000
      2     -10.5281      2.00000
      3      -9.4103      2.00000
      4      -9.3777      2.00000
      5      -2.1302      2.00000
      6      -1.9711      2.00000
      7       0.5154      2.00000
      8       0.5156      2.00000
      9       0.8822      2.00000
     10       0.8829      2.00000
     11       0.9565      2.00000
     12       1.2199      2.00000
     13       1.6686      2.00000
     14       1.6717      2.00000
     15       2.1282      2.00000
     16       2.3915      2.00000
     17       3.1298      2.00000
     18       3.4295      2.00000
     19       5.9419      0.00000
     20       5.9804      0.00000
     21       5.9939      0.00000
     22       6.1175      0.00000

 k-point   115 :       0.0427    0.0427    0.0000
  band No.  band energies     occupation 
      1     -10.5800      2.00000
      2     -10.5611      2.00000
      3      -9.4264      2.00000
      4      -9.3934      2.00000
      5      -2.1685      2.00000
      6      -2.0091      2.00000
      7       0.5868      2.00000
      8       0.5871      2.00000
      9       0.8463      2.00000
     10       0.8469      2.00000
     11       1.0497      2.00000
     12       1.3345      2.00000
     13       1.7307      2.00000
     14       1.7333      2.00000
     15       2.0771      2.00000
     16       2.3293      2.00000
     17       3.1414      2.00000
     18       3.4615      2.00000
     19       6.0163      0.00000
     20       6.0569      0.00000
     21       6.1212      0.00000
     22       6.2295      0.00000

 k-point   116 :       0.0342    0.0342    0.0000
  band No.  band energies     occupation 
      1     -10.6073      2.00000
      2     -10.5884      2.00000
      3      -9.4396      2.00000
      4      -9.4063      2.00000
      5      -2.2006      2.00000
      6      -2.0409      2.00000
      7       0.6478      2.00000
      8       0.6482      2.00000
      9       0.8165      2.00000
     10       0.8171      2.00000
     11       1.1389      2.00000
     12       1.4493      2.00000
     13       1.7811      2.00000
     14       1.7833      2.00000
     15       2.0235      2.00000
     16       2.2579      2.00000
     17       3.1495      2.00000
     18       3.4867      2.00000
     19       6.0377      0.00000
     20       6.0652      0.00000
     21       6.1849      0.00000
     22       6.2126      0.00000

 k-point   117 :       0.0256    0.0256    0.0000
  band No.  band energies     occupation 
      1     -10.6287      2.00000
      2     -10.6097      2.00000
      3      -9.4499      2.00000
      4      -9.4164      2.00000
      5      -2.2259      2.00000
      6      -2.0661      2.00000
      7       0.6970      2.00000
      8       0.6975      2.00000
      9       0.7930      2.00000
     10       0.7935      2.00000
     11       1.2207      2.00000
     12       1.5633      2.00000
     13       1.8199      2.00000
     14       1.8219      2.00000
     15       1.9699      2.00000
     16       2.1779      2.00000
     17       3.1549      2.00000
     18       3.5055      2.00000
     19       6.0721      0.00000
     20       6.1169      0.00000
     21       6.1782      0.00000
     22       6.2232      0.00000

 k-point   118 :       0.0171    0.0171    0.0000
  band No.  band energies     occupation 
      1     -10.6440      2.00000
      2     -10.6250      2.00000
      3      -9.4573      2.00000
      4      -9.4236      2.00000
      5      -2.2443      2.00000
      6      -2.0844      2.00000
      7       0.7330      2.00000
      8       0.7335      2.00000
      9       0.7761      2.00000
     10       0.7766      2.00000
     11       1.2901      2.00000
     12       1.6754      2.00000
     13       1.8474      2.00000
     14       1.8493      2.00000
     15       1.9210      2.00000
     16       2.0902      2.00000
     17       3.1583      2.00000
     18       3.5186      2.00000
     19       6.0928      0.00000
     20       6.1005      0.00000
     21       6.1382      0.00000
     22       6.2077      0.00000

 k-point   119 :       0.0085    0.0085    0.0000
  band No.  band energies     occupation 
      1     -10.6533      2.00000
      2     -10.6342      2.00000
      3      -9.4618      2.00000
      4      -9.4280      2.00000
      5      -2.2553      2.00000
      6      -2.0954      2.00000
      7       0.7550      2.00000
      8       0.7555      2.00000
      9       0.7659      2.00000
     10       0.7664      2.00000
     11       1.3388      2.00000
     12       1.7840      2.00000
     13       1.8638      2.00000
     14       1.8656      2.00000
     15       1.8848      2.00000
     16       1.9964      2.00000
     17       3.1602      2.00000
     18       3.5262      2.00000
     19       6.1095      0.00000
     20       6.1144      0.00000
     21       6.1290      0.00000
     22       6.1352      0.00000

 k-point   120 :       0.0000    0.0000    0.0000
  band No.  band energies     occupation 
      1     -10.6563      2.00000
      2     -10.6373      2.00000
      3      -9.4633      2.00000
      4      -9.4294      2.00000
      5      -2.2591      2.00000
      6      -2.0991      2.00000
      7       0.7624      2.00000
      8       0.7625      2.00000
      9       0.7630      2.00000
     10       0.7630      2.00000
     11       1.3567      2.00000
     12       1.8692      2.00000
     13       1.8692      2.00000
     14       1.8710      2.00000
     15       1.8711      2.00000
     16       1.9161      2.00000
     17       3.1608      2.00000
     18       3.5287      2.00000
     19       6.1126      0.00000
     20       6.1155      0.00000
     21       6.1482      0.00000
     22       6.2579      0.00000


--------------------------------------------------------------------------------------------------------


 soft charge-density along one line, spin component           1
         0         1         2         3         4         5         6         7         8         9
 total charge-density along one line
 
 pseudopotential strength for first ion, spin component:           1
 -8.158   0.000   0.000   0.000   0.000   0.000  -0.000   0.000   0.000   0.000  -0.080   0.000  -0.000   0.000  -0.000   0.000
  0.000   0.000  -8.152   0.000  -0.000   0.000  -0.000   0.000   0.000   0.000  -0.000   0.000  -0.081   0.000   0.000   0.000
  0.000   0.000  -0.000   0.000  -8.145   0.000   0.000   0.000  -0.000   0.000  -0.000   0.000   0.000   0.000  -0.081   0.000
 -0.000   0.000  -0.000   0.000   0.000   0.000  -8.152   0.000   0.000   0.000   0.000   0.000   0.000   0.000  -0.000   0.000
  0.000   0.000   0.000   0.000  -0.000   0.000   0.000   0.000  -8.158   0.000  -0.000   0.000  -0.000   0.000   0.000   0.000
 -0.080   0.000  -0.000   0.000  -0.000   0.000   0.000   0.000  -0.000   0.000   0.114   0.000   0.000   0.000   0.000   0.000
 -0.000   0.000  -0.081   0.000   0.000   0.000   0.000   0.000  -0.000   0.000   0.000   0.000   0.114   0.000  -0.000   0.000
 -0.000   0.000   0.000   0.000  -0.081   0.000  -0.000   0.000   0.000   0.000   0.000   0.000  -0.000   0.000   0.114   0.000
  0.000   0.000   0.000   0.000  -0.000   0.000  -0.081   0.000  -0.000   0.000  -0.000   0.000  -0.000   0.000   0.000   0.000
 -0.000   0.000  -0.000   0.000   0.000   0.000  -0.000   0.000  -0.080   0.000   0.000   0.000   0.000   0.000  -0.000   0.000
  0.000   0.000   0.000   0.000  -0.004   0.000  -0.000   0.000  -0.000   0.000  -0.000   0.000  -0.000   0.000   0.000   0.000
 -0.000   0.000  -0.000   0.000   0.001   0.000   0.000   0.000   0.000   0.000   0.000   0.000   0.000   0.000  -0.000   0.000
 -0.000   0.000   0.000   0.000  -0.000   0.000   0.000   0.000  -0.005   0.000   0.000   0.000  -0.000   0.000   0.000   0.000
  0.000   0.000   0.000   0.000   0.000   0.000  -0.000   0.000  -0.000   0.000   0.000   0.000  -0.000   0.000  -0.000   0.000
 -0.005   0.000   0.000   0.000   0.000   0.000   0.000   0.000  -0.000   0.000  -0.000   0.000   0.000   0.000  -0.000   0.000
  0.000   0.000  -0.000   0.000   0.000   0.000  -0.000   0.000   0.002   0.000  -0.000   0.000   0.000   0.000  -0.000   0.000
 -0.000   0.000  -0.000   0.000  -0.000   0.000   0.000   0.000   0.000   0.000   0.000   0.000   0.000   0.000   0.000   0.000
  0.002   0.000  -0.000   0.000  -0.000   0.000  -0.000   0.000   0.000   0.000  -0.000   0.000   0.000   0.000   0.000   0.000
 total augmentation occupancy for first ion, spin component:           1
  1.000   0.000   0.000   0.000   0.000   0.000   0.000   0.000   0.000   0.000   0.000   0.000   0.000   0.000   0.000   0.000
  0.000   1.000   0.000   0.000   0.000   0.000   0.000   0.000   0.000   0.000   0.000   0.000   0.000   0.000   0.000   0.000
  0.000   0.000   1.000   0.000   0.000   0.000   0.000   0.000   0.000   0.000   0.000   0.000   0.000   0.000   0.000   0.000
  0.000   0.000   0.000   1.000   0.000   0.000   0.000   0.000   0.000   0.000   0.000   0.000   0.000   0.000   0.000   0.000
  0.000   0.000   0.000   0.000   1.000   0.000   0.000   0.000   0.000   0.000   0.000   0.000   0.000   0.000   0.000   0.000
  0.000   0.000   0.000   0.000   0.000   0.000   0.000   0.000   0.000   0.000   0.000   0.000   0.000   0.000   0.000   0.000
  0.000   0.000   0.000   0.000   0.000   0.000   0.000   0.000   0.000   0.000   0.000   0.000   0.000   0.000   0.000   0.000
  0.000   0.000   0.000   0.000   0.000   0.000   0.000   0.000   0.000   0.000   0.000   0.000   0.000   0.000   0.000   0.000
  0.000   0.000   0.000   0.000   0.000   0.000   0.000   0.000   0.000   0.000   0.000   0.000   0.000   0.000   0.000   0.000
  0.000   0.000   0.000   0.000   0.000   0.000   0.000   0.000   0.000   0.000   0.000   0.000   0.000   0.000   0.000   0.000
  0.000   0.000   0.000   0.000   0.000   0.000   0.000   0.000   0.000   0.000   1.000   0.000   0.000   0.000   0.000   0.000
  0.000   0.000   0.000   0.000   0.000   0.000   0.000   0.000   0.000   0.000   0.000   0.000   0.000   0.000   0.000   0.000
  0.000   0.000   0.000   0.000   0.000   0.000   0.000   0.000   0.000   0.000   0.000   0.000   0.000   0.000   0.000   0.000
  0.000   0.000   0.000   0.000   0.000   0.000   0.000   0.000   0.000   0.000   0.000   0.000   0.000   0.000   0.000   0.000
  0.000   0.000   0.000   0.000   0.000   0.000   0.000   0.000   0.000   0.000   0.000   0.000   0.000   0.000   0.000   0.000
  0.000   0.000   0.000   0.000   0.000   0.000   0.000   0.000   0.000   0.000   0.000   0.000   0.000   0.000   0.000   0.000
  0.000   0.000   0.000   0.000   0.000   0.000   0.000   0.000   0.000   0.000   0.000   0.000   0.000   0.000   0.000   0.000
  0.000   0.000   0.000   0.000   0.000   0.000   0.000   0.000   0.000   0.000   0.000   0.000   0.000   0.000   0.000   0.000


------------------------ aborting loop because EDIFF is reached ----------------------------------------


    CHARGE:  cpu time    1.4920: real time    1.4963
    FORLOC:  cpu time    0.0241: real time    0.0242
    FORNL :  cpu time    4.6885: real time    4.6998
    STRESS:  cpu time    5.3819: real time    5.3959
    FORCOR:  cpu time    0.1735: real time    0.1739
    FORHAR:  cpu time    0.0509: real time    0.0510
    OFIELD:  cpu time    0.0008: real time    0.0008

  FORCE on cell =-STRESS in cart. coord.  units (eV):
  Direction    XX          YY          ZZ          XY          YZ          ZX
  --------------------------------------------------------------------------------------
  Alpha Z    80.02336    80.02336    80.02336
  Ewald     -12.90877   -12.90777 -1121.07436     0.00076     0.00000     0.00000
  Hartree   470.33156   470.33157  -393.27315     0.00001     0.00000    -0.00000
  E(xc)    -140.87980  -140.87980  -141.98097    -0.00000    -0.00000     0.00000
  Local   -1117.34744 -1117.34807   836.92696    -0.00061     0.00000    -0.00000
  n-local   329.19587   329.03014   343.62745    -0.84342    -0.00002     0.00004
  augment   -83.65759   -83.65743   -87.25118     0.00013     0.00000     0.00000
  Kinetic   470.31279   479.25961   484.82120   -12.48386     0.00003     0.00003
  Fock        0.00000     0.00000     0.00000     0.00000     0.00000     0.00000
  -------------------------------------------------------------------------------------
  Total      -0.53921    -0.53921     1.81933    -0.00000     0.00000     0.00000
  in kB      -6.58711    -6.58711    22.22540    -0.00000     0.00000     0.00000
  external pressure =        3.02 kB  Pullay stress =        0.00 kB


 VOLUME and BASIS-vectors are now :
 -----------------------------------------------------------------------------
  energy-cutoff  :      500.00
  volume of cell :      131.15
      direct lattice vectors                 reciprocal lattice vectors
     3.190316000  0.000000000  0.000000000     0.313448574  0.180969664  0.000000000
    -1.595158000  2.762894000  0.000000000     0.000000000  0.361939329  0.000000000
     0.000000000  0.000000000 14.879004000     0.000000000  0.000000000  0.067208800

  length of vectors
     3.190316000  3.190315392 14.879004000     0.361939260  0.361939329  0.067208800


 FORCES acting on ions
    electron-ion (+dipol)            ewald-force                    non-local-force                 convergence-correction
 -----------------------------------------------------------------------------------------------
   0.951E-05 0.136E-04 -.906E-10   0.186E-03 -.138E-03 0.142E-13   -.173E-17 0.000E+00 -.208E-21   -.169E-05 0.938E-06 -.207E-10
   -.951E-05 -.136E-04 0.898E-10   -.186E-03 0.138E-03 0.114E-12   0.173E-17 0.000E+00 -.529E-22   0.169E-05 -.938E-06 -.109E-10
   -.915E-03 0.519E-03 -.244E+03   -.931E-04 0.690E-04 0.247E+03   0.347E-17 -.694E-17 -.437E+01   -.242E-05 0.162E-05 0.209E+01
   0.915E-03 -.519E-03 -.244E+03   0.931E-04 -.690E-04 0.247E+03   -.347E-17 0.104E-16 -.437E+01   0.242E-05 -.162E-05 0.209E+01
   -.915E-03 0.519E-03 0.244E+03   -.931E-04 0.690E-04 -.247E+03   0.347E-17 -.104E-16 0.437E+01   -.242E-05 0.162E-05 -.209E+01
   0.915E-03 -.519E-03 0.244E+03   0.931E-04 -.690E-04 -.247E+03   -.121E-16 0.694E-17 0.437E+01   0.242E-05 -.162E-05 -.209E+01
 -----------------------------------------------------------------------------------------------
   -.389E-11 -.722E-11 -.188E-11   -.307E-14 -.630E-15 0.114E-12   -.867E-17 0.000E+00 0.000E+00   0.389E-10 -.896E-12 -.229E-10
 
 
 POSITION                                       TOTAL-FORCE (eV/Angst)
 -----------------------------------------------------------------------------------
     -0.00000      1.84193      3.71975        -0.000000     -0.000000     -0.000000
      1.59516      0.92096     11.15925        -0.000000      0.000000     -0.000000
      1.59516      0.92096      5.28464         0.000000     -0.000000      0.059051
     -0.00000      1.84193     12.72414        -0.000000      0.000000      0.059051
      1.59516      0.92096      2.15487         0.000000      0.000000     -0.059051
     -0.00000      1.84193      9.59437        -0.000000      0.000000     -0.059051
 -----------------------------------------------------------------------------------
    total drift:                                0.000000     -0.000000     -0.000000


--------------------------------------------------------------------------------------------------------



  FREE ENERGIE OF THE ION-ELECTRON SYSTEM (eV)
  ---------------------------------------------------
  free  energy   TOTEN  =       -42.98554630 eV

  energy  without entropy=      -42.98554627  energy(sigma->0) =      -42.98554629
 


--------------------------------------------------------------------------------------------------------


    POTLOK:  cpu time    0.1559: real time    0.1562


--------------------------------------------------------------------------------------------------------


     LOOP+:  cpu time  154.2268: real time  154.6669
    4ORBIT:  cpu time    0.0000: real time    0.0000

 total amount of memory used by VASP MPI-rank0   327442. kBytes
=======================================================================

   base      :      30000. kBytes
   nonl-proj :     116236. kBytes
   fftplans  :      14796. kBytes
   grid      :      21772. kBytes
   one-center:         93. kBytes
   wavefun   :     144545. kBytes
 
  
  
 General timing and accounting informations for this job:
 ========================================================
  
                  Total CPU time used (sec):      156.223
                            User time (sec):      155.867
                          System time (sec):        0.356
                         Elapsed time (sec):      156.742
  
                   Maximum memory used (kb):      375264.
                   Average memory used (kb):           0.
  
                          Minor page faults:       105924
                          Major page faults:            0
                 Voluntary context switches:          266
