<?xml version="1.0" encoding="ISO-8859-1"?>
<modeling>
 <generator>
  <i name="program" type="string">vasp </i>
  <i name="version" type="string">5.4.4.18Apr17-6-g9f103f2a35  </i>
  <i name="subversion" type="string">(build May 20 2018 16:52:39) complex            parallel </i>
  <i name="platform" type="string">LinuxIFC </i>
  <i name="date" type="string">2022 11 14 </i>
  <i name="time" type="string">01:01:26 </i>
 </generator>
 <incar>
  <i type="string" name="SYSTEM"> bulk MoS2</i>
  <i type="string" name="PREC">normal</i>
  <i type="int" name="ICHARG">    11</i>
  <i name="EDIFF">      0.00000100</i>
  <i name="ENCUT">    500.00000000</i>
  <i type="int" name="ISMEAR">     0</i>
  <i type="logical" name="LWAVE"> F  </i>
  <i type="logical" name="LCHARG"> F  </i>
  <v type="int" name="KPOINT_BSE">    -1     0     0     0</v>
 </incar>
 <structure name="primitive_cell" >
  <crystal>
   <varray name="basis" >
    <v>       3.19031600       0.00000000       0.00000000 </v>
    <v>      -1.59515800       2.76289400       0.00000000 </v>
    <v>       0.00000000       0.00000000      14.87900400 </v>
   </varray>
   <i name="volume">    131.15105418 </i>
   <varray name="rec_basis" >
    <v>       0.31344857       0.18096966       0.00000000 </v>
    <v>       0.00000000       0.36193933       0.00000000 </v>
    <v>       0.00000000       0.00000000       0.06720880 </v>
   </varray>
  </crystal>
  <varray name="positions" >
   <v>       0.33333300      -0.33333300       0.25000000 </v>
   <v>      -0.33333300       0.33333300       0.35517400 </v>
   <v>      -0.33333300       0.33333300       0.14482600 </v>
   <v>       0.33333300      -0.33333300      -0.14482600 </v>
   <v>       0.33333300      -0.33333300      -0.35517400 </v>
   <v>      -0.33333300       0.33333300      -0.25000000 </v>
  </varray>
 </structure>
 <varray name="primitive_index" >
  <v type="int" >        1 </v>
  <v type="int" >        3 </v>
  <v type="int" >        5 </v>
  <v type="int" >        4 </v>
  <v type="int" >        6 </v>
  <v type="int" >        2 </v>
 </varray>
 <kpoints>
  <generation param="listgenerated">
   <i name="divisions" type="int">      40 </i>
   <v>       0.00000000       0.00000000       0.00000000 </v>
   <v>       0.50000000       0.00000000       0.00000000 </v>
   <v>       0.33333333       0.33333333       0.00000000 </v>
   <v>       0.00000000       0.00000000       0.00000000 </v>
  </generation>
  <varray name="kpointlist" >
   <v>       0.00000000       0.00000000       0.00000000 </v>
   <v>       0.01282051       0.00000000       0.00000000 </v>
   <v>       0.02564103       0.00000000       0.00000000 </v>
   <v>       0.03846154       0.00000000       0.00000000 </v>
   <v>       0.05128205       0.00000000       0.00000000 </v>
   <v>       0.06410256       0.00000000       0.00000000 </v>
   <v>       0.07692308       0.00000000       0.00000000 </v>
   <v>       0.08974359       0.00000000       0.00000000 </v>
   <v>       0.10256410       0.00000000       0.00000000 </v>
   <v>       0.11538462       0.00000000       0.00000000 </v>
   <v>       0.12820513       0.00000000       0.00000000 </v>
   <v>       0.14102564       0.00000000       0.00000000 </v>
   <v>       0.15384615       0.00000000       0.00000000 </v>
   <v>       0.16666667       0.00000000       0.00000000 </v>
   <v>       0.17948718       0.00000000       0.00000000 </v>
   <v>       0.19230769       0.00000000       0.00000000 </v>
   <v>       0.20512821       0.00000000       0.00000000 </v>
   <v>       0.21794872       0.00000000       0.00000000 </v>
   <v>       0.23076923       0.00000000       0.00000000 </v>
   <v>       0.24358974       0.00000000       0.00000000 </v>
   <v>       0.25641026       0.00000000       0.00000000 </v>
   <v>       0.26923077       0.00000000       0.00000000 </v>
   <v>       0.28205128       0.00000000       0.00000000 </v>
   <v>       0.29487179       0.00000000       0.00000000 </v>
   <v>       0.30769231       0.00000000       0.00000000 </v>
   <v>       0.32051282       0.00000000       0.00000000 </v>
   <v>       0.33333333       0.00000000       0.00000000 </v>
   <v>       0.34615385       0.00000000       0.00000000 </v>
   <v>       0.35897436       0.00000000       0.00000000 </v>
   <v>       0.37179487       0.00000000       0.00000000 </v>
   <v>       0.38461538       0.00000000       0.00000000 </v>
   <v>       0.39743590       0.00000000       0.00000000 </v>
   <v>       0.41025641       0.00000000       0.00000000 </v>
   <v>       0.42307692       0.00000000       0.00000000 </v>
   <v>       0.43589744       0.00000000       0.00000000 </v>
   <v>       0.44871795       0.00000000       0.00000000 </v>
   <v>       0.46153846       0.00000000       0.00000000 </v>
   <v>       0.47435897       0.00000000       0.00000000 </v>
   <v>       0.48717949       0.00000000       0.00000000 </v>
   <v>       0.50000000       0.00000000       0.00000000 </v>
   <v>       0.50000000       0.00000000       0.00000000 </v>
   <v>       0.49572650       0.00854701       0.00000000 </v>
   <v>       0.49145299       0.01709402       0.00000000 </v>
   <v>       0.48717949       0.02564103       0.00000000 </v>
   <v>       0.48290598       0.03418803       0.00000000 </v>
   <v>       0.47863248       0.04273504       0.00000000 </v>
   <v>       0.47435897       0.05128205       0.00000000 </v>
   <v>       0.47008547       0.05982906       0.00000000 </v>
   <v>       0.46581197       0.06837607       0.00000000 </v>
   <v>       0.46153846       0.07692308       0.00000000 </v>
   <v>       0.45726496       0.08547009       0.00000000 </v>
   <v>       0.45299145       0.09401709       0.00000000 </v>
   <v>       0.44871795       0.10256410       0.00000000 </v>
   <v>       0.44444444       0.11111111       0.00000000 </v>
   <v>       0.44017094       0.11965812       0.00000000 </v>
   <v>       0.43589744       0.12820513       0.00000000 </v>
   <v>       0.43162393       0.13675214       0.00000000 </v>
   <v>       0.42735043       0.14529915       0.00000000 </v>
   <v>       0.42307692       0.15384615       0.00000000 </v>
   <v>       0.41880342       0.16239316       0.00000000 </v>
   <v>       0.41452991       0.17094017       0.00000000 </v>
   <v>       0.41025641       0.17948718       0.00000000 </v>
   <v>       0.40598291       0.18803419       0.00000000 </v>
   <v>       0.40170940       0.19658120       0.00000000 </v>
   <v>       0.39743590       0.20512821       0.00000000 </v>
   <v>       0.39316239       0.21367521       0.00000000 </v>
   <v>       0.38888889       0.22222222       0.00000000 </v>
   <v>       0.38461538       0.23076923       0.00000000 </v>
   <v>       0.38034188       0.23931624       0.00000000 </v>
   <v>       0.37606838       0.24786325       0.00000000 </v>
   <v>       0.37179487       0.25641026       0.00000000 </v>
   <v>       0.36752137       0.26495726       0.00000000 </v>
   <v>       0.36324786       0.27350427       0.00000000 </v>
   <v>       0.35897436       0.28205128       0.00000000 </v>
   <v>       0.35470085       0.29059829       0.00000000 </v>
   <v>       0.35042735       0.29914530       0.00000000 </v>
   <v>       0.34615385       0.30769231       0.00000000 </v>
   <v>       0.34188034       0.31623932       0.00000000 </v>
   <v>       0.33760684       0.32478632       0.00000000 </v>
   <v>       0.33333333       0.33333333       0.00000000 </v>
   <v>       0.33333333       0.33333333       0.00000000 </v>
   <v>       0.32478632       0.32478632       0.00000000 </v>
   <v>       0.31623932       0.31623932       0.00000000 </v>
   <v>       0.30769231       0.30769231       0.00000000 </v>
   <v>       0.29914530       0.29914530       0.00000000 </v>
   <v>       0.29059829       0.29059829       0.00000000 </v>
   <v>       0.28205128       0.28205128       0.00000000 </v>
   <v>       0.27350427       0.27350427       0.00000000 </v>
   <v>       0.26495726       0.26495726       0.00000000 </v>
   <v>       0.25641026       0.25641026       0.00000000 </v>
   <v>       0.24786325       0.24786325       0.00000000 </v>
   <v>       0.23931624       0.23931624       0.00000000 </v>
   <v>       0.23076923       0.23076923       0.00000000 </v>
   <v>       0.22222222       0.22222222       0.00000000 </v>
   <v>       0.21367521       0.21367521       0.00000000 </v>
   <v>       0.20512821       0.20512821       0.00000000 </v>
   <v>       0.19658120       0.19658120       0.00000000 </v>
   <v>       0.18803419       0.18803419       0.00000000 </v>
   <v>       0.17948718       0.17948718       0.00000000 </v>
   <v>       0.17094017       0.17094017       0.00000000 </v>
   <v>       0.16239316       0.16239316       0.00000000 </v>
   <v>       0.15384615       0.15384615       0.00000000 </v>
   <v>       0.14529915       0.14529915       0.00000000 </v>
   <v>       0.13675214       0.13675214       0.00000000 </v>
   <v>       0.12820513       0.12820513       0.00000000 </v>
   <v>       0.11965812       0.11965812       0.00000000 </v>
   <v>       0.11111111       0.11111111       0.00000000 </v>
   <v>       0.10256410       0.10256410       0.00000000 </v>
   <v>       0.09401709       0.09401709       0.00000000 </v>
   <v>       0.08547009       0.08547009       0.00000000 </v>
   <v>       0.07692308       0.07692308       0.00000000 </v>
   <v>       0.06837607       0.06837607       0.00000000 </v>
   <v>       0.05982906       0.05982906       0.00000000 </v>
   <v>       0.05128205       0.05128205       0.00000000 </v>
   <v>       0.04273504       0.04273504       0.00000000 </v>
   <v>       0.03418803       0.03418803       0.00000000 </v>
   <v>       0.02564103       0.02564103       0.00000000 </v>
   <v>       0.01709402       0.01709402       0.00000000 </v>
   <v>       0.00854701       0.00854701       0.00000000 </v>
   <v>       0.00000000       0.00000000       0.00000000 </v>
  </varray>
  <varray name="weights" >
   <v>       0.00833333 </v>
   <v>       0.00833333 </v>
   <v>       0.00833333 </v>
   <v>       0.00833333 </v>
   <v>       0.00833333 </v>
   <v>       0.00833333 </v>
   <v>       0.00833333 </v>
   <v>       0.00833333 </v>
   <v>       0.00833333 </v>
   <v>       0.00833333 </v>
   <v>       0.00833333 </v>
   <v>       0.00833333 </v>
   <v>       0.00833333 </v>
   <v>       0.00833333 </v>
   <v>       0.00833333 </v>
   <v>       0.00833333 </v>
   <v>       0.00833333 </v>
   <v>       0.00833333 </v>
   <v>       0.00833333 </v>
   <v>       0.00833333 </v>
   <v>       0.00833333 </v>
   <v>       0.00833333 </v>
   <v>       0.00833333 </v>
   <v>       0.00833333 </v>
   <v>       0.00833333 </v>
   <v>       0.00833333 </v>
   <v>       0.00833333 </v>
   <v>       0.00833333 </v>
   <v>       0.00833333 </v>
   <v>       0.00833333 </v>
   <v>       0.00833333 </v>
   <v>       0.00833333 </v>
   <v>       0.00833333 </v>
   <v>       0.00833333 </v>
   <v>       0.00833333 </v>
   <v>       0.00833333 </v>
   <v>       0.00833333 </v>
   <v>       0.00833333 </v>
   <v>       0.00833333 </v>
   <v>       0.00833333 </v>
   <v>       0.00833333 </v>
   <v>       0.00833333 </v>
   <v>       0.00833333 </v>
   <v>       0.00833333 </v>
   <v>       0.00833333 </v>
   <v>       0.00833333 </v>
   <v>       0.00833333 </v>
   <v>       0.00833333 </v>
   <v>       0.00833333 </v>
   <v>       0.00833333 </v>
   <v>       0.00833333 </v>
   <v>       0.00833333 </v>
   <v>       0.00833333 </v>
   <v>       0.00833333 </v>
   <v>       0.00833333 </v>
   <v>       0.00833333 </v>
   <v>       0.00833333 </v>
   <v>       0.00833333 </v>
   <v>       0.00833333 </v>
   <v>       0.00833333 </v>
   <v>       0.00833333 </v>
   <v>       0.00833333 </v>
   <v>       0.00833333 </v>
   <v>       0.00833333 </v>
   <v>       0.00833333 </v>
   <v>       0.00833333 </v>
   <v>       0.00833333 </v>
   <v>       0.00833333 </v>
   <v>       0.00833333 </v>
   <v>       0.00833333 </v>
   <v>       0.00833333 </v>
   <v>       0.00833333 </v>
   <v>       0.00833333 </v>
   <v>       0.00833333 </v>
   <v>       0.00833333 </v>
   <v>       0.00833333 </v>
   <v>       0.00833333 </v>
   <v>       0.00833333 </v>
   <v>       0.00833333 </v>
   <v>       0.00833333 </v>
   <v>       0.00833333 </v>
   <v>       0.00833333 </v>
   <v>       0.00833333 </v>
   <v>       0.00833333 </v>
   <v>       0.00833333 </v>
   <v>       0.00833333 </v>
   <v>       0.00833333 </v>
   <v>       0.00833333 </v>
   <v>       0.00833333 </v>
   <v>       0.00833333 </v>
   <v>       0.00833333 </v>
   <v>       0.00833333 </v>
   <v>       0.00833333 </v>
   <v>       0.00833333 </v>
   <v>       0.00833333 </v>
   <v>       0.00833333 </v>
   <v>       0.00833333 </v>
   <v>       0.00833333 </v>
   <v>       0.00833333 </v>
   <v>       0.00833333 </v>
   <v>       0.00833333 </v>
   <v>       0.00833333 </v>
   <v>       0.00833333 </v>
   <v>       0.00833333 </v>
   <v>       0.00833333 </v>
   <v>       0.00833333 </v>
   <v>       0.00833333 </v>
   <v>       0.00833333 </v>
   <v>       0.00833333 </v>
   <v>       0.00833333 </v>
   <v>       0.00833333 </v>
   <v>       0.00833333 </v>
   <v>       0.00833333 </v>
   <v>       0.00833333 </v>
   <v>       0.00833333 </v>
   <v>       0.00833333 </v>
   <v>       0.00833333 </v>
   <v>       0.00833333 </v>
   <v>       0.00833333 </v>
   <v>       0.00833333 </v>
  </varray>
 </kpoints>
 <parameters>
  <separator name="general" >
   <i type="string" name="SYSTEM">bulk MoS2</i>
   <i type="logical" name="LCOMPAT"> F  </i>
  </separator>
  <separator name="electronic" >
   <i type="string" name="PREC">normal</i>
   <i name="ENMAX">    500.00000000</i>
   <i name="ENAUG">    345.27800000</i>
   <i name="EDIFF">      0.00000100</i>
   <i type="int" name="IALGO">    38</i>
   <i type="int" name="IWAVPR">    10</i>
   <i type="int" name="NBANDS">    22</i>
   <i name="NELECT">     36.00000000</i>
   <i type="int" name="TURBO">     0</i>
   <i type="int" name="IRESTART">     0</i>
   <i type="int" name="NREBOOT">     0</i>
   <i type="int" name="NMIN">     0</i>
   <i name="EREF">      0.00000000</i>
   <separator name="electronic smearing" >
    <i type="int" name="ISMEAR">     0</i>
    <i name="SIGMA">      0.20000000</i>
    <i name="KSPACING">      0.50000000</i>
    <i type="logical" name="KGAMMA"> T  </i>
   </separator>
   <separator name="electronic projectors" >
    <i type="logical" name="LREAL"> F  </i>
    <v name="ROPT">      0.00000000      0.00000000</v>
    <i type="int" name="LMAXPAW">  -100</i>
    <i type="int" name="LMAXMIX">     2</i>
    <i type="logical" name="NLSPLINE"> F  </i>
   </separator>
   <separator name="electronic startup" >
    <i type="int" name="ISTART">     0</i>
    <i type="int" name="ICHARG">    11</i>
    <i type="int" name="INIWAV">     1</i>
   </separator>
   <separator name="electronic spin" >
    <i type="int" name="ISPIN">     1</i>
    <i type="logical" name="LNONCOLLINEAR"> F  </i>
    <v name="MAGMOM">      1.00000000      1.00000000      1.00000000      1.00000000      1.00000000      1.00000000</v>
    <i name="NUPDOWN">     -1.00000000</i>
    <i type="logical" name="LSORBIT"> F  </i>
    <v name="SAXIS">      0.00000000      0.00000000      1.00000000</v>
    <i type="logical" name="LSPIRAL"> F  </i>
    <v name="QSPIRAL">      0.00000000      0.00000000      0.00000000</v>
    <i type="logical" name="LZEROZ"> F  </i>
   </separator>
   <separator name="electronic exchange-correlation" >
    <i type="logical" name="LASPH"> F  </i>
    <i type="logical" name="LMETAGGA"> F  </i>
   </separator>
   <separator name="electronic convergence" >
    <i type="int" name="NELM">    60</i>
    <i type="int" name="NELMDL">    -5</i>
    <i type="int" name="NELMIN">     2</i>
    <i name="ENINI">    500.00000000</i>
    <separator name="electronic convergence detail" >
     <i type="logical" name="LDIAG"> T  </i>
     <i type="logical" name="LSUBROT"> F  </i>
     <i name="WEIMIN">      0.00000000</i>
     <i name="EBREAK">      0.00000001</i>
     <i name="DEPER">      0.30000000</i>
     <i type="int" name="NRMM">     4</i>
     <i name="TIME">      0.40000000</i>
    </separator>
   </separator>
   <separator name="electronic mixer" >
    <i name="AMIX">      0.40000000</i>
    <i name="BMIX">      1.00000000</i>
    <i name="AMIN">      0.10000000</i>
    <i name="AMIX_MAG">      1.60000000</i>
    <i name="BMIX_MAG">      1.00000000</i>
    <separator name="electronic mixer details" >
     <i type="int" name="IMIX">     4</i>
     <i type="logical" name="MIXFIRST"> F  </i>
     <i type="int" name="MAXMIX">   -45</i>
     <i name="WC">    100.00000000</i>
     <i type="int" name="INIMIX">     1</i>
     <i type="int" name="MIXPRE">     1</i>
     <i type="int" name="MREMOVE">     5</i>
    </separator>
   </separator>
   <separator name="electronic dipolcorrection" >
    <i type="logical" name="LDIPOL"> F  </i>
    <i type="logical" name="LMONO"> F  </i>
    <i type="int" name="IDIPOL">     0</i>
    <i name="EPSILON">      1.00000000</i>
    <v name="DIPOL">   -100.00000000   -100.00000000   -100.00000000</v>
    <i name="EFIELD">      0.00000000</i>
   </separator>
  </separator>
  <separator name="grids" >
   <i type="int" name="NGX">    18</i>
   <i type="int" name="NGY">    18</i>
   <i type="int" name="NGZ">    84</i>
   <i type="int" name="NGXF">    36</i>
   <i type="int" name="NGYF">    36</i>
   <i type="int" name="NGZF">   168</i>
   <i type="logical" name="ADDGRID"> F  </i>
  </separator>
  <separator name="ionic" >
   <i type="int" name="NSW">     0</i>
   <i type="int" name="IBRION">    -1</i>
   <i type="int" name="MDALGO">     0</i>
   <i type="int" name="ISIF">     2</i>
   <i name="PSTRESS">      0.00000000</i>
   <i name="EDIFFG">      0.00001000</i>
   <i type="int" name="NFREE">     0</i>
   <i name="POTIM">      0.50000000</i>
   <i name="SMASS">     -3.00000000</i>
   <i name="SCALEE">      1.00000000</i>
  </separator>
  <separator name="ionic md" >
   <i name="TEBEG">      0.00010000</i>
   <i name="TEEND">      0.00010000</i>
   <i type="int" name="NBLOCK">     1</i>
   <i type="int" name="KBLOCK">     1</i>
   <i type="int" name="NPACO">   256</i>
   <i name="APACO">     16.00000000</i>
  </separator>
  <separator name="symmetry" >
   <i type="int" name="ISYM">     2</i>
   <i name="SYMPREC">      0.00001000</i>
  </separator>
  <separator name="dos" >
   <i type="int" name="LORBIT">     0</i>
   <v name="RWIGS">     -1.00000000     -1.00000000</v>
   <i type="int" name="NEDOS">   301</i>
   <i name="EMIN">     10.00000000</i>
   <i name="EMAX">    -10.00000000</i>
   <i name="EFERMI">      0.00000000</i>
  </separator>
  <separator name="writing" >
   <i type="int" name="NWRITE">     2</i>
   <i type="logical" name="LWAVE"> F  </i>
   <i type="logical" name="LDOWNSAMPLE"> F  </i>
   <i type="logical" name="LCHARG"> F  </i>
   <i type="logical" name="LPARD"> F  </i>
   <i type="logical" name="LVTOT"> F  </i>
   <i type="logical" name="LVHAR"> F  </i>
   <i type="logical" name="LELF"> F  </i>
   <i type="logical" name="LOPTICS"> F  </i>
   <v name="STM">      0.00000000      0.00000000      0.00000000      0.00000000      0.00000000      0.00000000      0.00000000</v>
  </separator>
  <separator name="performance" >
   <i type="int" name="NPAR">     1</i>
   <i type="int" name="NSIM">     4</i>
   <i type="int" name="NBLK">    -1</i>
   <i type="logical" name="LPLANE"> T  </i>
   <i type="logical" name="LSCALAPACK"> T  </i>
   <i type="logical" name="LSCAAWARE"> F  </i>
   <i type="logical" name="LSCALU"> F  </i>
   <i type="logical" name="LASYNC"> F  </i>
   <i type="logical" name="LORBITALREAL"> F  </i>
  </separator>
  <separator name="miscellaneous" >
   <i type="int" name="IDIOT">     3</i>
   <i type="int" name="ISPECIAL">     0</i>
   <i type="logical" name="LMUSIC"> F  </i>
   <v name="POMASS">     95.94000000     32.06600000</v>
   <v name="DARWINR">      0.00000000      0.00000000</v>
   <v name="DARWINV">      1.00000000      1.00000000</v>
   <i type="logical" name="LCORR"> T  </i>
  </separator>
  <i type="logical" name="GGA_COMPAT"> T  </i>
  <i type="logical" name="LBERRY"> F  </i>
  <i type="int" name="ICORELEVEL">     0</i>
  <i type="logical" name="LDAU"> F  </i>
  <i type="int" name="I_CONSTRAINED_M">     0</i>
  <separator name="electronic exchange-correlation" >
   <i type="string" name="GGA">--</i>
   <i type="int" name="VOSKOWN">     0</i>
   <i type="logical" name="LHFCALC"> F  </i>
   <i type="string" name="PRECFOCK"></i>
   <i type="logical" name="LSYMGRAD"> F  </i>
   <i type="logical" name="LHFONE"> F  </i>
   <i type="logical" name="LRHFCALC"> F  </i>
   <i type="logical" name="LTHOMAS"> F  </i>
   <i type="logical" name="LMODELHF"> F  </i>
   <i name="ENCUT4O">     -1.00000000</i>
   <i type="int" name="EXXOEP">     0</i>
   <i type="int" name="FOURORBIT">     0</i>
   <i name="AEXX">      0.00000000</i>
   <i name="HFALPHA">      0.00000000</i>
   <i name="MCALPHA">      0.00000000</i>
   <i name="ALDAX">      1.00000000</i>
   <i name="AGGAX">      1.00000000</i>
   <i name="ALDAC">      1.00000000</i>
   <i name="AGGAC">      1.00000000</i>
   <i type="int" name="NKREDX">     1</i>
   <i type="int" name="NKREDY">     1</i>
   <i type="int" name="NKREDZ">     1</i>
   <i type="logical" name="SHIFTRED"> F  </i>
   <i type="logical" name="ODDONLY"> F  </i>
   <i type="logical" name="EVENONLY"> F  </i>
   <i type="int" name="LMAXFOCK">     0</i>
   <i type="int" name="NMAXFOCKAE">     0</i>
   <i type="logical" name="LFOCKAEDFT"> F  </i>
   <i name="HFSCREEN">      0.00000000</i>
   <i name="HFSCREENC">      0.00000000</i>
   <i type="int" name="NBANDSGWLOW">     0</i>
  </separator>
  <separator name="vdW DFT" >
   <i type="logical" name="LUSE_VDW"> F  </i>
   <i name="Zab_VDW">     -0.84910000</i>
   <i name="PARAM1">      0.12340000</i>
   <i name="PARAM2">      1.00000000</i>
   <i name="PARAM3">      0.00000000</i>
  </separator>
  <separator name="model GW" >
   <i type="int" name="MODEL_GW">     0</i>
   <i name="MODEL_EPS0">     13.11510542</i>
   <i name="MODEL_ALPHA">      1.00000000</i>
  </separator>
  <separator name="linear response parameters" >
   <i type="logical" name="LEPSILON"> F  </i>
   <i type="logical" name="LRPA"> F  </i>
   <i type="logical" name="LNABLA"> F  </i>
   <i type="logical" name="LVEL"> F  </i>
   <i type="int" name="KINTER">     0</i>
   <i name="CSHIFT">      0.10000000</i>
   <i name="OMEGAMAX">     -1.00000000</i>
   <i name="DEG_THRESHOLD">      0.00200000</i>
   <i name="RTIME">     -0.10000000</i>
   <i name="WPLASMAI">      0.00000000</i>
   <v name="DFIELD">      0.00000000      0.00000000      0.00000000</v>
   <v name="WPLASMA">      0.00000000      0.00000000      0.00000000      0.00000000      0.00000000      0.00000000      0.00000000      0.00000000      0.00000000</v>
  </separator>
  <separator name="orbital magnetization" >
   <i type="logical" name="NUCIND"> F  </i>
   <v name="MAGPOS">      0.00000000      0.00000000      0.00000000</v>
   <i type="logical" name="LNICSALL"> T  </i>
   <i type="logical" name="ORBITALMAG"> F  </i>
   <i type="logical" name="LMAGBLOCH"> F  </i>
   <i type="logical" name="LCHIMAG"> F  </i>
   <i type="logical" name="LGAUGE"> T  </i>
   <i type="int" name="MAGATOM">     0</i>
   <v name="MAGDIPOL">      0.00000000      0.00000000      0.00000000</v>
   <v name="AVECCONST">      0.00000000      0.00000000      0.00000000</v>
  </separator>
  <separator name="response functions" >
   <i type="logical" name="LADDER"> F  </i>
   <i type="logical" name="LRPAFORCE"> F  </i>
   <i type="logical" name="LFXC"> F  </i>
   <i type="logical" name="LHARTREE"> T  </i>
   <i type="int" name="IBSE">     0</i>
   <v type="int" name="KPOINT">    -1     0     0     0</v>
   <i type="logical" name="LTCTE"> F  </i>
   <i type="logical" name="LTETE"> F  </i>
   <i type="logical" name="LTRIPLET"> F  </i>
   <i type="logical" name="LFXCEPS"> F  </i>
   <i type="logical" name="LFXHEG"> F  </i>
   <i type="int" name="NATURALO">     2</i>
   <i type="logical" name="L2ORDER"> F  </i>
   <i type="logical" name="LMP2LT"> F  </i>
   <i type="logical" name="LUSEW"> F  </i>
   <i name="ENCUTGW">     -2.00000000</i>
   <i name="ENCUTGWSOFT">     -2.00000000</i>
   <i name="ENCUTLF">     -1.00000000</i>
   <i type="int" name="LMAXMP2">    -1</i>
   <i name="SCISSOR">      0.00000000</i>
   <i type="int" name="NOMEGA">     0</i>
   <i type="int" name="NOMEGAR">     0</i>
   <i type="int" name="NBANDSGW">    -1</i>
   <i type="int" name="NBANDSO">    -1</i>
   <i type="int" name="NBANDSV">    -1</i>
   <i type="int" name="NELM">     1</i>
   <i type="int" name="NELMHF">     1</i>
   <i type="int" name="DIM">     3</i>
   <i type="int" name="ANTIRES">     0</i>
   <i name="OMEGAMAX">    -30.00000000</i>
   <i name="OMEGAMIN">    -30.00000000</i>
   <i name="OMEGATL">   -200.00000000</i>
   <i type="int" name="OMEGAGRID">   140</i>
   <i name="CSHIFT">     -0.10000000</i>
   <i type="logical" name="SELFENERGY"> F  </i>
   <i type="logical" name="LSPECTRAL"> F  </i>
   <i type="logical" name="LSPECTRALGW"> F  </i>
   <i type="logical" name="LSINGLES"> F  </i>
   <i type="logical" name="LFERMIGW"> F  </i>
   <i type="logical" name="ODDONLYGW"> F  </i>
   <i type="logical" name="EVENONLYGW"> F  </i>
   <i type="int" name="NKREDLFX">     1</i>
   <i type="int" name="NKREDLFY">     1</i>
   <i type="int" name="NKREDLFZ">     1</i>
   <i type="int" name="MAXMEM">  2800</i>
   <i type="int" name="TELESCOPE">     0</i>
   <i type="int" name="TAUPAR">     1</i>
   <i type="int" name="OMEGAPAR">    -1</i>
   <i name="LAMBDA">      1.00000000</i>
  </separator>
  <separator name="External order field" >
   <i name="OFIELD_KAPPA">      0.00000000</i>
   <v name="OFIELD_K">      0.00000000      0.00000000      0.00000000</v>
   <i name="OFIELD_Q6_NEAR">      0.00000000</i>
   <i name="OFIELD_Q6_FAR">      0.00000000</i>
   <i name="OFIELD_A">      0.00000000</i>
  </separator>
 </parameters>
 <atominfo>
  <atoms>       6 </atoms>
  <types>       2 </types>
  <array name="atoms" >
   <dimension dim="1">ion</dimension>
   <field type="string">element</field>
   <field type="int">atomtype</field>
   <set>
    <rc><c>Mo</c><c>   1</c></rc>
    <rc><c>Mo</c><c>   1</c></rc>
    <rc><c>S </c><c>   2</c></rc>
    <rc><c>S </c><c>   2</c></rc>
    <rc><c>S </c><c>   2</c></rc>
    <rc><c>S </c><c>   2</c></rc>
   </set>
  </array>
  <array name="atomtypes" >
   <dimension dim="1">type</dimension>
   <field type="int">atomspertype</field>
   <field type="string">element</field>
   <field>mass</field>
   <field>valence</field>
   <field type="string">pseudopotential</field>
   <set>
    <rc><c>   2</c><c>Mo</c><c>     95.94000000</c><c>      6.00000000</c><c> PAW_GGA Mo 08Jan2002                   </c></rc>
    <rc><c>   4</c><c>S </c><c>     32.06600000</c><c>      6.00000000</c><c> PAW_GGA S 21Jan2003                    </c></rc>
   </set>
  </array>
 </atominfo>
 <structure name="initialpos" >
  <crystal>
   <varray name="basis" >
    <v>       3.19031600       0.00000000       0.00000000 </v>
    <v>      -1.59515800       2.76289400       0.00000000 </v>
    <v>       0.00000000       0.00000000      14.87900400 </v>
   </varray>
   <i name="volume">    131.15105418 </i>
   <varray name="rec_basis" >
    <v>       0.31344857       0.18096966       0.00000000 </v>
    <v>       0.00000000       0.36193933       0.00000000 </v>
    <v>       0.00000000       0.00000000       0.06720880 </v>
   </varray>
  </crystal>
  <varray name="positions" >
   <v>       0.33333300       0.66666700       0.25000000 </v>
   <v>       0.66666700       0.33333300       0.75000000 </v>
   <v>       0.66666700       0.33333300       0.35517400 </v>
   <v>       0.33333300       0.66666700       0.85517400 </v>
   <v>       0.66666700       0.33333300       0.14482600 </v>
   <v>       0.33333300       0.66666700       0.64482600 </v>
  </varray>
 </structure>
 <calculation>
  <scstep>
   <time name="dav">   14.84   14.92</time>
   <time name="total">   15.01   15.10</time>
   <energy>
    <i name="alphaZ">     80.02335958 </i>
    <i name="ewald">  -1146.88908035 </i>
    <i name="hartreedc">   -543.58948541 </i>
    <i name="XCdc">    -71.81684348 </i>
    <i name="pawpsdc">    946.54871455 </i>
    <i name="pawaedc">   -794.39195555 </i>
    <i name="eentropy">     -0.04226977 </i>
    <i name="bandstr">    191.47328624 </i>
    <i name="atom">   1545.10800544 </i>
    <i name="e_fr_energy">    206.42373125 </i>
    <i name="e_wo_entrp">    206.46600102 </i>
    <i name="e_0_energy">    206.44486614 </i>
   </energy>
  </scstep>
  <scstep>
   <time name="dav">   18.44   18.48</time>
   <time name="total">   18.45   18.50</time>
   <energy>
    <i name="e_fr_energy">    -23.96484793 </i>
    <i name="e_wo_entrp">    -23.95336731 </i>
    <i name="e_0_energy">    -23.95910762 </i>
   </energy>
  </scstep>
  <scstep>
   <time name="dav">   17.83   17.87</time>
   <time name="total">   17.84   17.88</time>
   <energy>
    <i name="e_fr_energy">    -42.35706487 </i>
    <i name="e_wo_entrp">    -42.35706483 </i>
    <i name="e_0_energy">    -42.35706485 </i>
   </energy>
  </scstep>
  <scstep>
   <time name="dav">   18.50   18.55</time>
   <time name="total">   18.51   18.56</time>
   <energy>
    <i name="e_fr_energy">    -42.96753316 </i>
    <i name="e_wo_entrp">    -42.96753313 </i>
    <i name="e_0_energy">    -42.96753315 </i>
   </energy>
  </scstep>
  <scstep>
   <time name="dav">   17.91   17.95</time>
   <time name="total">   17.92   17.97</time>
   <energy>
    <i name="e_fr_energy">    -42.98495101 </i>
    <i name="e_wo_entrp">    -42.98495098 </i>
    <i name="e_0_energy">    -42.98495099 </i>
   </energy>
  </scstep>
  <scstep>
   <time name="dav">   18.92   18.97</time>
   <time name="total">   18.93   18.98</time>
   <energy>
    <i name="e_fr_energy">    -42.98552833 </i>
    <i name="e_wo_entrp">    -42.98552830 </i>
    <i name="e_0_energy">    -42.98552832 </i>
   </energy>
  </scstep>
  <scstep>
   <time name="dav">   19.77   19.82</time>
   <time name="total">   19.78   19.83</time>
   <energy>
    <i name="e_fr_energy">    -42.98554581 </i>
    <i name="e_wo_entrp">    -42.98554579 </i>
    <i name="e_0_energy">    -42.98554580 </i>
   </energy>
  </scstep>
  <scstep>
   <time name="dav">   15.76   15.79</time>
   <time name="total">   15.77   15.81</time>
   <energy>
    <i name="alphaZ">     80.02335958 </i>
    <i name="ewald">  -1146.88908035 </i>
    <i name="hartreedc">   -543.58948541 </i>
    <i name="XCdc">    -71.81684348 </i>
    <i name="pawpsdc">    946.54871455 </i>
    <i name="pawaedc">   -794.39195555 </i>
    <i name="eentropy">     -0.00000003 </i>
    <i name="bandstr">    -57.97826106 </i>
    <i name="atom">   1545.10800544 </i>
    <i name="e_fr_energy">    -42.98554630 </i>
    <i name="e_wo_entrp">    -42.98554627 </i>
    <i name="e_0_energy">    -42.98554629 </i>
   </energy>
  </scstep>
  <structure>
   <crystal>
    <varray name="basis" >
     <v>       3.19031600       0.00000000       0.00000000 </v>
     <v>      -1.59515800       2.76289400       0.00000000 </v>
     <v>       0.00000000       0.00000000      14.87900400 </v>
    </varray>
    <i name="volume">    131.15105418 </i>
    <varray name="rec_basis" >
     <v>       0.31344857       0.18096966       0.00000000 </v>
     <v>       0.00000000       0.36193933       0.00000000 </v>
     <v>       0.00000000       0.00000000       0.06720880 </v>
    </varray>
   </crystal>
   <varray name="positions" >
    <v>       0.33333300       0.66666700       0.25000000 </v>
    <v>       0.66666700       0.33333300       0.75000000 </v>
    <v>       0.66666700       0.33333300       0.35517400 </v>
    <v>       0.33333300       0.66666700       0.85517400 </v>
    <v>       0.66666700       0.33333300       0.14482600 </v>
    <v>       0.33333300       0.66666700       0.64482600 </v>
   </varray>
  </structure>
  <varray name="forces" >
   <v>      -0.00000000      -0.00000000      -0.00000000 </v>
   <v>      -0.00000000       0.00000000      -0.00000000 </v>
   <v>       0.00000000      -0.00000000       0.05905062 </v>
   <v>      -0.00000000       0.00000000       0.05905062 </v>
   <v>       0.00000000       0.00000000      -0.05905062 </v>
   <v>      -0.00000000       0.00000000      -0.05905062 </v>
  </varray>
  <varray name="stress" >
   <v>      -6.58711222       0.00000000       0.00000000 </v>
   <v>      -0.00000000      -6.58710887      -0.00000000 </v>
   <v>      -0.00000000       0.00000000      22.22540004 </v>
  </varray>
  <energy>
   <i name="e_fr_energy">    -42.98554630 </i>
   <i name="e_wo_entrp">    -42.98554629 </i>
   <i name="e_0_energy">     -0.00000003 </i>
  </energy>
  <time name="totalsc">  154.23  154.67</time>
  <eigenvalues>
   <array>
    <dimension dim="1">band</dimension>
    <dimension dim="2">kpoint</dimension>
    <dimension dim="3">spin</dimension>
    <field>eigene</field>
    <field>occ</field>
    <set>
     <set comment="spin 1">
      <set comment="kpoint 1">
       <r>  -10.6563    1.0000 </r>
       <r>  -10.6373    1.0000 </r>
       <r>   -9.4633    1.0000 </r>
       <r>   -9.4294    1.0000 </r>
       <r>   -2.2591    1.0000 </r>
       <r>   -2.0991    1.0000 </r>
       <r>    0.7624    1.0000 </r>
       <r>    0.7625    1.0000 </r>
       <r>    0.7630    1.0000 </r>
       <r>    0.7630    1.0000 </r>
       <r>    1.3567    1.0000 </r>
       <r>    1.8692    1.0000 </r>
       <r>    1.8692    1.0000 </r>
       <r>    1.8710    1.0000 </r>
       <r>    1.8711    1.0000 </r>
       <r>    1.9161    1.0000 </r>
       <r>    3.1608    1.0000 </r>
       <r>    3.5287    1.0000 </r>
       <r>    6.1123    0.0000 </r>
       <r>    6.1141    0.0000 </r>
       <r>    6.1471    0.0000 </r>
       <r>    6.2902    0.0000 </r>
      </set>
      <set comment="kpoint 2">
       <r>  -10.6540    1.0000 </r>
       <r>  -10.6350    1.0000 </r>
       <r>   -9.4622    1.0000 </r>
       <r>   -9.4283    1.0000 </r>
       <r>   -2.2563    1.0000 </r>
       <r>   -2.0963    1.0000 </r>
       <r>    0.7569    1.0000 </r>
       <r>    0.7574    1.0000 </r>
       <r>    0.7650    1.0000 </r>
       <r>    0.7655    1.0000 </r>
       <r>    1.3432    1.0000 </r>
       <r>    1.7980    1.0000 </r>
       <r>    1.8652    1.0000 </r>
       <r>    1.8670    1.0000 </r>
       <r>    1.8814    1.0000 </r>
       <r>    1.9835    1.0000 </r>
       <r>    3.1603    1.0000 </r>
       <r>    3.5269    1.0000 </r>
       <r>    6.1099    0.0000 </r>
       <r>    6.1194    0.0000 </r>
       <r>    6.1284    0.0000 </r>
       <r>    6.2186    0.0000 </r>
      </set>
      <set comment="kpoint 3">
       <r>  -10.6471    1.0000 </r>
       <r>  -10.6281    1.0000 </r>
       <r>   -9.4588    1.0000 </r>
       <r>   -9.4251    1.0000 </r>
       <r>   -2.2480    1.0000 </r>
       <r>   -2.0880    1.0000 </r>
       <r>    0.7403    1.0000 </r>
       <r>    0.7408    1.0000 </r>
       <r>    0.7727    1.0000 </r>
       <r>    0.7732    1.0000 </r>
       <r>    1.3056    1.0000 </r>
       <r>    1.7049    1.0000 </r>
       <r>    1.8530    1.0000 </r>
       <r>    1.8549    1.0000 </r>
       <r>    1.9096    1.0000 </r>
       <r>    2.0655    1.0000 </r>
       <r>    3.1590    1.0000 </r>
       <r>    3.5211    1.0000 </r>
       <r>    6.0993    0.0000 </r>
       <r>    6.1266    0.0000 </r>
       <r>    6.1823    0.0000 </r>
       <r>    6.2690    0.0000 </r>
      </set>
      <set comment="kpoint 4">
       <r>  -10.6356    1.0000 </r>
       <r>  -10.6166    1.0000 </r>
       <r>   -9.4532    1.0000 </r>
       <r>   -9.4196    1.0000 </r>
       <r>   -2.2342    1.0000 </r>
       <r>   -2.0743    1.0000 </r>
       <r>    0.7130    1.0000 </r>
       <r>    0.7136    1.0000 </r>
       <r>    0.7854    1.0000 </r>
       <r>    0.7860    1.0000 </r>
       <r>    1.2504    1.0000 </r>
       <r>    1.6083    1.0000 </r>
       <r>    1.8331    1.0000 </r>
       <r>    1.8350    1.0000 </r>
       <r>    1.9486    1.0000 </r>
       <r>    2.1431    1.0000 </r>
       <r>    3.1565    1.0000 </r>
       <r>    3.5115    1.0000 </r>
       <r>    6.0755    0.0000 </r>
       <r>    6.0829    0.0000 </r>
       <r>    6.1654    0.0000 </r>
       <r>    6.1915    0.0000 </r>
      </set>
      <set comment="kpoint 5">
       <r>  -10.6195    1.0000 </r>
       <r>  -10.6006    1.0000 </r>
       <r>   -9.4455    1.0000 </r>
       <r>   -9.4120    1.0000 </r>
       <r>   -2.2150    1.0000 </r>
       <r>   -2.0553    1.0000 </r>
       <r>    0.6755    1.0000 </r>
       <r>    0.6762    1.0000 </r>
       <r>    0.8031    1.0000 </r>
       <r>    0.8038    1.0000 </r>
       <r>    1.1836    1.0000 </r>
       <r>    1.5094    1.0000 </r>
       <r>    1.8057    1.0000 </r>
       <r>    1.8077    1.0000 </r>
       <r>    1.9924    1.0000 </r>
       <r>    2.2148    1.0000 </r>
       <r>    3.1527    1.0000 </r>
       <r>    3.4975    1.0000 </r>
       <r>    6.0491    0.0000 </r>
       <r>    6.0628    0.0000 </r>
       <r>    6.1859    0.0000 </r>
       <r>    6.2050    0.0000 </r>
      </set>
      <set comment="kpoint 6">
       <r>  -10.5990    1.0000 </r>
       <r>  -10.5801    1.0000 </r>
       <r>   -9.4355    1.0000 </r>
       <r>   -9.4023    1.0000 </r>
       <r>   -2.1907    1.0000 </r>
       <r>   -2.0311    1.0000 </r>
       <r>    0.6285    1.0000 </r>
       <r>    0.6293    1.0000 </r>
       <r>    0.8258    1.0000 </r>
       <r>    0.8265    1.0000 </r>
       <r>    1.1090    1.0000 </r>
       <r>    1.4089    1.0000 </r>
       <r>    1.7714    1.0000 </r>
       <r>    1.7734    1.0000 </r>
       <r>    2.0366    1.0000 </r>
       <r>    2.2793    1.0000 </r>
       <r>    3.1471    1.0000 </r>
       <r>    3.4791    1.0000 </r>
       <r>    6.0504    0.0000 </r>
       <r>    6.0966    0.0000 </r>
       <r>    6.1733    0.0000 </r>
       <r>    6.2251    0.0000 </r>
      </set>
      <set comment="kpoint 7">
       <r>  -10.5740    1.0000 </r>
       <r>  -10.5551    1.0000 </r>
       <r>   -9.4234    1.0000 </r>
       <r>   -9.3905    1.0000 </r>
       <r>   -2.1615    1.0000 </r>
       <r>   -2.0022    1.0000 </r>
       <r>    0.5729    1.0000 </r>
       <r>    0.5738    1.0000 </r>
       <r>    0.8533    1.0000 </r>
       <r>    0.8541    1.0000 </r>
       <r>    1.0291    1.0000 </r>
       <r>    1.3069    1.0000 </r>
       <r>    1.7308    1.0000 </r>
       <r>    1.7329    1.0000 </r>
       <r>    2.0781    1.0000 </r>
       <r>    2.3356    1.0000 </r>
       <r>    3.1394    1.0000 </r>
       <r>    3.4557    1.0000 </r>
       <r>    5.9817    0.0000 </r>
       <r>    6.0185    0.0000 </r>
       <r>    6.0840    0.0000 </r>
       <r>    6.2170    0.0000 </r>
      </set>
      <set comment="kpoint 8">
       <r>  -10.5446    1.0000 </r>
       <r>  -10.5258    1.0000 </r>
       <r>   -9.4092    1.0000 </r>
       <r>   -9.3767    1.0000 </r>
       <r>   -2.1277    1.0000 </r>
       <r>   -1.9686    1.0000 </r>
       <r>    0.5095    1.0000 </r>
       <r>    0.5106    1.0000 </r>
       <r>    0.8854    1.0000 </r>
       <r>    0.8863    1.0000 </r>
       <r>    0.9456    1.0000 </r>
       <r>    1.2040    1.0000 </r>
       <r>    1.6845    1.0000 </r>
       <r>    1.6868    1.0000 </r>
       <r>    2.1147    1.0000 </r>
       <r>    2.3828    1.0000 </r>
       <r>    3.1288    1.0000 </r>
       <r>    3.4270    1.0000 </r>
       <r>    5.9733    0.0000 </r>
       <r>    5.9858    0.0000 </r>
       <r>    6.0337    0.0000 </r>
       <r>    6.1729    0.0000 </r>
      </set>
      <set comment="kpoint 9">
       <r>  -10.5111    1.0000 </r>
       <r>  -10.4923    1.0000 </r>
       <r>   -9.3930    1.0000 </r>
       <r>   -9.3609    1.0000 </r>
       <r>   -2.0896    1.0000 </r>
       <r>   -1.9310    1.0000 </r>
       <r>    0.4393    1.0000 </r>
       <r>    0.4409    1.0000 </r>
       <r>    0.8594    1.0000 </r>
       <r>    0.9221    1.0000 </r>
       <r>    0.9231    1.0000 </r>
       <r>    1.1002    1.0000 </r>
       <r>    1.6333    1.0000 </r>
       <r>    1.6357    1.0000 </r>
       <r>    2.1449    1.0000 </r>
       <r>    2.4198    1.0000 </r>
       <r>    3.1149    1.0000 </r>
       <r>    3.3927    1.0000 </r>
       <r>    5.9055    0.0000 </r>
       <r>    5.9303    0.0000 </r>
       <r>    5.9630    0.0000 </r>
       <r>    6.0569    0.0000 </r>
      </set>
      <set comment="kpoint 10">
       <r>  -10.4734    1.0000 </r>
       <r>  -10.4547    1.0000 </r>
       <r>   -9.3748    1.0000 </r>
       <r>   -9.3431    1.0000 </r>
       <r>   -2.0478    1.0000 </r>
       <r>   -1.8898    1.0000 </r>
       <r>    0.3636    1.0000 </r>
       <r>    0.3658    1.0000 </r>
       <r>    0.7712    1.0000 </r>
       <r>    0.9631    1.0000 </r>
       <r>    0.9642    1.0000 </r>
       <r>    0.9957    1.0000 </r>
       <r>    1.5779    1.0000 </r>
       <r>    1.5804    1.0000 </r>
       <r>    2.1677    1.0000 </r>
       <r>    2.4460    1.0000 </r>
       <r>    3.0970    1.0000 </r>
       <r>    3.3523    1.0000 </r>
       <r>    5.8168    0.0000 </r>
       <r>    5.9353    0.0000 </r>
       <r>    5.9645    0.0000 </r>
       <r>    5.9855    0.0000 </r>
      </set>
      <set comment="kpoint 11">
       <r>  -10.4317    1.0000 </r>
       <r>  -10.4132    1.0000 </r>
       <r>   -9.3547    1.0000 </r>
       <r>   -9.3235    1.0000 </r>
       <r>   -2.0027    1.0000 </r>
       <r>   -1.8456    1.0000 </r>
       <r>    0.2836    1.0000 </r>
       <r>    0.2865    1.0000 </r>
       <r>    0.6814    1.0000 </r>
       <r>    0.8908    1.0000 </r>
       <r>    1.0082    1.0000 </r>
       <r>    1.0094    1.0000 </r>
       <r>    1.5190    1.0000 </r>
       <r>    1.5216    1.0000 </r>
       <r>    2.1821    1.0000 </r>
       <r>    2.4611    1.0000 </r>
       <r>    3.0743    1.0000 </r>
       <r>    3.3057    1.0000 </r>
       <r>    5.7341    0.0000 </r>
       <r>    5.8746    0.0000 </r>
       <r>    5.9412    0.0000 </r>
       <r>    6.0048    0.0000 </r>
      </set>
      <set comment="kpoint 12">
       <r>  -10.3862    1.0000 </r>
       <r>  -10.3678    1.0000 </r>
       <r>   -9.3328    1.0000 </r>
       <r>   -9.3021    1.0000 </r>
       <r>   -1.9552    1.0000 </r>
       <r>   -1.7993    1.0000 </r>
       <r>    0.2003    1.0000 </r>
       <r>    0.2043    1.0000 </r>
       <r>    0.5902    1.0000 </r>
       <r>    0.7854    1.0000 </r>
       <r>    1.0572    1.0000 </r>
       <r>    1.0586    1.0000 </r>
       <r>    1.4573    1.0000 </r>
       <r>    1.4600    1.0000 </r>
       <r>    2.1879    1.0000 </r>
       <r>    2.4648    1.0000 </r>
       <r>    3.0462    1.0000 </r>
       <r>    3.2528    1.0000 </r>
       <r>    5.6585    0.0000 </r>
       <r>    5.8672    0.0000 </r>
       <r>    5.9065    0.0000 </r>
       <r>    6.0149    0.0000 </r>
      </set>
      <set comment="kpoint 13">
       <r>  -10.3370    1.0000 </r>
       <r>  -10.3187    1.0000 </r>
       <r>   -9.3091    1.0000 </r>
       <r>   -9.2790    1.0000 </r>
       <r>   -1.9061    1.0000 </r>
       <r>   -1.7518    1.0000 </r>
       <r>    0.1152    1.0000 </r>
       <r>    0.1206    1.0000 </r>
       <r>    0.4980    1.0000 </r>
       <r>    0.6797    1.0000 </r>
       <r>    1.1097    1.0000 </r>
       <r>    1.1113    1.0000 </r>
       <r>    1.3934    1.0000 </r>
       <r>    1.3962    1.0000 </r>
       <r>    2.1850    1.0000 </r>
       <r>    2.4576    1.0000 </r>
       <r>    3.0124    1.0000 </r>
       <r>    3.1940    1.0000 </r>
       <r>    5.6001    0.0000 </r>
       <r>    5.8186    0.0000 </r>
       <r>    5.8759    0.0000 </r>
       <r>    5.9677    0.0000 </r>
      </set>
      <set comment="kpoint 14">
       <r>  -10.2844    1.0000 </r>
       <r>  -10.2662    1.0000 </r>
       <r>   -9.2838    1.0000 </r>
       <r>   -9.2544    1.0000 </r>
       <r>   -1.8563    1.0000 </r>
       <r>   -1.7043    1.0000 </r>
       <r>    0.0296    1.0000 </r>
       <r>    0.0369    1.0000 </r>
       <r>    0.4049    1.0000 </r>
       <r>    0.5738    1.0000 </r>
       <r>    1.1656    1.0000 </r>
       <r>    1.1673    1.0000 </r>
       <r>    1.3280    1.0000 </r>
       <r>    1.3308    1.0000 </r>
       <r>    2.1736    1.0000 </r>
       <r>    2.4400    1.0000 </r>
       <r>    2.9726    1.0000 </r>
       <r>    3.1296    1.0000 </r>
       <r>    5.5216    0.0000 </r>
       <r>    5.7896    0.0000 </r>
       <r>    5.8723    0.0000 </r>
       <r>    5.9524    0.0000 </r>
      </set>
      <set comment="kpoint 15">
       <r>  -10.2285    1.0000 </r>
       <r>  -10.2105    1.0000 </r>
       <r>   -9.2570    1.0000 </r>
       <r>   -9.2282    1.0000 </r>
       <r>   -1.8073    1.0000 </r>
       <r>   -1.6582    1.0000 </r>
       <r>   -0.0551    1.0000 </r>
       <r>   -0.0452    1.0000 </r>
       <r>    0.3110    1.0000 </r>
       <r>    0.4677    1.0000 </r>
       <r>    1.2244    1.0000 </r>
       <r>    1.2263    1.0000 </r>
       <r>    1.2616    1.0000 </r>
       <r>    1.2645    1.0000 </r>
       <r>    2.1543    1.0000 </r>
       <r>    2.4131    1.0000 </r>
       <r>    2.9269    1.0000 </r>
       <r>    3.0604    1.0000 </r>
       <r>    5.4670    0.0000 </r>
       <r>    5.7524    0.0000 </r>
       <r>    5.8812    0.0000 </r>
       <r>    5.9094    0.0000 </r>
      </set>
      <set comment="kpoint 16">
       <r>  -10.1696    1.0000 </r>
       <r>  -10.1517    1.0000 </r>
       <r>   -9.2288    1.0000 </r>
       <r>   -9.2007    1.0000 </r>
       <r>   -1.7605    1.0000 </r>
       <r>   -1.6153    1.0000 </r>
       <r>   -0.1372    1.0000 </r>
       <r>   -0.1240    1.0000 </r>
       <r>    0.2165    1.0000 </r>
       <r>    0.3617    1.0000 </r>
       <r>    1.1947    1.0000 </r>
       <r>    1.1977    1.0000 </r>
       <r>    1.2858    1.0000 </r>
       <r>    1.2879    1.0000 </r>
       <r>    2.1280    1.0000 </r>
       <r>    2.3781    1.0000 </r>
       <r>    2.8756    1.0000 </r>
       <r>    2.9876    1.0000 </r>
       <r>    5.4232    0.0000 </r>
       <r>    5.7136    0.0000 </r>
       <r>    5.8556    0.0000 </r>
       <r>    5.8906    0.0000 </r>
      </set>
      <set comment="kpoint 17">
       <r>  -10.1079    1.0000 </r>
       <r>  -10.0902    1.0000 </r>
       <r>   -9.1993    1.0000 </r>
       <r>   -9.1720    1.0000 </r>
       <r>   -1.7177    1.0000 </r>
       <r>   -1.5777    1.0000 </r>
       <r>   -0.2152    1.0000 </r>
       <r>   -0.1975    1.0000 </r>
       <r>    0.1215    1.0000 </r>
       <r>    0.2557    1.0000 </r>
       <r>    1.1278    1.0000 </r>
       <r>    1.1310    1.0000 </r>
       <r>    1.3494    1.0000 </r>
       <r>    1.3518    1.0000 </r>
       <r>    2.0958    1.0000 </r>
       <r>    2.3363    1.0000 </r>
       <r>    2.8198    1.0000 </r>
       <r>    2.9125    1.0000 </r>
       <r>    5.3903    0.0000 </r>
       <r>    5.6942    0.0000 </r>
       <r>    5.8090    0.0000 </r>
       <r>    5.8256    0.0000 </r>
      </set>
      <set comment="kpoint 18">
       <r>  -10.0437    1.0000 </r>
       <r>  -10.0263    1.0000 </r>
       <r>   -9.1687    1.0000 </r>
       <r>   -9.1422    1.0000 </r>
       <r>   -1.6810    1.0000 </r>
       <r>   -1.5477    1.0000 </r>
       <r>   -0.2871    1.0000 </r>
       <r>   -0.2638    1.0000 </r>
       <r>    0.0262    1.0000 </r>
       <r>    0.1501    1.0000 </r>
       <r>    1.0614    1.0000 </r>
       <r>    1.0647    1.0000 </r>
       <r>    1.4147    1.0000 </r>
       <r>    1.4174    1.0000 </r>
       <r>    2.0588    1.0000 </r>
       <r>    2.2894    1.0000 </r>
       <r>    2.7606    1.0000 </r>
       <r>    2.8366    1.0000 </r>
       <r>    5.3676    0.0000 </r>
       <r>    5.6784    0.0000 </r>
       <r>    5.7701    0.0000 </r>
       <r>    5.7910    0.0000 </r>
      </set>
      <set comment="kpoint 19">
       <r>   -9.9773    1.0000 </r>
       <r>   -9.9601    1.0000 </r>
       <r>   -9.1371    1.0000 </r>
       <r>   -9.1115    1.0000 </r>
       <r>   -1.6526    1.0000 </r>
       <r>   -1.5276    1.0000 </r>
       <r>   -0.3513    1.0000 </r>
       <r>   -0.3209    1.0000 </r>
       <r>   -0.0693    1.0000 </r>
       <r>    0.0449    1.0000 </r>
       <r>    0.9959    1.0000 </r>
       <r>    0.9992    1.0000 </r>
       <r>    1.4815    1.0000 </r>
       <r>    1.4844    1.0000 </r>
       <r>    2.0182    1.0000 </r>
       <r>    2.2386    1.0000 </r>
       <r>    2.6995    1.0000 </r>
       <r>    2.7619    1.0000 </r>
       <r>    5.3553    0.0000 </r>
       <r>    5.6681    0.0000 </r>
       <r>    5.7275    0.0000 </r>
       <r>    5.7452    0.0000 </r>
      </set>
      <set comment="kpoint 20">
       <r>   -9.9090    1.0000 </r>
       <r>   -9.8921    1.0000 </r>
       <r>   -9.1048    1.0000 </r>
       <r>   -9.0800    1.0000 </r>
       <r>   -1.6346    1.0000 </r>
       <r>   -1.5197    1.0000 </r>
       <r>   -0.4061    1.0000 </r>
       <r>   -0.3672    1.0000 </r>
       <r>   -0.1646    1.0000 </r>
       <r>   -0.0596    1.0000 </r>
       <r>    0.9316    1.0000 </r>
       <r>    0.9350    1.0000 </r>
       <r>    1.5490    1.0000 </r>
       <r>    1.5523    1.0000 </r>
       <r>    1.9752    1.0000 </r>
       <r>    2.1853    1.0000 </r>
       <r>    2.6384    1.0000 </r>
       <r>    2.6903    1.0000 </r>
       <r>    5.3527    0.0000 </r>
       <r>    5.6653    0.0000 </r>
       <r>    5.6881    0.0000 </r>
       <r>    5.7031    0.0000 </r>
      </set>
      <set comment="kpoint 21">
       <r>   -9.8392    1.0000 </r>
       <r>   -9.8226    1.0000 </r>
       <r>   -9.0718    1.0000 </r>
       <r>   -9.0480    1.0000 </r>
       <r>   -1.6289    1.0000 </r>
       <r>   -1.5253    1.0000 </r>
       <r>   -0.4505    1.0000 </r>
       <r>   -0.4022    1.0000 </r>
       <r>   -0.2595    1.0000 </r>
       <r>   -0.1630    1.0000 </r>
       <r>    0.8688    1.0000 </r>
       <r>    0.8723    1.0000 </r>
       <r>    1.6169    1.0000 </r>
       <r>    1.6206    1.0000 </r>
       <r>    1.9309    1.0000 </r>
       <r>    2.1306    1.0000 </r>
       <r>    2.5792    1.0000 </r>
       <r>    2.6238    1.0000 </r>
       <r>    5.3591    0.0000 </r>
       <r>    5.6531    0.0000 </r>
       <r>    5.6682    0.0000 </r>
       <r>    5.6757    0.0000 </r>
      </set>
      <set comment="kpoint 22">
       <r>   -9.7682    1.0000 </r>
       <r>   -9.7520    1.0000 </r>
       <r>   -9.0384    1.0000 </r>
       <r>   -9.0155    1.0000 </r>
       <r>   -1.6364    1.0000 </r>
       <r>   -1.5446    1.0000 </r>
       <r>   -0.4841    1.0000 </r>
       <r>   -0.4264    1.0000 </r>
       <r>   -0.3536    1.0000 </r>
       <r>   -0.2651    1.0000 </r>
       <r>    0.8078    1.0000 </r>
       <r>    0.8114    1.0000 </r>
       <r>    1.6847    1.0000 </r>
       <r>    1.6888    1.0000 </r>
       <r>    1.8863    1.0000 </r>
       <r>    2.0757    1.0000 </r>
       <r>    2.5240    1.0000 </r>
       <r>    2.5643    1.0000 </r>
       <r>    5.3734    0.0000 </r>
       <r>    5.6206    0.0000 </r>
       <r>    5.6351    0.0000 </r>
       <r>    5.6755    0.0000 </r>
      </set>
      <set comment="kpoint 23">
       <r>   -9.6965    1.0000 </r>
       <r>   -9.6807    1.0000 </r>
       <r>   -9.0048    1.0000 </r>
       <r>   -8.9829    1.0000 </r>
       <r>   -1.6570    1.0000 </r>
       <r>   -1.5768    1.0000 </r>
       <r>   -0.5079    1.0000 </r>
       <r>   -0.4466    1.0000 </r>
       <r>   -0.4415    1.0000 </r>
       <r>   -0.3655    1.0000 </r>
       <r>    0.7490    1.0000 </r>
       <r>    0.7526    1.0000 </r>
       <r>    1.7518    1.0000 </r>
       <r>    1.7564    1.0000 </r>
       <r>    1.8422    1.0000 </r>
       <r>    2.0214    1.0000 </r>
       <r>    2.4748    1.0000 </r>
       <r>    2.5135    1.0000 </r>
       <r>    5.3950    0.0000 </r>
       <r>    5.5917    0.0000 </r>
       <r>    5.6057    0.0000 </r>
       <r>    5.6873    0.0000 </r>
      </set>
      <set comment="kpoint 24">
       <r>   -9.6245    1.0000 </r>
       <r>   -9.6091    1.0000 </r>
       <r>   -8.9712    1.0000 </r>
       <r>   -8.9503    1.0000 </r>
       <r>   -1.6894    1.0000 </r>
       <r>   -1.6197    1.0000 </r>
       <r>   -0.5381    1.0000 </r>
       <r>   -0.5239    1.0000 </r>
       <r>   -0.4638    1.0000 </r>
       <r>   -0.4502    1.0000 </r>
       <r>    0.6924    1.0000 </r>
       <r>    0.6961    1.0000 </r>
       <r>    1.7994    1.0000 </r>
       <r>    1.8178    1.0000 </r>
       <r>    1.8228    1.0000 </r>
       <r>    1.9684    1.0000 </r>
       <r>    2.4338    1.0000 </r>
       <r>    2.4727    1.0000 </r>
       <r>    5.4227    0.0000 </r>
       <r>    5.5663    0.0000 </r>
       <r>    5.5799    0.0000 </r>
       <r>    5.7029    0.0000 </r>
      </set>
      <set comment="kpoint 25">
       <r>   -9.5526    1.0000 </r>
       <r>   -9.5377    1.0000 </r>
       <r>   -8.9378    1.0000 </r>
       <r>   -8.9179    1.0000 </r>
       <r>   -1.7316    1.0000 </r>
       <r>   -1.6711    1.0000 </r>
       <r>   -0.6275    1.0000 </r>
       <r>   -0.5595    1.0000 </r>
       <r>   -0.5345    1.0000 </r>
       <r>   -0.4553    1.0000 </r>
       <r>    0.6384    1.0000 </r>
       <r>    0.6422    1.0000 </r>
       <r>    1.7584    1.0000 </r>
       <r>    1.8820    1.0000 </r>
       <r>    1.8875    1.0000 </r>
       <r>    1.9172    1.0000 </r>
       <r>    2.4025    1.0000 </r>
       <r>    2.4430    1.0000 </r>
       <r>    5.4557    0.0000 </r>
       <r>    5.5445    0.0000 </r>
       <r>    5.5575    0.0000 </r>
       <r>    5.7218    0.0000 </r>
      </set>
      <set comment="kpoint 26">
       <r>   -9.4814    1.0000 </r>
       <r>   -9.4670    1.0000 </r>
       <r>   -8.9048    1.0000 </r>
       <r>   -8.8860    1.0000 </r>
       <r>   -1.7813    1.0000 </r>
       <r>   -1.7283    1.0000 </r>
       <r>   -0.7145    1.0000 </r>
       <r>   -0.6522    1.0000 </r>
       <r>   -0.5425    1.0000 </r>
       <r>   -0.4597    1.0000 </r>
       <r>    0.5872    1.0000 </r>
       <r>    0.5910    1.0000 </r>
       <r>    1.7197    1.0000 </r>
       <r>    1.8684    1.0000 </r>
       <r>    1.9440    1.0000 </r>
       <r>    1.9500    1.0000 </r>
       <r>    2.3823    1.0000 </r>
       <r>    2.4249    1.0000 </r>
       <r>    5.4930    0.0000 </r>
       <r>    5.5264    0.0000 </r>
       <r>    5.5387    0.0000 </r>
       <r>    5.7436    0.0000 </r>
      </set>
      <set comment="kpoint 27">
       <r>   -9.4113    1.0000 </r>
       <r>   -9.3974    1.0000 </r>
       <r>   -8.8726    1.0000 </r>
       <r>   -8.8549    1.0000 </r>
       <r>   -1.8361    1.0000 </r>
       <r>   -1.7892    1.0000 </r>
       <r>   -0.7984    1.0000 </r>
       <r>   -0.7414    1.0000 </r>
       <r>   -0.5500    1.0000 </r>
       <r>   -0.4653    1.0000 </r>
       <r>    0.5388    1.0000 </r>
       <r>    0.5426    1.0000 </r>
       <r>    1.6837    1.0000 </r>
       <r>    1.8223    1.0000 </r>
       <r>    2.0034    1.0000 </r>
       <r>    2.0099    1.0000 </r>
       <r>    2.3736    1.0000 </r>
       <r>    2.4186    1.0000 </r>
       <r>    5.5120    0.0000 </r>
       <r>    5.5236    0.0000 </r>
       <r>    5.5340    0.0000 </r>
       <r>    5.7678    0.0000 </r>
      </set>
      <set comment="kpoint 28">
       <r>   -9.3430    1.0000 </r>
       <r>   -9.3297    1.0000 </r>
       <r>   -8.8414    1.0000 </r>
       <r>   -8.8247    1.0000 </r>
       <r>   -1.8939    1.0000 </r>
       <r>   -1.8519    1.0000 </r>
       <r>   -0.8788    1.0000 </r>
       <r>   -0.8266    1.0000 </r>
       <r>   -0.5588    1.0000 </r>
       <r>   -0.4734    1.0000 </r>
       <r>    0.4935    1.0000 </r>
       <r>    0.4973    1.0000 </r>
       <r>    1.6506    1.0000 </r>
       <r>    1.7791    1.0000 </r>
       <r>    2.0596    1.0000 </r>
       <r>    2.0667    1.0000 </r>
       <r>    2.3764    1.0000 </r>
       <r>    2.4236    1.0000 </r>
       <r>    5.5011    0.0000 </r>
       <r>    5.5119    0.0000 </r>
       <r>    5.5777    0.0000 </r>
       <r>    5.7935    0.0000 </r>
      </set>
      <set comment="kpoint 29">
       <r>   -9.2769    1.0000 </r>
       <r>   -9.2643    1.0000 </r>
       <r>   -8.8113    1.0000 </r>
       <r>   -8.7957    1.0000 </r>
       <r>   -1.9528    1.0000 </r>
       <r>   -1.9146    1.0000 </r>
       <r>   -0.9551    1.0000 </r>
       <r>   -0.9073    1.0000 </r>
       <r>   -0.5698    1.0000 </r>
       <r>   -0.4846    1.0000 </r>
       <r>    0.4513    1.0000 </r>
       <r>    0.4552    1.0000 </r>
       <r>    1.6206    1.0000 </r>
       <r>    1.7389    1.0000 </r>
       <r>    2.1123    1.0000 </r>
       <r>    2.1200    1.0000 </r>
       <r>    2.3901    1.0000 </r>
       <r>    2.4391    1.0000 </r>
       <r>    5.4935    0.0000 </r>
       <r>    5.5036    0.0000 </r>
       <r>    5.6234    0.0000 </r>
       <r>    5.8209    0.0000 </r>
      </set>
      <set comment="kpoint 30">
       <r>   -9.2138    1.0000 </r>
       <r>   -9.2018    1.0000 </r>
       <r>   -8.7827    1.0000 </r>
       <r>   -8.7682    1.0000 </r>
       <r>   -2.0113    1.0000 </r>
       <r>   -1.9760    1.0000 </r>
       <r>   -1.0268    1.0000 </r>
       <r>   -0.9830    1.0000 </r>
       <r>   -0.5832    1.0000 </r>
       <r>   -0.4989    1.0000 </r>
       <r>    0.4125    1.0000 </r>
       <r>    0.4164    1.0000 </r>
       <r>    1.5937    1.0000 </r>
       <r>    1.7018    1.0000 </r>
       <r>    2.1612    1.0000 </r>
       <r>    2.1695    1.0000 </r>
       <r>    2.4134    1.0000 </r>
       <r>    2.4634    1.0000 </r>
       <r>    5.4890    0.0000 </r>
       <r>    5.4982    0.0000 </r>
       <r>    5.6703    0.0000 </r>
       <r>    5.8491    0.0000 </r>
      </set>
      <set comment="kpoint 31">
       <r>   -9.1542    1.0000 </r>
       <r>   -9.1428    1.0000 </r>
       <r>   -8.7559    1.0000 </r>
       <r>   -8.7425    1.0000 </r>
       <r>   -2.0679    1.0000 </r>
       <r>   -2.0349    1.0000 </r>
       <r>   -1.0935    1.0000 </r>
       <r>   -1.0532    1.0000 </r>
       <r>   -0.5989    1.0000 </r>
       <r>   -0.5159    1.0000 </r>
       <r>    0.3770    1.0000 </r>
       <r>    0.3810    1.0000 </r>
       <r>    1.5700    1.0000 </r>
       <r>    1.6679    1.0000 </r>
       <r>    2.2059    1.0000 </r>
       <r>    2.2148    1.0000 </r>
       <r>    2.4446    1.0000 </r>
       <r>    2.4947    1.0000 </r>
       <r>    5.4872    0.0000 </r>
       <r>    5.4956    0.0000 </r>
       <r>    5.7176    0.0000 </r>
       <r>    5.8779    0.0000 </r>
      </set>
      <set comment="kpoint 32">
       <r>   -9.0986    1.0000 </r>
       <r>   -9.0880    1.0000 </r>
       <r>   -8.7310    1.0000 </r>
       <r>   -8.7187    1.0000 </r>
       <r>   -2.1217    1.0000 </r>
       <r>   -2.0904    1.0000 </r>
       <r>   -1.1545    1.0000 </r>
       <r>   -1.1175    1.0000 </r>
       <r>   -0.6162    1.0000 </r>
       <r>   -0.5345    1.0000 </r>
       <r>    0.3451    1.0000 </r>
       <r>    0.3491    1.0000 </r>
       <r>    1.5495    1.0000 </r>
       <r>    1.6372    1.0000 </r>
       <r>    2.2462    1.0000 </r>
       <r>    2.2557    1.0000 </r>
       <r>    2.4817    1.0000 </r>
       <r>    2.5308    1.0000 </r>
       <r>    5.4876    0.0000 </r>
       <r>    5.4952    0.0000 </r>
       <r>    5.7645    0.0000 </r>
       <r>    5.9065    0.0000 </r>
      </set>
      <set comment="kpoint 33">
       <r>   -9.0478    1.0000 </r>
       <r>   -9.0379    1.0000 </r>
       <r>   -8.7083    1.0000 </r>
       <r>   -8.6971    1.0000 </r>
       <r>   -2.1715    1.0000 </r>
       <r>   -2.1415    1.0000 </r>
       <r>   -1.2096    1.0000 </r>
       <r>   -1.1754    1.0000 </r>
       <r>   -0.6343    1.0000 </r>
       <r>   -0.5540    1.0000 </r>
       <r>    0.3167    1.0000 </r>
       <r>    0.3207    1.0000 </r>
       <r>    1.5322    1.0000 </r>
       <r>    1.6097    1.0000 </r>
       <r>    2.2820    1.0000 </r>
       <r>    2.2920    1.0000 </r>
       <r>    2.5225    1.0000 </r>
       <r>    2.5693    1.0000 </r>
       <r>    5.4898    0.0000 </r>
       <r>    5.4966    0.0000 </r>
       <r>    5.8100    0.0000 </r>
       <r>    5.9344    0.0000 </r>
      </set>
      <set comment="kpoint 34">
       <r>   -9.0023    1.0000 </r>
       <r>   -8.9931    1.0000 </r>
       <r>   -8.6881    1.0000 </r>
       <r>   -8.6779    1.0000 </r>
       <r>   -2.2165    1.0000 </r>
       <r>   -2.1875    1.0000 </r>
       <r>   -1.2582    1.0000 </r>
       <r>   -1.2265    1.0000 </r>
       <r>   -0.6524    1.0000 </r>
       <r>   -0.5733    1.0000 </r>
       <r>    0.2920    1.0000 </r>
       <r>    0.2960    1.0000 </r>
       <r>    1.5180    1.0000 </r>
       <r>    1.5853    1.0000 </r>
       <r>    2.3131    1.0000 </r>
       <r>    2.3236    1.0000 </r>
       <r>    2.5646    1.0000 </r>
       <r>    2.6078    1.0000 </r>
       <r>    5.4932    0.0000 </r>
       <r>    5.4992    0.0000 </r>
       <r>    5.8531    0.0000 </r>
       <r>    5.9611    0.0000 </r>
      </set>
      <set comment="kpoint 35">
       <r>   -8.9627    1.0000 </r>
       <r>   -8.9542    1.0000 </r>
       <r>   -8.6706    1.0000 </r>
       <r>   -8.6614    1.0000 </r>
       <r>   -2.2559    1.0000 </r>
       <r>   -2.2277    1.0000 </r>
       <r>   -1.2999    1.0000 </r>
       <r>   -1.2704    1.0000 </r>
       <r>   -0.6694    1.0000 </r>
       <r>   -0.5914    1.0000 </r>
       <r>    0.2710    1.0000 </r>
       <r>    0.2751    1.0000 </r>
       <r>    1.5069    1.0000 </r>
       <r>    1.5641    1.0000 </r>
       <r>    2.3395    1.0000 </r>
       <r>    2.3504    1.0000 </r>
       <r>    2.6057    1.0000 </r>
       <r>    2.6442    1.0000 </r>
       <r>    5.4972    0.0000 </r>
       <r>    5.5026    0.0000 </r>
       <r>    5.8927    0.0000 </r>
       <r>    5.9857    0.0000 </r>
      </set>
      <set comment="kpoint 36">
       <r>   -8.9295    1.0000 </r>
       <r>   -8.9216    1.0000 </r>
       <r>   -8.6560    1.0000 </r>
       <r>   -8.6476    1.0000 </r>
       <r>   -2.2891    1.0000 </r>
       <r>   -2.2615    1.0000 </r>
       <r>   -1.3346    1.0000 </r>
       <r>   -1.3068    1.0000 </r>
       <r>   -0.6845    1.0000 </r>
       <r>   -0.6075    1.0000 </r>
       <r>    0.2537    1.0000 </r>
       <r>    0.2578    1.0000 </r>
       <r>    1.4987    1.0000 </r>
       <r>    1.5459    1.0000 </r>
       <r>    2.3610    1.0000 </r>
       <r>    2.3723    1.0000 </r>
       <r>    2.6437    1.0000 </r>
       <r>    2.6762    1.0000 </r>
       <r>    5.5014    0.0000 </r>
       <r>    5.5062    0.0000 </r>
       <r>    5.9276    0.0000 </r>
       <r>    6.0074    0.0000 </r>
      </set>
      <set comment="kpoint 37">
       <r>   -8.9032    1.0000 </r>
       <r>   -8.8959    1.0000 </r>
       <r>   -8.6444    1.0000 </r>
       <r>   -8.6368    1.0000 </r>
       <r>   -2.3156    1.0000 </r>
       <r>   -2.2883    1.0000 </r>
       <r>   -1.3618    1.0000 </r>
       <r>   -1.3354    1.0000 </r>
       <r>   -0.6970    1.0000 </r>
       <r>   -0.6208    1.0000 </r>
       <r>    0.2403    1.0000 </r>
       <r>    0.2444    1.0000 </r>
       <r>    1.4933    1.0000 </r>
       <r>    1.5310    1.0000 </r>
       <r>    2.3778    1.0000 </r>
       <r>    2.3894    1.0000 </r>
       <r>    2.6766    1.0000 </r>
       <r>    2.7020    1.0000 </r>
       <r>    5.5052    0.0000 </r>
       <r>    5.5096    0.0000 </r>
       <r>    5.9565    0.0000 </r>
       <r>    6.0254    0.0000 </r>
      </set>
      <set comment="kpoint 38">
       <r>   -8.8841    1.0000 </r>
       <r>   -8.8772    1.0000 </r>
       <r>   -8.6360    1.0000 </r>
       <r>   -8.6290    1.0000 </r>
       <r>   -2.3348    1.0000 </r>
       <r>   -2.3077    1.0000 </r>
       <r>   -1.3814    1.0000 </r>
       <r>   -1.3560    1.0000 </r>
       <r>   -0.7063    1.0000 </r>
       <r>   -0.6307    1.0000 </r>
       <r>    0.2306    1.0000 </r>
       <r>    0.2347    1.0000 </r>
       <r>    1.4904    1.0000 </r>
       <r>    1.5194    1.0000 </r>
       <r>    2.3898    1.0000 </r>
       <r>    2.4016    1.0000 </r>
       <r>    2.7026    1.0000 </r>
       <r>    2.7202    1.0000 </r>
       <r>    5.5082    0.0000 </r>
       <r>    5.5122    0.0000 </r>
       <r>    5.9781    0.0000 </r>
       <r>    6.0389    0.0000 </r>
      </set>
      <set comment="kpoint 39">
       <r>   -8.8725    1.0000 </r>
       <r>   -8.8659    1.0000 </r>
       <r>   -8.6309    1.0000 </r>
       <r>   -8.6243    1.0000 </r>
       <r>   -2.3464    1.0000 </r>
       <r>   -2.3195    1.0000 </r>
       <r>   -1.3932    1.0000 </r>
       <r>   -1.3685    1.0000 </r>
       <r>   -0.7121    1.0000 </r>
       <r>   -0.6368    1.0000 </r>
       <r>    0.2249    1.0000 </r>
       <r>    0.2290    1.0000 </r>
       <r>    1.4895    1.0000 </r>
       <r>    1.5117    1.0000 </r>
       <r>    2.3970    1.0000 </r>
       <r>    2.4089    1.0000 </r>
       <r>    2.7206    1.0000 </r>
       <r>    2.7299    1.0000 </r>
       <r>    5.5102    0.0000 </r>
       <r>    5.5140    0.0000 </r>
       <r>    5.9916    0.0000 </r>
       <r>    6.0473    0.0000 </r>
      </set>
      <set comment="kpoint 40">
       <r>   -8.8686    1.0000 </r>
       <r>   -8.8621    1.0000 </r>
       <r>   -8.6291    1.0000 </r>
       <r>   -8.6227    1.0000 </r>
       <r>   -2.3503    1.0000 </r>
       <r>   -2.3235    1.0000 </r>
       <r>   -1.3971    1.0000 </r>
       <r>   -1.3726    1.0000 </r>
       <r>   -0.7141    1.0000 </r>
       <r>   -0.6388    1.0000 </r>
       <r>    0.2229    1.0000 </r>
       <r>    0.2270    1.0000 </r>
       <r>    1.4895    1.0000 </r>
       <r>    1.5088    1.0000 </r>
       <r>    2.3994    1.0000 </r>
       <r>    2.4113    1.0000 </r>
       <r>    2.7284    1.0000 </r>
       <r>    2.7313    1.0000 </r>
       <r>    5.5108    0.0000 </r>
       <r>    5.5146    0.0000 </r>
       <r>    5.9962    0.0000 </r>
       <r>    6.0502    0.0000 </r>
      </set>
      <set comment="kpoint 41">
       <r>   -8.8686    1.0000 </r>
       <r>   -8.8621    1.0000 </r>
       <r>   -8.6291    1.0000 </r>
       <r>   -8.6227    1.0000 </r>
       <r>   -2.3503    1.0000 </r>
       <r>   -2.3235    1.0000 </r>
       <r>   -1.3971    1.0000 </r>
       <r>   -1.3726    1.0000 </r>
       <r>   -0.7141    1.0000 </r>
       <r>   -0.6388    1.0000 </r>
       <r>    0.2229    1.0000 </r>
       <r>    0.2270    1.0000 </r>
       <r>    1.4895    1.0000 </r>
       <r>    1.5088    1.0000 </r>
       <r>    2.3994    1.0000 </r>
       <r>    2.4113    1.0000 </r>
       <r>    2.7284    1.0000 </r>
       <r>    2.7313    1.0000 </r>
       <r>    5.5108    0.0000 </r>
       <r>    5.5146    0.0000 </r>
       <r>    5.9962    0.0000 </r>
       <r>    6.0503    0.0000 </r>
      </set>
      <set comment="kpoint 42">
       <r>   -8.8683    1.0000 </r>
       <r>   -8.8617    1.0000 </r>
       <r>   -8.6289    1.0000 </r>
       <r>   -8.6225    1.0000 </r>
       <r>   -2.3493    1.0000 </r>
       <r>   -2.3224    1.0000 </r>
       <r>   -1.3979    1.0000 </r>
       <r>   -1.3735    1.0000 </r>
       <r>   -0.7137    1.0000 </r>
       <r>   -0.6385    1.0000 </r>
       <r>    0.2228    1.0000 </r>
       <r>    0.2267    1.0000 </r>
       <r>    1.4897    1.0000 </r>
       <r>    1.5091    1.0000 </r>
       <r>    2.3909    1.0000 </r>
       <r>    2.4026    1.0000 </r>
       <r>    2.7332    1.0000 </r>
       <r>    2.7364    1.0000 </r>
       <r>    5.5115    0.0000 </r>
       <r>    5.5149    0.0000 </r>
       <r>    5.9965    0.0000 </r>
       <r>    6.0506    0.0000 </r>
      </set>
      <set comment="kpoint 43">
       <r>   -8.8672    1.0000 </r>
       <r>   -8.8607    1.0000 </r>
       <r>   -8.6282    1.0000 </r>
       <r>   -8.6218    1.0000 </r>
       <r>   -2.3461    1.0000 </r>
       <r>   -2.3192    1.0000 </r>
       <r>   -1.4001    1.0000 </r>
       <r>   -1.3761    1.0000 </r>
       <r>   -0.7125    1.0000 </r>
       <r>   -0.6374    1.0000 </r>
       <r>    0.2225    1.0000 </r>
       <r>    0.2256    1.0000 </r>
       <r>    1.4901    1.0000 </r>
       <r>    1.5100    1.0000 </r>
       <r>    2.3667    1.0000 </r>
       <r>    2.3779    1.0000 </r>
       <r>    2.7460    1.0000 </r>
       <r>    2.7502    1.0000 </r>
       <r>    5.5134    0.0000 </r>
       <r>    5.5158    0.0000 </r>
       <r>    5.9973    0.0000 </r>
       <r>    6.0519    0.0000 </r>
      </set>
      <set comment="kpoint 44">
       <r>   -8.8656    1.0000 </r>
       <r>   -8.8591    1.0000 </r>
       <r>   -8.6270    1.0000 </r>
       <r>   -8.6206    1.0000 </r>
       <r>   -2.3408    1.0000 </r>
       <r>   -2.3139    1.0000 </r>
       <r>   -1.4039    1.0000 </r>
       <r>   -1.3804    1.0000 </r>
       <r>   -0.7106    1.0000 </r>
       <r>   -0.6356    1.0000 </r>
       <r>    0.2220    1.0000 </r>
       <r>    0.2238    1.0000 </r>
       <r>    1.4909    1.0000 </r>
       <r>    1.5115    1.0000 </r>
       <r>    2.3297    1.0000 </r>
       <r>    2.3404    1.0000 </r>
       <r>    2.7641    1.0000 </r>
       <r>    2.7694    1.0000 </r>
       <r>    5.5165    0.0000 </r>
       <r>    5.5172    0.0000 </r>
       <r>    5.9988    0.0000 </r>
       <r>    6.0542    0.0000 </r>
      </set>
      <set comment="kpoint 45">
       <r>   -8.8632    1.0000 </r>
       <r>   -8.8567    1.0000 </r>
       <r>   -8.6254    1.0000 </r>
       <r>   -8.6190    1.0000 </r>
       <r>   -2.3333    1.0000 </r>
       <r>   -2.3065    1.0000 </r>
       <r>   -1.4091    1.0000 </r>
       <r>   -1.3865    1.0000 </r>
       <r>   -0.7080    1.0000 </r>
       <r>   -0.6331    1.0000 </r>
       <r>    0.2213    1.0000 </r>
       <r>    0.2214    1.0000 </r>
       <r>    1.4919    1.0000 </r>
       <r>    1.5134    1.0000 </r>
       <r>    2.2830    1.0000 </r>
       <r>    2.2933    1.0000 </r>
       <r>    2.7847    1.0000 </r>
       <r>    2.7914    1.0000 </r>
       <r>    5.5189    0.0000 </r>
       <r>    5.5205    0.0000 </r>
       <r>    6.0010    0.0000 </r>
       <r>    6.0572    0.0000 </r>
      </set>
      <set comment="kpoint 46">
       <r>   -8.8602    1.0000 </r>
       <r>   -8.8537    1.0000 </r>
       <r>   -8.6233    1.0000 </r>
       <r>   -8.6170    1.0000 </r>
       <r>   -2.3238    1.0000 </r>
       <r>   -2.2970    1.0000 </r>
       <r>   -1.4158    1.0000 </r>
       <r>   -1.3942    1.0000 </r>
       <r>   -0.7046    1.0000 </r>
       <r>   -0.6300    1.0000 </r>
       <r>    0.2186    1.0000 </r>
       <r>    0.2207    1.0000 </r>
       <r>    1.4931    1.0000 </r>
       <r>    1.5157    1.0000 </r>
       <r>    2.2286    1.0000 </r>
       <r>    2.2387    1.0000 </r>
       <r>    2.8061    1.0000 </r>
       <r>    2.8140    1.0000 </r>
       <r>    5.5208    0.0000 </r>
       <r>    5.5251    0.0000 </r>
       <r>    6.0043    0.0000 </r>
       <r>    6.0616    0.0000 </r>
      </set>
      <set comment="kpoint 47">
       <r>   -8.8565    1.0000 </r>
       <r>   -8.8501    1.0000 </r>
       <r>   -8.6208    1.0000 </r>
       <r>   -8.6145    1.0000 </r>
       <r>   -2.3121    1.0000 </r>
       <r>   -2.2854    1.0000 </r>
       <r>   -1.4240    1.0000 </r>
       <r>   -1.4036    1.0000 </r>
       <r>   -0.7005    1.0000 </r>
       <r>   -0.6262    1.0000 </r>
       <r>    0.2155    1.0000 </r>
       <r>    0.2200    1.0000 </r>
       <r>    1.4944    1.0000 </r>
       <r>    1.5182    1.0000 </r>
       <r>    2.1680    1.0000 </r>
       <r>    2.1781    1.0000 </r>
       <r>    2.8271    1.0000 </r>
       <r>    2.8363    1.0000 </r>
       <r>    5.5225    0.0000 </r>
       <r>    5.5299    0.0000 </r>
       <r>    6.0088    0.0000 </r>
       <r>    6.0671    0.0000 </r>
      </set>
      <set comment="kpoint 48">
       <r>   -8.8522    1.0000 </r>
       <r>   -8.8459    1.0000 </r>
       <r>   -8.6178    1.0000 </r>
       <r>   -8.6115    1.0000 </r>
       <r>   -2.2984    1.0000 </r>
       <r>   -2.2718    1.0000 </r>
       <r>   -1.4337    1.0000 </r>
       <r>   -1.4147    1.0000 </r>
       <r>   -0.6957    1.0000 </r>
       <r>   -0.6217    1.0000 </r>
       <r>    0.2122    1.0000 </r>
       <r>    0.2196    1.0000 </r>
       <r>    1.4956    1.0000 </r>
       <r>    1.5209    1.0000 </r>
       <r>    2.1020    1.0000 </r>
       <r>    2.1123    1.0000 </r>
       <r>    2.8472    1.0000 </r>
       <r>    2.8577    1.0000 </r>
       <r>    5.5238    0.0000 </r>
       <r>    5.5346    0.0000 </r>
       <r>    6.0148    0.0000 </r>
       <r>    6.0741    0.0000 </r>
      </set>
      <set comment="kpoint 49">
       <r>   -8.8473    1.0000 </r>
       <r>   -8.8410    1.0000 </r>
       <r>   -8.6144    1.0000 </r>
       <r>   -8.6082    1.0000 </r>
       <r>   -2.2826    1.0000 </r>
       <r>   -2.2561    1.0000 </r>
       <r>   -1.4448    1.0000 </r>
       <r>   -1.4273    1.0000 </r>
       <r>   -0.6902    1.0000 </r>
       <r>   -0.6166    1.0000 </r>
       <r>    0.2090    1.0000 </r>
       <r>    0.2195    1.0000 </r>
       <r>    1.4966    1.0000 </r>
       <r>    1.5235    1.0000 </r>
       <r>    2.0315    1.0000 </r>
       <r>    2.0421    1.0000 </r>
       <r>    2.8660    1.0000 </r>
       <r>    2.8778    1.0000 </r>
       <r>    5.5243    0.0000 </r>
       <r>    5.5385    0.0000 </r>
       <r>    6.0227    0.0000 </r>
       <r>    6.0827    0.0000 </r>
      </set>
      <set comment="kpoint 50">
       <r>   -8.8418    1.0000 </r>
       <r>   -8.8356    1.0000 </r>
       <r>   -8.6106    1.0000 </r>
       <r>   -8.6045    1.0000 </r>
       <r>   -2.2648    1.0000 </r>
       <r>   -2.2384    1.0000 </r>
       <r>   -1.4574    1.0000 </r>
       <r>   -1.4415    1.0000 </r>
       <r>   -0.6841    1.0000 </r>
       <r>   -0.6110    1.0000 </r>
       <r>    0.2060    1.0000 </r>
       <r>    0.2197    1.0000 </r>
       <r>    1.4974    1.0000 </r>
       <r>    1.5259    1.0000 </r>
       <r>    1.9569    1.0000 </r>
       <r>    1.9680    1.0000 </r>
       <r>    2.8836    1.0000 </r>
       <r>    2.8966    1.0000 </r>
       <r>    5.5238    0.0000 </r>
       <r>    5.5413    0.0000 </r>
       <r>    6.0327    0.0000 </r>
       <r>    6.0932    0.0000 </r>
      </set>
      <set comment="kpoint 51">
       <r>   -8.8358    1.0000 </r>
       <r>   -8.8296    1.0000 </r>
       <r>   -8.6065    1.0000 </r>
       <r>   -8.6004    1.0000 </r>
       <r>   -2.2449    1.0000 </r>
       <r>   -2.2187    1.0000 </r>
       <r>   -1.4713    1.0000 </r>
       <r>   -1.4571    1.0000 </r>
       <r>   -0.6774    1.0000 </r>
       <r>   -0.6049    1.0000 </r>
       <r>    0.2033    1.0000 </r>
       <r>    0.2205    1.0000 </r>
       <r>    1.4978    1.0000 </r>
       <r>    1.5280    1.0000 </r>
       <r>    1.8788    1.0000 </r>
       <r>    1.8904    1.0000 </r>
       <r>    2.9000    1.0000 </r>
       <r>    2.9142    1.0000 </r>
       <r>    5.5220    0.0000 </r>
       <r>    5.5424    0.0000 </r>
       <r>    6.0453    0.0000 </r>
       <r>    6.1055    0.0000 </r>
      </set>
      <set comment="kpoint 52">
       <r>   -8.8292    1.0000 </r>
       <r>   -8.8231    1.0000 </r>
       <r>   -8.6019    1.0000 </r>
       <r>   -8.5959    1.0000 </r>
       <r>   -2.2231    1.0000 </r>
       <r>   -2.1970    1.0000 </r>
       <r>   -1.4866    1.0000 </r>
       <r>   -1.4742    1.0000 </r>
       <r>   -0.6701    1.0000 </r>
       <r>   -0.5982    1.0000 </r>
       <r>    0.2012    1.0000 </r>
       <r>    0.2220    1.0000 </r>
       <r>    1.4976    1.0000 </r>
       <r>    1.5295    1.0000 </r>
       <r>    1.7974    1.0000 </r>
       <r>    1.8096    1.0000 </r>
       <r>    2.9154    1.0000 </r>
       <r>    2.9306    1.0000 </r>
       <r>    5.5185    0.0000 </r>
       <r>    5.5414    0.0000 </r>
       <r>    6.0604    0.0000 </r>
       <r>    6.1199    0.0000 </r>
      </set>
      <set comment="kpoint 53">
       <r>   -8.8220    1.0000 </r>
       <r>   -8.8160    1.0000 </r>
       <r>   -8.5971    1.0000 </r>
       <r>   -8.5911    1.0000 </r>
       <r>   -2.1993    1.0000 </r>
       <r>   -2.1733    1.0000 </r>
       <r>   -1.5032    1.0000 </r>
       <r>   -1.4926    1.0000 </r>
       <r>   -0.6623    1.0000 </r>
       <r>   -0.5912    1.0000 </r>
       <r>    0.1999    1.0000 </r>
       <r>    0.2242    1.0000 </r>
       <r>    1.4968    1.0000 </r>
       <r>    1.5304    1.0000 </r>
       <r>    1.7132    1.0000 </r>
       <r>    1.7261    1.0000 </r>
       <r>    2.9298    1.0000 </r>
       <r>    2.9461    1.0000 </r>
       <r>    5.5132    0.0000 </r>
       <r>    5.5380    0.0000 </r>
       <r>    6.0785    0.0000 </r>
       <r>    6.1364    0.0000 </r>
      </set>
      <set comment="kpoint 54">
       <r>   -8.8145    1.0000 </r>
       <r>   -8.8086    1.0000 </r>
       <r>   -8.5919    1.0000 </r>
       <r>   -8.5860    1.0000 </r>
       <r>   -2.1736    1.0000 </r>
       <r>   -2.1478    1.0000 </r>
       <r>   -1.5209    1.0000 </r>
       <r>   -1.5122    1.0000 </r>
       <r>   -0.6541    1.0000 </r>
       <r>   -0.5837    1.0000 </r>
       <r>    0.1994    1.0000 </r>
       <r>    0.2272    1.0000 </r>
       <r>    1.4953    1.0000 </r>
       <r>    1.5304    1.0000 </r>
       <r>    1.6264    1.0000 </r>
       <r>    1.6401    1.0000 </r>
       <r>    2.9435    1.0000 </r>
       <r>    2.9608    1.0000 </r>
       <r>    5.5059    0.0000 </r>
       <r>    5.5321    0.0000 </r>
       <r>    6.0994    0.0000 </r>
       <r>    6.1553    0.0000 </r>
      </set>
      <set comment="kpoint 55">
       <r>   -8.8064    1.0000 </r>
       <r>   -8.8006    1.0000 </r>
       <r>   -8.5864    1.0000 </r>
       <r>   -8.5806    1.0000 </r>
       <r>   -2.1460    1.0000 </r>
       <r>   -2.1204    1.0000 </r>
       <r>   -1.5398    1.0000 </r>
       <r>   -1.5329    1.0000 </r>
       <r>   -0.6454    1.0000 </r>
       <r>   -0.5759    1.0000 </r>
       <r>    0.2000    1.0000 </r>
       <r>    0.2312    1.0000 </r>
       <r>    1.4928    1.0000 </r>
       <r>    1.5295    1.0000 </r>
       <r>    1.5375    1.0000 </r>
       <r>    1.5520    1.0000 </r>
       <r>    2.9568    1.0000 </r>
       <r>    2.9749    1.0000 </r>
       <r>    5.4965    0.0000 </r>
       <r>    5.5234    0.0000 </r>
       <r>    6.1231    0.0000 </r>
       <r>    6.1758    0.0000 </r>
      </set>
      <set comment="kpoint 56">
       <r>   -8.7980    1.0000 </r>
       <r>   -8.7923    1.0000 </r>
       <r>   -8.5806    1.0000 </r>
       <r>   -8.5750    1.0000 </r>
       <r>   -2.1165    1.0000 </r>
       <r>   -2.0912    1.0000 </r>
       <r>   -1.5598    1.0000 </r>
       <r>   -1.5546    1.0000 </r>
       <r>   -0.6364    1.0000 </r>
       <r>   -0.5679    1.0000 </r>
       <r>    0.2016    1.0000 </r>
       <r>    0.2362    1.0000 </r>
       <r>    1.4468    1.0000 </r>
       <r>    1.4620    1.0000 </r>
       <r>    1.4894    1.0000 </r>
[...]
       <r>    1.7833    1.0000 </r>
       <r>    2.0235    1.0000 </r>
       <r>    2.2579    1.0000 </r>
       <r>    3.1495    1.0000 </r>
       <r>    3.4867    1.0000 </r>
       <r>    6.0377    0.0000 </r>
       <r>    6.0652    0.0000 </r>
       <r>    6.1849    0.0000 </r>
       <r>    6.2126    0.0000 </r>
      </set>
      <set comment="kpoint 117">
       <r>  -10.6287    1.0000 </r>
       <r>  -10.6097    1.0000 </r>
       <r>   -9.4499    1.0000 </r>
       <r>   -9.4164    1.0000 </r>
       <r>   -2.2259    1.0000 </r>
       <r>   -2.0661    1.0000 </r>
       <r>    0.6970    1.0000 </r>
       <r>    0.6975    1.0000 </r>
       <r>    0.7930    1.0000 </r>
       <r>    0.7935    1.0000 </r>
       <r>    1.2207    1.0000 </r>
       <r>    1.5633    1.0000 </r>
       <r>    1.8199    1.0000 </r>
       <r>    1.8219    1.0000 </r>
       <r>    1.9699    1.0000 </r>
       <r>    2.1779    1.0000 </r>
       <r>    3.1549    1.0000 </r>
       <r>    3.5055    1.0000 </r>
       <r>    6.0721    0.0000 </r>
       <r>    6.1169    0.0000 </r>
       <r>    6.1782    0.0000 </r>
       <r>    6.2232    0.0000 </r>
      </set>
      <set comment="kpoint 118">
       <r>  -10.6440    1.0000 </r>
       <r>  -10.6250    1.0000 </r>
       <r>   -9.4573    1.0000 </r>
       <r>   -9.4236    1.0000 </r>
       <r>   -2.2443    1.0000 </r>
       <r>   -2.0844    1.0000 </r>
       <r>    0.7330    1.0000 </r>
       <r>    0.7335    1.0000 </r>
       <r>    0.7761    1.0000 </r>
       <r>    0.7766    1.0000 </r>
       <r>    1.2901    1.0000 </r>
       <r>    1.6754    1.0000 </r>
       <r>    1.8474    1.0000 </r>
       <r>    1.8493    1.0000 </r>
       <r>    1.9210    1.0000 </r>
       <r>    2.0902    1.0000 </r>
       <r>    3.1583    1.0000 </r>
       <r>    3.5186    1.0000 </r>
       <r>    6.0928    0.0000 </r>
       <r>    6.1005    0.0000 </r>
       <r>    6.1382    0.0000 </r>
       <r>    6.2077    0.0000 </r>
      </set>
      <set comment="kpoint 119">
       <r>  -10.6533    1.0000 </r>
       <r>  -10.6342    1.0000 </r>
       <r>   -9.4618    1.0000 </r>
       <r>   -9.4280    1.0000 </r>
       <r>   -2.2553    1.0000 </r>
       <r>   -2.0954    1.0000 </r>
       <r>    0.7550    1.0000 </r>
       <r>    0.7555    1.0000 </r>
       <r>    0.7659    1.0000 </r>
       <r>    0.7664    1.0000 </r>
       <r>    1.3388    1.0000 </r>
       <r>    1.7840    1.0000 </r>
       <r>    1.8638    1.0000 </r>
       <r>    1.8656    1.0000 </r>
       <r>    1.8848    1.0000 </r>
       <r>    1.9964    1.0000 </r>
       <r>    3.1602    1.0000 </r>
       <r>    3.5262    1.0000 </r>
       <r>    6.1095    0.0000 </r>
       <r>    6.1144    0.0000 </r>
       <r>    6.1290    0.0000 </r>
       <r>    6.1352    0.0000 </r>
      </set>
      <set comment="kpoint 120">
       <r>  -10.6563    1.0000 </r>
       <r>  -10.6373    1.0000 </r>
       <r>   -9.4633    1.0000 </r>
       <r>   -9.4294    1.0000 </r>
       <r>   -2.2591    1.0000 </r>
       <r>   -2.0991    1.0000 </r>
       <r>    0.7624    1.0000 </r>
       <r>    0.7625    1.0000 </r>
       <r>    0.7630    1.0000 </r>
       <r>    0.7630    1.0000 </r>
       <r>    1.3567    1.0000 </r>
       <r>    1.8692    1.0000 </r>
       <r>    1.8692    1.0000 </r>
       <r>    1.8710    1.0000 </r>
       <r>    1.8711    1.0000 </r>
       <r>    1.9161    1.0000 </r>
       <r>    3.1608    1.0000 </r>
       <r>    3.5287    1.0000 </r>
       <r>    6.1126    0.0000 </r>
       <r>    6.1155    0.0000 </r>
       <r>    6.1482    0.0000 </r>
       <r>    6.2579    0.0000 </r>
      </set>
     </set>
    </set>
   </array>
  </eigenvalues>
  <separator name="orbital magnetization" >
   <v name="MAGDIPOLOUT">      0.00000000      0.00000000      0.00000000</v>
  </separator>
  <dos>
   <i name="efermi">      4.25038296 </i>
   <total>
    <array>
     <dimension dim="1">gridpoints</dimension>
     <dimension dim="2">spin</dimension>
     <field>energy</field>
     <field>total</field>
     <field>integrated</field>
     <set>
      <set comment="spin 1">
       <r>   -12.6563     0.0000     0.0000 </r>
       <r>   -12.5855     0.0000     0.0000 </r>
       <r>   -12.5146     0.0000     0.0000 </r>
       <r>   -12.4437     0.0000     0.0000 </r>
       <r>   -12.3729     0.0000     0.0000 </r>
       <r>   -12.3020     0.0000     0.0000 </r>
       <r>   -12.2312     0.0000     0.0000 </r>
       <r>   -12.1603     0.0000     0.0000 </r>
       <r>   -12.0894     0.0000     0.0000 </r>
       <r>   -12.0186     0.0000     0.0000 </r>
       <r>   -11.9477     0.0000     0.0000 </r>
       <r>   -11.8769     0.0000     0.0000 </r>
       <r>   -11.8060     0.0000     0.0000 </r>
       <r>   -11.7351     0.0000     0.0000 </r>
       <r>   -11.6643     0.0000     0.0000 </r>
       <r>   -11.5934     0.0000     0.0000 </r>
       <r>   -11.5226     0.0000     0.0000 </r>
       <r>   -11.4517     0.0000     0.0000 </r>
       <r>   -11.3808     0.0000     0.0000 </r>
       <r>   -11.3100     0.0000     0.0000 </r>
       <r>   -11.2391     0.0000     0.0000 </r>
       <r>   -11.1683     0.0004     0.0000 </r>
       <r>   -11.0974     0.0023     0.0002 </r>
       <r>   -11.0265     0.0117     0.0010 </r>
       <r>   -10.9557     0.0466     0.0043 </r>
       <r>   -10.8848     0.1472     0.0147 </r>
       <r>   -10.8140     0.3704     0.0410 </r>
       <r>   -10.7431     0.7468     0.0939 </r>
       <r>   -10.6722     1.2179     0.1802 </r>
       <r>   -10.6014     1.6318     0.2958 </r>
       <r>   -10.5305     1.8400     0.4262 </r>
       <r>   -10.4597     1.8105     0.5545 </r>
       <r>   -10.3888     1.6326     0.6702 </r>
       <r>   -10.3179     1.4243     0.7711 </r>
       <r>   -10.2471     1.2538     0.8600 </r>
       <r>   -10.1762     1.1338     0.9403 </r>
       <r>   -10.1054     1.0522     1.0149 </r>
       <r>   -10.0345     0.9950     1.0854 </r>
       <r>    -9.9636     0.9538     1.1530 </r>
       <r>    -9.8928     0.9259     1.2186 </r>
       <r>    -9.8219     0.9178     1.2836 </r>
       <r>    -9.7511     0.9553     1.3513 </r>
       <r>    -9.6802     1.0966     1.4290 </r>
       <r>    -9.6093     1.4222     1.5298 </r>
       <r>    -9.5385     1.9721     1.6695 </r>
       <r>    -9.4676     2.6605     1.8580 </r>
       <r>    -9.3968     3.2748     2.0901 </r>
       <r>    -9.3259     3.6159     2.3463 </r>
       <r>    -9.2550     3.6552     2.6053 </r>
       <r>    -9.1842     3.5479     2.8567 </r>
       <r>    -9.1133     3.5186     3.1061 </r>
       <r>    -9.0425     3.7525     3.3720 </r>
       <r>    -8.9716     4.3421     3.6796 </r>
       <r>    -8.9007     5.2592     4.0523 </r>
       <r>    -8.8299     6.3667     4.5035 </r>
       <r>    -8.7590     7.4695     5.0327 </r>
       <r>    -8.6882     8.3281     5.6229 </r>
       <r>    -8.6173     8.6343     6.2347 </r>
       <r>    -8.5464     8.1057     6.8091 </r>
       <r>    -8.4756     6.7143     7.2848 </r>
       <r>    -8.4047     4.8029     7.6252 </r>
       <r>    -8.3339     2.9146     7.8317 </r>
       <r>    -8.2630     1.4771     7.9364 </r>
       <r>    -8.1921     0.6164     7.9801 </r>
       <r>    -8.1213     0.2093     7.9949 </r>
       <r>    -8.0504     0.0572     7.9989 </r>
       <r>    -7.9796     0.0125     7.9998 </r>
       <r>    -7.9087     0.0022     8.0000 </r>
       <r>    -7.8378     0.0003     8.0000 </r>
       <r>    -7.7670     0.0000     8.0000 </r>
       <r>    -7.6961     0.0000     8.0000 </r>
       <r>    -7.6253     0.0000     8.0000 </r>
       <r>    -7.5544     0.0000     8.0000 </r>
       <r>    -7.4835     0.0000     8.0000 </r>
       <r>    -7.4127     0.0000     8.0000 </r>
       <r>    -7.3418     0.0000     8.0000 </r>
       <r>    -7.2709     0.0000     8.0000 </r>
       <r>    -7.2001     0.0000     8.0000 </r>
       <r>    -7.1292     0.0000     8.0000 </r>
       <r>    -7.0584     0.0000     8.0000 </r>
       <r>    -6.9875     0.0000     8.0000 </r>
       <r>    -6.9166     0.0000     8.0000 </r>
       <r>    -6.8458     0.0000     8.0000 </r>
       <r>    -6.7749     0.0000     8.0000 </r>
       <r>    -6.7041     0.0000     8.0000 </r>
       <r>    -6.6332     0.0000     8.0000 </r>
       <r>    -6.5623     0.0000     8.0000 </r>
       <r>    -6.4915     0.0000     8.0000 </r>
       <r>    -6.4206     0.0000     8.0000 </r>
       <r>    -6.3498     0.0000     8.0000 </r>
       <r>    -6.2789     0.0000     8.0000 </r>
       <r>    -6.2080     0.0000     8.0000 </r>
       <r>    -6.1372     0.0000     8.0000 </r>
       <r>    -6.0663     0.0000     8.0000 </r>
       <r>    -5.9955     0.0000     8.0000 </r>
       <r>    -5.9246     0.0000     8.0000 </r>
       <r>    -5.8537     0.0000     8.0000 </r>
       <r>    -5.7829     0.0000     8.0000 </r>
       <r>    -5.7120     0.0000     8.0000 </r>
       <r>    -5.6412     0.0000     8.0000 </r>
       <r>    -5.5703     0.0000     8.0000 </r>
       <r>    -5.4994     0.0000     8.0000 </r>
       <r>    -5.4286     0.0000     8.0000 </r>
       <r>    -5.3577     0.0000     8.0000 </r>
       <r>    -5.2869     0.0000     8.0000 </r>
       <r>    -5.2160     0.0000     8.0000 </r>
       <r>    -5.1451     0.0000     8.0000 </r>
       <r>    -5.0743     0.0000     8.0000 </r>
       <r>    -5.0034     0.0000     8.0000 </r>
       <r>    -4.9326     0.0000     8.0000 </r>
       <r>    -4.8617     0.0000     8.0000 </r>
       <r>    -4.7908     0.0000     8.0000 </r>
       <r>    -4.7200     0.0000     8.0000 </r>
       <r>    -4.6491     0.0000     8.0000 </r>
       <r>    -4.5783     0.0000     8.0000 </r>
       <r>    -4.5074     0.0000     8.0000 </r>
       <r>    -4.4365     0.0000     8.0000 </r>
       <r>    -4.3657     0.0000     8.0000 </r>
       <r>    -4.2948     0.0000     8.0000 </r>
       <r>    -4.2240     0.0000     8.0000 </r>
       <r>    -4.1531     0.0000     8.0000 </r>
       <r>    -4.0822     0.0000     8.0000 </r>
       <r>    -4.0114     0.0000     8.0000 </r>
       <r>    -3.9405     0.0000     8.0000 </r>
       <r>    -3.8697     0.0000     8.0000 </r>
       <r>    -3.7988     0.0000     8.0000 </r>
       <r>    -3.7279     0.0000     8.0000 </r>
       <r>    -3.6571     0.0000     8.0000 </r>
       <r>    -3.5862     0.0000     8.0000 </r>
       <r>    -3.5154     0.0000     8.0000 </r>
       <r>    -3.4445     0.0000     8.0000 </r>
       <r>    -3.3736     0.0000     8.0000 </r>
       <r>    -3.3028     0.0000     8.0000 </r>
       <r>    -3.2319     0.0000     8.0000 </r>
       <r>    -3.1611     0.0000     8.0000 </r>
       <r>    -3.0902     0.0000     8.0000 </r>
       <r>    -3.0193     0.0000     8.0000 </r>
       <r>    -2.9485     0.0000     8.0000 </r>
       <r>    -2.8776     0.0003     8.0000 </r>
       <r>    -2.8068     0.0018     8.0001 </r>
       <r>    -2.7359     0.0098     8.0008 </r>
       <r>    -2.6650     0.0422     8.0038 </r>
       <r>    -2.5942     0.1448     8.0141 </r>
       <r>    -2.5233     0.3983     8.0423 </r>
       <r>    -2.4525     0.8855     8.1051 </r>
       <r>    -2.3816     1.6110     8.2192 </r>
       <r>    -2.3107     2.4485     8.3927 </r>
       <r>    -2.2399     3.2113     8.6203 </r>
       <r>    -2.1690     3.8041     8.8898 </r>
       <r>    -2.0982     4.2787     9.1930 </r>
       <r>    -2.0273     4.7220     9.5276 </r>
       <r>    -1.9564     5.1349     9.8915 </r>
       <r>    -1.8856     5.4628    10.2786 </r>
       <r>    -1.8147     5.7021    10.6826 </r>
       <r>    -1.7439     5.9045    11.1010 </r>
       <r>    -1.6730     6.0734    11.5314 </r>
       <r>    -1.6021     6.1211    11.9651 </r>
       <r>    -1.5313     5.9498    12.3867 </r>
       <r>    -1.4604     5.5333    12.7788 </r>
       <r>    -1.3896     4.9150    13.1271 </r>
       <r>    -1.3187     4.1720    13.4227 </r>
       <r>    -1.2478     3.3924    13.6631 </r>
       <r>    -1.1770     2.6545    13.8512 </r>
       <r>    -1.1061     2.0143    13.9939 </r>
       <r>    -1.0353     1.5269    14.1021 </r>
       <r>    -0.9644     1.2778    14.1927 </r>
       <r>    -0.8935     1.3899    14.2912 </r>
       <r>    -0.8227     1.9880    14.4320 </r>
       <r>    -0.7518     3.0932    14.6512 </r>
       <r>    -0.6810     4.4917    14.9695 </r>
       <r>    -0.6101     5.7373    15.3761 </r>
       <r>    -0.5392     6.3902    15.8289 </r>
       <r>    -0.4684     6.3193    16.2767 </r>
       <r>    -0.3975     5.7728    16.6857 </r>
       <r>    -0.3267     5.1434    17.0502 </r>
       <r>    -0.2558     4.6739    17.3814 </r>
       <r>    -0.1849     4.3754    17.6914 </r>
       <r>    -0.1141     4.1889    17.9882 </r>
       <r>    -0.0432     4.1724    18.2839 </r>
       <r>     0.0276     4.5015    18.6029 </r>
       <r>     0.0985     5.2759    18.9767 </r>
       <r>     0.1694     6.3236    19.4248 </r>
       <r>     0.2402     7.2263    19.9369 </r>
       <r>     0.3111     7.5984    20.4753 </r>
       <r>     0.3819     7.3569    20.9966 </r>
       <r>     0.4528     6.7144    21.4724 </r>
       <r>     0.5237     5.9772    21.8959 </r>
       <r>     0.5945     5.3938    22.2781 </r>
       <r>     0.6654     5.0869    22.6386 </r>
       <r>     0.7362     4.9993    22.9928 </r>
       <r>     0.8071     4.9338    23.3424 </r>
       <r>     0.8780     4.7337    23.6779 </r>
       <r>     0.9488     4.4352    23.9922 </r>
       <r>     1.0197     4.2302    24.2919 </r>
       <r>     1.0905     4.3074    24.5971 </r>
       <r>     1.1614     4.7312    24.9324 </r>
       <r>     1.2323     5.4252    25.3168 </r>
       <r>     1.3031     6.2326    25.7584 </r>
       <r>     1.3740     6.9738    26.2526 </r>
       <r>     1.4448     7.4456    26.7802 </r>
       <r>     1.5157     7.4475    27.3079 </r>
       <r>     1.5866     6.9314    27.7991 </r>
       <r>     1.6574     6.1217    28.2329 </r>
       <r>     1.7283     5.3778    28.6140 </r>
       <r>     1.7991     4.9017    28.9613 </r>
       <r>     1.8700     4.6328    29.2896 </r>
       <r>     1.9409     4.4177    29.6026 </r>
       <r>     2.0117     4.2091    29.9009 </r>
       <r>     2.0826     4.0802    30.1900 </r>
       <r>     2.1534     4.1106    30.4813 </r>
       <r>     2.2243     4.3066    30.7864 </r>
       <r>     2.2952     4.5935    31.1119 </r>
       <r>     2.3660     4.8408    31.4549 </r>
       <r>     2.4369     4.9195    31.8035 </r>
       <r>     2.5077     4.7866    32.1427 </r>
       <r>     2.5786     4.5132    32.4625 </r>
       <r>     2.6495     4.2183    32.7614 </r>
       <r>     2.7203     3.9860    33.0439 </r>
       <r>     2.7912     3.8492    33.3166 </r>
       <r>     2.8620     3.8220    33.5875 </r>
       <r>     2.9329     3.9113    33.8646 </r>
       <r>     3.0038     4.0874    34.1543 </r>
       <r>     3.0746     4.2587    34.4560 </r>
       <r>     3.1455     4.2964    34.7605 </r>
       <r>     3.2163     4.1025    35.0512 </r>
       <r>     3.2872     3.6650    35.3109 </r>
       <r>     3.3581     3.0565    35.5275 </r>
       <r>     3.4289     2.3857    35.6965 </r>
       <r>     3.4998     1.7436    35.8201 </r>
       <r>     3.5707     1.1802    35.9037 </r>
       <r>     3.6415     0.7202    35.9547 </r>
       <r>     3.7124     0.3822    35.9818 </r>
       <r>     3.7832     0.1705    35.9939 </r>
       <r>     3.8541     0.0623    35.9983 </r>
       <r>     3.9250     0.0183    35.9996 </r>
       <r>     3.9958     0.0043    35.9999 </r>
       <r>     4.0667     0.0008    36.0000 </r>
       <r>     4.1375     0.0001    36.0000 </r>
       <r>     4.2084     0.0000    36.0000 </r>
       <r>     4.2793     0.0000    36.0000 </r>
       <r>     4.3501     0.0000    36.0000 </r>
       <r>     4.4210     0.0001    36.0000 </r>
       <r>     4.4918     0.0007    36.0001 </r>
       <r>     4.5627     0.0039    36.0003 </r>
       <r>     4.6336     0.0180    36.0016 </r>
       <r>     4.7044     0.0661    36.0063 </r>
       <r>     4.7753     0.1939    36.0200 </r>
       <r>     4.8461     0.4571    36.0524 </r>
       <r>     4.9170     0.8774    36.1146 </r>
       <r>     4.9879     1.4000    36.2138 </r>
       <r>     5.0587     1.9174    36.3497 </r>
       <r>     5.1296     2.3663    36.5173 </r>
       <r>     5.2004     2.8083    36.7163 </r>
       <r>     5.2713     3.4026    36.9574 </r>
       <r>     5.3422     4.2653    37.2597 </r>
       <r>     5.4130     5.3013    37.6353 </r>
       <r>     5.4839     6.1751    38.0729 </r>
       <r>     5.5547     6.5435    38.5366 </r>
       <r>     5.6256     6.3839    38.9889 </r>
       <r>     5.6965     6.0385    39.4168 </r>
       <r>     5.7673     5.8905    39.8342 </r>
       <r>     5.8382     6.0547    40.2633 </r>
       <r>     5.9090     6.3855    40.7157 </r>
       <r>     5.9799     6.6633    41.1879 </r>
       <r>     6.0508     6.7084    41.6633 </r>
       <r>     6.1216     6.4167    42.1179 </r>
       <r>     6.1925     5.8013    42.5290 </r>
       <r>     6.2633     5.0001    42.8833 </r>
       <r>     6.3342     4.1872    43.1800 </r>
       <r>     6.4051     3.4591    43.4252 </r>
       <r>     6.4759     2.8012    43.6236 </r>
       <r>     6.5468     2.1521    43.7761 </r>
       <r>     6.6176     1.4991    43.8824 </r>
       <r>     6.6885     0.9081    43.9467 </r>
       <r>     6.7594     0.4641    43.9796 </r>
       <r>     6.8302     0.1961    43.9935 </r>
       <r>     6.9011     0.0677    43.9983 </r>
       <r>     6.9719     0.0189    43.9996 </r>
       <r>     7.0428     0.0043    43.9999 </r>
       <r>     7.1137     0.0008    44.0000 </r>
       <r>     7.1845     0.0001    44.0000 </r>
       <r>     7.2554     0.0000    44.0000 </r>
       <r>     7.3262     0.0000    44.0000 </r>
       <r>     7.3971     0.0000    44.0000 </r>
       <r>     7.4680     0.0000    44.0000 </r>
       <r>     7.5388     0.0000    44.0000 </r>
       <r>     7.6097     0.0000    44.0000 </r>
       <r>     7.6805     0.0000    44.0000 </r>
       <r>     7.7514     0.0000    44.0000 </r>
       <r>     7.8223     0.0000    44.0000 </r>
       <r>     7.8931     0.0000    44.0000 </r>
       <r>     7.9640     0.0000    44.0000 </r>
       <r>     8.0348     0.0000    44.0000 </r>
       <r>     8.1057     0.0000    44.0000 </r>
       <r>     8.1766     0.0000    44.0000 </r>
       <r>     8.2474     0.0000    44.0000 </r>
       <r>     8.3183     0.0000    44.0000 </r>
       <r>     8.3891     0.0000    44.0000 </r>
       <r>     8.4600     0.0000    44.0000 </r>
       <r>     8.5309     0.0000    44.0000 </r>
       <r>     8.6017     0.0000    44.0000 </r>
      </set>
     </set>
    </array>
   </total>
  </dos>
 </calculation>
 <structure name="finalpos" >
  <crystal>
   <varray name="basis" >
    <v>       3.19031600       0.00000000       0.00000000 </v>
    <v>      -1.59515800       2.76289400       0.00000000 </v>
    <v>       0.00000000       0.00000000      14.87900400 </v>
   </varray>
   <i name="volume">    131.15105418 </i>
   <varray name="rec_basis" >
    <v>       0.31344857       0.18096966       0.00000000 </v>
    <v>       0.00000000       0.36193933       0.00000000 </v>
    <v>       0.00000000       0.00000000       0.06720880 </v>
   </varray>
  </crystal>
  <varray name="positions" >
   <v>       0.33333300       0.66666700       0.25000000 </v>
   <v>       0.66666700       0.33333300       0.75000000 </v>
   <v>       0.66666700       0.33333300       0.35517400 </v>
   <v>       0.33333300       0.66666700       0.85517400 </v>
   <v>       0.66666700       0.33333300       0.14482600 </v>
   <v>       0.33333300       0.66666700       0.64482600 </v>
  </varray>
 </structure>
</modeling>
