 running on    1 total cores
 distrk:  each k-point on    1 cores,    1 groups
 distr:  one band on    1 cores,    1 groups
 using from now: INCAR     
 vasp.5.4.4.18Apr17-6-g9f103f2a35 (build May 20 2018 16:52:39) complex          
  
 POSCAR found type information on POSCAR  Mo S 
 POSCAR found :  2 types and       6 ions
 scaLAPACK will be used
 LDA part: xc-table for Ceperly-Alder, standard interpolation
 WARNING: stress and forces are not correct
 POSCAR, INCAR and KPOINTS ok, starting setup
 FFT: planning ...
 WAVECAR not read
 reading imaginary part of occupancies ...
 charge-density read from file: bulk                                    
 entering main loop
       N       E                     dE             d eps       ncg     rms          rms(c)
DAV:   1     0.206423731252E+03    0.20642E+03   -0.15565E+04  5280   0.136E+03
DAV:   2    -0.239648479253E+02   -0.23039E+03   -0.22375E+03  7112   0.271E+02
DAV:   3    -0.423570648681E+02   -0.18392E+02   -0.18167E+02  6978   0.756E+01
DAV:   4    -0.429675331620E+02   -0.61047E+00   -0.60895E+00  7532   0.148E+01
DAV:   5    -0.429849510050E+02   -0.17418E-01   -0.17410E-01  7402   0.244E+00
DAV:   6    -0.429855283326E+02   -0.57733E-03   -0.57715E-03  7834   0.407E-01
DAV:   7    -0.429855458150E+02   -0.17482E-04   -0.17478E-04  7664   0.605E-02
DAV:   8    -0.429855463013E+02   -0.48633E-06   -0.48542E-06  5836   0.840E-03
   1 F= -.42985546E+02 E0= -.42985546E+02  d E =-.299544E-07
