bulk MoS2                               
           1
     3.190316    0.000000    0.000000
    -1.595158    2.762894    0.000000
     0.000000    0.000000   14.879004
   Mo   S 
   2   4
Direct configuration=     1
   0.33333300  0.66666700  0.25000000
   0.66666700  0.33333300  0.75000000
   0.66666700  0.33333300  0.35517400
   0.33333300  0.66666700  0.85517400
   0.66666700  0.33333300  0.14482600
   0.33333300  0.66666700  0.64482600
