   4   4   1   0
  0.9063964E+01  0.5107186E-09  0.5107186E-09  0.5107186E-09  0.5000000E-15
  1.000000000000000E-004
  CAR 
 NiO_af2                                 
     16.55452705    -16.69355424  301      3.72630902      1.00000000
    -16.694  0.0000E+00  0.0000E+00  0.0000E+00  0.0000E+00
    -16.583  0.0000E+00  0.0000E+00  0.0000E+00  0.0000E+00
    -16.472  0.0000E+00  0.0000E+00  0.0000E+00  0.0000E+00
    -16.361  0.0000E+00  0.0000E+00  0.0000E+00  0.0000E+00
    -16.250  0.0000E+00  0.0000E+00  0.0000E+00  0.0000E+00
    -16.139  0.0000E+00  0.0000E+00  0.0000E+00  0.0000E+00
    -16.029  0.0000E+00  0.0000E+00  0.0000E+00  0.0000E+00
    -15.918  0.0000E+00  0.0000E+00  0.0000E+00  0.0000E+00
    -15.807  0.0000E+00  0.0000E+00  0.0000E+00  0.0000E+00
    -15.696  0.0000E+00  0.0000E+00  0.0000E+00  0.0000E+00
    -15.585  0.0000E+00  0.0000E+00  0.0000E+00  0.0000E+00
    -15.474  0.0000E+00  0.0000E+00  0.0000E+00  0.0000E+00
    -15.364  0.0000E+00  0.0000E+00  0.0000E+00  0.0000E+00
    -15.253  0.0000E+00  0.0000E+00  0.0000E+00  0.0000E+00
    -15.142  0.0000E+00  0.0000E+00  0.0000E+00  0.0000E+00
    -15.031  0.0000E+00  0.0000E+00  0.0000E+00  0.0000E+00
    -14.920  0.0000E+00  0.0000E+00  0.0000E+00  0.0000E+00
    -14.809  0.0000E+00  0.0000E+00  0.0000E+00  0.0000E+00
    -14.699  0.0000E+00  0.0000E+00  0.0000E+00  0.0000E+00
    -14.588  0.1293E+00  0.1293E+00  0.8550E-02  0.8550E-02
    -14.477  0.2000E+00  0.2000E+00  0.2698E-01  0.2698E-01
    -14.366  0.2654E+00  0.2654E+00  0.5275E-01  0.5275E-01
    -14.255  0.3330E+00  0.3330E+00  0.8581E-01  0.8581E-01
    -14.145  0.4080E+00  0.4080E+00  0.1268E+00  0.1268E+00
    -14.034  0.5001E+00  0.5001E+00  0.1772E+00  0.1772E+00
    -13.923  0.6052E+00  0.6052E+00  0.2375E+00  0.2375E+00
    -13.812  0.7476E+00  0.7476E+00  0.3119E+00  0.3119E+00
    -13.701  0.9370E+00  0.9370E+00  0.4044E+00  0.4044E+00
    -13.590  0.1240E+01  0.1240E+01  0.5239E+00  0.5239E+00
    -13.480  0.1803E+01  0.1803E+01  0.6878E+00  0.6878E+00
    -13.369  0.3798E+01  0.3798E+01  0.9626E+00  0.9626E+00
    -13.258  0.5404E+01  0.5404E+01  0.1411E+01  0.1411E+01
    -13.147  0.0000E+00  0.0000E+00  0.2000E+01  0.2000E+01
    -13.036  0.0000E+00  0.0000E+00  0.2000E+01  0.2000E+01
    -12.925  0.0000E+00  0.0000E+00  0.2000E+01  0.2000E+01
    -12.815  0.0000E+00  0.0000E+00  0.2000E+01  0.2000E+01
    -12.704  0.0000E+00  0.0000E+00  0.2000E+01  0.2000E+01
    -12.593  0.0000E+00  0.0000E+00  0.2000E+01  0.2000E+01
    -12.482  0.0000E+00  0.0000E+00  0.2000E+01  0.2000E+01
    -12.371  0.0000E+00  0.0000E+00  0.2000E+01  0.2000E+01
    -12.260  0.0000E+00  0.0000E+00  0.2000E+01  0.2000E+01
    -12.150  0.0000E+00  0.0000E+00  0.2000E+01  0.2000E+01
    -12.039  0.0000E+00  0.0000E+00  0.2000E+01  0.2000E+01
    -11.928  0.0000E+00  0.0000E+00  0.2000E+01  0.2000E+01
    -11.817  0.0000E+00  0.0000E+00  0.2000E+01  0.2000E+01
    -11.706  0.0000E+00  0.0000E+00  0.2000E+01  0.2000E+01
    -11.596  0.0000E+00  0.0000E+00  0.2000E+01  0.2000E+01
    -11.485  0.0000E+00  0.0000E+00  0.2000E+01  0.2000E+01
    -11.374  0.0000E+00  0.0000E+00  0.2000E+01  0.2000E+01
    -11.263  0.0000E+00  0.0000E+00  0.2000E+01  0.2000E+01
    -11.152  0.0000E+00  0.0000E+00  0.2000E+01  0.2000E+01
    -11.041  0.0000E+00  0.0000E+00  0.2000E+01  0.2000E+01
    -10.931  0.0000E+00  0.0000E+00  0.2000E+01  0.2000E+01
    -10.820  0.0000E+00  0.0000E+00  0.2000E+01  0.2000E+01
    -10.709  0.0000E+00  0.0000E+00  0.2000E+01  0.2000E+01
    -10.598  0.0000E+00  0.0000E+00  0.2000E+01  0.2000E+01
    -10.487  0.0000E+00  0.0000E+00  0.2000E+01  0.2000E+01
    -10.376  0.0000E+00  0.0000E+00  0.2000E+01  0.2000E+01
    -10.266  0.0000E+00  0.0000E+00  0.2000E+01  0.2000E+01
    -10.155  0.0000E+00  0.0000E+00  0.2000E+01  0.2000E+01
    -10.044  0.0000E+00  0.0000E+00  0.2000E+01  0.2000E+01
     -9.933  0.0000E+00  0.0000E+00  0.2000E+01  0.2000E+01
     -9.822  0.0000E+00  0.0000E+00  0.2000E+01  0.2000E+01
     -9.711  0.0000E+00  0.0000E+00  0.2000E+01  0.2000E+01
     -9.601  0.0000E+00  0.0000E+00  0.2000E+01  0.2000E+01
     -9.490  0.0000E+00  0.0000E+00  0.2000E+01  0.2000E+01
     -9.379  0.0000E+00  0.0000E+00  0.2000E+01  0.2000E+01
     -9.268  0.0000E+00  0.0000E+00  0.2000E+01  0.2000E+01
     -9.157  0.0000E+00  0.0000E+00  0.2000E+01  0.2000E+01
     -9.046  0.0000E+00  0.0000E+00  0.2000E+01  0.2000E+01
     -8.936  0.0000E+00  0.0000E+00  0.2000E+01  0.2000E+01
     -8.825  0.0000E+00  0.0000E+00  0.2000E+01  0.2000E+01
     -8.714  0.0000E+00  0.0000E+00  0.2000E+01  0.2000E+01
     -8.603  0.0000E+00  0.0000E+00  0.2000E+01  0.2000E+01
     -8.492  0.0000E+00  0.0000E+00  0.2000E+01  0.2000E+01
     -8.382  0.0000E+00  0.0000E+00  0.2000E+01  0.2000E+01
     -8.271  0.0000E+00  0.0000E+00  0.2000E+01  0.2000E+01
     -8.160  0.0000E+00  0.0000E+00  0.2000E+01  0.2000E+01
     -8.049  0.0000E+00  0.0000E+00  0.2000E+01  0.2000E+01
     -7.938  0.0000E+00  0.0000E+00  0.2000E+01  0.2000E+01
     -7.827  0.0000E+00  0.0000E+00  0.2000E+01  0.2000E+01
     -7.717  0.0000E+00  0.0000E+00  0.2000E+01  0.2000E+01
     -7.606  0.0000E+00  0.0000E+00  0.2000E+01  0.2000E+01
     -7.495  0.0000E+00  0.0000E+00  0.2000E+01  0.2000E+01
     -7.384  0.0000E+00  0.0000E+00  0.2000E+01  0.2000E+01
     -7.273  0.0000E+00  0.0000E+00  0.2000E+01  0.2000E+01
     -7.162  0.0000E+00  0.0000E+00  0.2000E+01  0.2000E+01
     -7.052  0.0000E+00  0.0000E+00  0.2000E+01  0.2000E+01
     -6.941  0.0000E+00  0.0000E+00  0.2000E+01  0.2000E+01
     -6.830  0.0000E+00  0.0000E+00  0.2000E+01  0.2000E+01
     -6.719  0.0000E+00  0.0000E+00  0.2000E+01  0.2000E+01
     -6.608  0.0000E+00  0.0000E+00  0.2000E+01  0.2000E+01
     -6.497  0.0000E+00  0.0000E+00  0.2000E+01  0.2000E+01
     -6.387  0.0000E+00  0.0000E+00  0.2000E+01  0.2000E+01
     -6.276  0.0000E+00  0.0000E+00  0.2000E+01  0.2000E+01
     -6.165  0.0000E+00  0.0000E+00  0.2000E+01  0.2000E+01
     -6.054  0.0000E+00  0.0000E+00  0.2000E+01  0.2000E+01
     -5.943  0.0000E+00  0.0000E+00  0.2000E+01  0.2000E+01
     -5.833  0.0000E+00  0.0000E+00  0.2000E+01  0.2000E+01
     -5.722  0.0000E+00  0.0000E+00  0.2000E+01  0.2000E+01
     -5.611  0.0000E+00  0.0000E+00  0.2000E+01  0.2000E+01
     -5.500  0.0000E+00  0.0000E+00  0.2000E+01  0.2000E+01
     -5.389  0.0000E+00  0.0000E+00  0.2000E+01  0.2000E+01
     -5.278  0.0000E+00  0.0000E+00  0.2000E+01  0.2000E+01
     -5.168  0.0000E+00  0.0000E+00  0.2000E+01  0.2000E+01
     -5.057  0.0000E+00  0.0000E+00  0.2000E+01  0.2000E+01
     -4.946  0.0000E+00  0.0000E+00  0.2000E+01  0.2000E+01
     -4.835  0.0000E+00  0.0000E+00  0.2000E+01  0.2000E+01
     -4.724  0.0000E+00  0.0000E+00  0.2000E+01  0.2000E+01
     -4.613  0.0000E+00  0.0000E+00  0.2000E+01  0.2000E+01
     -4.503  0.0000E+00  0.0000E+00  0.2000E+01  0.2000E+01
     -4.392  0.0000E+00  0.0000E+00  0.2000E+01  0.2000E+01
     -4.281  0.0000E+00  0.0000E+00  0.2000E+01  0.2000E+01
     -4.170  0.0000E+00  0.0000E+00  0.2000E+01  0.2000E+01
     -4.059  0.0000E+00  0.0000E+00  0.2000E+01  0.2000E+01
     -3.948  0.0000E+00  0.0000E+00  0.2000E+01  0.2000E+01
     -3.838  0.0000E+00  0.0000E+00  0.2000E+01  0.2000E+01
     -3.727  0.0000E+00  0.0000E+00  0.2000E+01  0.2000E+01
     -3.616  0.0000E+00  0.0000E+00  0.2000E+01  0.2000E+01
     -3.505  0.0000E+00  0.0000E+00  0.2000E+01  0.2000E+01
     -3.394  0.1728E+00  0.1728E+00  0.2007E+01  0.2007E+01
     -3.283  0.3242E+00  0.3242E+00  0.2035E+01  0.2035E+01
     -3.173  0.4834E+00  0.4834E+00  0.2079E+01  0.2079E+01
     -3.062  0.7604E+00  0.7604E+00  0.2146E+01  0.2146E+01
     -2.951  0.1784E+01  0.1784E+01  0.2288E+01  0.2288E+01
     -2.840  0.2833E+01  0.2833E+01  0.2556E+01  0.2556E+01
     -2.729  0.2216E+01  0.2216E+01  0.2853E+01  0.2853E+01
     -2.619  0.8526E+00  0.8526E+00  0.2984E+01  0.2984E+01
     -2.508  0.1823E+01  0.1823E+01  0.3121E+01  0.3121E+01
     -2.397  0.7116E+01  0.7116E+01  0.3534E+01  0.3534E+01
     -2.286  0.5006E+01  0.5006E+01  0.4335E+01  0.4335E+01
     -2.175  0.2871E+01  0.2871E+01  0.4698E+01  0.4698E+01
     -2.064  0.1342E+01  0.1342E+01  0.4960E+01  0.4960E+01
     -1.954  0.1220E+01  0.1220E+01  0.5075E+01  0.5075E+01
     -1.843  0.2693E+01  0.2693E+01  0.5309E+01  0.5309E+01
     -1.732  0.2727E+01  0.2727E+01  0.5585E+01  0.5585E+01
     -1.621  0.3629E+01  0.3629E+01  0.5945E+01  0.5945E+01
     -1.510  0.2151E+01  0.2151E+01  0.6271E+01  0.6271E+01
     -1.399  0.3872E+01  0.3872E+01  0.6552E+01  0.6552E+01
     -1.289  0.1198E+01  0.1198E+01  0.6857E+01  0.6857E+01
     -1.178  0.6719E+00  0.6719E+00  0.6963E+01  0.6963E+01
     -1.067  0.1359E+00  0.1359E+00  0.6998E+01  0.6998E+01
     -0.956  0.1266E+01  0.1266E+01  0.7072E+01  0.7072E+01
     -0.845  0.1239E+01  0.1239E+01  0.7196E+01  0.7196E+01
     -0.734  0.2080E+01  0.2080E+01  0.7367E+01  0.7367E+01
     -0.624  0.3269E+01  0.3269E+01  0.7623E+01  0.7623E+01
     -0.513  0.2077E+01  0.2077E+01  0.7922E+01  0.7922E+01
     -0.402  0.9408E+00  0.9408E+00  0.8053E+01  0.8053E+01
     -0.291  0.2370E+01  0.2370E+01  0.8276E+01  0.8276E+01
     -0.180  0.1273E+01  0.1273E+01  0.8473E+01  0.8473E+01
     -0.070  0.8545E+00  0.8545E+00  0.8587E+01  0.8587E+01
      0.041  0.1019E+01  0.1019E+01  0.8683E+01  0.8683E+01
      0.152  0.1677E+01  0.1677E+01  0.8820E+01  0.8820E+01
      0.263  0.2042E+01  0.2042E+01  0.9025E+01  0.9025E+01
      0.374  0.1817E+01  0.1817E+01  0.9239E+01  0.9239E+01
      0.485  0.1207E+01  0.1207E+01  0.9398E+01  0.9398E+01
      0.595  0.1271E+01  0.1271E+01  0.9539E+01  0.9539E+01
      0.706  0.1469E+01  0.1469E+01  0.9690E+01  0.9690E+01
      0.817  0.1673E+01  0.1673E+01  0.9864E+01  0.9864E+01
      0.928  0.2111E+01  0.2111E+01  0.1007E+02  0.1007E+02
      1.039  0.2044E+01  0.2044E+01  0.1030E+02  0.1030E+02
      1.150  0.1606E+01  0.1606E+01  0.1050E+02  0.1050E+02
      1.260  0.1311E+01  0.1311E+01  0.1066E+02  0.1066E+02
      1.371  0.9926E+00  0.9926E+00  0.1079E+02  0.1079E+02
      1.482  0.5022E+00  0.5022E+00  0.1087E+02  0.1087E+02
      1.593  0.6341E+00  0.6341E+00  0.1092E+02  0.1092E+02
      1.704  0.1781E+01  0.1781E+01  0.1106E+02  0.1106E+02
      1.815  0.2903E+01  0.2903E+01  0.1134E+02  0.1134E+02
      1.925  0.1571E+01  0.1571E+01  0.1157E+02  0.1157E+02
      2.036  0.1814E+01  0.1814E+01  0.1175E+02  0.1175E+02
      2.147  0.2011E+01  0.2011E+01  0.1196E+02  0.1196E+02
      2.258  0.2415E+01  0.2415E+01  0.1222E+02  0.1222E+02
      2.369  0.2004E+01  0.2004E+01  0.1247E+02  0.1247E+02
      2.480  0.1726E+01  0.1726E+01  0.1268E+02  0.1268E+02
      2.590  0.1383E+01  0.1383E+01  0.1284E+02  0.1284E+02
      2.701  0.3061E+01  0.3061E+01  0.1309E+02  0.1309E+02
      2.812  0.2913E+01  0.2913E+01  0.1350E+02  0.1350E+02
      2.923  0.2602E+01  0.2602E+01  0.1378E+02  0.1378E+02
      3.034  0.7482E+00  0.7482E+00  0.1397E+02  0.1397E+02
      3.144  0.2291E+01  0.2291E+01  0.1415E+02  0.1415E+02
      3.255  0.5815E+01  0.5815E+01  0.1481E+02  0.1481E+02
      3.366  0.4033E+01  0.4033E+01  0.1537E+02  0.1537E+02
      3.477  0.2252E+01  0.2252E+01  0.1569E+02  0.1569E+02
      3.588  0.1647E+01  0.1647E+01  0.1593E+02  0.1593E+02
      3.699  0.1420E-02  0.1420E-02  0.1600E+02  0.1600E+02
      3.809  0.0000E+00  0.0000E+00  0.1600E+02  0.1600E+02
      3.920  0.0000E+00  0.0000E+00  0.1600E+02  0.1600E+02
      4.031  0.0000E+00  0.0000E+00  0.1600E+02  0.1600E+02
      4.142  0.0000E+00  0.0000E+00  0.1600E+02  0.1600E+02
      4.253  0.0000E+00  0.0000E+00  0.1600E+02  0.1600E+02
      4.364  0.6661E-03  0.6661E-03  0.1600E+02  0.1600E+02
      4.474  0.1436E+00  0.1436E+00  0.1601E+02  0.1601E+02
      4.585  0.2618E+00  0.2618E+00  0.1603E+02  0.1603E+02
      4.696  0.8215E+00  0.8215E+00  0.1609E+02  0.1609E+02
      4.807  0.1452E+01  0.1452E+01  0.1622E+02  0.1622E+02
      4.918  0.2064E+01  0.2064E+01  0.1642E+02  0.1642E+02
      5.029  0.1963E+01  0.1963E+01  0.1668E+02  0.1668E+02
      5.139  0.1853E+01  0.1853E+01  0.1686E+02  0.1686E+02
      5.250  0.2603E+01  0.2603E+01  0.1711E+02  0.1711E+02
      5.361  0.2255E+01  0.2255E+01  0.1738E+02  0.1738E+02
      5.472  0.1883E+01  0.1883E+01  0.1760E+02  0.1760E+02
      5.583  0.1820E+01  0.1820E+01  0.1781E+02  0.1781E+02
      5.693  0.9387E+00  0.9387E+00  0.1796E+02  0.1796E+02
      5.804  0.0000E+00  0.0000E+00  0.1800E+02  0.1800E+02
      5.915  0.0000E+00  0.0000E+00  0.1800E+02  0.1800E+02
      6.026  0.0000E+00  0.0000E+00  0.1800E+02  0.1800E+02
      6.137  0.0000E+00  0.0000E+00  0.1800E+02  0.1800E+02
      6.248  0.0000E+00  0.0000E+00  0.1800E+02  0.1800E+02
      6.358  0.0000E+00  0.0000E+00  0.1800E+02  0.1800E+02
      6.469  0.0000E+00  0.0000E+00  0.1800E+02  0.1800E+02
      6.580  0.0000E+00  0.0000E+00  0.1800E+02  0.1800E+02
      6.691  0.0000E+00  0.0000E+00  0.1800E+02  0.1800E+02
      6.802  0.0000E+00  0.0000E+00  0.1800E+02  0.1800E+02
      6.913  0.0000E+00  0.0000E+00  0.1800E+02  0.1800E+02
      7.023  0.0000E+00  0.0000E+00  0.1800E+02  0.1800E+02
      7.134  0.2471E-02  0.2471E-02  0.1800E+02  0.1800E+02
      7.245  0.9902E-02  0.9902E-02  0.1800E+02  0.1800E+02
      7.356  0.1194E-01  0.1194E-01  0.1800E+02  0.1800E+02
      7.467  0.1512E-01  0.1512E-01  0.1800E+02  0.1800E+02
      7.578  0.1866E-01  0.1866E-01  0.1801E+02  0.1801E+02
      7.688  0.2164E-01  0.2164E-01  0.1801E+02  0.1801E+02
      7.799  0.2456E-01  0.2456E-01  0.1801E+02  0.1801E+02
      7.910  0.2772E-01  0.2772E-01  0.1801E+02  0.1801E+02
      8.021  0.3104E-01  0.3104E-01  0.1802E+02  0.1802E+02
      8.132  0.3448E-01  0.3448E-01  0.1802E+02  0.1802E+02
      8.243  0.3804E-01  0.3804E-01  0.1802E+02  0.1802E+02
      8.353  0.4176E-01  0.4176E-01  0.1803E+02  0.1803E+02
      8.464  0.4557E-01  0.4557E-01  0.1803E+02  0.1803E+02
      8.575  0.4948E-01  0.4948E-01  0.1804E+02  0.1804E+02
      8.686  0.5367E-01  0.5367E-01  0.1804E+02  0.1804E+02
      8.797  0.5823E-01  0.5823E-01  0.1805E+02  0.1805E+02
      8.907  0.6303E-01  0.6303E-01  0.1806E+02  0.1806E+02
      9.018  0.6818E-01  0.6818E-01  0.1806E+02  0.1806E+02
      9.129  0.7347E-01  0.7347E-01  0.1807E+02  0.1807E+02
      9.240  0.7887E-01  0.7887E-01  0.1808E+02  0.1808E+02
      9.351  0.8467E-01  0.8467E-01  0.1809E+02  0.1809E+02
      9.462  0.9132E-01  0.9132E-01  0.1810E+02  0.1810E+02
      9.572  0.9833E-01  0.9833E-01  0.1811E+02  0.1811E+02
      9.683  0.1067E+00  0.1067E+00  0.1812E+02  0.1812E+02
      9.794  0.1142E+00  0.1142E+00  0.1813E+02  0.1813E+02
      9.905  0.1200E+00  0.1200E+00  0.1815E+02  0.1815E+02
     10.016  0.1302E+00  0.1302E+00  0.1816E+02  0.1816E+02
     10.127  0.1395E+00  0.1395E+00  0.1818E+02  0.1818E+02
     10.237  0.1514E+00  0.1514E+00  0.1819E+02  0.1819E+02
     10.348  0.1647E+00  0.1647E+00  0.1821E+02  0.1821E+02
     10.459  0.1778E+00  0.1778E+00  0.1823E+02  0.1823E+02
     10.570  0.1918E+00  0.1918E+00  0.1825E+02  0.1825E+02
     10.681  0.2108E+00  0.2108E+00  0.1827E+02  0.1827E+02
     10.792  0.2342E+00  0.2342E+00  0.1830E+02  0.1830E+02
     10.902  0.2618E+00  0.2618E+00  0.1832E+02  0.1832E+02
     11.013  0.3399E+00  0.3399E+00  0.1835E+02  0.1835E+02
     11.124  0.3850E+00  0.3850E+00  0.1840E+02  0.1840E+02
     11.235  0.3870E+00  0.3870E+00  0.1844E+02  0.1844E+02
     11.346  0.3985E+00  0.3985E+00  0.1848E+02  0.1848E+02
     11.456  0.4072E+00  0.4072E+00  0.1853E+02  0.1853E+02
     11.567  0.4402E+00  0.4402E+00  0.1857E+02  0.1857E+02
     11.678  0.5119E+00  0.5119E+00  0.1863E+02  0.1863E+02
     11.789  0.5880E+00  0.5880E+00  0.1869E+02  0.1869E+02
     11.900  0.6669E+00  0.6669E+00  0.1876E+02  0.1876E+02
     12.011  0.6638E+00  0.6638E+00  0.1883E+02  0.1883E+02
     12.121  0.6566E+00  0.6566E+00  0.1890E+02  0.1890E+02
     12.232  0.6505E+00  0.6505E+00  0.1898E+02  0.1898E+02
     12.343  0.6378E+00  0.6378E+00  0.1905E+02  0.1905E+02
     12.454  0.6258E+00  0.6257E+00  0.1912E+02  0.1912E+02
     12.565  0.6163E+00  0.6162E+00  0.1919E+02  0.1919E+02
     12.676  0.6064E+00  0.6064E+00  0.1925E+02  0.1925E+02
     12.786  0.5704E+00  0.5705E+00  0.1932E+02  0.1932E+02
     12.897  0.5547E+00  0.5548E+00  0.1938E+02  0.1938E+02
     13.008  0.5429E+00  0.5429E+00  0.1944E+02  0.1944E+02
     13.119  0.5317E+00  0.5316E+00  0.1950E+02  0.1950E+02
     13.230  0.5243E+00  0.5244E+00  0.1956E+02  0.1956E+02
     13.341  0.4912E+00  0.4910E+00  0.1962E+02  0.1962E+02
     13.451  0.4704E+00  0.4706E+00  0.1967E+02  0.1967E+02
     13.562  0.4524E+00  0.4530E+00  0.1972E+02  0.1972E+02
     13.673  0.4352E+00  0.4351E+00  0.1977E+02  0.1977E+02
     13.784  0.4292E+00  0.4287E+00  0.1982E+02  0.1982E+02
     13.895  0.4217E+00  0.4190E+00  0.1987E+02  0.1987E+02
     14.006  0.4036E+00  0.4058E+00  0.1991E+02  0.1991E+02
     14.116  0.3046E+00  0.2953E+00  0.1995E+02  0.1995E+02
     14.227  0.1985E+00  0.1741E+00  0.1998E+02  0.1998E+02
     14.338  0.6670E-01  0.8390E-01  0.2000E+02  0.1999E+02
     14.449  0.1064E-01  0.1656E-01  0.2000E+02  0.2000E+02
     14.560  0.0000E+00  0.0000E+00  0.2000E+02  0.2000E+02
     14.670  0.0000E+00  0.0000E+00  0.2000E+02  0.2000E+02
     14.781  0.0000E+00  0.0000E+00  0.2000E+02  0.2000E+02
     14.892  0.0000E+00  0.0000E+00  0.2000E+02  0.2000E+02
     15.003  0.0000E+00  0.0000E+00  0.2000E+02  0.2000E+02
     15.114  0.0000E+00  0.0000E+00  0.2000E+02  0.2000E+02
     15.225  0.0000E+00  0.0000E+00  0.2000E+02  0.2000E+02
     15.335  0.0000E+00  0.0000E+00  0.2000E+02  0.2000E+02
     15.446  0.0000E+00  0.0000E+00  0.2000E+02  0.2000E+02
     15.557  0.0000E+00  0.0000E+00  0.2000E+02  0.2000E+02
     15.668  0.0000E+00  0.0000E+00  0.2000E+02  0.2000E+02
     15.779  0.0000E+00  0.0000E+00  0.2000E+02  0.2000E+02
     15.890  0.0000E+00  0.0000E+00  0.2000E+02  0.2000E+02
     16.000  0.0000E+00  0.0000E+00  0.2000E+02  0.2000E+02
     16.111  0.0000E+00  0.0000E+00  0.2000E+02  0.2000E+02
     16.222  0.0000E+00  0.0000E+00  0.2000E+02  0.2000E+02
     16.333  0.0000E+00  0.0000E+00  0.2000E+02  0.2000E+02
     16.444  0.0000E+00  0.0000E+00  0.2000E+02  0.2000E+02
     16.555  0.0000E+00  0.0000E+00  0.2000E+02  0.2000E+02
     16.55452705    -16.69355424  301      3.72630902      1.00000000
    -16.694  0.0000E+00  0.0000E+00  0.0000E+00  0.0000E+00  0.0000E+00  0.0000E+00  0.0000E+00  0.0000E+00  0.0000E+00  0.0000E+00  0.0000E+00  0.0000E+00  0.0000E+00  0.0000E+00  0.0000E+00  0.0000E+00  0.0000E+00  0.0000E+00
    -16.583  0.0000E+00  0.0000E+00  0.0000E+00  0.0000E+00  0.0000E+00  0.0000E+00  0.0000E+00  0.0000E+00  0.0000E+00  0.0000E+00  0.0000E+00  0.0000E+00  0.0000E+00  0.0000E+00  0.0000E+00  0.0000E+00  0.0000E+00  0.0000E+00
    -16.472  0.0000E+00  0.0000E+00  0.0000E+00  0.0000E+00  0.0000E+00  0.0000E+00  0.0000E+00  0.0000E+00  0.0000E+00  0.0000E+00  0.0000E+00  0.0000E+00  0.0000E+00  0.0000E+00  0.0000E+00  0.0000E+00  0.0000E+00  0.0000E+00
    -16.361  0.0000E+00  0.0000E+00  0.0000E+00  0.0000E+00  0.0000E+00  0.0000E+00  0.0000E+00  0.0000E+00  0.0000E+00  0.0000E+00  0.0000E+00  0.0000E+00  0.0000E+00  0.0000E+00  0.0000E+00  0.0000E+00  0.0000E+00  0.0000E+00
    -16.250  0.0000E+00  0.0000E+00  0.0000E+00  0.0000E+00  0.0000E+00  0.0000E+00  0.0000E+00  0.0000E+00  0.0000E+00  0.0000E+00  0.0000E+00  0.0000E+00  0.0000E+00  0.0000E+00  0.0000E+00  0.0000E+00  0.0000E+00  0.0000E+00
    -16.139  0.0000E+00  0.0000E+00  0.0000E+00  0.0000E+00  0.0000E+00  0.0000E+00  0.0000E+00  0.0000E+00  0.0000E+00  0.0000E+00  0.0000E+00  0.0000E+00  0.0000E+00  0.0000E+00  0.0000E+00  0.0000E+00  0.0000E+00  0.0000E+00
    -16.029  0.0000E+00  0.0000E+00  0.0000E+00  0.0000E+00  0.0000E+00  0.0000E+00  0.0000E+00  0.0000E+00  0.0000E+00  0.0000E+00  0.0000E+00  0.0000E+00  0.0000E+00  0.0000E+00  0.0000E+00  0.0000E+00  0.0000E+00  0.0000E+00
    -15.918  0.0000E+00  0.0000E+00  0.0000E+00  0.0000E+00  0.0000E+00  0.0000E+00  0.0000E+00  0.0000E+00  0.0000E+00  0.0000E+00  0.0000E+00  0.0000E+00  0.0000E+00  0.0000E+00  0.0000E+00  0.0000E+00  0.0000E+00  0.0000E+00
    -15.807  0.0000E+00  0.0000E+00  0.0000E+00  0.0000E+00  0.0000E+00  0.0000E+00  0.0000E+00  0.0000E+00  0.0000E+00  0.0000E+00  0.0000E+00  0.0000E+00  0.0000E+00  0.0000E+00  0.0000E+00  0.0000E+00  0.0000E+00  0.0000E+00
    -15.696  0.0000E+00  0.0000E+00  0.0000E+00  0.0000E+00  0.0000E+00  0.0000E+00  0.0000E+00  0.0000E+00  0.0000E+00  0.0000E+00  0.0000E+00  0.0000E+00  0.0000E+00  0.0000E+00  0.0000E+00  0.0000E+00  0.0000E+00  0.0000E+00
    -15.585  0.0000E+00  0.0000E+00  0.0000E+00  0.0000E+00  0.0000E+00  0.0000E+00  0.0000E+00  0.0000E+00  0.0000E+00  0.0000E+00  0.0000E+00  0.0000E+00  0.0000E+00  0.0000E+00  0.0000E+00  0.0000E+00  0.0000E+00  0.0000E+00
    -15.474  0.0000E+00  0.0000E+00  0.0000E+00  0.0000E+00  0.0000E+00  0.0000E+00  0.0000E+00  0.0000E+00  0.0000E+00  0.0000E+00  0.0000E+00  0.0000E+00  0.0000E+00  0.0000E+00  0.0000E+00  0.0000E+00  0.0000E+00  0.0000E+00
    -15.364  0.0000E+00  0.0000E+00  0.0000E+00  0.0000E+00  0.0000E+00  0.0000E+00  0.0000E+00  0.0000E+00  0.0000E+00  0.0000E+00  0.0000E+00  0.0000E+00  0.0000E+00  0.0000E+00  0.0000E+00  0.0000E+00  0.0000E+00  0.0000E+00
    -15.253  0.0000E+00  0.0000E+00  0.0000E+00  0.0000E+00  0.0000E+00  0.0000E+00  0.0000E+00  0.0000E+00  0.0000E+00  0.0000E+00  0.0000E+00  0.0000E+00  0.0000E+00  0.0000E+00  0.0000E+00  0.0000E+00  0.0000E+00  0.0000E+00
    -15.142  0.0000E+00  0.0000E+00  0.0000E+00  0.0000E+00  0.0000E+00  0.0000E+00  0.0000E+00  0.0000E+00  0.0000E+00  0.0000E+00  0.0000E+00  0.0000E+00  0.0000E+00  0.0000E+00  0.0000E+00  0.0000E+00  0.0000E+00  0.0000E+00
    -15.031  0.0000E+00  0.0000E+00  0.0000E+00  0.0000E+00  0.0000E+00  0.0000E+00  0.0000E+00  0.0000E+00  0.0000E+00  0.0000E+00  0.0000E+00  0.0000E+00  0.0000E+00  0.0000E+00  0.0000E+00  0.0000E+00  0.0000E+00  0.0000E+00
    -14.920  0.0000E+00  0.0000E+00  0.0000E+00  0.0000E+00  0.0000E+00  0.0000E+00  0.0000E+00  0.0000E+00  0.0000E+00  0.0000E+00  0.0000E+00  0.0000E+00  0.0000E+00  0.0000E+00  0.0000E+00  0.0000E+00  0.0000E+00  0.0000E+00
    -14.809  0.0000E+00  0.0000E+00  0.0000E+00  0.0000E+00  0.0000E+00  0.0000E+00  0.0000E+00  0.0000E+00  0.0000E+00  0.0000E+00  0.0000E+00  0.0000E+00  0.0000E+00  0.0000E+00  0.0000E+00  0.0000E+00  0.0000E+00  0.0000E+00
    -14.699  0.0000E+00  0.0000E+00  0.0000E+00  0.0000E+00  0.0000E+00  0.0000E+00  0.0000E+00  0.0000E+00  0.0000E+00  0.0000E+00  0.0000E+00  0.0000E+00  0.0000E+00  0.0000E+00  0.0000E+00  0.0000E+00  0.0000E+00  0.0000E+00
    -14.588  0.7586E-02  0.7378E-02  0.8958E-04  0.8907E-04  0.3335E-04  0.3267E-04  0.1951E-03  0.1929E-03  0.1613E-06  0.9802E-07  0.3725E-07  0.3252E-07  0.3721E-05  0.2412E-05  0.4600E-07  0.4925E-07  0.5805E-05  0.3718E-05
    -14.477  0.1088E-01  0.1057E-01  0.2585E-03  0.2567E-03  0.1060E-03  0.1050E-03  0.5863E-03  0.5771E-03  0.7901E-06  0.4996E-06  0.2081E-06  0.1624E-06  0.2095E-04  0.1334E-04  0.2852E-06  0.2437E-06  0.3670E-04  0.2303E-04
    -14.366  0.1328E-01  0.1291E-01  0.4823E-03  0.4779E-03  0.2076E-03  0.2083E-03  0.1150E-02  0.1126E-02  0.2047E-05  0.1333E-05  0.4903E-06  0.3658E-06  0.6436E-04  0.3992E-04  0.8187E-06  0.6479E-06  0.1124E-03  0.6898E-04
    -14.255  0.1519E-01  0.1477E-01  0.8146E-03  0.8035E-03  0.3588E-03  0.3659E-03  0.1831E-02  0.1788E-02  0.4043E-05  0.2672E-05  0.1111E-05  0.8098E-06  0.1478E-03  0.8854E-04  0.1708E-05  0.1292E-05  0.2686E-03  0.1605E-03
    -14.145  0.1667E-01  0.1625E-01  0.1258E-02  0.1236E-02  0.5472E-03  0.5728E-03  0.2714E-02  0.2644E-02  0.7272E-05  0.4856E-05  0.2048E-05  0.1450E-05  0.3119E-03  0.1796E-03  0.2989E-05  0.2195E-05  0.5554E-03  0.3222E-03
    -14.034  0.1817E-01  0.1762E-01  0.1781E-02  0.1763E-02  0.7545E-03  0.8412E-03  0.3863E-02  0.3789E-02  0.1187E-04  0.7888E-05  0.2992E-05  0.2001E-05  0.6101E-03  0.3365E-03  0.4894E-05  0.3463E-05  0.1052E-02  0.5895E-03
    -13.923  0.1821E-01  0.1941E-01  0.2613E-02  0.2324E-02  0.1541E-02  0.1580E-02  0.4830E-02  0.4576E-02  0.1471E-04  0.1017E-04  0.6332E-05  0.4587E-05  0.1214E-02  0.5398E-03  0.7016E-05  0.5229E-05  0.1891E-02  0.1001E-02
    -13.812  0.1905E-01  0.2021E-01  0.3603E-02  0.3279E-02  0.2585E-02  0.2844E-02  0.5722E-02  0.5612E-02  0.1867E-04  0.1255E-04  0.1162E-04  0.7937E-05  0.2351E-02  0.1035E-02  0.9723E-05  0.7005E-05  0.3223E-02  0.1607E-02
    -13.701  0.1975E-01  0.2068E-01  0.4814E-02  0.4475E-02  0.4215E-02  0.4873E-02  0.6455E-02  0.6603E-02  0.2117E-04  0.1409E-04  0.1883E-04  0.1256E-04  0.4648E-02  0.2057E-02  0.1297E-04  0.9474E-05  0.5152E-02  0.2461E-02
    -13.590  0.2040E-01  0.2070E-01  0.6754E-02  0.6502E-02  0.6446E-02  0.7680E-02  0.7444E-02  0.8190E-02  0.2482E-04  0.1652E-04  0.2756E-04  0.1846E-04  0.9170E-02  0.4257E-02  0.1621E-04  0.1229E-04  0.8830E-02  0.3951E-02
    -13.480  0.2149E-01  0.2013E-01  0.9930E-02  0.1014E-01  0.9951E-02  0.1236E-01  0.8549E-02  0.1068E-01  0.2816E-04  0.1885E-04  0.3835E-04  0.2590E-04  0.2102E-01  0.1020E-01  0.1957E-04  0.1520E-04  0.1564E-01  0.6352E-02
    -13.369  0.2932E-01  0.1971E-01  0.1688E-01  0.2176E-01  0.1581E-01  0.2405E-01  0.1090E-01  0.2049E-01  0.3803E-04  0.2259E-04  0.5188E-04  0.3481E-04  0.7793E-01  0.3786E-01  0.2664E-04  0.1653E-04  0.4468E-01  0.1267E-01
    -13.258  0.1303E-01  0.1180E-01  0.3357E-01  0.3175E-01  0.3329E-01  0.2808E-01  0.3064E-01  0.2626E-01  0.2760E-04  0.1903E-04  0.5804E-04  0.3896E-04  0.9012E-01  0.6257E-01  0.2551E-04  0.1658E-04  0.4232E-01  0.2946E-01
    -13.147  0.0000E+00  0.0000E+00  0.0000E+00  0.0000E+00  0.0000E+00  0.0000E+00  0.0000E+00  0.0000E+00  0.0000E+00  0.0000E+00  0.0000E+00  0.0000E+00  0.0000E+00  0.0000E+00  0.0000E+00  0.0000E+00  0.0000E+00  0.0000E+00
    -13.036  0.0000E+00  0.0000E+00  0.0000E+00  0.0000E+00  0.0000E+00  0.0000E+00  0.0000E+00  0.0000E+00  0.0000E+00  0.0000E+00  0.0000E+00  0.0000E+00  0.0000E+00  0.0000E+00  0.0000E+00  0.0000E+00  0.0000E+00  0.0000E+00
    -12.925  0.0000E+00  0.0000E+00  0.0000E+00  0.0000E+00  0.0000E+00  0.0000E+00  0.0000E+00  0.0000E+00  0.0000E+00  0.0000E+00  0.0000E+00  0.0000E+00  0.0000E+00  0.0000E+00  0.0000E+00  0.0000E+00  0.0000E+00  0.0000E+00
    -12.815  0.0000E+00  0.0000E+00  0.0000E+00  0.0000E+00  0.0000E+00  0.0000E+00  0.0000E+00  0.0000E+00  0.0000E+00  0.0000E+00  0.0000E+00  0.0000E+00  0.0000E+00  0.0000E+00  0.0000E+00  0.0000E+00  0.0000E+00  0.0000E+00
    -12.704  0.0000E+00  0.0000E+00  0.0000E+00  0.0000E+00  0.0000E+00  0.0000E+00  0.0000E+00  0.0000E+00  0.0000E+00  0.0000E+00  0.0000E+00  0.0000E+00  0.0000E+00  0.0000E+00  0.0000E+00  0.0000E+00  0.0000E+00  0.0000E+00
    -12.593  0.0000E+00  0.0000E+00  0.0000E+00  0.0000E+00  0.0000E+00  0.0000E+00  0.0000E+00  0.0000E+00  0.0000E+00  0.0000E+00  0.0000E+00  0.0000E+00  0.0000E+00  0.0000E+00  0.0000E+00  0.0000E+00  0.0000E+00  0.0000E+00
    -12.482  0.0000E+00  0.0000E+00  0.0000E+00  0.0000E+00  0.0000E+00  0.0000E+00  0.0000E+00  0.0000E+00  0.0000E+00  0.0000E+00  0.0000E+00  0.0000E+00  0.0000E+00  0.0000E+00  0.0000E+00  0.0000E+00  0.0000E+00  0.0000E+00
    -12.371  0.0000E+00  0.0000E+00  0.0000E+00  0.0000E+00  0.0000E+00  0.0000E+00  0.0000E+00  0.0000E+00  0.0000E+00  0.0000E+00  0.0000E+00  0.0000E+00  0.0000E+00  0.0000E+00  0.0000E+00  0.0000E+00  0.0000E+00  0.0000E+00
    -12.260  0.0000E+00  0.0000E+00  0.0000E+00  0.0000E+00  0.0000E+00  0.0000E+00  0.0000E+00  0.0000E+00  0.0000E+00  0.0000E+00  0.0000E+00  0.0000E+00  0.0000E+00  0.0000E+00  0.0000E+00  0.0000E+00  0.0000E+00  0.0000E+00
    -12.150  0.0000E+00  0.0000E+00  0.0000E+00  0.0000E+00  0.0000E+00  0.0000E+00  0.0000E+00  0.0000E+00  0.0000E+00  0.0000E+00  0.0000E+00  0.0000E+00  0.0000E+00  0.0000E+00  0.0000E+00  0.0000E+00  0.0000E+00  0.0000E+00
    -12.039  0.0000E+00  0.0000E+00  0.0000E+00  0.0000E+00  0.0000E+00  0.0000E+00  0.0000E+00  0.0000E+00  0.0000E+00  0.0000E+00  0.0000E+00  0.0000E+00  0.0000E+00  0.0000E+00  0.0000E+00  0.0000E+00  0.0000E+00  0.0000E+00
    -11.928  0.0000E+00  0.0000E+00  0.0000E+00  0.0000E+00  0.0000E+00  0.0000E+00  0.0000E+00  0.0000E+00  0.0000E+00  0.0000E+00  0.0000E+00  0.0000E+00  0.0000E+00  0.0000E+00  0.0000E+00  0.0000E+00  0.0000E+00  0.0000E+00
    -11.817  0.0000E+00  0.0000E+00  0.0000E+00  0.0000E+00  0.0000E+00  0.0000E+00  0.0000E+00  0.0000E+00  0.0000E+00  0.0000E+00  0.0000E+00  0.0000E+00  0.0000E+00  0.0000E+00  0.0000E+00  0.0000E+00  0.0000E+00  0.0000E+00
    -11.706  0.0000E+00  0.0000E+00  0.0000E+00  0.0000E+00  0.0000E+00  0.0000E+00  0.0000E+00  0.0000E+00  0.0000E+00  0.0000E+00  0.0000E+00  0.0000E+00  0.0000E+00  0.0000E+00  0.0000E+00  0.0000E+00  0.0000E+00  0.0000E+00
    -11.596  0.0000E+00  0.0000E+00  0.0000E+00  0.0000E+00  0.0000E+00  0.0000E+00  0.0000E+00  0.0000E+00  0.0000E+00  0.0000E+00  0.0000E+00  0.0000E+00  0.0000E+00  0.0000E+00  0.0000E+00  0.0000E+00  0.0000E+00  0.0000E+00
    -11.485  0.0000E+00  0.0000E+00  0.0000E+00  0.0000E+00  0.0000E+00  0.0000E+00  0.0000E+00  0.0000E+00  0.0000E+00  0.0000E+00  0.0000E+00  0.0000E+00  0.0000E+00  0.0000E+00  0.0000E+00  0.0000E+00  0.0000E+00  0.0000E+00
    -11.374  0.0000E+00  0.0000E+00  0.0000E+00  0.0000E+00  0.0000E+00  0.0000E+00  0.0000E+00  0.0000E+00  0.0000E+00  0.0000E+00  0.0000E+00  0.0000E+00  0.0000E+00  0.0000E+00  0.0000E+00  0.0000E+00  0.0000E+00  0.0000E+00
    -11.263  0.0000E+00  0.0000E+00  0.0000E+00  0.0000E+00  0.0000E+00  0.0000E+00  0.0000E+00  0.0000E+00  0.0000E+00  0.0000E+00  0.0000E+00  0.0000E+00  0.0000E+00  0.0000E+00  0.0000E+00  0.0000E+00  0.0000E+00  0.0000E+00
    -11.152  0.0000E+00  0.0000E+00  0.0000E+00  0.0000E+00  0.0000E+00  0.0000E+00  0.0000E+00  0.0000E+00  0.0000E+00  0.0000E+00  0.0000E+00  0.0000E+00  0.0000E+00  0.0000E+00  0.0000E+00  0.0000E+00  0.0000E+00  0.0000E+00