    4    4    1    2
  0.9063964E+01  0.5107186E-09  0.5107186E-09  0.5107186E-09  0.5000000E-15
  1.000000000000000E-004
  CAR 
 NiO_af2                                 
     32    770     20
 
  0.2500000E-01  0.2500000E-01  0.2500000E-01  0.2500000E-03
    1      -14.693554    -14.693554   1.000000   1.000000
    2      -13.235084    -13.235084   1.000000   1.000000
    3       -3.473847     -3.473847   1.000000   1.000000
    4       -2.490213     -2.490213   1.000000   1.000000
    5       -2.490213     -2.490213   1.000000   1.000000
    6       -1.346904     -1.346904   1.000000   1.000000
    7       -1.346904     -1.346904   1.000000   1.000000
    8       -0.572488     -0.572488   1.000000   1.000000
    9        1.293437      1.293437   1.000000   1.000000
   10        1.293437      1.293437   1.000000   1.000000
   11        2.621977      2.621977   1.000000   1.000000
   12        2.621977      2.621977   1.000000   1.000000
   13        2.730200      2.730201   1.000000   1.000000
   14        2.754818      2.754818   1.000000   1.000000
   15        2.754819      2.754819   1.000000   1.000000
   16        2.983067      2.983069   1.000000   1.000000
   17        5.662830      5.662830   0.000000   0.000000
   18        5.662830      5.662830   0.000000   0.000000
   19        7.072023      7.072023   0.000000   0.000000
   20       10.989445     10.989449   0.000000   0.000000
 
  0.7500000E-01  0.2500000E-01  0.2500000E-01  0.7500000E-03
    1      -14.663582    -14.663582   1.000000   1.000000
    2      -13.239202    -13.239202   1.000000   1.000000
    3       -3.426345     -3.426345   1.000000   1.000000
    4       -2.483289     -2.483289   1.000000   1.000000
    5       -2.478599     -2.478599   1.000000   1.000000
    6       -1.362462     -1.362462   1.000000   1.000000
    7       -1.352629     -1.352629   1.000000   1.000000
    8       -0.567801     -0.567801   1.000000   1.000000
    9        1.134452      1.134452   1.000000   1.000000
   10        1.311172      1.311172   1.000000   1.000000
   11        2.409344      2.409343   1.000000   1.000000
   12        2.461517      2.461517   1.000000   1.000000
   13        2.746310      2.746310   1.000000   1.000000
   14        2.885424      2.885424   1.000000   1.000000
   15        2.895005      2.895005   1.000000   1.000000
   16        3.025867      3.025866   1.000000   1.000000
   17        5.542909      5.542909   0.000000   0.000000
   18        5.652498      5.652498   0.000000   0.000000
   19        7.277664      7.277664   0.000000   0.000000
   20       11.146880     11.146880   0.000000   0.000000
 
  0.1250000E+00  0.2500000E-01  0.2500000E-01  0.7500000E-03
    1      -14.580824    -14.580824   1.000000   1.000000
    2      -13.241626    -13.241626   1.000000   1.000000
    3       -3.306937     -3.306937   1.000000   1.000000
    4       -2.463715     -2.463715   1.000000   1.000000
    5       -2.445501     -2.445501   1.000000   1.000000
    6       -1.414404     -1.414404   1.000000   1.000000
    7       -1.366741     -1.366741   1.000000   1.000000
    8       -0.553434     -0.553434   1.000000   1.000000
    9        0.813091      0.813091   1.000000   1.000000
   10        1.332078      1.332078   1.000000   1.000000
   11        2.051343      2.051342   1.000000   1.000000
   12        2.257478      2.257478   1.000000   1.000000
   13        2.757715      2.757714   1.000000   1.000000
   14        3.010717      3.010717   1.000000   1.000000
   15        3.085124      3.085122   1.000000   1.000000
   16        3.098849      3.098848   1.000000   1.000000
   17        5.271728      5.271728   0.000000   0.000000
   18        5.603382      5.603382   0.000000   0.000000
   19        7.796939      7.796938   0.000000   0.000000
   20       11.575882     11.575883   0.000000   0.000000
 
  0.1750000E+00  0.2500000E-01  0.2500000E-01  0.7500000E-03
    1      -14.451249    -14.451249   1.000000   1.000000
    2      -13.240561    -13.240561   1.000000   1.000000
    3       -3.144189     -3.144189   1.000000   1.000000
    4       -2.421619     -2.421619   1.000000   1.000000
    5       -2.396990     -2.396990   1.000000   1.000000
    6       -1.517636     -1.517636   1.000000   1.000000
    7       -1.379856     -1.379856   1.000000   1.000000
    8       -0.542796     -0.542796   1.000000   1.000000
    9        0.486978      0.486978   1.000000   1.000000
   10        1.329545      1.329545   1.000000   1.000000
   11        1.630027      1.630027   1.000000   1.000000
   12        2.104396      2.104396   1.000000   1.000000
   13        2.735301      2.735301   1.000000   1.000000
   14        3.051283      3.051283   1.000000   1.000000
   15        3.178343      3.178344   1.000000   1.000000
   16        3.251219      3.251221   1.000000   1.000000
   17        4.985067      4.985067   0.000000   0.000000
   18        5.528047      5.528047   0.000000   0.000000
   19        8.502417      8.502417   0.000000   0.000000
   20       12.180616     12.180618   0.000000   0.000000
 
  0.2250000E+00  0.2500000E-01  0.2500000E-01  0.7500000E-03
    1      -14.284091    -14.284091   1.000000   1.000000
    2      -13.236173    -13.236173   1.000000   1.000000
    3       -2.992237     -2.992237   1.000000   1.000000
    4       -2.347832     -2.347832   1.000000   1.000000
    5       -2.325257     -2.325257   1.000000   1.000000
    6       -1.692919     -1.692919   1.000000   1.000000
    7       -1.377442     -1.377442   1.000000   1.000000
    8       -0.563665     -0.563665   1.000000   1.000000
    9        0.269132      0.269132   1.000000   1.000000
   10        1.206859      1.206859   1.000000   1.000000
   11        1.255322      1.255322   1.000000   1.000000
   12        2.055946      2.055946   1.000000   1.000000
   13        2.691521      2.691521   1.000000   1.000000
   14        2.926926      2.926926   1.000000   1.000000
   15        3.250539      3.250540   1.000000   1.000000
   16        3.378085      3.378085   1.000000   1.000000
   17        4.821877      4.821877   0.000000   0.000000
   18        5.435386      5.435386   0.000000   0.000000
   19        9.286335      9.286335   0.000000   0.000000
   20       12.863764     12.863705   0.000000   0.000000
 
  0.2750000E+00  0.2500000E-01  0.2500000E-01  0.7500000E-03
    1      -14.094382    -14.094382   1.000000   1.000000
    2      -13.227113    -13.227113   1.000000   1.000000
    3       -2.897672     -2.897672   1.000000   1.000000
    4       -2.311313     -2.311313   1.000000   1.000000
    5       -2.148876     -2.148876   1.000000   1.000000
    6       -1.939228     -1.939228   1.000000   1.000000
    7       -1.344436     -1.344436   1.000000   1.000000
    8       -0.614970     -0.614970   1.000000   1.000000
    9        0.116081      0.116082   1.000000   1.000000
   10        0.884496      0.884496   1.000000   1.000000
   11        1.104228      1.104228   1.000000   1.000000
   12        2.119868      2.119868   1.000000   1.000000
   13        2.582839      2.582839   1.000000   1.000000
   14        2.701839      2.701839   1.000000   1.000000
   15        3.318586      3.318586   1.000000   1.000000
   16        3.454328      3.454327   1.000000   1.000000
   17        4.805760      4.805760   0.000000   0.000000
   18        5.342445      5.342445   0.000000   0.000000
   19       10.071385     10.071384   0.000000   0.000000
   20       13.529732     13.530436   0.000000   0.000000
 
  0.3250000E+00  0.2500000E-01  0.2500000E-01  0.7500000E-03
    1      -13.896786    -13.896786   1.000000   1.000000
    2      -13.214691    -13.214691   1.000000   1.000000
    3       -2.846776     -2.846776   1.000000   1.000000
    4       -2.295498     -2.295498   1.000000   1.000000
    5       -2.222747     -2.222747   1.000000   1.000000
    6       -1.913505     -1.913505   1.000000   1.000000
    7       -1.274233     -1.274233   1.000000   1.000000
    8       -0.652768     -0.652768   1.000000   1.000000
    9       -0.178829     -0.178829   1.000000   1.000000
   10        0.807534      0.807534   1.000000   1.000000
   11        0.915459      0.915459   1.000000   1.000000
   12        2.256764      2.256764   1.000000   1.000000
   13        2.305652      2.305653   1.000000   1.000000
   14        2.621610      2.621611   1.000000   1.000000
   15        3.379096      3.379097   1.000000   1.000000
   16        3.470944      3.470943   1.000000   1.000000
   17        4.858640      4.858640   0.000000   0.000000
   18        5.260118      5.260118   0.000000   0.000000
   19       10.813667     10.813661   0.000000   0.000000
   20       14.046622     14.044148   0.000000   0.000000
 
  0.3750000E+00  0.2500000E-01  0.2500000E-01  0.7500000E-03
    1      -13.708921    -13.708921   1.000000   1.000000
    2      -13.203907    -13.203907   1.000000   1.000000
    3       -2.794927     -2.794927   1.000000   1.000000
    4       -2.478581     -2.478581   1.000000   1.000000
    5       -2.298243     -2.298243   1.000000   1.000000
    6       -1.702692     -1.702692   1.000000   1.000000
    7       -1.174970     -1.174970   1.000000   1.000000
    8       -0.688166     -0.688166   1.000000   1.000000
    9       -0.539965     -0.539965   1.000000   1.000000
   10        0.723383      0.723383   1.000000   1.000000
   11        0.824976      0.824976   1.000000   1.000000
   12        2.128728      2.128728   1.000000   1.000000
   13        2.433133      2.433133   1.000000   1.000000
   14        2.573711      2.573712   1.000000   1.000000
   15        3.416011      3.416011   1.000000   1.000000
   16        3.428357      3.428356   1.000000   1.000000
   17        4.917179      4.917179   0.000000   0.000000
   18        5.194979      5.194979   0.000000   0.000000
   19       11.475950     11.475952   0.000000   0.000000
   20       14.064721     14.064709   0.000000   0.000000
 
  0.4250000E+00  0.2500000E-01  0.2500000E-01  0.7500000E-03
    1      -13.546525    -13.546525   1.000000   1.000000
    2      -13.203015    -13.203015   1.000000   1.000000
    3       -2.716688     -2.716688   1.000000   1.000000
    4       -2.672559     -2.672559   1.000000   1.000000
    5       -2.309345     -2.309345   1.000000   1.000000
    6       -1.594213     -1.594213   1.000000   1.000000
    7       -1.066815     -1.066815   1.000000   1.000000
    8       -0.970318     -0.970318   1.000000   1.000000
    9       -0.548018     -0.548018   1.000000   1.000000
   10        0.553076      0.553076   1.000000   1.000000
   11        0.737907      0.737907   1.000000   1.000000
   12        2.160776      2.160776   1.000000   1.000000
   13        2.535874      2.535874   1.000000   1.000000
   14        2.631150      2.631150   1.000000   1.000000
   15        3.332999      3.332999   1.000000   1.000000
   16        3.416457      3.416457   1.000000   1.000000
   17        4.958729      4.958729   0.000000   0.000000
   18        5.147716      5.147716   0.000000   0.000000
   19       12.044126     12.044129   0.000000   0.000000
   20       13.719903     13.719620   0.000000   0.000000
 
  0.4750000E+00  0.2500000E-01  0.2500000E-01  0.7500000E-03
    1      -13.426466    -13.426467   1.000000   1.000000
    2      -13.216222    -13.216222   1.000000   1.000000
    3       -2.810725     -2.810725   1.000000   1.000000
    4       -2.589193     -2.589193   1.000000   1.000000
    5       -2.320141     -2.320141   1.000000   1.000000
    6       -1.670256     -1.670256   1.000000   1.000000
    7       -1.137326     -1.137326   1.000000   1.000000
    8       -0.980145     -0.980145   1.000000   1.000000
    9       -0.442339     -0.442339   1.000000   1.000000
   10        0.428636      0.428636   1.000000   1.000000
   11        0.575237      0.575237   1.000000   1.000000
   12        2.301033      2.301033   1.000000   1.000000
   13        2.505461      2.505461   1.000000   1.000000
   14        2.835571      2.835571   1.000000   1.000000
   15        3.195078      3.195078   1.000000   1.000000
   16        3.384810      3.384810   1.000000   1.000000
   17        4.987242      4.987242   0.000000   0.000000
   18        5.117243      5.117243   0.000000   0.000000
   19       12.501837     12.505722   0.000000   0.000000
   20       13.335638     13.336429   0.000000   0.000000
 
 -0.4750000E+00  0.2500000E-01  0.2500000E-01  0.7500000E-03
    1      -13.370888    -13.370888   1.000000   1.000000
    2      -13.234099    -13.234099   1.000000   1.000000
    3       -2.859398     -2.859398   1.000000   1.000000
    4       -2.504724     -2.504724   1.000000   1.000000
    5       -2.323301     -2.323301   1.000000   1.000000
    6       -1.757016     -1.757016   1.000000   1.000000
    7       -1.182084     -1.182084   1.000000   1.000000
    8       -0.946504     -0.946504   1.000000   1.000000
    9       -0.356882     -0.356882   1.000000   1.000000
   10        0.379175      0.379175   1.000000   1.000000
   11        0.464270      0.464270   1.000000   1.000000
   12        2.398010      2.398010   1.000000   1.000000
   13        2.467402      2.467402   1.000000   1.000000
   14        3.013245      3.013245   1.000000   1.000000
   15        3.050788      3.050788   1.000000   1.000000
   16        3.359791      3.359791   1.000000   1.000000
   17        5.016454      5.016454   0.000000   0.000000
   18        5.101133      5.101133   0.000000   0.000000
   19       12.781406     12.781006   0.000000   0.000000
   20       13.032267     13.032240   0.000000   0.000000
 
 -0.4250000E+00  0.2500000E-01  0.2500000E-01  0.7500000E-03
    1      -13.419372    -13.419372   1.000000   1.000000
    2      -13.224379    -13.224379   1.000000   1.000000
    3       -2.826337     -2.826337   1.000000   1.000000
    4       -2.542166     -2.542166   1.000000   1.000000
    5       -2.317429     -2.317429   1.000000   1.000000
    6       -1.650694     -1.650694   1.000000   1.000000
    7       -1.198057     -1.198057   1.000000   1.000000
    8       -0.982017     -0.982017   1.000000   1.000000
    9       -0.376514     -0.376514   1.000000   1.000000
   10        0.416492      0.416492   1.000000   1.000000
   11        0.495569      0.495569   1.000000   1.000000
   12        2.325920      2.325920   1.000000   1.000000
   13        2.480109      2.480109   1.000000   1.000000
   14        2.840728      2.840728   1.000000   1.000000
   15        3.221756      3.221756   1.000000   1.000000
   16        3.370623      3.370623   1.000000   1.000000
   17        5.047053      5.047053   0.000000   0.000000
   18        5.096610      5.096610   0.000000   0.000000
   19       12.435134     12.435131   0.000000   0.000000
   20       13.262015     13.262175   0.000000   0.000000
 
 -0.3750000E+00  0.2500000E-01  0.2500000E-01  0.7500000E-03
    1      -13.543101    -13.543101   1.000000   1.000000
    2      -13.208717    -13.208717   1.000000   1.000000
    3       -2.722853     -2.722853   1.000000   1.000000
    4       -2.613839     -2.613839   1.000000   1.000000
    5       -2.304481     -2.304481   1.000000   1.000000
    6       -1.581998     -1.581998   1.000000   1.000000
    7       -1.071061     -1.071061   1.000000   1.000000
    8       -1.053396     -1.053396   1.000000   1.000000
    9       -0.462148     -0.462148   1.000000   1.000000
   10        0.527390      0.527390   1.000000   1.000000
   11        0.609555      0.609555   1.000000   1.000000
   12        2.205191      2.205190   1.000000   1.000000
   13        2.517886      2.517886   1.000000   1.000000
   14        2.651861      2.651861   1.000000   1.000000
   15        3.375829      3.375829   1.000000   1.000000
   16        3.384161      3.384161   1.000000   1.000000
   17        5.063709      5.063709   0.000000   0.000000
   18        5.107193      5.107193   0.000000   0.000000
   19       11.931762     11.931770   0.000000   0.000000
   20       13.567346     13.567500   0.000000   0.000000
 
 -0.3250000E+00  0.2500000E-01  0.2500000E-01  0.7500000E-03
    1      -13.711071    -13.711071   1.000000   1.000000
    2      -13.204734    -13.204734   1.000000   1.000000
    3       -2.721746     -2.721746   1.000000   1.000000
    4       -2.483849     -2.483849   1.000000   1.000000
    5       -2.290629     -2.290629   1.000000   1.000000
    6       -1.729771     -1.729771   1.000000   1.000000
    7       -1.181057     -1.181057   1.000000   1.000000
    8       -0.694947     -0.694947   1.000000   1.000000
    9       -0.526961     -0.526961   1.000000   1.000000
   10        0.676193      0.676193   1.000000   1.000000
   11        0.683201      0.683201   1.000000   1.000000
   12        2.212174      2.212173   1.000000   1.000000
   13        2.470803      2.470803   1.000000   1.000000
   14        2.562019      2.562019   1.000000   1.000000
   15        3.368434      3.368434   1.000000   1.000000
   16        3.486489      3.486490   1.000000   1.000000
   17        5.048152      5.048152   0.000000   0.000000
   18        5.136300      5.136300   0.000000   0.000000
   19       11.338059     11.338060   0.000000   0.000000
   20       13.866130     13.868657   0.000000   0.000000
 
 -0.2750000E+00  0.2500000E-01  0.2500000E-01  0.7500000E-03
    1      -13.904529    -13.904529   1.000000   1.000000
    2      -13.207708    -13.207708   1.000000   1.000000
    3       -2.768339     -2.768339   1.000000   1.000000
    4       -2.286776     -2.286776   1.000000   1.000000
    5       -2.228355     -2.228355   1.000000   1.000000
    6       -1.961011     -1.961011   1.000000   1.000000
    7       -1.281738     -1.281738   1.000000   1.000000
    8       -0.569995     -0.569995   1.000000   1.000000
    9       -0.272410     -0.272410   1.000000   1.000000
   10        0.679746      0.679746   1.000000   1.000000
   11        0.856429      0.856429   1.000000   1.000000
   12        2.311522      2.311522   1.000000   1.000000
   13        2.412928      2.412928   1.000000   1.000000
   14        2.615906      2.615906   1.000000   1.000000
   15        3.323374      3.323374   1.000000   1.000000
   16        3.540019      3.540017   1.000000   1.000000
   17        4.997047      4.997047   0.000000   0.000000
   18        5.188940      5.188940   0.000000   0.000000
   19       10.663148     10.663152   0.000000   0.000000
   20       14.004702     14.005569   0.000000   0.000000
 
 -0.2250000E+00  0.2500000E-01  0.2500000E-01  0.7500000E-03
    1      -14.105521    -14.105521   1.000000   1.000000
    2      -13.214157    -13.214157   1.000000   1.000000
    3       -2.835050     -2.835050   1.000000   1.000000
    4       -2.302382     -2.302382   1.000000   1.000000
    5       -2.210948     -2.210948   1.000000   1.000000
    6       -1.930346     -1.930346   1.000000   1.000000
    7       -1.351576     -1.351576   1.000000   1.000000
    8       -0.558111     -0.558111   1.000000   1.000000
    9        0.052487      0.052487   1.000000   1.000000
   10        0.779846      0.779846   1.000000   1.000000
   11        1.026049      1.026050   1.000000   1.000000
   12        2.191652      2.191652   1.000000   1.000000
   13        2.645176      2.645177   1.000000   1.000000
   14        2.747328      2.747329   1.000000   1.000000
   15        3.266100      3.266101   1.000000   1.000000
   16        3.528993      3.528993   1.000000   1.000000
   17        4.935361      4.935361   0.000000   0.000000
   18        5.267945      5.267945   0.000000   0.000000
   19        9.925892      9.925893   0.000000   0.000000
   20       13.571468     13.568107   0.000000   0.000000
 
 -0.1750000E+00  0.2500000E-01  0.2500000E-01  0.7500000E-03
    1      -14.296903    -14.296903   1.000000   1.000000
    2      -13.220554    -13.220554   1.000000   1.000000
    3       -2.965920     -2.965920   1.000000   1.000000
    4       -2.369540     -2.369540   1.000000   1.000000
    5       -2.340410     -2.340410   1.000000   1.000000
    6       -1.686495     -1.686495   1.000000   1.000000
    7       -1.382793     -1.382793   1.000000   1.000000
    8       -0.538806     -0.538806   1.000000   1.000000
    9        0.284221      0.284221   1.000000   1.000000
   10        1.093453      1.093453   1.000000   1.000000
   11        1.164097      1.164097   1.000000   1.000000
   12        2.136370      2.136370   1.000000   1.000000
   13        2.705902      2.705902   1.000000   1.000000
   14        2.992111      2.992111   1.000000   1.000000
   15        3.226305      3.226304   1.000000   1.000000
   16        3.451091      3.451090   1.000000   1.000000
   17        4.930854      4.930854   0.000000   0.000000
   18        5.366108      5.366108   0.000000   0.000000
   19        9.153539      9.153539   0.000000   0.000000
   20       12.892792     12.892704   0.000000   0.000000
 
 -0.1250000E+00  0.2500000E-01  0.2500000E-01  0.7500000E-03
    1      -14.462717    -14.462717   1.000000   1.000000
    2      -13.224691    -13.224691   1.000000   1.000000
    3       -3.150324     -3.150324   1.000000   1.000000
    4       -2.444352     -2.444352   1.000000   1.000000
    5       -2.391669     -2.391669   1.000000   1.000000
    6       -1.515094     -1.515094   1.000000   1.000000
    7       -1.382721     -1.382721   1.000000   1.000000
    8       -0.538140     -0.538140   1.000000   1.000000
    9        0.560489      0.560489   1.000000   1.000000
   10        1.248179      1.248179   1.000000   1.000000
   11        1.521357      1.521357   1.000000   1.000000
   12        2.170960      2.170960   1.000000   1.000000
   13        2.748250      2.748250   1.000000   1.000000
   14        3.043453      3.043453   1.000000   1.000000
   15        3.216757      3.216757   1.000000   1.000000
   16        3.318283      3.318283   1.000000   1.000000
   17        5.069711      5.069711   0.000000   0.000000
   18        5.471036      5.471036   0.000000   0.000000
   19        8.394185      8.394185   0.000000   0.000000
   20       12.197603     12.197606   0.000000   0.000000
 
 -0.7500000E-01  0.2500000E-01  0.2500000E-01  0.7500000E-03
    1      -14.590093    -14.590093   1.000000   1.000000
    2      -13.228526    -13.228526   1.000000   1.000000
    3       -3.323991     -3.323991   1.000000   1.000000
    4       -2.475122     -2.475122   1.000000   1.000000
    5       -2.442273     -2.442273   1.000000   1.000000
    6       -1.414117     -1.414117   1.000000   1.000000
    7       -1.368114     -1.368114   1.000000   1.000000
    8       -0.552463     -0.552463   1.000000   1.000000
    9        0.894603      0.894603   1.000000   1.000000
   10        1.278460      1.278460   1.000000   1.000000
   11        1.974374      1.974374   1.000000   1.000000
   12        2.290553      2.290553   1.000000   1.000000
   13        2.772335      2.772335   1.000000   1.000000
   14        2.991566      2.991566   1.000000   1.000000
   15        3.117453      3.117452   1.000000   1.000000
   16        3.140236      3.140236   1.000000   1.000000
   17        5.331522      5.331522   0.000000   0.000000
   18        5.563453      5.563453   0.000000   0.000000
   19        7.721342      7.721342   0.000000   0.000000
   20       11.583993     11.583993   0.000000   0.000000
 
 -0.2500000E-01  0.2500000E-01  0.2500000E-01  0.7500000E-03
    1      -14.668497    -14.668497   1.000000   1.000000
    2      -13.232101    -13.232101   1.000000   1.000000
    3       -3.438646     -3.438646   1.000000   1.000000
    4       -2.488603     -2.488603   1.000000   1.000000
    5       -2.477661     -2.477661   1.000000   1.000000
    6       -1.362719     -1.362719   1.000000   1.000000
    7       -1.353048     -1.353048   1.000000   1.000000
    8       -0.566645     -0.566645   1.000000   1.000000
    9        1.185020      1.185020   1.000000   1.000000
   10        1.285374      1.285374   1.000000   1.000000
   11        2.387443      2.387442   1.000000   1.000000
   12        2.464156      2.464156   1.000000   1.000000
   13        2.766324      2.766324   1.000000   1.000000
   14        2.865446      2.865447   1.000000   1.000000
   15        2.935084      2.935082   1.000000   1.000000
   16        3.009543      3.009541   1.000000   1.000000
   17        5.573233      5.573233   0.000000   0.000000
   18        5.631061      5.631060   0.000000   0.000000
   19        7.241229      7.241227   0.000000   0.000000
   20       11.149230     11.149190   0.000000   0.000000
 
  0.7500000E-01  0.7500000E-01  0.2500000E-01  0.7500000E-03
    1      -14.658526    -14.658526   1.000000   1.000000
    2      -13.247076    -13.247076   1.000000   1.000000
    3       -3.412753     -3.412753   1.000000   1.000000
    4       -2.488300     -2.488300   1.000000   1.000000
    5       -2.470967     -2.470967   1.000000   1.000000
    6       -1.362211     -1.362211   1.000000   1.000000
    7       -1.352572     -1.352572   1.000000   1.000000
    8       -0.568538     -0.568538   1.000000   1.000000
    9        1.187623      1.187623   1.000000   1.000000
   10        1.222833      1.222833   1.000000   1.000000
   11        2.391532      2.391532   1.000000   1.000000
   12        2.481239      2.481239   1.000000   1.000000
   13        2.704215      2.704213   1.000000   1.000000
   14        2.798559      2.798558   1.000000   1.000000
   15        3.003272      3.003272   1.000000   1.000000
   16        3.054821      3.054818   1.000000   1.000000
   17        5.587843      5.587843   0.000000   0.000000
   18        5.597325      5.597325   0.000000   0.000000
   19        7.305140      7.305140   0.000000   0.000000
   20       11.144637     11.144639   0.000000   0.000000
 
  0.1250000E+00  0.7500000E-01  0.2500000E-01  0.1500000E-02
    1      -14.599906    -14.599906   1.000000   1.000000
    2      -13.252380    -13.252380   1.000000   1.000000
    3       -3.322858     -3.322858   1.000000   1.000000
    4       -2.477116     -2.477116   1.000000   1.000000
    5       -2.444376     -2.444376   1.000000   1.000000
    6       -1.392252     -1.392252   1.000000   1.000000
    7       -1.366501     -1.366501   1.000000   1.000000
    8       -0.556798     -0.556798   1.000000   1.000000
    9        0.916619      0.916620   1.000000   1.000000
   10        1.256453      1.256453   1.000000   1.000000
   11        2.136457      2.136457   1.000000   1.000000
   12        2.336755      2.336755   1.000000   1.000000
   13        2.760579      2.760581   1.000000   1.000000
   14        2.818211      2.818211   1.000000   1.000000
   15        3.126057      3.126059   1.000000   1.000000
   16        3.168149      3.168151   1.000000   1.000000
   17        5.374925      5.374925   0.000000   0.000000
   18        5.584305      5.584305   0.000000   0.000000
   19        7.671304      7.671304   0.000000   0.000000
   20       11.434204     11.434205   0.000000   0.000000
 
  0.1750000E+00  0.7500000E-01  0.2500000E-01  0.1500000E-02
    1      -14.491682    -14.491682   1.000000   1.000000
    2      -13.255259    -13.255259   1.000000   1.000000
    3       -3.180767     -3.180767   1.000000   1.000000
    4       -2.448543     -2.448543   1.000000   1.000000
    5       -2.402248     -2.402248   1.000000   1.000000
    6       -1.461226     -1.461226   1.000000   1.000000
    7       -1.388559     -1.388559   1.000000   1.000000
    8       -0.540614     -0.540614   1.000000   1.000000
    9        0.576808      0.576808   1.000000   1.000000
   10        1.264545      1.264545   1.000000   1.000000
   11        1.861012      1.861012   1.000000   1.000000
   12        2.116848      2.116848   1.000000   1.000000
   13        2.763414      2.763417   1.000000   1.000000
   14        2.900196      2.900196   1.000000   1.000000
   15        3.184119      3.184119   1.000000   1.000000
   16        3.304006      3.304007   1.000000   1.000000
   17        5.086530      5.086530   0.000000   0.000000
   18        5.533242      5.533242   0.000000   0.000000
   19        8.285571      8.285570   0.000000   0.000000
   20       11.941825     11.941827   0.000000   0.000000
 
  0.2250000E+00  0.7500000E-01  0.2500000E-01  0.1500000E-02
    1      -14.342053    -14.342053   1.000000   1.000000
    2      -13.252906    -13.252906   1.000000   1.000000
    3       -3.031309     -3.031309   1.000000   1.000000
    4       -2.392210     -2.392210   1.000000   1.000000
    5       -2.342891     -2.342891   1.000000   1.000000
    6       -1.592767     -1.592767   1.000000   1.000000
    7       -1.401064     -1.401064   1.000000   1.000000
    8       -0.548192     -0.548192   1.000000   1.000000
    9        0.321928      0.321928   1.000000   1.000000
   10        1.147146      1.147146   1.000000   1.000000
   11        1.625246      1.625246   1.000000   1.000000
   12        1.947740      1.947740   1.000000   1.000000
   13        2.724829      2.724829   1.000000   1.000000
   14        2.921699      2.921699   1.000000   1.000000
   15        3.235453      3.235453   1.000000   1.000000
   16        3.369956      3.369957   1.000000   1.000000
   17        4.867926      4.867926   0.000000   0.000000
   18        5.458784      5.458784   0.000000   0.000000
   19        9.030173      9.030174   0.000000   0.000000
   20       12.573310     12.573396   0.000000   0.000000
 
  0.2750000E+00  0.7500000E-01  0.2500000E-01  0.1500000E-02
    1      -14.164212    -14.164212   1.000000   1.000000
    2      -13.244602    -13.244602   1.000000   1.000000
    3       -2.928633     -2.928633   1.000000   1.000000
    4       -2.338464     -2.338464   1.000000   1.000000
    5       -2.217493     -2.217493   1.000000   1.000000
    6       -1.799692     -1.799692   1.000000   1.000000