       N       E                     dE             d eps       ncg     rms          rms(c)
DAV:   1     0.207598709611E+03    0.20760E+03   -0.14595E+04 63312   0.189E+03
DAV:   2     0.413364267217E+01   -0.20347E+03   -0.19435E+03 64668   0.365E+02
DAV:   3    -0.150946263722E+02   -0.19228E+02   -0.18446E+02 70100   0.129E+02
DAV:   4    -0.154726710389E+02   -0.37804E+00   -0.37706E+00 67736   0.188E+01
DAV:   5    -0.154772938625E+02   -0.46228E-02   -0.46219E-02 69824   0.195E+00
DAV:   6    -0.154773878873E+02   -0.94025E-04   -0.94020E-04 67400   0.245E-01
   1 F= -.15477388E+02 E0= -.15477388E+02  d E =0.000000E+00  mag=     0.0000
