Nb                                      
   3.30080000000000     
    -0.500000    0.500000    0.500000
     0.500000   -0.500000    0.500000
     0.500000    0.500000   -0.500000
   Nb
     1
Direct
  0.000000  0.000000  0.000000
 
   24   24   24
  84.433      82.794      77.885      69.796      58.907      46.169      33.187      21.849      13.586      8.7274    
  6.4503      5.4359      5.1251      5.4359      6.4503      8.7274      13.586      21.849      33.187      46.169    
  58.907      69.796      77.885      82.794      82.794      82.228      78.360      71.274      61.275      49.141    
  36.281      24.518      15.448      9.7411      6.8888      5.6221      5.1129      5.2118      5.9465      7.5967    
  11.285      18.118      28.226      40.572      53.393      64.947      74.029      80.046      77.885      78.360    
  75.457      69.318      60.290      49.094      36.966      25.551      16.407      10.363      7.1698      5.7255    
  5.0701      4.9841      5.4431      6.5762      9.0563      14.102      22.310      33.197      45.364      57.095    
  66.951      74.029      69.796      71.274      69.318      64.124      56.140      46.116      35.178      24.752    
  16.220      10.401      7.1986      5.7072      4.9832      4.7689      4.9986      5.7436      7.2700      10.540    
  16.484      25.207      35.863      47.000      57.095      64.947      58.907      61.275      60.290      56.140    
  49.347      40.716      31.305      22.335      14.946      9.8285      6.9418      5.5515      4.8418      4.5678    
  4.6391      5.0806      6.0245      7.8945      11.642      17.832      26.232      35.863      45.364      53.393    
  46.169      49.141      49.094      46.116      40.716      33.703      26.064      18.834      12.907      8.7974    
  6.4522      5.2759      4.6482      4.3769      4.3634      4.5975      5.1645      6.2237      8.2669      12.048    
  17.832      25.207      33.197      40.572      33.187      36.281      36.966      35.178      31.305      26.064    
  20.323      14.933      10.566      7.5663      5.8450      4.9263      4.4206      4.1949      4.1556      4.2724    
  4.5884      5.2128      6.2968      8.2669      11.642      16.484      22.310      28.226      21.849      24.518    
  25.551      24.752      22.335      18.834      14.933      11.286      8.3723      6.3963      5.2401      4.5613    
  4.1879      4.0262      3.9971      4.0630      4.2380      4.5872      5.2128      6.2237      7.8945      10.540    
  14.102      18.118      13.586      15.448      16.407      16.220      14.946      12.907      10.566      8.3723    
  6.6364      5.4566      4.7070      4.2335      3.9797      3.8795      3.8737      3.9274      4.0383      4.2380    
  4.5884      5.1645      6.0245      7.2700      9.0563      11.285      8.7274      9.7411      10.363      10.401    
  9.8285      8.7974      7.5663      6.3963      5.4566      4.7701      4.2825      3.9759      3.8167      3.7635    
  3.7785      3.8362      3.9274      4.0630      4.2724      4.5975      5.0806      5.7436      6.5762      7.5967    
  6.4503      6.8888      7.1698      7.1986      6.9418      6.4522      5.8450      5.2401      4.7070      4.2825    
  3.9828      3.7980      3.7063      3.6842      3.7128      3.7785      3.8737      3.9971      4.1556      4.3634    
  4.6391      4.9986      5.4431      5.9465      5.4359      5.6221      5.7255      5.7072      5.5515      5.2759    
  4.9263      4.5613      4.2335      3.9759      3.7980      3.6924      3.6449      3.6440      3.6842      3.7635    
  3.8795      4.0262      4.1949      4.3769      4.5678      4.7689      4.9841      5.2118      5.1251      5.1129    
  5.0701      4.9832      4.8418      4.6482      4.4206      4.1879      3.9797      3.8167      3.7063      3.6449    
  3.6256      3.6449      3.7063      3.8167      3.9797      4.1879      4.4206      4.6482      4.8418      4.9832    
  5.0701      5.1129      5.4359      5.2118      4.9841      4.7689      4.5678      4.3769      4.1949      4.0262    
  3.8795      3.7635      3.6842      3.6440      3.6449      3.6924      3.7980      3.9759      4.2335      4.5613    
  4.9263      5.2759      5.5515      5.7072      5.7255      5.6221      6.4503      5.9465      5.4431      4.9986    
  4.6391      4.3634      4.1556      3.9971      3.8737      3.7785      3.7128      3.6842      3.7063      3.7980    
  3.9828      4.2825      4.7070      5.2401      5.8450      6.4522      6.9418      7.1986      7.1698      6.8888    
  8.7274      7.5967      6.5762      5.7436      5.0806      4.5975      4.2724      4.0630      3.9274      3.8362    
  3.7785      3.7635      3.8167      3.9759      4.2825      4.7701      5.4566      6.3963      7.5663      8.7974    
  9.8285      10.401      10.363      9.7411      13.586      11.285      9.0563      7.2700      6.0245      5.1645    
  4.5884      4.2380      4.0383      3.9274      3.8737      3.8795      3.9797      4.2335      4.7070      5.4566    
  6.6364      8.3723      10.566      12.907      14.946      16.220      16.407      15.448      21.849      18.118    
  14.102      10.540      7.8945      6.2237      5.2128      4.5872      4.2380      4.0630      3.9971      4.0262    
  4.1879      4.5613      5.2401      6.3963      8.3723      11.286      14.933      18.834      22.335      24.752    
  25.551      24.518      33.187      28.226      22.310      16.484      11.642      8.2669      6.2968      5.2128    
  4.5884      4.2724      4.1556      4.1949      4.4206      4.9263      5.8450      7.5663      10.566      14.933    
  20.323      26.064      31.305      35.178      36.966      36.281      46.169      40.572      33.197      25.207    
  17.832      12.048      8.2669      6.2237      5.1645      4.5975      4.3634      4.3769      4.6482      5.2759    
  6.4522      8.7974      12.907      18.834      26.064      33.703      40.716      46.116      49.094      49.141    
  58.907      53.393      45.364      35.863      26.232      17.832      11.642      7.8945      6.0245      5.0806    
  4.6391      4.5678      4.8418      5.5515      6.9418      9.8285      14.946      22.335      31.305      40.716    
  49.347      56.140      60.290      61.275      69.796      64.947      57.095      47.000      35.863      25.207    
  16.484      10.540      7.2700      5.7436      4.9986      4.7689      4.9832      5.7072      7.1986      10.401    
  16.220      24.752      35.178      46.116      56.140      64.124      69.318      71.274      77.885      74.029    
  66.951      57.095      45.364      33.197      22.310      14.102      9.0563      6.5762      5.4431      4.9841    
  5.0701      5.7255      7.1698      10.363      16.407      25.551      36.966      49.094      60.290      69.318    
  75.457      78.360      82.794      80.046      74.029      64.947      53.393      40.572      28.226      18.118    
  11.285      7.5967      5.9465      5.2118      5.1129      5.6221      6.8888      9.7411      15.448      24.518    
  36.281      49.141      61.275      71.274      78.360      82.228      82.794      82.228      78.360      71.274    
  61.275      49.141      36.281      24.518      15.448      9.7411      6.8888      5.6221      5.1129      5.2118    
  5.9465      7.5967      11.285      18.118      28.226      40.572      53.393      64.947      74.029      80.046    
  82.228      82.794      80.046      74.029      64.946      53.393      40.572      28.226      18.118      11.285    
  7.5967      5.9467      5.2119      5.1127      5.6219      6.8889      9.7413      15.448      24.518      36.281    
  49.141      61.275      71.273      78.360      78.360      80.046      78.360      73.355      65.246      54.564    
  42.355      30.196      19.812      12.412      8.1596      6.1837      5.2730      4.9949      5.2730      6.1837    
  8.1596      12.412      19.811      30.196      42.355      54.564      65.246      73.356      71.274      74.029    
  73.355      69.317      62.197      52.562      41.383      30.054      20.133      12.812      8.4098      6.2749    
  5.2694      4.8645      4.9463      5.5401      6.8275      9.6200      15.009      23.352      33.997      45.539    
  56.389      65.247      61.275      64.946      65.246      62.197      56.141      47.720      37.887      27.878    
  19.025      12.368      8.2511      6.1836      5.1797      4.7177      4.6639      4.9997      5.8296      7.4795    
  10.911      16.872      25.304      35.317      45.539      54.564      49.141      53.393      54.564      52.562    
  47.720      40.717      32.490      24.142      16.769      11.200      7.7111      5.9131      5.0003      4.5499    
  4.4280      4.5866      5.0837      6.0652      7.9761      11.664      17.544      25.303      33.996      42.355    
  36.281      40.572      42.355      41.383      37.887      32.490      26.064      19.566      13.875      9.6049    
  6.9283      5.5143      4.7509      4.3636      4.2310      4.2913      4.5642      5.1486      6.1991      8.1617    
  11.664      16.871      23.352      30.196      24.518      28.226      30.196      30.054      27.878      24.142    
  19.566      14.933      10.917      7.9430      6.0876      5.0608      4.4692      4.1711      4.0646      4.0869    
  4.2330      4.5592      5.1719      6.1991      7.9759      10.911      15.009      19.812      15.448      18.118    
  19.812      20.133      19.025      16.769      13.875      10.917      8.3723      6.5116      5.3391      4.6225    
  4.1977      3.9906      3.9242      3.9440      4.0332      4.2168      4.5592      5.1486      6.0653      7.4797    
  9.6202      12.412      9.7411      11.285      12.412      12.812      12.368      11.200      9.6049      7.9430    
  6.5116      5.4565      4.7369      4.2531      3.9702      3.8396      3.8097      3.8406      3.9131      4.0333    
  4.2331      4.5643      5.0839      5.8297      6.8275      8.1594      6.8888      7.5967      8.1596      8.4098    
  8.2511      7.7111      6.9283      6.0876      5.3391      4.7369      4.2825      3.9781      3.8037      3.7289    
  3.7244      3.7664      3.8406      3.9441      4.0869      4.2913      4.5866      4.9996      5.5399      6.1835    
  5.6221      5.9467      6.1837      6.2749      6.1836      5.9131      5.5143      5.0608      4.6225      4.2531    
  3.9781      3.7980      3.6983      3.6613      3.6729      3.7244      3.8097      3.9242      4.0646      4.2310    
  4.4279      4.6637      4.9462      5.2731      5.1129      5.2119      5.2730      5.2694      5.1797      5.0003    
  4.7509      4.4692      4.1977      3.9702      3.8037      3.6983      3.6449      3.6338      3.6613      3.7290    
  3.8396      3.9906      4.1711      4.3636      4.5498      4.7177      4.8646      4.9951      5.2118      5.1127    
  4.9949      4.8645      4.7177      4.5499      4.3636      4.1711      3.9906      3.8396      3.7289      3.6613    
  3.6338      3.6449      3.6983      3.8036      3.9702      4.1977      4.4692      4.7510      5.0004      5.1798    
  5.2696      5.2731      5.9465      5.6219      5.2730      4.9463      4.6639      4.4280      4.2310      4.0646    
  3.9242      3.8097      3.7244      3.6729      3.6613      3.6983      3.7980      3.9781      4.2531      4.6226    
  5.0609      5.5144      5.9132      6.1836      6.2748      6.1835      7.5967      6.8889      6.1837      5.5401    
  4.9997      4.5866      4.2913      4.0869      3.9440      3.8406      3.7664      3.7244      3.7290      3.8036    
  3.9781      4.2826      4.7370      5.3392      6.0877      6.9283      7.7111      8.2510      8.4096      8.1594    
  11.285      9.7413      8.1596      6.8275      5.8296      5.0837      4.5642      4.2330      4.0332      3.9131    
  3.8406      3.8097      3.8396      3.9702      4.2531      4.7370      5.4566      6.5117      7.9430      9.6048    
  11.200      12.368      12.812      12.412      18.118      15.448      12.412      9.6200      7.4795      6.0652    
  5.1486      4.5592      4.2168      4.0333      3.9441      3.9242      3.9906      4.1977      4.6226      5.3392    
  6.5117      8.3723      10.917      13.875      16.768      19.024      20.133      19.812      28.226      24.518    
  19.811      15.009      10.911      7.9761      6.1991      5.1719      4.5592      4.2331      4.0869      4.0646    
  4.1711      4.4692      5.0609      6.0877      7.9430      10.917      14.933      19.566      24.142      27.877    
  30.054      30.196      40.572      36.281      30.196      23.352      16.872      11.664      8.1617      6.1991    
  5.1486      4.5643      4.2913      4.2310      4.3636      4.7510      5.5144      6.9283      9.6048      13.875    
  19.566      26.064      32.490      37.886      41.383      42.355      53.393      49.141      42.355      33.997    
  25.304      17.544      11.664      7.9759      6.0653      5.0839      4.5866      4.4279      4.5498      5.0004    
  5.9132      7.7111      11.200      16.768      24.142      32.490      40.716      47.720      52.562      54.564    
  64.947      61.275      54.564      45.539      35.317      25.303      16.871      10.911      7.4797      5.8297    
  4.9996      4.6637      4.7177      5.1798      6.1836      8.2510      12.368      19.024      27.877      37.886    
  47.720      56.140      62.197      65.247      74.029      71.273      65.246      56.389      45.539      33.996    
  23.352      15.009      9.6202      6.8275      5.5399      4.9462      4.8646      5.2696      6.2748      8.4096    
  12.812      20.133      30.054      41.383      52.562      62.197      69.318      73.356      80.046      78.360    
  73.356      65.247      54.564      42.355      30.196      19.812      12.412      8.1594      6.1835      5.2731    
  4.9951      5.2731      6.1835      8.1594      12.412      19.812      30.196      42.355      54.564      65.247    
  73.356      78.360      77.885      78.360      75.457      69.318      60.290      49.094      36.966      25.551    
  16.407      10.363      7.1698      5.7255      5.0701      4.9841      5.4431      6.5762      9.0563      14.102    
  22.310      33.197      45.364      57.095      66.951      74.029      78.360      80.046      78.360      73.355    
  65.246      54.564      42.355      30.196      19.812      12.412      8.1596      6.1837      5.2730      4.9949    
  5.2730      6.1837      8.1596      12.412      19.811      30.196      42.355      54.564      65.246      73.356    
  75.457      78.360      77.885      74.028      66.951      57.095      45.364      33.197      22.310      14.102    
  9.0563      6.5762      5.4431      4.9841      5.0701      5.7255      7.1697      10.363      16.407      25.552    
  36.967      49.094      60.290      69.318      69.318      73.355      74.028      71.273      65.246      56.389    
  45.539      33.997      23.352      15.009      9.6202      6.8275      5.5399      4.9462      4.8646      5.2696    
  6.2748      8.4096      12.812      20.133      30.054      41.383      52.562      62.197      60.290      65.246    
  66.951      65.246      60.290      52.562      42.895      32.478      22.720      14.895      9.6747      6.8584    
  5.5276      4.8688      4.6707      4.8688      5.5276      6.8585      9.6747      14.895      22.720      32.478    
  42.895      52.562      49.094      54.564      57.095      56.389      52.562      46.117      37.887      28.970    
  20.582      13.795      9.1894      6.6388      5.3911      4.7419      4.4892      4.5454      4.9310      5.7676    
  7.3789      10.619      16.080      23.638      32.477      41.383      36.966      42.355      45.364      45.539    
  42.895      37.887      31.305      24.142      17.421      11.990      8.2923      6.2123      5.1450      4.5675    
  4.3165      4.2973      4.4982      4.9960      5.9327      7.6888      10.968      16.080      22.720      30.054    
  25.551      30.196      33.197      33.997      32.478      28.970      24.142      18.834      13.875      9.9018    
  7.2112      5.6767      4.8301      4.3619      4.1516      4.1101      4.2076      4.4822      5.0330      5.9920    
  7.6888      10.619      14.895      20.133      16.407      19.812      22.310      23.352      22.720      20.582    
  17.421      13.875      10.566      7.9429      6.1781      5.1329      4.4994      4.1512      3.9987      3.9672    
  4.0211      4.1718      4.4780      5.0330      5.9327      7.3789      9.6747      12.812      10.363      12.412    
  14.102      15.009      14.895      13.795      11.990      9.9018      7.9429      6.3962      5.3391      4.6440    
  4.2013      3.9628      3.8661      3.8564      3.9009      3.9965      4.1718      4.4822      4.9960      5.7676    
  6.8585      8.4096      7.1698      8.1596      9.0563      9.6202      9.6747      9.1894      8.2923      7.2112    
  6.1781      5.3391      4.7070      4.2531      3.9664      3.8155      3.7621      3.7718      3.8209      3.9009    
  4.0211      4.2076      4.4982      4.9310      5.5276      6.2748      5.7255      6.1837      6.5762      6.8275    
  6.8584      6.6388      6.2123      5.6767      5.1329      4.6440      4.2531      3.9759      3.8037      3.7161    
  3.6922      3.7147      3.7718      3.8564      3.9672      4.1101      4.2973      4.5454      4.8688      5.2696    
  5.0701      5.2730      5.4431      5.5399      5.5276      5.3911      5.1450      4.8301      4.4994      4.2013    
  3.9664      3.8037      3.7063      3.6613      3.6582      3.6922      3.7621      3.8661      3.9987      4.1516    
  4.3165      4.4892      4.6707      4.8646      4.9841      4.9949      4.9841      4.9462      4.8688      4.7419    
  4.5675      4.3619      4.1512      3.9628      3.8155      3.7161      3.6613      3.6440      3.6613      3.7161    
  3.8155      3.9628      4.1512      4.3618      4.5675      4.7419      4.8688      4.9462      5.4431      5.2730    
  5.0701      4.8646      4.6707      4.4892      4.3165      4.1516      3.9987      3.8661      3.7621      3.6922    
  3.6582      3.6613      3.7063      3.8037      3.9664      4.2013      4.4994      4.8301      5.1450      5.3911    
  5.5276      5.5399      6.5762      6.1837      5.7255      5.2696      4.8688      4.5454      4.2973      4.1101    
  3.9672      3.8564      3.7718      3.7147      3.6922      3.7161      3.8037      3.9759      4.2531      4.6439    
  5.1329      5.6767      6.2123      6.6388      6.8585      6.8275      9.0563      8.1596      7.1697      6.2748    
  5.5276      4.9310      4.4982      4.2076      4.0211      3.9009      3.8209      3.7718      3.7621      3.8155    
  3.9664      4.2531      4.7070      5.3391      6.1781      7.2113      8.2924      9.1895      9.6747      9.6202    
  14.102      12.412      10.363      8.4096      6.8585      5.7676      4.9960      4.4822      4.1718      3.9965    
  3.9009      3.8564      3.8661      3.9628      4.2013      4.6439      5.3391      6.3963      7.9430      9.9019    
  11.990      13.795      14.895      15.009      22.310      19.811      16.407      12.812      9.6747      7.3789    
  5.9327      5.0330      4.4780      4.1718      4.0211      3.9672      3.9987      4.1512      4.4994      5.1329    
  6.1781      7.9430      10.566      13.875      17.421      20.582      22.720      23.352      33.197      30.196    
  25.552      20.133      14.895      10.619      7.6888      5.9920      5.0330      4.4822      4.2076      4.1101    
  4.1516      4.3618      4.8301      5.6767      7.2113      9.9019      13.875      18.834      24.142      28.969    
  32.477      33.996      45.364      42.355      36.967      30.054      22.720      16.080      10.968      7.6888    
  5.9327      4.9960      4.4982      4.2973      4.3165      4.5675      5.1450      6.2123      8.2924      11.990    
  17.421      24.142      31.305      37.886      42.895      45.539      57.095      54.564      49.094      41.383    
  32.478      23.638      16.080      10.619      7.3789      5.7676      4.9310      4.5454      4.4892      4.7419    
  5.3911      6.6388      9.1895      13.795      20.582      28.969      37.886      46.116      52.562      56.389    
  66.951      65.246      60.290      52.562      42.895      32.477      22.720      14.895      9.6747      6.8585    
  5.5276      4.8688      4.6707      4.8688      5.5276      6.8585      9.6747      14.895      22.720      32.477    
  42.895      52.562      60.290      65.246      74.029      73.356      69.318      62.197      52.562      41.383    
  30.054      20.133      12.812      8.4096      6.2748      5.2696      4.8646      4.9462      5.5399      6.8275    
  9.6202      15.009      23.352      33.996      45.539      56.389      65.246      71.273      69.796      71.274    
  69.318      64.124      56.140      46.116      35.178      24.752      16.220      10.401      7.1986      5.7072    
  4.9832      4.7689      4.9986      5.7436      7.2700      10.540      16.484      25.207      35.863      47.000    
  57.095      64.947      71.274      74.029      73.355      69.317      62.197      52.562      41.383      30.054    
  20.133      12.812      8.4098      6.2749      5.2694      4.8645      4.9463      5.5401      6.8275      9.6200    
  15.009      23.352      33.997      45.539      56.389      65.247      69.318      73.355      74.028      71.273    
  65.246      56.389      45.539      33.997      23.352      15.009      9.6202      6.8275      5.5399      4.9462    
  4.8646      5.2696      6.2748      8.4096      12.812      20.133      30.054      41.383      52.562      62.197    
  64.124      69.317      71.273      69.796      64.947      57.095      47.000      35.863      25.207      16.484    
  10.540      7.2699      5.7435      4.9986      4.7691      4.9833      5.7070      7.1985      10.401      16.221    
  24.752      35.178      46.116      56.140      56.140      62.197      65.246      64.947      61.275      54.564    
  45.539      35.317      25.304      16.872      10.911      7.4795      5.8296      4.9997      4.6639      4.7177    
  5.1797      6.1836      8.2511      12.368      19.024      27.877      37.886      47.720      46.116      52.562    
  56.389      57.095      54.564      49.094      41.383      32.478      23.638      16.080      10.619      7.3787    
  5.7676      4.9312      4.5454      4.4891      4.7418      5.3912      6.6390      9.1895      13.795      20.582    
  28.969      37.886      35.178      41.383      45.539      47.000      45.539      41.383      35.178      27.877    
  20.582      14.312      9.7412      6.9811      5.5597      4.7891      4.4094      4.2981      4.4094      4.7891    
  5.5597      6.9811      9.7413      14.313      20.582      27.877      24.752      30.054      33.997      35.863    
  35.317      32.478      27.877      22.335      16.768      11.990      8.5086      6.3874      5.2417      4.5886    
  4.2579      4.1382      4.1725      4.3743      4.8251      5.6505      7.1091      9.7415      13.795      19.024    
  16.220      20.133      23.352      25.207      25.304      23.638      20.582      16.768      12.907      9.6047    
  7.2113      5.7356      4.8715      4.3599      4.1009      4.0027      4.0089      4.1127      4.3595      4.8378    
  5.6506      6.9812      9.1895      12.368      10.401      12.812      15.009      16.484      16.872      16.080    
  14.312      11.990      9.6047      7.5662      6.0877      5.1330      4.5093      4.1382      3.9540      3.8890    
  3.8954      3.9574      4.0946      4.3595      4.8251      5.5596      6.6388      8.2510      7.1986      8.4098    
  9.6202      10.540      10.911      10.619      9.7412      8.5086      7.2113      6.0877      5.2402      4.6226    
  4.2013      3.9520      3.8321      3.7977      3.8148      3.8666      3.9574      4.1127      4.3742      4.7890    
  5.3911      6.1836      5.7072      6.2749      6.8275      7.2699      7.4795      7.3787      6.9811      6.3874    
  5.7356      5.1330      4.6226      4.2336      3.9702      3.8155      3.7442      3.7319      3.7594      3.8147    
  3.8953      4.0088      4.1725      4.4095      4.7419      5.1798      4.9832      5.2694      5.5399      5.7435    
  5.8296      5.7676      5.5597      5.2417      4.8715      4.5093      4.2013      3.9702      3.8167      3.7290    
  3.6922      3.6954      3.7319      3.7976      3.8889      4.0028      4.1383      4.2983      4.4892      4.7177    
  4.7689      4.8645      4.9462      4.9986      4.9997      4.9312      4.7891      4.5886      4.3599      4.1382    
  3.9520      3.8155      3.7290      3.6842      3.6729      3.6922      3.7442      3.8321      3.9540      4.1010    
  4.2580      4.4095      4.5454      4.6637      4.9986      4.9463      4.8646      4.7691      4.6639      4.5454    
  4.4094      4.2579      4.1009      3.9540      3.8321      3.7442      3.6922      3.6729      3.6842      3.7290    
  3.8155      3.9519      4.1382      4.3599      4.5885      4.7890      4.9310      4.9996      5.7436      5.5401    
  5.2696      4.9833      4.7177      4.4891      4.2981      4.1382      4.0027      3.8890      3.7977      3.7319    
  3.6954      3.6922      3.7290      3.8167      3.9702      4.2013      4.5093      4.8714      5.2417      5.5596    
  5.7676      5.8297      7.2700      6.8275      6.2748      5.7070      5.1797      4.7418      4.4094      4.1725    
  4.0089      3.8954      3.8148      3.7594      3.7319      3.7442      3.8155      3.9702      4.2335      4.6225    
  5.1329      5.7355      6.3874      6.9812      7.3789      7.4797      10.540      9.6200      8.4096      7.1985    
  6.1836      5.3912      4.7891      4.3743      4.1127      3.9574      3.8666      3.8147      3.7976      3.8321    
  3.9519      4.2013      4.6225      5.2401      6.0877      7.2114      8.5088      9.7415      10.619      10.911    
  16.484      15.009      12.812      10.401      8.2511      6.6390      5.5597      4.8251      4.3595      4.0946    
  3.9574      3.8953      3.8889      3.9540      4.1382      4.5093      5.1329      6.0877      7.5663      9.6049    
  11.990      14.313      16.080      16.871      25.207      23.352      20.133      16.221      12.368      9.1895    
  6.9811      5.6505      4.8378      4.3595      4.1127      4.0088      4.0028      4.1010      4.3599      4.8714    
  5.7355      7.2114      9.6049      12.907      16.768      20.582      23.638      25.303      35.863      33.997    
  30.054      24.752      19.024      13.795      9.7413      7.1091      5.6506      4.8251      4.3742      4.1725    
  4.1383      4.2580      4.5885      5.2417      6.3874      8.5088      11.990      16.768      22.335      27.877    
  32.478      35.317      47.000      45.539      41.383      35.178      27.877      20.582      14.313      9.7415    
  6.9812      5.5596      4.7890      4.4095      4.2983      4.4095      4.7890      5.5596      6.9812      9.7415    
  14.313      20.582      27.877      35.178      41.383      45.539      57.095      56.389      52.562      46.116    
  37.886      28.969      20.582      13.795      9.1895      6.6388      5.3911      4.7419      4.4892      4.5454    
  4.9310      5.7676      7.3789      10.619      16.080      23.638      32.478      41.383      49.094      54.564    
  64.947      65.247      62.197      56.140      47.720      37.886      27.877      19.024      12.368      8.2510    
  6.1836      5.1798      4.7177      4.6637      4.9996      5.8297      7.4797      10.911      16.871      25.303    
  35.317      45.539      54.564      61.275      58.907      61.275      60.290      56.140      49.347      40.716    
  31.305      22.335      14.946      9.8285      6.9418      5.5515      4.8418      4.5678      4.6391      5.0806    
  6.0245      7.8945      11.642      17.832      26.232      35.863      45.364      53.393      61.275      64.946    
  65.246      62.197      56.141      47.720      37.887      27.878      19.025      12.368      8.2511      6.1836    
  5.1797      4.7177      4.6639      4.9997      5.8296      7.4795      10.911      16.872      25.304      35.317    
  45.539      54.564      60.290      65.246      66.951      65.246      60.290      52.562      42.895      32.478    
  22.720      14.895      9.6747      6.8584      5.5276      4.8688      4.6707      4.8688      5.5276      6.8585    
  9.6747      14.895      22.720      32.478      42.895      52.562      56.140      62.197      65.246      64.947    
  61.275      54.564      45.539      35.317      25.304      16.872      10.911      7.4795      5.8296      4.9997    
  4.6639      4.7177      5.1797      6.1836      8.2511      12.368      19.024      27.877      37.886      47.720    
  49.347      56.141      60.290      61.275      58.908      53.393      45.364      35.863      26.231      17.832    
  11.642      7.8944      6.0245      5.0806      4.6391      4.5678      4.8418      5.5515      6.9418      9.8285    
  14.946      22.335      31.305      40.716      40.716      47.720      52.562      54.564      53.393      49.141    
  42.355      33.996      25.303      17.543      11.664      7.9759      6.0653      5.0839      4.5866      4.4279    
  4.5498      5.0004      5.9132      7.7110      11.200      16.768      24.142      32.490      31.305      37.887    