   1   1   0   0
  0.1798157E+02  0.2858577E-09  0.2858577E-09  0.2858577E-09  0.5000000E-15
  1.000000000000000E-004
  CAR 
 Nb                                      
    100.23805314    -32.04638859  301      4.85324902      1.00000000
    -32.046  0.0000E+00  0.0000E+00
    -31.605  0.0000E+00  0.0000E+00
    -31.164  0.0000E+00  0.0000E+00
    -30.724  0.0000E+00  0.0000E+00
    -30.283  0.0000E+00  0.0000E+00
    -29.842  0.0000E+00  0.0000E+00
    -29.401  0.0000E+00  0.0000E+00
    -28.960  0.0000E+00  0.0000E+00
    -28.519  0.0000E+00  0.0000E+00
    -28.078  0.0000E+00  0.0000E+00
    -27.637  0.0000E+00  0.0000E+00
    -27.196  0.0000E+00  0.0000E+00
    -26.755  0.0000E+00  0.0000E+00
    -26.314  0.0000E+00  0.0000E+00
    -25.873  0.4089E+01  0.3446E+00
    -25.432  0.3189E+01  0.2071E+01
    -24.991  0.4400E+01  0.4089E+01
    -24.550  0.0000E+00  0.6000E+01
    -24.109  0.0000E+00  0.6000E+01
    -23.668  0.0000E+00  0.6000E+01
    -23.227  0.0000E+00  0.6000E+01
    -22.786  0.0000E+00  0.6000E+01
    -22.346  0.0000E+00  0.6000E+01
    -21.905  0.0000E+00  0.6000E+01
    -21.464  0.0000E+00  0.6000E+01
    -21.023  0.0000E+00  0.6000E+01
    -20.582  0.0000E+00  0.6000E+01
    -20.141  0.0000E+00  0.6000E+01
    -19.700  0.0000E+00  0.6000E+01
    -19.259  0.0000E+00  0.6000E+01
    -18.818  0.0000E+00  0.6000E+01
    -18.377  0.0000E+00  0.6000E+01
    -17.936  0.0000E+00  0.6000E+01
    -17.495  0.0000E+00  0.6000E+01
    -17.054  0.0000E+00  0.6000E+01
    -16.613  0.0000E+00  0.6000E+01
    -16.172  0.0000E+00  0.6000E+01
    -15.731  0.0000E+00  0.6000E+01
    -15.290  0.0000E+00  0.6000E+01
    -14.849  0.0000E+00  0.6000E+01
    -14.408  0.0000E+00  0.6000E+01
    -13.968  0.0000E+00  0.6000E+01
    -13.527  0.0000E+00  0.6000E+01
    -13.086  0.0000E+00  0.6000E+01
    -12.645  0.0000E+00  0.6000E+01
    -12.204  0.0000E+00  0.6000E+01
    -11.763  0.0000E+00  0.6000E+01
    -11.322  0.0000E+00  0.6000E+01
    -10.881  0.0000E+00  0.6000E+01
    -10.440  0.0000E+00  0.6000E+01
     -9.999  0.0000E+00  0.6000E+01
     -9.558  0.0000E+00  0.6000E+01
     -9.117  0.0000E+00  0.6000E+01
     -8.676  0.0000E+00  0.6000E+01
     -8.235  0.0000E+00  0.6000E+01
     -7.794  0.0000E+00  0.6000E+01
     -7.353  0.0000E+00  0.6000E+01
     -6.912  0.0000E+00  0.6000E+01
     -6.471  0.0000E+00  0.6000E+01
     -6.030  0.0000E+00  0.6000E+01
     -5.590  0.0000E+00  0.6000E+01
     -5.149  0.0000E+00  0.6000E+01
     -4.708  0.0000E+00  0.6000E+01
     -4.267  0.0000E+00  0.6000E+01
     -3.826  0.0000E+00  0.6000E+01
     -3.385  0.0000E+00  0.6000E+01
     -2.944  0.0000E+00  0.6000E+01
     -2.503  0.0000E+00  0.6000E+01
     -2.062  0.0000E+00  0.6000E+01
     -1.621  0.0000E+00  0.6000E+01
     -1.180  0.0000E+00  0.6000E+01
     -0.739  0.2900E-01  0.6004E+01
     -0.298  0.6693E-01  0.6024E+01
      0.143  0.9437E-01  0.6059E+01
      0.584  0.1386E+00  0.6110E+01
      1.025  0.2192E+00  0.6187E+01
      1.466  0.9655E+00  0.6434E+01
      1.907  0.1279E+01  0.6938E+01
      2.348  0.1753E+01  0.7613E+01
      2.789  0.6261E+00  0.8104E+01
      3.229  0.1788E+01  0.8323E+01
      3.670  0.1645E+01  0.9333E+01
      4.111  0.7980E+00  0.9780E+01
      4.552  0.2378E+01  0.1035E+02
      4.993  0.1413E+01  0.1122E+02
      5.434  0.5568E+00  0.1158E+02
      5.875  0.5172E+00  0.1179E+02
      6.316  0.4645E+00  0.1199E+02
      6.757  0.7008E+00  0.1223E+02
      7.198  0.1239E+01  0.1265E+02
      7.639  0.1379E+01  0.1323E+02
      8.080  0.1555E+01  0.1388E+02
      8.521  0.1287E+01  0.1444E+02
      8.962  0.1790E+01  0.1536E+02
      9.403  0.8919E+00  0.1594E+02
      9.844  0.6872E+00  0.1627E+02
     10.285  0.7607E+00  0.1658E+02
     10.726  0.3052E+00  0.1676E+02
     11.167  0.3852E+00  0.1692E+02
     11.607  0.3597E+00  0.1708E+02
     12.048  0.3259E+00  0.1724E+02
     12.489  0.3208E+00  0.1738E+02
     12.930  0.3011E+00  0.1752E+02
     13.371  0.2949E+00  0.1765E+02
     13.812  0.2626E+00  0.1777E+02
     14.253  0.2158E+00  0.1788E+02
     14.694  0.1639E+00  0.1796E+02
     15.135  0.4859E-01  0.1801E+02
     15.576  0.2353E+00  0.1808E+02
     16.017  0.4117E+00  0.1821E+02
     16.458  0.5734E+00  0.1848E+02
     16.899  0.5987E+00  0.1873E+02
     17.340  0.7212E+00  0.1900E+02
     17.781  0.6932E+00  0.1929E+02
     18.222  0.8948E+00  0.1964E+02
     18.663  0.8085E+00  0.2004E+02
     19.104  0.8120E+00  0.2040E+02
     19.545  0.7676E+00  0.2076E+02
     19.985  0.6453E+00  0.2107E+02
     20.426  0.5747E+00  0.2134E+02
     20.867  0.7473E+00  0.2162E+02
     21.308  0.6080E+00  0.2195E+02
     21.749  0.8929E+00  0.2227E+02
     22.190  0.8229E+00  0.2264E+02
     22.631  0.7080E+00  0.2302E+02
     23.072  0.5539E+00  0.2329E+02
     23.513  0.4876E+00  0.2352E+02
     23.954  0.4997E+00  0.2374E+02
     24.395  0.4858E+00  0.2395E+02
     24.836  0.7179E+00  0.2419E+02
     25.277  0.9439E+00  0.2464E+02
     25.718  0.6781E+00  0.2499E+02
     26.159  0.5591E+00  0.2526E+02
     26.600  0.4987E+00  0.2549E+02
     27.041  0.4689E+00  0.2571E+02
     27.482  0.4963E+00  0.2592E+02
     27.923  0.3877E+00  0.2614E+02
     28.364  0.5904E+00  0.2633E+02
     28.804  0.9097E+00  0.2666E+02
     29.245  0.1034E+01  0.2711E+02
     29.686  0.8128E+00  0.2752E+02
     30.127  0.6705E+00  0.2785E+02
     30.568  0.5504E+00  0.2811E+02
     31.009  0.5083E+00  0.2834E+02
     31.450  0.6059E+00  0.2858E+02
     31.891  0.7026E+00  0.2887E+02
     32.332  0.8687E+00  0.2922E+02
     32.773  0.9075E+00  0.2962E+02
     33.214  0.9218E+00  0.3000E+02
     33.655  0.1048E+01  0.3046E+02
     34.096  0.8997E+00  0.3088E+02
     34.537  0.7485E+00  0.3129E+02
     34.978  0.6237E+00  0.3159E+02
     35.419  0.4852E+00  0.3184E+02
     35.860  0.4081E+00  0.3203E+02
     36.301  0.5581E+00  0.3224E+02
     36.742  0.7887E+00  0.3254E+02
     37.182  0.1093E+01  0.3294E+02
     37.623  0.1071E+01  0.3344E+02
     38.064  0.9946E+00  0.3390E+02
     38.505  0.8092E+00  0.3429E+02
     38.946  0.8107E+00  0.3464E+02
     39.387  0.9041E+00  0.3503E+02
     39.828  0.7693E+00  0.3540E+02
     40.269  0.5775E+00  0.3569E+02
     40.710  0.7850E+00  0.3598E+02
     41.151  0.8087E+00  0.3631E+02
     41.592  0.2096E+01  0.3689E+02
     42.033  0.1875E+01  0.3780E+02
     42.474  0.2074E+01  0.3888E+02
     42.915  0.1252E+01  0.3957E+02
     43.356  0.9932E+00  0.4006E+02
     43.797  0.1386E+01  0.4058E+02
     44.238  0.1409E+01  0.4121E+02
     44.679  0.9598E+00  0.4172E+02
     45.120  0.7193E+00  0.4207E+02
     45.560  0.8264E+00  0.4240E+02
     46.001  0.7368E+00  0.4277E+02
     46.442  0.6829E+00  0.4307E+02
     46.883  0.7143E+00  0.4338E+02
     47.324  0.6891E+00  0.4371E+02
     47.765  0.8089E+00  0.4404E+02
     48.206  0.7917E+00  0.4440E+02
     48.647  0.7398E+00  0.4474E+02
     49.088  0.6067E+00  0.4503E+02
     49.529  0.6669E+00  0.4532E+02
     49.970  0.8103E+00  0.4565E+02
     50.411  0.1377E+01  0.4608E+02
     50.852  0.8996E+00  0.4655E+02
     51.293  0.1050E+01  0.4697E+02
     51.734  0.9854E+00  0.4742E+02
     52.175  0.7821E+00  0.4784E+02
     52.616  0.7394E+00  0.4816E+02
     53.057  0.9121E+00  0.4852E+02
     53.498  0.1027E+01  0.4894E+02
     53.938  0.1064E+01  0.4942E+02
     54.379  0.8566E+00  0.4984E+02
     54.820  0.8024E+00  0.5020E+02
     55.261  0.8527E+00  0.5058E+02
     55.702  0.1123E+01  0.5101E+02
     56.143  0.9323E+00  0.5146E+02
     56.584  0.9444E+00  0.5192E+02
     57.025  0.7646E+00  0.5228E+02
     57.466  0.8648E+00  0.5264E+02
     57.907  0.1014E+01  0.5305E+02
     58.348  0.1107E+01  0.5353E+02
     58.789  0.1176E+01  0.5403E+02
     59.230  0.1165E+01  0.5454E+02
     59.671  0.1048E+01  0.5504E+02
     60.112  0.9952E+00  0.5548E+02
     60.553  0.1050E+01  0.5595E+02
     60.994  0.1026E+01  0.5641E+02
     61.435  0.9976E+00  0.5685E+02
     61.876  0.1246E+01  0.5733E+02
     62.317  0.1156E+01  0.5794E+02
     62.757  0.4873E+00  0.5830E+02
     63.198  0.7095E+00  0.5852E+02
     63.639  0.1115E+01  0.5893E+02
     64.080  0.1098E+01  0.5942E+02
     64.521  0.8250E+00  0.5987E+02
     64.962  0.6284E+00  0.6018E+02
     65.403  0.6474E+00  0.6045E+02
     65.844  0.9703E+00  0.6081E+02
     66.285  0.1115E+01  0.6127E+02
     66.726  0.1432E+01  0.6181E+02
     67.167  0.1068E+01  0.6236E+02
     67.608  0.1126E+01  0.6282E+02
     68.049  0.1413E+01  0.6339E+02
     68.490  0.1208E+01  0.6399E+02
     68.931  0.9724E+00  0.6447E+02
     69.372  0.8683E+00  0.6488E+02
     69.813  0.8576E+00  0.6523E+02
     70.254  0.7908E+00  0.6558E+02
     70.695  0.8637E+00  0.6594E+02
     71.135  0.9081E+00  0.6633E+02
     71.576  0.8650E+00  0.6672E+02
     72.017  0.1055E+01  0.6716E+02
     72.458  0.1058E+01  0.6761E+02
     72.899  0.1244E+01  0.6813E+02
     73.340  0.1156E+01  0.6864E+02
     73.781  0.1064E+01  0.6915E+02
     74.222  0.1144E+01  0.6965E+02
     74.663  0.1230E+01  0.7017E+02
     75.104  0.1184E+01  0.7068E+02
     75.545  0.1312E+01  0.7123E+02
     75.986  0.1050E+01  0.7176E+02
     76.427  0.9497E+00  0.7220E+02
     76.868  0.9330E+00  0.7262E+02
     77.309  0.1086E+01  0.7306E+02
     77.750  0.1225E+01  0.7360E+02
     78.191  0.1011E+01  0.7410E+02
     78.632  0.8231E+00  0.7450E+02
     79.073  0.7757E+00  0.7485E+02
     79.513  0.7966E+00  0.7519E+02
     79.954  0.8497E+00  0.7556E+02
     80.395  0.9435E+00  0.7597E+02
     80.836  0.1098E+01  0.7641E+02
     81.277  0.1250E+01  0.7694E+02
     81.718  0.1154E+01  0.7747E+02
     82.159  0.1225E+01  0.7802E+02
     82.600  0.1271E+01  0.7854E+02
     83.041  0.8913E+00  0.7905E+02
     83.482  0.5365E+00  0.7935E+02
     83.923  0.3472E+00  0.7954E+02
     84.364  0.2314E+00  0.7967E+02
     84.805  0.1843E+00  0.7976E+02
     85.246  0.1144E+00  0.7983E+02
     85.687  0.7582E-01  0.7987E+02
     86.128  0.5801E-01  0.7990E+02
     86.569  0.4337E-01  0.7992E+02
     87.010  0.3050E-01  0.7994E+02
     87.451  0.1904E-01  0.7995E+02
     87.892  0.1127E-01  0.7995E+02
     88.332  0.1057E-01  0.7996E+02
     88.773  0.9890E-02  0.7996E+02
     89.214  0.9231E-02  0.7997E+02
     89.655  0.8595E-02  0.7997E+02
     90.096  0.7980E-02  0.7997E+02
     90.537  0.7389E-02  0.7998E+02
     90.978  0.6819E-02  0.7998E+02
     91.419  0.6272E-02  0.7998E+02
     91.860  0.5748E-02  0.7999E+02
     92.301  0.5245E-02  0.7999E+02
     92.742  0.4765E-02  0.7999E+02
     93.183  0.4307E-02  0.7999E+02
     93.624  0.6022E-02  0.7999E+02
     94.065  0.8188E-02  0.8000E+02
     94.506  0.0000E+00  0.8000E+02
     94.947  0.0000E+00  0.8000E+02
     95.388  0.0000E+00  0.8000E+02
     95.829  0.0000E+00  0.8000E+02
     96.270  0.0000E+00  0.8000E+02
     96.710  0.0000E+00  0.8000E+02
     97.151  0.0000E+00  0.8000E+02
     97.592  0.0000E+00  0.8000E+02
     98.033  0.0000E+00  0.8000E+02
     98.474  0.0000E+00  0.8000E+02
     98.915  0.0000E+00  0.8000E+02
     99.356  0.0000E+00  0.8000E+02
     99.797  0.0000E+00  0.8000E+02
    100.238  0.0000E+00  0.8000E+02
