    1    1    1    1
  0.1798157E+02  0.2858577E-09  0.2858577E-09  0.2858577E-09  0.5000000E-15
  1.000000000000000E-004
  CAR 
 Nb                                      
     11     44     40
 
  0.5000000E-01  0.5000000E-01  0.5000000E-01  0.8000000E-02
    1      -24.909210   1.000000
    2      -24.707592   1.000000
    3      -24.707592   1.000000
    4       -0.486817   1.000000
    5        4.878703   0.627548
    6        4.878703   0.319237
    7        5.894689   0.000000
    8        7.889049   0.000000
    9        7.889049   0.000000
   10       20.815028   0.000000
   11       21.404397   0.000000
   12       21.404397   0.000000
   13       28.649972   0.000000
   14       28.649972   0.000000
   15       31.076606   0.000000
   16       36.660510   0.000000
   17       36.660510   0.000000
   18       38.268693   0.000000
   19       40.960753   0.000000
   20       40.960753   0.000000
   21       42.101469   0.000000
   22       45.838608   0.000000
   23       53.874787   0.000000
   24       53.874787   0.000000
   25       54.463986   0.000000
   26       60.363006   0.000000
   27       60.363006   0.000000
   28       64.765348   0.000000
   29       66.379219   0.000000
   30       66.379219   0.000000
   31       67.111247   0.000000
   32       69.232828   0.000000
   33       69.919489   0.000000
   34       69.919489   0.000000
   35       71.514394   0.000000
   36       74.332010   0.000000
   37       74.332010   0.000000
   38       76.271784   0.000000
   39       77.634085   0.000000
   40       77.634085   0.000000
 
  0.1500000E+00  0.5000000E-01  0.5000000E-01  0.2400000E-01
    1      -25.249146   1.000000
    2      -24.818607   1.000000
    3      -24.713657   1.000000
    4        0.517064   1.000000
    5        4.283640   1.017551
    6        4.530895   1.046748
    7        7.167733   0.000000
    8        7.609389   0.000000
    9        8.117058   0.000000
   10       21.049790   0.000000
   11       21.937656   0.000000
   12       22.526294   0.000000
   13       27.507316   0.000000
   14       27.527111   0.000000
   15       29.801719   0.000000
   16       34.782695   0.000000
   17       35.766228   0.000000
   18       38.996134   0.000000
   19       41.682255   0.000000
   20       42.202764   0.000000
   21       43.087896   0.000000
   22       49.417205   0.000000
   23       51.052034   0.000000
   24       54.214005   0.000000
   25       55.478893   0.000000
   26       55.900033   0.000000
   27       57.383391   0.000000
   28       60.795059   0.000000
   29       63.553421   0.000000
   30       66.430333   0.000000
   31       66.717809   0.000000
   32       68.070089   0.000000
   33       72.130119   0.000000
   34       72.943545   0.000000
   35       74.137544   0.000000
   36       74.849518   0.000000
   37       76.578479   0.000000
   38       77.738436   0.000000
   39       80.134127   0.000000
   40       80.232811   0.000000
 
  0.2500000E+00  0.5000000E-01  0.5000000E-01  0.2400000E-01
    1      -25.631391   1.000000
    2      -24.972484   1.000000
    3      -24.721286   1.000000
    4        1.395777   1.000000
    5        3.690286   1.000000
    6        4.631016   0.858041
    7        7.792467   0.000000
    8        8.389725   0.000000
    9        8.979334   0.000000
   10       19.630240   0.000000
   11       20.278990   0.000000
   12       24.778456   0.000000
   13       25.099835   0.000000
   14       29.264655   0.000000
   15       30.665485   0.000000
   16       31.752912   0.000000
   17       36.457718   0.000000
   18       39.077745   0.000000
   19       42.171996   0.000000
   20       42.920714   0.000000
   21       45.251529   0.000000
   22       47.654999   0.000000
   23       50.507723   0.000000
   24       52.155513   0.000000
   25       52.637451   0.000000
   26       57.808543   0.000000
   27       57.841131   0.000000
   28       58.556283   0.000000
   29       60.516569   0.000000
   30       65.418745   0.000000
   31       66.924689   0.000000
   32       67.602503   0.000000
   33       71.956910   0.000000
   34       73.951935   0.000000
   35       76.268714   0.000000
   36       76.440047   0.000000
   37       77.215666   0.000000
   38       78.501991   0.000000
   39       80.174906   0.000000
   40       82.777365   0.000000
 
  0.3500000E+00  0.5000000E-01  0.5000000E-01  0.2400000E-01
    1      -25.924570   1.000000
    2      -25.097868   1.000000
    3      -24.727612   1.000000
    4        1.417657   1.000000
    5        3.278505   1.000000
    6        5.888420  -0.095561
    7        8.121637   0.000000
    8        8.669486   0.000000
    9       10.841392   0.000000
   10       17.850576   0.000000
   11       18.136585   0.000000
   12       22.870176   0.000000
   13       27.630296   0.000000
   14       29.087552   0.000000
   15       31.294132   0.000000
   16       32.155040   0.000000
   17       38.020250   0.000000
   18       40.212671   0.000000
   19       41.503227   0.000000
   20       42.193743   0.000000
   21       44.625753   0.000000
   22       46.780760   0.000000
   23       48.018767   0.000000
   24       51.249114   0.000000
   25       51.877983   0.000000
   26       56.804699   0.000000
   27       58.902588   0.000000
   28       59.015824   0.000000
   29       59.526560   0.000000
   30       64.599434   0.000000
   31       67.404973   0.000000
   32       67.832910   0.000000
   33       72.935434   0.000000
   34       73.119409   0.000000
   35       76.405112   0.000000
   36       76.991639   0.000000
   37       79.093298   0.000000
   38       81.725033   0.000000
   39       82.306991   0.000000
   40       82.386356   0.000000
 
  0.4500000E+00  0.5000000E-01  0.5000000E-01  0.1200000E-01
    1      -26.033459   1.000000
    2      -25.145504   1.000000
    3      -24.730099   1.000000
    4        1.301348   1.000000
    5        3.133007   1.000000
    6        6.807312  -0.017408
    7        8.177859   0.000000
    8        8.801122   0.000000
    9       11.752381   0.000000
   10       16.698290   0.000000
   11       17.546709   0.000000
   12       21.818126   0.000000
   13       28.089805   0.000000
   14       29.409591   0.000000
   15       31.532959   0.000000
   16       33.881002   0.000000
   17       36.891717   0.000000
   18       39.553227   0.000000
   19       42.178437   0.000000
   20       42.694777   0.000000
   21       45.439403   0.000000
   22       46.472441   0.000000
   23       47.209055   0.000000
   24       49.151357   0.000000
   25       52.175458   0.000000
   26       55.051288   0.000000
   27       57.095683   0.000000
   28       59.236403   0.000000
   29       60.916547   0.000000
   30       67.545445   0.000000
   31       68.004172   0.000000
   32       69.252512   0.000000
   33       73.404645   0.000000
   34       73.811144   0.000000
   35       74.230995   0.000000
   36       74.285823   0.000000
   37       77.791925   0.000000
   38       79.475470   0.000000
   39       82.579080   0.000000
   40       83.683392   0.000000
 
 -0.5000000E-01  0.5000000E-01  0.5000000E-01  0.6000000E-02
    1      -24.734834   1.000000
    2      -24.705281   1.000000
    3      -24.705281   1.000000
    4       -0.879632   1.000000
    5        5.154229  -0.127941
    6        5.154230  -0.017790
    7        5.268871   0.000000
    8        7.777037   0.000000
    9        8.182056   0.000000
   10       20.661696   0.000000
   11       20.757524   0.000000
   12       20.757525   0.000000
   13       28.453660   0.000000
   14       30.794194   0.000000
   15       33.912070   0.000000
   16       33.912071   0.000000
   17       35.680523   0.000000
   18       40.641788   0.000000
   19       40.684801   0.000000
   20       40.684861   0.000000
   21       41.871340   0.000000
   22       44.016424   0.000000
   23       52.616141   0.000000
   24       54.564796   0.000000
   25       54.564841   0.000000
   26       63.167182   0.000000
   27       63.628985   0.000000
   28       64.272478   0.000000
   29       67.194315   0.000000
   30       68.047513   0.000000
   31       68.047515   0.000000
   32       69.448397   0.000000
   33       69.709676   0.000000
   34       69.709677   0.000000
   35       70.658024   0.000000
   36       72.913853   0.000000
   37       74.295799   0.000000
   38       75.308948   0.000000
   39       75.308956   0.000000
   40       76.396837   0.000000
 
  0.1500000E+00  0.1500000E+00  0.5000000E-01  0.2400000E-01
    1      -25.549103   1.000000
    2      -24.909780   1.000000
    3      -24.779714   1.000000
    4        1.568966   1.000000
    5        3.875255   1.000021
    6        3.944257   1.015757
    7        7.669881   0.000000
    8        8.419923   0.000000
    9        8.973585   0.000000
   10       20.505074   0.000000
   11       21.118339   0.000000
   12       23.165085   0.000000
   13       23.990619   0.000000
   14       29.521688   0.000000
   15       32.189027   0.000000
   16       33.606073   0.000000
   17       34.371303   0.000000
   18       37.305680   0.000000
   19       42.168185   0.000000
   20       44.633201   0.000000
   21       44.954345   0.000000
   22       49.148388   0.000000
   23       49.587349   0.000000
   24       50.965347   0.000000
   25       54.622539   0.000000
   26       56.563252   0.000000
   27       56.858415   0.000000
   28       61.466456   0.000000
   29       61.502943   0.000000
   30       65.975396   0.000000
   31       66.693265   0.000000
   32       68.735507   0.000000
   33       70.125356   0.000000
   34       71.733075   0.000000
   35       72.445307   0.000000
   36       75.389790   0.000000
   37       77.197227   0.000000
   38       78.681844   0.000000
   39       81.790556   0.000000
   40       83.034648   0.000000
 
  0.2500000E+00  0.1500000E+00  0.5000000E-01  0.4800000E-01
    1      -25.787185   1.000000
    2      -25.089937   1.000000
    3      -24.810409   1.000000
    4        2.110923   1.000000
    5        3.435910   1.000000
    6        4.416740   0.926749
    7        7.932111   0.000000
    8        8.718285   0.000000
    9       11.059363   0.000000
   10       18.443830   0.000000
   11       19.520884   0.000000
   12       21.773202   0.000000
   13       25.142614   0.000000
   14       30.145892   0.000000
   15       32.583449   0.000000
   16       33.489312   0.000000
   17       37.016344   0.000000
   18       37.134827   0.000000
   19       42.119439   0.000000
   20       42.552804   0.000000
   21       44.155655   0.000000
   22       47.495660   0.000000
   23       49.209716   0.000000
   24       51.804244   0.000000
   25       52.606483   0.000000
   26       56.521684   0.000000
   27       59.777503   0.000000
   28       60.779789   0.000000
   29       62.245050   0.000000
   30       63.569265   0.000000
   31       65.523008   0.000000
   32       67.442003   0.000000
   33       68.504479   0.000000
   34       71.927949   0.000000
   35       73.942007   0.000000
   36       75.789892   0.000000
   37       78.298713   0.000000
   38       81.335830   0.000000
   39       82.251678   0.000000
   40       84.233808   0.000000
 
  0.3500000E+00  0.1500000E+00  0.5000000E-01  0.4800000E-01
    1      -25.912336   1.000000
    2      -25.225272   1.000000
    3      -24.823095   1.000000
    4        1.962540   1.000000
    5        3.229441   1.000000
    6        5.532058  -0.035779
    7        8.216188   0.000000
    8        8.896955   0.000000
    9       12.746485   0.000000
   10       16.395059   0.000000
   11       18.279410   0.000000
   12       20.790097   0.000000
   13       27.438817   0.000000
   14       28.766828   0.000000
   15       32.362558   0.000000
   16       33.610419   0.000000
   17       38.221051   0.000000
   18       40.792074   0.000000
   19       41.556028   0.000000
   20       42.242871   0.000000
   21       43.010473   0.000000
   22       44.154887   0.000000
   23       48.997492   0.000000
   24       50.385821   0.000000
   25       53.873901   0.000000
   26       56.290176   0.000000
   27       58.503326   0.000000
   28       60.479248   0.000000
   29       62.816060   0.000000
   30       62.918618   0.000000
   31       65.698118   0.000000
   32       67.959604   0.000000
   33       69.107274   0.000000
   34       72.931401   0.000000
   35       74.051416   0.000000
   36       78.357018   0.000000
   37       79.402653   0.000000
   38       80.778796   0.000000
   39       82.811658   0.000000
   40       85.220489   0.000000
 
 -0.1500000E+00  0.1500000E+00  0.5000000E-01  0.2400000E-01
    1      -24.992384   1.000000
    2      -24.787371   1.000000
    3      -24.714660   1.000000
    4       -0.118245   1.000000
    5        4.756844   0.899216
    6        5.015333   0.194654
    7        6.030779   0.000000
    8        7.201329   0.000000
    9        8.346133   0.000000
   10       21.095958   0.000000
   11       21.912299   0.000000
   12       22.082125   0.000000
   13       25.919660   0.000000
   14       29.885863   0.000000
   15       32.124568   0.000000
   16       33.408356   0.000000
   17       37.996535   0.000000
   18       39.646874   0.000000
   19       39.966406   0.000000
   20       40.626407   0.000000
   21       42.203494   0.000000
   22       46.577576   0.000000
   23       51.447174   0.000000
   24       55.611314   0.000000
   25       56.996059   0.000000
   26       59.645561   0.000000
   27       60.695652   0.000000
   28       61.408447   0.000000
   29       63.656136   0.000000
   30       65.126261   0.000000
   31       66.625244   0.000000
   32       69.253132   0.000000
   33       69.726642   0.000000
   34       70.757570   0.000000
   35       72.771372   0.000000
   36       73.512060   0.000000
   37       75.109302   0.000000
   38       77.296140   0.000000
   39       80.248764   0.000000
   40       80.355035   0.000000
 
  0.2500000E+00  0.2500000E+00  0.5000000E-01  0.2400000E-01
    1      -25.806493   1.000000
    2      -25.304856   1.000000
    3      -24.873585   1.000000
    4        2.524668   1.000000
    5        3.494981   1.000000
    6        4.478485   0.955944
    7        8.199253   0.000000
    8        8.859433   0.000000
    9       13.286442   0.000000
   10       16.453765   0.000000
   11       18.419749   0.000000
   12       20.672974   0.000000
   13       26.061096   0.000000
   14       29.070614   0.000000
   15       33.076623   0.000000
   16       34.502570   0.000000
   17       38.788193   0.000000
   18       39.310593   0.000000
   19       39.545107   0.000000
   20       42.154121   0.000000
   21       42.235195   0.000000
   22       46.275903   0.000000
   23       52.007638   0.000000
   24       52.195154   0.000000
   25       52.469372   0.000000
   26       53.801524   0.000000
   27       58.921029   0.000000
   28       60.269005   0.000000
   29       61.093516   0.000000
   30       63.373045   0.000000
   31       66.734523   0.000000
   32       69.698917   0.000000
   33       70.645730   0.000000
   34       72.636990   0.000000
   35       73.111652   0.000000
   36       73.206434   0.000000
   37       77.195440   0.000000
   38       82.544669   0.000000
   39       83.539025   0.000000
   40       85.467864   0.000000
 
  0.3500000E+00  0.2500000E+00  0.5000000E-01  0.2400000E-01
    1      -25.754361   1.000000
    2      -25.453557   1.000000
    3      -24.891335   1.000000
    4        2.538200   1.000000
    5        3.602795   1.000000
    6        4.653453   0.864622
    7        8.442000   0.000000
    8        8.846792   0.000000
    9       14.781947   0.000000
   10       15.291281   0.000000
   11       17.248216   0.000000
   12       20.801304   0.000000
   13       27.148069   0.000000
   14       27.724802   0.000000
   15       34.090309   0.000000
   16       34.328543   0.000000
   17       37.358758   0.000000
   18       38.204785   0.000000
   19       41.269293   0.000000
   20       42.584054   0.000000
   21       44.940648   0.000000
   22       45.287476   0.000000
   23       50.231604   0.000000
   24       50.320755   0.000000
   25       52.871975   0.000000
   26       55.101219   0.000000
   27       57.587355   0.000000
   28       58.663436   0.000000
   29       62.026898   0.000000
   30       64.350607   0.000000
   31       67.028247   0.000000
   32       68.972190   0.000000
   33       69.559979   0.000000
   34       73.597930   0.000000
   35       76.658288   0.000000
   36       76.675718   0.000000
   37       77.192709   0.000000
   38       80.376601   0.000000
   39       82.242559   0.000000
   40       82.746039   0.000000
 
 -0.2500000E+00  0.2500000E+00  0.5000000E-01  0.2400000E-01
    1      -25.403031   1.000000
    2      -24.917647   1.000000
    3      -24.716966   1.000000
    4        0.948309   1.000000
    5        4.140489   1.011550
    6        4.726522   0.898215
    7        7.216413   0.000000
    8        7.510557   0.000000
    9        8.527732   0.000000
   10       20.325191   0.000000
   11       21.508101   0.000000
   12       24.360103   0.000000
   13       26.369784   0.000000
   14       28.807783   0.000000
   15       29.036525   0.000000
   16       32.727570   0.000000
   17       37.435729   0.000000
   18       39.605438   0.000000
   19       40.631653   0.000000
   20       42.125869   0.000000
   21       44.058410   0.000000
   22       47.054578   0.000000
   23       51.278583   0.000000
   24       54.753050   0.000000
   25       55.404972   0.000000
   26       57.506877   0.000000
   27       58.318649   0.000000
   28       58.508660   0.000000
   29       59.512210   0.000000
   30       65.883365   0.000000
   31       67.015148   0.000000
   32       70.779284   0.000000
   33       71.712917   0.000000
   34       71.806089   0.000000
   35       74.625798   0.000000
   36       75.345262   0.000000
   37       76.923151   0.000000
   38       77.570668   0.000000
   39       80.369082   0.000000
   40       81.891137   0.000000
 
 -0.1500000E+00  0.2500000E+00  0.5000000E-01  0.2400000E-01
    1      -25.273060   1.000000
    2      -24.882656   1.000000
    3      -24.773679   1.000000
    4        0.825198   1.000000
    5        4.547911   1.003942
    6        4.587238   1.024871
    7        6.711275   0.000000
    8        7.092065   0.000000
    9        8.704437   0.000000
   10       21.329359   0.000000
   11       21.751802   0.000000
   12       23.295827   0.000000
   13       25.699340   0.000000
   14       28.324724   0.000000
   15       30.981523   0.000000
   16       34.006859   0.000000
   17       36.262019   0.000000
   18       38.883260   0.000000
   19       41.564069   0.000000
   20       41.940652   0.000000
   21       42.584477   0.000000
   22       46.111674   0.000000
   23       51.561905   0.000000
   24       55.869301   0.000000
   25       55.928139   0.000000
   26       58.591046   0.000000
   27       58.709563   0.000000
   28       60.129449   0.000000
   29       62.556592   0.000000
   30       64.652617   0.000000
   31       65.565666   0.000000
   32       66.448585   0.000000
   33       71.140361   0.000000
   34       72.820756   0.000000
   35       73.920478   0.000000
   36       75.708123   0.000000
   37       75.911892   0.000000
   38       77.461639   0.000000
   39       81.209237   0.000000
   40       81.590067   0.000000
 
 -0.3500000E+00  0.3500000E+00  0.5000000E-01  0.2400000E-01
    1      -25.793319   1.000000
    2      -25.044975   1.000000
    3      -24.719143   1.000000
    4        1.357555   1.000000
    5        3.599272   1.000000
    6        5.305999  -0.004758
    7        7.735956   0.000000
    8        8.769343   0.000000
    9        9.389573   0.000000
   10       18.565693   0.000000
   11       19.445065   0.000000
   12       24.873378   0.000000
   13       27.585269   0.000000
   14       28.153575   0.000000
   15       29.987199   0.000000
   16       31.366561   0.000000
   17       39.474549   0.000000
   18       40.054186   0.000000
   19       41.301229   0.000000
   20       42.101758   0.000000
   21       42.984068   0.000000
   22       47.063416   0.000000
   23       50.065029   0.000000
   24       52.060641   0.000000
   25       54.048114   0.000000
   26       54.185181   0.000000
   27       57.277406   0.000000
   28       59.497383   0.000000
   29       62.151714   0.000000
   30       62.670104   0.000000
   31       67.402820   0.000000
   32       69.304605   0.000000
   33       73.290124   0.000000
   34       73.726606   0.000000
   35       75.263939   0.000000
   36       76.600202   0.000000
   37       79.121117   0.000000
   38       80.377104   0.000000
   39       81.451548   0.000000
   40       82.529371   0.000000
 
 -0.2500000E+00  0.3500000E+00  0.5000000E-01  0.4800000E-01
    1      -25.620999   1.000000
    2      -25.035447   1.000000
    3      -24.791483   1.000000
    4        1.694482   1.000000
    5        3.929628   1.001363
    6        4.504755   0.983751
    7        6.994394   0.000000
    8        8.688781   0.000000
    9        9.157596   0.000000
   10       19.373615   0.000000
   11       21.091167   0.000000
   12       24.469336   0.000000
   13       25.407853   0.000000
   14       28.056249   0.000000
   15       31.206493   0.000000
   16       33.622317   0.000000
   17       36.636838   0.000000
   18       37.933813   0.000000
   19       42.011166   0.000000
   20       43.403059   0.000000
   21       44.610003   0.000000
   22       45.517439   0.000000
   23       48.908968   0.000000
   24       52.062248   0.000000
   25       53.799952   0.000000
   26       57.965228   0.000000
   27       58.833334   0.000000
   28       61.570491   0.000000
   29       62.190498   0.000000
   30       63.110820   0.000000
   31       67.001685   0.000000
   32       68.003846   0.000000
   33       69.278263   0.000000
   34       71.976831   0.000000
   35       73.777555   0.000000
   36       75.740090   0.000000
   37       77.128505   0.000000
   38       79.346270   0.000000
   39       82.082622   0.000000
   40       83.800500   0.000000
 
 -0.4500000E+00  0.4500000E+00  0.5000000E-01  0.2400000E-01
    1      -26.025388   1.000000
    2      -25.122191   1.000000
    3      -24.720508   1.000000
    4        1.212337   1.000000
    5        3.293998   1.000000
    6        6.426328  -0.066123
    7        7.947041   0.000000
    8        9.237483   0.000000
    9       10.961132   0.000000
   10       17.151341   0.000000
   11       17.869386   0.000000
   12       22.532901   0.000000
   13       27.686610   0.000000
   14       29.848492   0.000000
   15       31.241666   0.000000
   16       33.496694   0.000000
   17       37.834326   0.000000
   18       38.735625   0.000000
   19       42.181342   0.000000
   20       42.199736   0.000000
   21       44.708149   0.000000
   22       47.488406   0.000000
   23       47.950478   0.000000
   24       50.993632   0.000000
   25       51.448842   0.000000
   26       53.067246   0.000000
   27       56.816826   0.000000
   28       59.387825   0.000000
   29       59.782364   0.000000
   30       67.924543   0.000000
   31       68.832796   0.000000
   32       71.177798   0.000000
   33       72.440188   0.000000
   34       73.520497   0.000000
   35       75.564807   0.000000
   36       75.669742   0.000000
   37       77.467202   0.000000
   38       79.675740   0.000000
   39       80.756741   0.000000
   40       82.681091   0.000000
 
 -0.3500000E+00  0.4500000E+00  0.5000000E-01  0.4800000E-01
    1      -25.892589   1.000000
    2      -25.165386   1.000000
    3      -24.795758   1.000000
    4        1.730515   1.000000
    5        3.608502   1.000000
    6        5.105298   0.191084
    7        7.541354   0.000000
    8        9.206131   0.000000
    9       10.989470   0.000000
   10       17.617132   0.000000
   11       19.276876   0.000000
   12       22.539870   0.000000
   13       26.589605   0.000000
   14       29.100867   0.000000
   15       31.715606   0.000000
   16       34.013881   0.000000
   17       37.538827   0.000000
   18       39.836804   0.000000
   19       41.978498   0.000000
   20       42.305263   0.000000
   21       43.616904   0.000000
   22       45.755858   0.000000
   23       47.893985   0.000000
   24       49.903276   0.000000
   25       53.741233   0.000000
   26       55.584007   0.000000
   27       57.804864   0.000000
   28       60.106107   0.000000
   29       61.991803   0.000000
   30       63.631712   0.000000
   31       67.742413   0.000000
   32       68.081486   0.000000
   33       71.748362   0.000000
   34       73.398033   0.000000
   35       74.300347   0.000000
   36       75.205390   0.000000
   37       77.898728   0.000000
   38       80.069767   0.000000
   39       81.551078   0.000000
   40       83.126205   0.000000
 
 -0.2500000E+00  0.4500000E+00  0.5000000E-01  0.2400000E-01
    1      -25.785431   1.000000
    2      -25.231241   1.000000
    3      -24.836071   1.000000
    4        2.344208   1.000000
    5        3.452874   1.000000
    6        4.580899   0.944373
    7        7.265876   0.000000
    8        8.923919   0.000000
    9       11.241216   0.000000
   10       17.939499   0.000000
   11       20.119064   0.000000
   12       22.716393   0.000000
   13       24.984606   0.000000
   14       28.993197   0.000000
   15       32.898614   0.000000
   16       35.405922   0.000000
   17       36.006415   0.000000
   18       38.198662   0.000000
   19       41.993307   0.000000
   20       43.116539   0.000000
   21       44.151650   0.000000
   22       45.279821   0.000000
   23       48.367626   0.000000
   24       50.120201   0.000000
   25       53.657193   0.000000
   26       55.618651   0.000000
   27       57.075455   0.000000
   28       62.430144   0.000000
   29       62.708009   0.000000
   30       65.107130   0.000000
   31       66.484276   0.000000
   32       67.687742   0.000000
   33       68.629272   0.000000
   34       72.375092   0.000000
   35       73.449280   0.000000
   36       75.602695   0.000000
   37       77.798979   0.000000
   38       77.887192   0.000000
   39       81.352007   0.000000
   40       83.927998   0.000000
 
 -0.4500000E+00 -0.4500000E+00  0.5000000E-01  0.2400000E-01
    1      -25.994019   1.000000
    2      -25.215008   1.000000
    3      -24.796715   1.000000
    4        1.603810   1.000000
    5        3.498321   1.000000
    6        5.570581  -0.076378
    7        7.581059   0.000000
    8        9.710332   0.000000
    9       12.053310   0.000000
   10       16.513473   0.000000
   11       18.565638   0.000000
   12       21.521177   0.000000
   13       26.909158   0.000000
   14       29.329754   0.000000
   15       32.366088   0.000000
   16       35.872495   0.000000
   17       36.468439   0.000000
   18       40.159636   0.000000
   19       41.371600   0.000000
   20       42.183782   0.000000
   21       43.441342   0.000000
   22       46.820363   0.000000
   23       48.423603   0.000000
   24       49.254458   0.000000
   25       50.266131   0.000000
   26       57.177372   0.000000
   27       57.497262   0.000000
   28       58.039842   0.000000
   29       62.734058   0.000000
   30       63.170667   0.000000
   31       67.871964   0.000000
   32       68.491533   0.000000
   33       72.742107   0.000000
   34       73.845717   0.000000
   35       75.326964   0.000000
   36       77.283416   0.000000
   37       78.808243   0.000000
   38       79.502536   0.000000
   39       80.675735   0.000000
   40       80.760251   0.000000
 
 -0.3500000E+00 -0.4500000E+00  0.5000000E-01  0.4800000E-01
    1      -25.851468   1.000000
    2      -25.399310   1.000000
    3      -24.849135   1.000000
    4        2.399063   1.000000
    5        3.523084   1.000000
    6        4.547706   0.902055
    7        7.752243   0.000000
    8        9.136341   0.000000
    9       13.451973   0.000000
   10       16.202641   0.000000
   11       18.413660   0.000000
   12       22.265155   0.000000
   13       25.901056   0.000000
   14       27.734681   0.000000
   15       34.044820   0.000000
   16       36.013525   0.000000
   17       37.321214   0.000000
   18       39.359394   0.000000
   19       41.675324   0.000000
   20       42.402937   0.000000
   21       43.874513   0.000000
   22       44.054553   0.000000
   23       48.772643   0.000000
   24       50.452821   0.000000
   25       53.528122   0.000000
   26       53.927471   0.000000
   27       56.330781   0.000000
   28       59.069908   0.000000
   29       61.741308   0.000000
   30       64.301541   0.000000
   31       67.454939   0.000000
   32       68.280088   0.000000
   33       71.797266   0.000000
   34       72.667039   0.000000
   35       75.544852   0.000000
   36       76.904349   0.000000
   37       77.712555   0.000000
   38       79.047480   0.000000
   39       79.784533   0.000000
   40       81.890571   0.000000
 
 -0.3500000E+00 -0.3500000E+00  0.5000000E-01  0.8000000E-02
    1      -25.666376   1.000000
    2      -25.666373   1.000000
    3      -24.862422   1.000000
    4        2.867237   1.000000
    5        3.761290   1.000000
    6        3.761292   1.028481
    7        8.561870   0.000000
    8        8.561873   0.000000
    9       15.377164   0.000000
   10       16.091330   0.000000
   11       16.091334   0.000000
   12       23.719655   0.000000
   13       25.803819   0.000000
   14       25.803824   0.000000
   15       36.050957   0.000000
   16       36.838396   0.000000
   17       36.838399   0.000000
   18       38.104336   0.000000
   19       40.378253   0.000000
   20       42.384865   0.000000
   21       45.805094   0.000000