 vasp.5.4.4.18Apr17-6-g9f103f2a35 (build May 20 2018 16:52:39) complex          
  
 executed on             LinuxIFC date 2022.11.17  21:34:44
 running on   40 total cores
 distrk:  each k-point on   40 cores,    1 groups
 distr:  one band on NCORES_PER_BAND=   1 cores,   40 groups


--------------------------------------------------------------------------------------------------------


 INCAR:
 POTCAR:    PAW Nb_pv 09Jan2002                   

 ----------------------------------------------------------------------------- 
|                                                                             |
|           W    W    AA    RRRRR   N    N  II  N    N   GGGG   !!!           |
|           W    W   A  A   R    R  NN   N  II  NN   N  G    G  !!!           |
|           W    W  A    A  R    R  N N  N  II  N N  N  G       !!!           |
|           W WW W  AAAAAA  RRRRR   N  N N  II  N  N N  G  GGG   !            |
|           WW  WW  A    A  R   R   N   NN  II  N   NN  G    G                |
|           W    W  A    A  R    R  N    N  II  N    N   GGGG   !!!           |
|                                                                             |
|      For optimal performance we recommend to set                            |
|        NCORE= 4 - approx SQRT( number of cores)                             |
|      NCORE specifies how many cores store one orbital (NPAR=cpu/NCORE).     |
|      This setting can  greatly improve the performance of VASP for DFT.     |
|      The default,   NCORE=1            might be grossly inefficient         |
|      on modern multi-core architectures or massively parallel machines.     |
|      Do your own testing !!!!                                               |
|      Unfortunately you need to use the default for GW and RPA calculations. |
|      (for HF NCORE is supported but not extensively tested yet)             |
|                                                                             |
 ----------------------------------------------------------------------------- 

 POTCAR:    PAW Nb_pv 09Jan2002                   
   VRHFIN =Nb: s1d4                                                             
   LEXCH  = CA                                                                  
   EATOM  =  1046.3740 eV,   76.9063 Ry                                         
                                                                                
   TITEL  = PAW Nb_pv 09Jan2002                                                 
   LULTRA =        F    use ultrasoft PP ?                                      
   IUNSCR =        1    unscreen: 0-lin 1-nonlin 2-no                           
   RPACOR =    2.200    partial core radius                                     
   POMASS =   92.910; ZVAL   =   11.000    mass and valenz                      
   RCORE  =    2.750    outmost cutoff radius                                   
   RWIGS  =    2.840; RWIGS  =    1.503    wigner-seitz radius (au A)           
   ENMAX  =  207.263; ENMIN  =  155.447 eV                                      
   RCLOC  =    2.209    cutoff for local pot                                    
   LCOR   =        T    correct aug charges                                     
   LPAW   =        T    paw PP                                                  
   EAUG   =  352.745                                                            
   DEXC   =    0.000                                                            
   RMAX   =    2.814    core radius for proj-oper                               
   RAUG   =    1.300    factor for augmentation sphere                          
   RDEP   =    2.785    radius for radial grids                                 
   RDEPT  =    2.205    core radius for aug-charge                              
                                                                                
   Atomic configuration                                                         
   11 entries                                                                   
     n  l   j            E        occ.                                          
     1  0  0.50    -18704.9804   2.0000                                         
     2  0  0.50     -2619.6337   2.0000                                         
     2  1  1.50     -2343.2033   6.0000                                         
     3  0  0.50      -436.6391   2.0000                                         
     3  1  1.50      -345.9106   6.0000                                         
     3  2  2.50      -196.5794  10.0000                                         
     4  0  0.50       -58.2950   2.0000                                         
     4  1  1.50       -34.5590   6.0000                                         
     4  2  2.50        -3.2208   4.0000                                         
     5  0  0.50        -4.1880   1.0000                                         
     4  3  2.50        -1.3606   0.0000                                         
   Description                                                                  
     l       E           TYP  RCUT    TYP  RCUT                                 
     1    -34.5590103     23  2.600                                             
     1     -1.3605826     23  2.600                                             
     2     -3.2207521     23  2.600                                             
     2     -1.6263194     23  2.600                                             
     0     -4.1879630     23  2.750                                             
     0     20.4087390     23  2.750                                             
  local pseudopotential read in
  partial core-charges read in
  partial kinetic energy density read in
  atomic valenz-charges read in
  non local Contribution for L=           1  read in
    real space projection operators read in
  non local Contribution for L=           1  read in
    real space projection operators read in
  non local Contribution for L=           2  read in
    real space projection operators read in
  non local Contribution for L=           2  read in
    real space projection operators read in
  non local Contribution for L=           0  read in
    real space projection operators read in
  non local Contribution for L=           0  read in
    real space projection operators read in
    PAW grid and wavefunctions read in
 
   number of l-projection  operators is LMAX  =           6
   number of lm-projection operators is LMMAX =          18
 
  PAW Nb_pv 09Jan2002                   :
 energy of atom  1       EATOM=-1046.3740
 kinetic energy error for atom=    0.0109 (will be added to EATOM!!)
 
 
 POSCAR: primitive Nb                            
  positions in direct lattice
  No initial velocities read in
 exchange correlation table for  LEXCH =        2
   RHO(1)=    0.500       N(1)  =     2000
   RHO(2)=  100.500       N(2)  =     4000
 


--------------------------------------------------------------------------------------------------------


 ion  position               nearest neighbor table
   1  0.000  0.000  0.000-
 
  LATTYP: Found a body centered cubic cell.
 ALAT       =     3.3008000000
  
  Lattice vectors:
  
 A1 = (  -1.6504000000,   1.6504000000,   1.6504000000)
 A2 = (   1.6504000000,  -1.6504000000,   1.6504000000)
 A3 = (   1.6504000000,   1.6504000000,  -1.6504000000)


Analysis of symmetry for initial positions (statically):
=====================================================================
 Subroutine PRICEL returns:
 Original cell was already a primitive cell.
 

 Routine SETGRP: Setting up the symmetry group for a 
 body centered cubic supercell.


 Subroutine GETGRP returns: Found 48 space group operations
 (whereof 48 operations were pure point group operations)
 out of a pool of 48 trial point group operations.


The static configuration has the point symmetry O_h .


Analysis of symmetry for dynamics (positions and initial velocities):
=====================================================================
 Subroutine PRICEL returns:
 Original cell was already a primitive cell.
 

 Routine SETGRP: Setting up the symmetry group for a 
 body centered cubic supercell.


 Subroutine GETGRP returns: Found 48 space group operations
 (whereof 48 operations were pure point group operations)
 out of a pool of 48 trial point group operations.


The dynamic configuration has the point symmetry O_h .


 Subroutine INISYM returns: Found 48 space group operations
 (whereof 48 operations are pure point group operations),
 and found     1 'primitive' translations

 
 
 KPOINTS: 10*10*10                                

Automatic generation of k-mesh.
Space group operators:
 irot       det(A)        alpha          n_x          n_y          n_z        tau_x        tau_y        tau_z
    1     1.000000     0.000000     1.000000     0.000000     0.000000     0.000000     0.000000     0.000000
    2    -1.000000     0.000000     1.000000     0.000000     0.000000     0.000000     0.000000     0.000000
    3     1.000000   120.000000    -0.577350    -0.577350    -0.577350     0.000000     0.000000     0.000000
    4    -1.000000   120.000000    -0.577350    -0.577350    -0.577350     0.000000     0.000000     0.000000
    5     1.000000   120.000000     0.577350     0.577350     0.577350     0.000000     0.000000     0.000000
    6    -1.000000   120.000000     0.577350     0.577350     0.577350     0.000000     0.000000     0.000000
    7     1.000000    90.000000     0.000000     0.000000    -1.000000     0.000000     0.000000     0.000000
    8    -1.000000    90.000000     0.000000     0.000000    -1.000000     0.000000     0.000000     0.000000
    9     1.000000   180.000000     0.000000     0.707107     0.707107     0.000000     0.000000     0.000000
   10    -1.000000   180.000000     0.000000     0.707107     0.707107     0.000000     0.000000     0.000000
   11     1.000000    90.000000     0.000000     1.000000     0.000000     0.000000     0.000000     0.000000
   12    -1.000000    90.000000     0.000000     1.000000     0.000000     0.000000     0.000000     0.000000
   13     1.000000   180.000000     0.000000     0.000000     1.000000     0.000000     0.000000     0.000000
   14    -1.000000   180.000000     0.000000     0.000000     1.000000     0.000000     0.000000     0.000000
   15     1.000000   120.000000    -0.577350     0.577350     0.577350     0.000000     0.000000     0.000000
   16    -1.000000   120.000000    -0.577350     0.577350     0.577350     0.000000     0.000000     0.000000
   17     1.000000   120.000000    -0.577350     0.577350    -0.577350     0.000000     0.000000     0.000000
   18    -1.000000   120.000000    -0.577350     0.577350    -0.577350     0.000000     0.000000     0.000000
   19     1.000000    90.000000     0.000000     0.000000     1.000000     0.000000     0.000000     0.000000
   20    -1.000000    90.000000     0.000000     0.000000     1.000000     0.000000     0.000000     0.000000
   21     1.000000    90.000000    -1.000000     0.000000     0.000000     0.000000     0.000000     0.000000
   22    -1.000000    90.000000    -1.000000     0.000000     0.000000     0.000000     0.000000     0.000000
   23     1.000000   180.000000     0.707107     0.000000     0.707107     0.000000     0.000000     0.000000
   24    -1.000000   180.000000     0.707107     0.000000     0.707107     0.000000     0.000000     0.000000
   25     1.000000   120.000000     0.577350    -0.577350     0.577350     0.000000     0.000000     0.000000
   26    -1.000000   120.000000     0.577350    -0.577350     0.577350     0.000000     0.000000     0.000000
   27     1.000000   120.000000    -0.577350    -0.577350     0.577350     0.000000     0.000000     0.000000
   28    -1.000000   120.000000    -0.577350    -0.577350     0.577350     0.000000     0.000000     0.000000
   29     1.000000   180.000000     1.000000     0.000000     0.000000     0.000000     0.000000     0.000000
   30    -1.000000   180.000000     1.000000     0.000000     0.000000     0.000000     0.000000     0.000000
   31     1.000000    90.000000     0.000000    -1.000000     0.000000     0.000000     0.000000     0.000000
   32    -1.000000    90.000000     0.000000    -1.000000     0.000000     0.000000     0.000000     0.000000
   33     1.000000   180.000000     0.707107     0.707107     0.000000     0.000000     0.000000     0.000000
   34    -1.000000   180.000000     0.707107     0.707107     0.000000     0.000000     0.000000     0.000000
   35     1.000000    90.000000     1.000000     0.000000     0.000000     0.000000     0.000000     0.000000
   36    -1.000000    90.000000     1.000000     0.000000     0.000000     0.000000     0.000000     0.000000
   37     1.000000   120.000000     0.577350    -0.577350    -0.577350     0.000000     0.000000     0.000000
   38    -1.000000   120.000000     0.577350    -0.577350    -0.577350     0.000000     0.000000     0.000000
   39     1.000000   180.000000     0.000000     1.000000     0.000000     0.000000     0.000000     0.000000
   40    -1.000000   180.000000     0.000000     1.000000     0.000000     0.000000     0.000000     0.000000
   41     1.000000   120.000000     0.577350     0.577350    -0.577350     0.000000     0.000000     0.000000
   42    -1.000000   120.000000     0.577350     0.577350    -0.577350     0.000000     0.000000     0.000000
   43     1.000000   180.000000     0.000000    -0.707107     0.707107     0.000000     0.000000     0.000000
   44    -1.000000   180.000000     0.000000    -0.707107     0.707107     0.000000     0.000000     0.000000
   45     1.000000   180.000000     0.707107    -0.707107     0.000000     0.000000     0.000000     0.000000
   46    -1.000000   180.000000     0.707107    -0.707107     0.000000     0.000000     0.000000     0.000000
   47     1.000000   180.000000     0.707107     0.000000    -0.707107     0.000000     0.000000     0.000000
   48    -1.000000   180.000000     0.707107     0.000000    -0.707107     0.000000     0.000000     0.000000
 
 Subroutine IBZKPT returns following result:
 ===========================================
 
 Found     44 irreducible k-points:
 
 Following reciprocal coordinates:
            Coordinates               Weight
  0.050000  0.050000  0.050000      8.000000
  0.150000  0.050000  0.050000     24.000000
  0.250000  0.050000  0.050000     24.000000
  0.350000  0.050000  0.050000     24.000000
  0.450000  0.050000  0.050000     12.000000
 -0.050000  0.050000  0.050000      6.000000
  0.150000  0.150000  0.050000     24.000000
  0.250000  0.150000  0.050000     48.000000
  0.350000  0.150000  0.050000     48.000000
 -0.150000  0.150000  0.050000     24.000000
  0.250000  0.250000  0.050000     24.000000
  0.350000  0.250000  0.050000     24.000000
 -0.250000  0.250000  0.050000     24.000000
 -0.150000  0.250000  0.050000     24.000000
 -0.350000  0.350000  0.050000     24.000000
 -0.250000  0.350000  0.050000     48.000000
 -0.450000  0.450000  0.050000     24.000000
 -0.350000  0.450000  0.050000     48.000000
 -0.250000  0.450000  0.050000     24.000000
 -0.450000 -0.450000  0.050000     24.000000
 -0.350000 -0.450000  0.050000     48.000000
 -0.350000 -0.350000  0.050000      8.000000
  0.150000  0.150000  0.150000      8.000000
  0.250000  0.150000  0.150000     24.000000
  0.350000  0.150000  0.150000     12.000000
 -0.150000  0.150000  0.150000      6.000000
  0.250000  0.250000  0.150000     24.000000
 -0.250000  0.250000  0.150000     24.000000
 -0.350000  0.350000  0.150000     24.000000
 -0.250000  0.350000  0.150000     24.000000
 -0.450000  0.450000  0.150000     24.000000
 -0.350000  0.450000  0.150000     48.000000
 -0.450000 -0.450000  0.150000     24.000000
 -0.350000 -0.450000  0.150000     24.000000
  0.250000  0.250000  0.250000      2.000000
 -0.250000  0.250000  0.250000      6.000000
 -0.350000  0.350000  0.250000     24.000000
 -0.450000  0.450000  0.250000     24.000000
 -0.350000  0.450000  0.250000     24.000000
 -0.450000 -0.450000  0.250000     24.000000
 -0.350000  0.350000  0.350000      6.000000
 -0.450000  0.450000  0.350000     24.000000
 -0.450000 -0.450000  0.350000      8.000000
 -0.450000  0.450000  0.450000      6.000000
 
 Following cartesian coordinates:
            Coordinates               Weight
  0.100000  0.100000  0.100000      8.000000
  0.100000  0.200000  0.200000     24.000000
  0.100000  0.300000  0.300000     24.000000
  0.100000  0.400000  0.400000     24.000000
  0.100000  0.500000  0.500000     12.000000
  0.100000  0.000000  0.000000      6.000000
  0.200000  0.200000  0.300000     24.000000
  0.200000  0.300000  0.400000     48.000000
  0.200000  0.400000  0.500000     48.000000
  0.200000 -0.100000  0.000000     24.000000
  0.300000  0.300000  0.500000     24.000000
  0.300000  0.400000  0.600000     24.000000
  0.300000 -0.200000  0.000000     24.000000
  0.300000 -0.100000  0.100000     24.000000
  0.400000 -0.300000  0.000000     24.000000
  0.400000 -0.200000  0.100000     48.000000
  0.500000 -0.400000  0.000000     24.000000
  0.500000 -0.300000  0.100000     48.000000
  0.500000 -0.200000  0.200000     24.000000
 -0.400000 -0.400000 -0.900000     24.000000
 -0.400000 -0.300000 -0.800000     48.000000
 -0.300000 -0.300000 -0.700000      8.000000
  0.300000  0.300000  0.300000      8.000000
  0.300000  0.400000  0.400000     24.000000
  0.300000  0.500000  0.500000     12.000000
  0.300000  0.000000  0.000000      6.000000
  0.400000  0.400000  0.500000     24.000000
  0.400000 -0.100000  0.000000     24.000000
  0.500000 -0.200000  0.000000     24.000000
  0.500000 -0.100000  0.100000     24.000000
  0.600000 -0.300000  0.000000     24.000000
  0.600000 -0.200000  0.100000     48.000000
 -0.300000 -0.300000 -0.900000     24.000000
 -0.300000 -0.200000 -0.800000     24.000000
  0.500000  0.500000  0.500000      2.000000
  0.500000  0.000000  0.000000      6.000000
  0.600000 -0.100000  0.000000     24.000000
  0.700000 -0.200000  0.000000     24.000000
  0.700000 -0.100000  0.100000     24.000000
 -0.200000 -0.200000 -0.900000     24.000000
  0.700000  0.000000  0.000000      6.000000
  0.800000 -0.100000  0.000000     24.000000
 -0.100000 -0.100000 -0.900000      8.000000
  0.900000  0.000000  0.000000      6.000000
 
 TETIRR: Found   1097 inequivalent tetrahedra from     6000


--------------------------------------------------------------------------------------------------------




 Dimension of arrays:
   k-points           NKPTS =     44   k-points in BZ     NKDIM =     44   number of bands    NBANDS=     40
   number of dos      NEDOS =    301   number of ions     NIONS =      1
   non local maximal  LDIM  =      6   non local SUM 2l+1 LMDIM =     18
   total plane-waves  NPLWV =   1728
   max r-space proj   IRMAX =      1   max aug-charges    IRDMAX=   6174
   dimension x,y,z NGX =    12 NGY =   12 NGZ =   12
   dimension x,y,z NGXF=    24 NGYF=   24 NGZF=   24
   support grid    NGXF=    24 NGYF=   24 NGZF=   24
   ions per type =               1
   NGX,Y,Z   is equivalent  to a cutoff of   6.98,  6.98,  6.98 a.u.
   NGXF,Y,Z  is equivalent  to a cutoff of  13.96, 13.96, 13.96 a.u.

 SYSTEM =  Nb                                      
 POSCAR =  primitive Nb                            

 Startparameter for this run:
   NWRITE =      2    write-flag & timer
   PREC   = normal    normal or accurate (medium, high low for compatibility)
   ISTART =      0    job   : 0-new  1-cont  2-samecut
   ICHARG =      2    charge: 1-file 2-atom 10-const
   ISPIN  =      1    spin polarized calculation?
   LNONCOLLINEAR =      F non collinear calculations
   LSORBIT =      F    spin-orbit coupling
   INIWAV =      1    electr: 0-lowe 1-rand  2-diag
   LASPH  =      F    aspherical Exc in radial PAW
   METAGGA=      F    non-selfconsistent MetaGGA calc.

 Electronic Relaxation 1
   ENCUT  =  300.0 eV  22.05 Ry    4.70 a.u.   4.04  4.04  4.04*2*pi/ulx,y,z
   ENINI  =  300.0     initial cutoff
   ENAUG  =  352.7 eV  augmentation charge cutoff
   NELM   =     60;   NELMIN=  2; NELMDL= -5     # of ELM steps 
   EDIFF  = 0.1E-06   stopping-criterion for ELM
   LREAL  =      F    real-space projection
   NLSPLINE    = F    spline interpolate recip. space projectors
   LCOMPAT=      F    compatible to vasp.4.4
   GGA_COMPAT  = T    GGA compatible to vasp.4.4-vasp.4.6
   LMAXPAW     = -100 max onsite density
   LMAXMIX     =    2 max onsite mixed and CHGCAR
   VOSKOWN=      0    Vosko Wilk Nusair interpolation
   ROPT   =    0.00000
 Ionic relaxation
   EDIFFG = 0.1E-05   stopping-criterion for IOM
   NSW    =      0    number of steps for IOM
   NBLOCK =      1;   KBLOCK =      1    inner block; outer block 
   IBRION =     -1    ionic relax: 0-MD 1-quasi-New 2-CG
   NFREE  =      0    steps in history (QN), initial steepest desc. (CG)
   ISIF   =      2    stress and relaxation
   IWAVPR =     10    prediction:  0-non 1-charg 2-wave 3-comb
   ISYM   =      2    0-nonsym 1-usesym 2-fastsym
   LCORR  =      T    Harris-Foulkes like correction to forces

   POTIM  = 0.5000    time-step for ionic-motion
   TEIN   =    0.0    initial temperature
   TEBEG  =    0.0;   TEEND  =   0.0 temperature during run
   SMASS  =  -3.00    Nose mass-parameter (am)
   estimated Nose-frequenzy (Omega)   =  0.10E-29 period in steps =****** mass=  -0.187E-27a.u.
   SCALEE = 1.0000    scale energy and forces
   NPACO  =    256;   APACO  = 16.0  distance and # of slots for P.C.
   PSTRESS=    0.0 pullay stress

  Mass of Ions in am
   POMASS =  92.91
  Ionic Valenz
   ZVAL   =  11.00
  Atomic Wigner-Seitz radii
   RWIGS  =  -1.00
  virtual crystal weights 
   VCA    =   1.00
   NELECT =      11.0000    total number of electrons
   NUPDOWN=      -1.0000    fix difference up-down

 DOS related values:
   EMIN   =  10.00;   EMAX   =-10.00  energy-range for DOS
   EFERMI =   0.00
   ISMEAR =    -5;   SIGMA  =   0.20  broadening in eV -4-tet -1-fermi 0-gaus

 Electronic relaxation 2 (details)
   IALGO  =     38    algorithm
   LDIAG  =      T    sub-space diagonalisation (order eigenvalues)
   LSUBROT=      F    optimize rotation matrix (better conditioning)
   TURBO    =      0    0=normal 1=particle mesh
   IRESTART =      0    0=no restart 2=restart with 2 vectors
   NREBOOT  =      0    no. of reboots
   NMIN     =      0    reboot dimension
   EREF     =   0.00    reference energy to select bands
   IMIX   =      4    mixing-type and parameters
     AMIX     =   0.40;   BMIX     =  1.00
     AMIX_MAG =   1.60;   BMIX_MAG =  1.00
     AMIN     =   0.10
     WC   =   100.;   INIMIX=   1;  MIXPRE=   1;  MAXMIX= -45

 Intra band minimization:
   WEIMIN = 0.0000     energy-eigenvalue tresh-hold
   EBREAK =  0.63E-09  absolut break condition
   DEPER  =   0.30     relativ break condition  

   TIME   =   0.40     timestep for ELM

  volume/ion in A,a.u.               =      17.98       121.35
  Fermi-wavevector in a.u.,A,eV,Ry     =   1.389728  2.626205 26.277534  1.931344
  Thomas-Fermi vector in A             =   2.513731
 
 Write flags
   LWAVE        =      T    write WAVECAR
   LDOWNSAMPLE  =      F    k-point downsampling of WAVECAR
   LCHARG       =      T    write CHGCAR
   LVTOT        =      F    write LOCPOT, total local potential
   LVHAR        =      F    write LOCPOT, Hartree potential only
   LELF         =      F    write electronic localiz. function (ELF)
   LORBIT       =      0    0 simple, 1 ext, 2 COOP (PROOUT), +10 PAW based schemes


 Dipole corrections
   LMONO  =      F    monopole corrections only (constant potential shift)
   LDIPOL =      F    correct potential (dipole corrections)
   IDIPOL =      0    1-x, 2-y, 3-z, 4-all directions 
   EPSILON=  1.0000000 bulk dielectric constant

 Exchange correlation treatment:
   GGA     =    --    GGA type
   LEXCH   =     2    internal setting for exchange type
   VOSKOWN=      0    Vosko Wilk Nusair interpolation
   LHFCALC =     F    Hartree Fock is set to
   LHFONE  =     F    Hartree Fock one center treatment
   AEXX    =    0.0000 exact exchange contribution

 Linear response parameters
   LEPSILON=     F    determine dielectric tensor
   LRPA    =     F    only Hartree local field effects (RPA)
   LNABLA  =     F    use nabla operator in PAW spheres
   LVEL    =     F    velocity operator in full k-point grid
   LINTERFAST=   F  fast interpolation
   KINTER  =     0    interpolate to denser k-point grid
   CSHIFT  =0.1000    complex shift for real part using Kramers Kronig
   OMEGAMAX=  -1.0    maximum frequency
   DEG_THRESHOLD= 0.2000000E-02 threshold for treating states as degnerate
   RTIME   =   -0.100 relaxation time in fs
  (WPLASMAI=    0.000 imaginary part of plasma frequency in eV, 0.658/RTIME)
   DFIELD  = 0.0000000 0.0000000 0.0000000 field for delta impulse in time
 
 Orbital magnetization related:
   ORBITALMAG=     F  switch on orbital magnetization
   LCHIMAG   =     F  perturbation theory with respect to B field
   DQ        =  0.001000  dq finite difference perturbation B field
   LLRAUG    =     F  two centre corrections for induced B field



--------------------------------------------------------------------------------------------------------


 Static calculation
 charge density and potential will be updated during run
 non-spin polarized calculation
 Variant of blocked Davidson
 Davidson routine will perform the subspace rotation
 perform sub-space diagonalisation
    after iterative eigenvector-optimisation
 modified Broyden-mixing scheme, WC =      100.0
 initial mixing is a Kerker type mixing with AMIX =  0.4000 and BMIX =      1.0000
 Hartree-type preconditioning will be used
 using additional bands           34
 reciprocal scheme for non local part
 use partial core corrections
 calculate Harris-corrections to forces 
   (improved forces if not selfconsistent)
 use of overlap-Matrix (Vanderbilt PP)
 Fermi weights with tetrahedron method with Bloechl corrections


--------------------------------------------------------------------------------------------------------


  energy-cutoff  :      300.00
  volume of cell :       17.98
      direct lattice vectors                 reciprocal lattice vectors
    -1.650400000  1.650400000  1.650400000     0.000000000  0.302956859  0.302956859
     1.650400000 -1.650400000  1.650400000     0.302956859  0.000000000  0.302956859
     1.650400000  1.650400000 -1.650400000     0.302956859  0.302956859  0.000000000

  length of vectors
     2.858576653  2.858576653  2.858576653     0.428445699  0.428445699  0.428445699


 
 k-points in units of 2pi/SCALE and weight: 10*10*10                                
   0.10000000  0.10000000  0.10000000       0.008
   0.10000000  0.20000000  0.20000000       0.024
   0.10000000  0.30000000  0.30000000       0.024
   0.10000000  0.40000000  0.40000000       0.024
   0.10000000  0.50000000  0.50000000       0.012
   0.10000000  0.00000000  0.00000000       0.006
   0.20000000  0.20000000  0.30000000       0.024
   0.20000000  0.30000000  0.40000000       0.048
   0.20000000  0.40000000  0.50000000       0.048
   0.20000000 -0.10000000  0.00000000       0.024
   0.30000000  0.30000000  0.50000000       0.024
   0.30000000  0.40000000  0.60000000       0.024
   0.30000000 -0.20000000  0.00000000       0.024
   0.30000000 -0.10000000  0.10000000       0.024
   0.40000000 -0.30000000  0.00000000       0.024
   0.40000000 -0.20000000  0.10000000       0.048
   0.50000000 -0.40000000  0.00000000       0.024
   0.50000000 -0.30000000  0.10000000       0.048
   0.50000000 -0.20000000  0.20000000       0.024
  -0.40000000 -0.40000000 -0.90000000       0.024
  -0.40000000 -0.30000000 -0.80000000       0.048
  -0.30000000 -0.30000000 -0.70000000       0.008
   0.30000000  0.30000000  0.30000000       0.008
   0.30000000  0.40000000  0.40000000       0.024
   0.30000000  0.50000000  0.50000000       0.012
   0.30000000  0.00000000  0.00000000       0.006
   0.40000000  0.40000000  0.50000000       0.024
   0.40000000 -0.10000000  0.00000000       0.024
   0.50000000 -0.20000000  0.00000000       0.024
   0.50000000 -0.10000000  0.10000000       0.024
   0.60000000 -0.30000000  0.00000000       0.024
   0.60000000 -0.20000000  0.10000000       0.048
  -0.30000000 -0.30000000 -0.90000000       0.024
  -0.30000000 -0.20000000 -0.80000000       0.024
   0.50000000  0.50000000  0.50000000       0.002
   0.50000000  0.00000000  0.00000000       0.006
   0.60000000 -0.10000000  0.00000000       0.024
   0.70000000 -0.20000000  0.00000000       0.024
   0.70000000 -0.10000000  0.10000000       0.024
  -0.20000000 -0.20000000 -0.90000000       0.024
   0.70000000  0.00000000  0.00000000       0.006
   0.80000000 -0.10000000  0.00000000       0.024
  -0.10000000 -0.10000000 -0.90000000       0.008
   0.90000000  0.00000000  0.00000000       0.006
 
 k-points in reciprocal lattice and weights: 10*10*10                                
   0.05000000  0.05000000  0.05000000       0.008
   0.15000000  0.05000000  0.05000000       0.024
   0.25000000  0.05000000  0.05000000       0.024
   0.35000000  0.05000000  0.05000000       0.024
   0.45000000  0.05000000  0.05000000       0.012
  -0.05000000  0.05000000  0.05000000       0.006
   0.15000000  0.15000000  0.05000000       0.024
   0.25000000  0.15000000  0.05000000       0.048
   0.35000000  0.15000000  0.05000000       0.048
  -0.15000000  0.15000000  0.05000000       0.024
   0.25000000  0.25000000  0.05000000       0.024
   0.35000000  0.25000000  0.05000000       0.024
  -0.25000000  0.25000000  0.05000000       0.024
  -0.15000000  0.25000000  0.05000000       0.024
  -0.35000000  0.35000000  0.05000000       0.024
  -0.25000000  0.35000000  0.05000000       0.048
  -0.45000000  0.45000000  0.05000000       0.024
  -0.35000000  0.45000000  0.05000000       0.048
  -0.25000000  0.45000000  0.05000000       0.024
  -0.45000000 -0.45000000  0.05000000       0.024
  -0.35000000 -0.45000000  0.05000000       0.048
  -0.35000000 -0.35000000  0.05000000       0.008
   0.15000000  0.15000000  0.15000000       0.008
   0.25000000  0.15000000  0.15000000       0.024
   0.35000000  0.15000000  0.15000000       0.012
  -0.15000000  0.15000000  0.15000000       0.006
   0.25000000  0.25000000  0.15000000       0.024
  -0.25000000  0.25000000  0.15000000       0.024
  -0.35000000  0.35000000  0.15000000       0.024
  -0.25000000  0.35000000  0.15000000       0.024
  -0.45000000  0.45000000  0.15000000       0.024
  -0.35000000  0.45000000  0.15000000       0.048
  -0.45000000 -0.45000000  0.15000000       0.024
  -0.35000000 -0.45000000  0.15000000       0.024
   0.25000000  0.25000000  0.25000000       0.002
  -0.25000000  0.25000000  0.25000000       0.006
  -0.35000000  0.35000000  0.25000000       0.024
  -0.45000000  0.45000000  0.25000000       0.024
  -0.35000000  0.45000000  0.25000000       0.024
  -0.45000000 -0.45000000  0.25000000       0.024
  -0.35000000  0.35000000  0.35000000       0.006
  -0.45000000  0.45000000  0.35000000       0.024
  -0.45000000 -0.45000000  0.35000000       0.008
  -0.45000000  0.45000000  0.45000000       0.006
 
 position of ions in fractional coordinates (direct lattice) 
   0.00000000  0.00000000  0.00000000
 
 position of ions in cartesian coordinates  (Angst):
   0.00000000  0.00000000  0.00000000
 


--------------------------------------------------------------------------------------------------------


 k-point  1 :   0.0500 0.0500 0.0500  plane waves:     213
 k-point  2 :   0.1500 0.0500 0.0500  plane waves:     210
 k-point  3 :   0.2500 0.0500 0.0500  plane waves:     205
 k-point  4 :   0.3500 0.0500 0.0500  plane waves:     207
 k-point  5 :   0.4500 0.0500 0.0500  plane waves:     212
 k-point  6 :  -0.0500 0.0500 0.0500  plane waves:     213
 k-point  7 :   0.1500 0.1500 0.0500  plane waves:     206
 k-point  8 :   0.2500 0.1500 0.0500  plane waves:     210
 k-point  9 :   0.3500 0.1500 0.0500  plane waves:     210
 k-point 10 :  -0.1500 0.1500 0.0500  plane waves:     210
 k-point 11 :   0.2500 0.2500 0.0500  plane waves:     214
 k-point 12 :   0.3500 0.2500 0.0500  plane waves:     214
 k-point 13 :  -0.2500 0.2500 0.0500  plane waves:     211
 k-point 14 :  -0.1500 0.2500 0.0500  plane waves:     211
 k-point 15 :  -0.3500 0.3500 0.0500  plane waves:     210
 k-point 16 :  -0.2500 0.3500 0.0500  plane waves:     209
 k-point 17 :  -0.4500 0.4500 0.0500  plane waves:     209
 k-point 18 :  -0.3500 0.4500 0.0500  plane waves:     211
 k-point 19 :  -0.2500 0.4500 0.0500  plane waves:     216
 k-point 20 :  -0.4500-0.4500 0.0500  plane waves:     214
 k-point 21 :  -0.3500-0.4500 0.0500  plane waves:     215
 k-point 22 :  -0.3500-0.3500 0.0500  plane waves:     212
 k-point 23 :   0.1500 0.1500 0.1500  plane waves:     210
 k-point 24 :   0.2500 0.1500 0.1500  plane waves:     212
 k-point 25 :   0.3500 0.1500 0.1500  plane waves:     210
 k-point 26 :  -0.1500 0.1500 0.1500  plane waves:     213
 k-point 27 :   0.2500 0.2500 0.1500  plane waves:     212
 k-point 28 :  -0.2500 0.2500 0.1500  plane waves:     210
 k-point 29 :  -0.3500 0.3500 0.1500  plane waves:     215
 k-point 30 :  -0.2500 0.3500 0.1500  plane waves:     213
 k-point 31 :  -0.4500 0.4500 0.1500  plane waves:     211
 k-point 32 :  -0.3500 0.4500 0.1500  plane waves:     215
 k-point 33 :  -0.4500-0.4500 0.1500  plane waves:     212
 k-point 34 :  -0.3500-0.4500 0.1500  plane waves:     213
 k-point 35 :   0.2500 0.2500 0.2500  plane waves:     216
 k-point 36 :  -0.2500 0.2500 0.2500  plane waves:     209
 k-point 37 :  -0.3500 0.3500 0.2500  plane waves:     214
 k-point 38 :  -0.4500 0.4500 0.2500  plane waves:     216
 k-point 39 :  -0.3500 0.4500 0.2500  plane waves:     220
 k-point 40 :  -0.4500-0.4500 0.2500  plane waves:     218
 k-point 41 :  -0.3500 0.3500 0.3500  plane waves:     220
 k-point 42 :  -0.4500 0.4500 0.3500  plane waves:     220
 k-point 43 :  -0.4500-0.4500 0.3500  plane waves:     224
 k-point 44 :  -0.4500 0.4500 0.4500  plane waves:     228

 maximum and minimum number of plane-waves per node :       228      205

 maximum number of plane-waves:       228
 maximum index in each direction: 
   IXMAX=    4   IYMAX=    4   IZMAX=    3
   IXMIN=   -4   IYMIN=   -4   IZMIN=   -4


 serial   3D FFT for wavefunctions
 parallel 3D FFT for charge:
    minimum data exchange during FFTs selected (reduces bandwidth)


 total amount of memory used by VASP MPI-rank0    31892. kBytes
=======================================================================

   base      :      30000. kBytes
   nonl-proj :       1524. kBytes
   fftplans  :         55. kBytes
   grid      :        101. kBytes
   one-center:         15. kBytes
   wavefun   :        197. kBytes
 
     INWAV:  cpu time    0.0000: real time    0.0001
 Broyden mixing: mesh for mixing (old mesh)
   NGX =  7   NGY =  7   NGZ =  7
  (NGX  = 24   NGY  = 24   NGZ  = 24)
  gives a total of    343 points

 initial charge density was supplied:
 charge density of overlapping atoms calculated
 number of electron      11.0000000 magnetization 
 keeping initial charge density in first step


--------------------------------------------------------------------------------------------------------


 Maximum index for augmentation-charges          345 (set IRDMAX)


--------------------------------------------------------------------------------------------------------


 First call to EWALD:  gamma=   0.677
 Maximum number of real-space cells 3x 3x 3
 Maximum number of reciprocal cells 3x 3x 3

    FEWALD:  cpu time    0.0019: real time    0.0028


--------------------------------------- Iteration      1(   1)  ---------------------------------------


    POTLOK:  cpu time    0.0138: real time    0.0203
    SETDIJ:  cpu time    0.0054: real time    0.0086
     EDDAV:  cpu time    0.6758: real time    0.6950
 BZINTS: Fermi energy:  5.554490; 11.000000 electrons
         Band energy:-124.393098;  BLOECHL correction: -0.116581
       DOS:  cpu time    0.0739: real time    0.0781
    --------------------------------------------
      LOOP:  cpu time    0.7689: real time    0.8020

 eigenvalue-minimisations  :  4840
 total energy-change (2. order) :-0.1057456E+02  (-0.5531466E+03)
 number of electron      11.0000000 magnetization 
 augmentation part       11.0000000 magnetization 

 Free energy of the ion-electron system (eV)
  ---------------------------------------------------
  alpha Z        PSCENC =       124.80261925
  Ewald energy   TEWEN  =      -960.51057943
  -Hartree energ DENC   =      -135.96918557
  -exchange      EXHF   =         0.00000000
  -V(xc)+E(xc)   XCENC  =        27.29587705
  PAW double counting   =       833.59079063     -821.75412581
  entropy T*S    EENTRO =         0.00000000
  eigenvalues    EBANDS =      -124.39309806
  atomic energy  EATOM  =      1046.36313925
  Solvation  Ediel_sol  =         0.00000000
  ---------------------------------------------------
  free energy    TOTEN  =       -10.57456269 eV

  energy without entropy =      -10.57456269  energy(sigma->0) =      -10.57456269


--------------------------------------------------------------------------------------------------------




--------------------------------------- Iteration      1(   2)  ---------------------------------------


     EDDAV:  cpu time    0.4397: real time    0.4420
 BZINTS: Fermi energy:  5.360640; 11.000000 electrons
         Band energy:-125.514764;  BLOECHL correction: -0.107292
       DOS:  cpu time    0.0799: real time    0.0803
    --------------------------------------------
      LOOP:  cpu time    0.5196: real time    0.5223

 eigenvalue-minimisations  :  3760
 total energy-change (2. order) :-0.1121666E+01  (-0.1094748E+01)
 number of electron      11.0000000 magnetization 
 augmentation part       11.0000000 magnetization 

 Free energy of the ion-electron system (eV)
  ---------------------------------------------------
  alpha Z        PSCENC =       124.80261925
  Ewald energy   TEWEN  =      -960.51057943
  -Hartree energ DENC   =      -135.96918557
  -exchange      EXHF   =         0.00000000
  -V(xc)+E(xc)   XCENC  =        27.29587705
  PAW double counting   =       833.59079063     -821.75412581
  entropy T*S    EENTRO =         0.00000000
  eigenvalues    EBANDS =      -125.51476447
  atomic energy  EATOM  =      1046.36313925
  Solvation  Ediel_sol  =         0.00000000
  ---------------------------------------------------
  free energy    TOTEN  =       -11.69622911 eV

  energy without entropy =      -11.69622911  energy(sigma->0) =      -11.69622911


--------------------------------------------------------------------------------------------------------




--------------------------------------- Iteration      1(   3)  ---------------------------------------


     EDDAV:  cpu time    1.0523: real time    1.0600
 BZINTS: Fermi energy:  5.360610; 11.000000 electrons
         Band energy:-125.515059;  BLOECHL correction: -0.107294
       DOS:  cpu time    0.0759: real time    0.0760
    --------------------------------------------
      LOOP:  cpu time    1.1282: real time    1.1360

 eigenvalue-minimisations  :  6160
 total energy-change (2. order) :-0.2948520E-03  (-0.2953683E-03)
 number of electron      11.0000000 magnetization 
 augmentation part       11.0000000 magnetization 

 Free energy of the ion-electron system (eV)
  ---------------------------------------------------
  alpha Z        PSCENC =       124.80261925
  Ewald energy   TEWEN  =      -960.51057943
  -Hartree energ DENC   =      -135.96918557
  -exchange      EXHF   =         0.00000000
  -V(xc)+E(xc)   XCENC  =        27.29587705
  PAW double counting   =       833.59079063     -821.75412581
  entropy T*S    EENTRO =         0.00000000
  eigenvalues    EBANDS =      -125.51505933
  atomic energy  EATOM  =      1046.36313925
  Solvation  Ediel_sol  =         0.00000000
  ---------------------------------------------------
  free energy    TOTEN  =       -11.69652396 eV

  energy without entropy =      -11.69652396  energy(sigma->0) =      -11.69652396


--------------------------------------------------------------------------------------------------------




--------------------------------------- Iteration      1(   4)  ---------------------------------------


     EDDAV:  cpu time    0.4940: real time    0.4995
 BZINTS: Fermi energy:  5.360610; 11.000000 electrons
         Band energy:-125.515059;  BLOECHL correction: -0.107294
       DOS:  cpu time    0.0800: real time    0.0802
    --------------------------------------------
      LOOP:  cpu time    0.5740: real time    0.5797

 eigenvalue-minimisations  :  3960
 total energy-change (2. order) :-0.7316885E-09  (-0.8600468E-09)
 number of electron      11.0000000 magnetization 
 augmentation part       11.0000000 magnetization 

 Free energy of the ion-electron system (eV)
  ---------------------------------------------------
  alpha Z        PSCENC =       124.80261925
  Ewald energy   TEWEN  =      -960.51057943
  -Hartree energ DENC   =      -135.96918557
  -exchange      EXHF   =         0.00000000
  -V(xc)+E(xc)   XCENC  =        27.29587705
  PAW double counting   =       833.59079063     -821.75412581
  entropy T*S    EENTRO =         0.00000000
  eigenvalues    EBANDS =      -125.51505933
  atomic energy  EATOM  =      1046.36313925
  Solvation  Ediel_sol  =         0.00000000
  ---------------------------------------------------
  free energy    TOTEN  =       -11.69652396 eV

  energy without entropy =      -11.69652396  energy(sigma->0) =      -11.69652396


--------------------------------------------------------------------------------------------------------




--------------------------------------- Iteration      1(   5)  ---------------------------------------


     EDDAV:  cpu time    0.9546: real time    0.9625
 BZINTS: Fermi energy:  5.360610; 11.000000 electrons
         Band energy:-125.515059;  BLOECHL correction: -0.107294
       DOS:  cpu time    0.0736: real time    0.0738
    CHARGE:  cpu time    0.0049: real time    0.0123
    MIXING:  cpu time    0.0018: real time    0.0057
    --------------------------------------------
      LOOP:  cpu time    1.0350: real time    1.0543

 eigenvalue-minimisations  :  5880
 total energy-change (2. order) : 0.2310117E-09  (-0.1330330E-12)
 number of electron      10.9999986 magnetization 
 augmentation part        3.8886172 magnetization 

 Broyden mixing:
  rms(total) = 0.18216E+01    rms(broyden)= 0.18215E+01
  rms(prec ) = 0.23385E+01
  weight for this iteration     100.00

 Free energy of the ion-electron system (eV)
  ---------------------------------------------------
  alpha Z        PSCENC =       124.80261925
  Ewald energy   TEWEN  =      -960.51057943
  -Hartree energ DENC   =      -135.96918557
  -exchange      EXHF   =         0.00000000
  -V(xc)+E(xc)   XCENC  =        27.29587705
  PAW double counting   =       833.59079063     -821.75412581
  entropy T*S    EENTRO =         0.00000000
  eigenvalues    EBANDS =      -125.51505933
  atomic energy  EATOM  =      1046.36313925
  Solvation  Ediel_sol  =         0.00000000
  ---------------------------------------------------
  free energy    TOTEN  =       -11.69652396 eV

  energy without entropy =      -11.69652396  energy(sigma->0) =      -11.69652396


--------------------------------------------------------------------------------------------------------




--------------------------------------- Iteration      1(   6)  ---------------------------------------


    POTLOK:  cpu time    0.0011: real time    0.0063
    SETDIJ:  cpu time    0.0018: real time    0.0017
     EDDAV:  cpu time    0.5216: real time    0.5232
 BZINTS: Fermi energy:  5.054487; 11.000000 electrons
         Band energy:-132.210659;  BLOECHL correction: -0.108729
       DOS:  cpu time    0.0758: real time    0.0760
    CHARGE:  cpu time    0.0017: real time    0.0017
    MIXING:  cpu time    0.0008: real time    0.0026
    --------------------------------------------
      LOOP:  cpu time    0.6028: real time    0.6113

 eigenvalue-minimisations  :  4120
 total energy-change (2. order) : 0.4381230E+00  (-0.6722711E-01)
 number of electron      10.9999986 magnetization 
 augmentation part        3.9738058 magnetization 

 Broyden mixing:
  rms(total) = 0.81831E+00    rms(broyden)= 0.81831E+00
  rms(prec ) = 0.10260E+01
  weight for this iteration     100.00

 eigenvalues of (default mixing * dielectric matrix)
  average eigenvalue GAMMA=   1.8124
  1.8124

 Free energy of the ion-electron system (eV)
  ---------------------------------------------------
  alpha Z        PSCENC =       124.80261925
  Ewald energy   TEWEN  =      -960.51057943
  -Hartree energ DENC   =      -126.59422534
  -exchange      EXHF   =         0.00000000
  -V(xc)+E(xc)   XCENC  =        26.78433654
  PAW double counting   =      1113.33346068    -1103.22649309
  entropy T*S    EENTRO =         0.00000000
  eigenvalues    EBANDS =      -132.21065879
  atomic energy  EATOM  =      1046.36313925
  Solvation  Ediel_sol  =         0.00000000
  ---------------------------------------------------
  free energy    TOTEN  =       -11.25840093 eV

  energy without entropy =      -11.25840093  energy(sigma->0) =      -11.25840093


--------------------------------------------------------------------------------------------------------




--------------------------------------- Iteration      1(   7)  ---------------------------------------


    POTLOK:  cpu time    0.0009: real time    0.0058
    SETDIJ:  cpu time    0.0016: real time    0.0016
     EDDAV:  cpu time    0.5559: real time    0.5574
 BZINTS: Fermi energy:  4.833230; 11.000000 electrons
         Band energy:-136.840182;  BLOECHL correction: -0.109981
       DOS:  cpu time    0.0778: real time    0.0782
    CHARGE:  cpu time    0.0015: real time    0.0015
    MIXING:  cpu time    0.0002: real time    0.0002
    --------------------------------------------
      LOOP:  cpu time    0.6379: real time    0.6447

 eigenvalue-minimisations  :  4280
 total energy-change (2. order) : 0.1021889E+00  (-0.3414861E-01)
 number of electron      10.9999986 magnetization 
 augmentation part        4.0349346 magnetization 

 Broyden mixing:
  rms(total) = 0.66021E-01    rms(broyden)= 0.66008E-01
  rms(prec ) = 0.94405E-01
  weight for this iteration     100.00

 eigenvalues of (default mixing * dielectric matrix)
  average eigenvalue GAMMA=   2.0737
  1.6091  2.5383

 Free energy of the ion-electron system (eV)
  ---------------------------------------------------
  alpha Z        PSCENC =       124.80261925
  Ewald energy   TEWEN  =      -960.51057943
  -Hartree energ DENC   =      -120.00517942
  -exchange      EXHF   =         0.00000000
  -V(xc)+E(xc)   XCENC  =        26.43040413
  PAW double counting   =      1417.10343721    -1408.49987057
  entropy T*S    EENTRO =         0.00000000
  eigenvalues    EBANDS =      -136.84018244
  atomic energy  EATOM  =      1046.36313925
  Solvation  Ediel_sol  =         0.00000000
  ---------------------------------------------------
  free energy    TOTEN  =       -11.15621202 eV

  energy without entropy =      -11.15621202  energy(sigma->0) =      -11.15621202


--------------------------------------------------------------------------------------------------------




--------------------------------------- Iteration      1(   8)  ---------------------------------------


    POTLOK:  cpu time    0.0011: real time    0.0059
    SETDIJ:  cpu time    0.0017: real time    0.0016
     EDDAV:  cpu time    0.4727: real time    0.4739
 BZINTS: Fermi energy:  4.857221; 11.000000 electrons
         Band energy:-136.292273;  BLOECHL correction: -0.110345
       DOS:  cpu time    0.0715: real time    0.0717
    CHARGE:  cpu time    0.0018: real time    0.0018
    MIXING:  cpu time    0.0002: real time    0.0002
    --------------------------------------------
      LOOP:  cpu time    0.5489: real time    0.5552

 eigenvalue-minimisations  :  3800
 total energy-change (2. order) : 0.3244732E-02  (-0.5092939E-03)
 number of electron      10.9999986 magnetization 
 augmentation part        4.0291202 magnetization 

 Broyden mixing:
  rms(total) = 0.60109E-02    rms(broyden)= 0.60031E-02
  rms(prec ) = 0.81163E-02
  weight for this iteration     100.00

 eigenvalues of (default mixing * dielectric matrix)
  average eigenvalue GAMMA=   1.7414
  1.0558  1.6162  2.5521

 Free energy of the ion-electron system (eV)
  ---------------------------------------------------
  alpha Z        PSCENC =       124.80261925
  Ewald energy   TEWEN  =      -960.51057943
  -Hartree energ DENC   =      -120.23424469
  -exchange      EXHF   =         0.00000000
  -V(xc)+E(xc)   XCENC  =        26.44246267
  PAW double counting   =      1500.28848779    -1492.01257887
  entropy T*S    EENTRO =         0.00000000
  eigenvalues    EBANDS =      -136.29227325
  atomic energy  EATOM  =      1046.36313925
  Solvation  Ediel_sol  =         0.00000000
  ---------------------------------------------------
  free energy    TOTEN  =       -11.15296729 eV

  energy without entropy =      -11.15296729  energy(sigma->0) =      -11.15296729


--------------------------------------------------------------------------------------------------------




--------------------------------------- Iteration      1(   9)  ---------------------------------------


    POTLOK:  cpu time    0.0022: real time    0.0060
    SETDIJ:  cpu time    0.0016: real time    0.0016
     EDDAV:  cpu time    0.6390: real time    0.6408
 BZINTS: Fermi energy:  4.853529; 11.000000 electrons
         Band energy:-136.370835;  BLOECHL correction: -0.110339
       DOS:  cpu time    0.0797: real time    0.0799
    CHARGE:  cpu time    0.0016: real time    0.0016
    MIXING:  cpu time    0.0004: real time    0.0002
    --------------------------------------------
      LOOP:  cpu time    0.7245: real time    0.7302

 eigenvalue-minimisations  :  4640
 total energy-change (2. order) : 0.4109153E-04  (-0.8057238E-05)
 number of electron      10.9999986 magnetization 
 augmentation part        4.0300849 magnetization 

 Broyden mixing:
  rms(total) = 0.90464E-03    rms(broyden)= 0.90231E-03
  rms(prec ) = 0.26887E-02
  weight for this iteration     100.00

 eigenvalues of (default mixing * dielectric matrix)
  average eigenvalue GAMMA=   1.8737
  1.0057  1.5984  2.4455  2.4455

 Free energy of the ion-electron system (eV)
  ---------------------------------------------------
  alpha Z        PSCENC =       124.80261925
  Ewald energy   TEWEN  =      -960.51057943
  -Hartree energ DENC   =      -120.18001565
  -exchange      EXHF   =         0.00000000
  -V(xc)+E(xc)   XCENC  =        26.43964525
  PAW double counting   =      1500.73780204    -1492.43470155
  entropy T*S    EENTRO =         0.00000000
  eigenvalues    EBANDS =      -136.37083535
  atomic energy  EATOM  =      1046.36313925
  Solvation  Ediel_sol  =         0.00000000
  ---------------------------------------------------
  free energy    TOTEN  =       -11.15292620 eV

  energy without entropy =      -11.15292620  energy(sigma->0) =      -11.15292620


--------------------------------------------------------------------------------------------------------




--------------------------------------- Iteration      1(  10)  ---------------------------------------


    POTLOK:  cpu time    0.0054: real time    0.0060
    SETDIJ:  cpu time    0.0016: real time    0.0016
     EDDAV:  cpu time    0.5586: real time    0.5604
 BZINTS: Fermi energy:  4.853375; 11.000000 electrons
         Band energy:-136.373437;  BLOECHL correction: -0.110328
       DOS:  cpu time    0.0799: real time    0.0803
    CHARGE:  cpu time    0.0015: real time    0.0015
    MIXING:  cpu time    0.0004: real time    0.0002
    --------------------------------------------
      LOOP:  cpu time    0.6473: real time    0.6499

 eigenvalue-minimisations  :  4280
 total energy-change (2. order) : 0.1665334E-05  (-0.1663158E-06)
 number of electron      10.9999986 magnetization 
 augmentation part        4.0300983 magnetization 

 Broyden mixing:
  rms(total) = 0.20658E-03    rms(broyden)= 0.20648E-03
  rms(prec ) = 0.25626E-03
  weight for this iteration     100.00

 eigenvalues of (default mixing * dielectric matrix)
  average eigenvalue GAMMA=   2.0179
  0.9974  1.6056  2.5622  2.5622  2.3620

 Free energy of the ion-electron system (eV)
  ---------------------------------------------------
  alpha Z        PSCENC =       124.80261925
  Ewald energy   TEWEN  =      -960.51057943
  -Hartree energ DENC   =      -120.21326409
  -exchange      EXHF   =         0.00000000
  -V(xc)+E(xc)   XCENC  =        26.44146578
  PAW double counting   =      1501.20621999    -1492.86908823
  entropy T*S    EENTRO =         0.00000000
  eigenvalues    EBANDS =      -136.37343704
  atomic energy  EATOM  =      1046.36313925
  Solvation  Ediel_sol  =         0.00000000
  ---------------------------------------------------
  free energy    TOTEN  =       -11.15292453 eV

  energy without entropy =      -11.15292453  energy(sigma->0) =      -11.15292453


--------------------------------------------------------------------------------------------------------




--------------------------------------- Iteration      1(  11)  ---------------------------------------


    POTLOK:  cpu time    0.0010: real time    0.0058
    SETDIJ:  cpu time    0.0017: real time    0.0016
     EDDAV:  cpu time    0.4583: real time    0.4607
 BZINTS: Fermi energy:  4.853314; 11.000000 electrons
         Band energy:-136.374647;  BLOECHL correction: -0.110328
       DOS:  cpu time    0.0820: real time    0.0822
    CHARGE:  cpu time    0.0015: real time    0.0015
    MIXING:  cpu time    0.0004: real time    0.0002
    --------------------------------------------
      LOOP:  cpu time    0.5449: real time    0.5521

 eigenvalue-minimisations  :  3680
 total energy-change (2. order) : 0.1021172E-06  (-0.1663648E-08)
 number of electron      10.9999986 magnetization 
 augmentation part        4.0301118 magnetization 

 Broyden mixing:
  rms(total) = 0.12055E-03    rms(broyden)= 0.12054E-03
  rms(prec ) = 0.13991E-03
  weight for this iteration     100.00

 eigenvalues of (default mixing * dielectric matrix)
  average eigenvalue GAMMA=   1.8582
  2.6192  2.4524  2.4524  1.6053  1.0255  0.9945

 Free energy of the ion-electron system (eV)
  ---------------------------------------------------
  alpha Z        PSCENC =       124.80261925
  Ewald energy   TEWEN  =      -960.51057943
  -Hartree energ DENC   =      -120.21254036
  -exchange      EXHF   =         0.00000000
  -V(xc)+E(xc)   XCENC  =        26.44143046
  PAW double counting   =      1501.15056217    -1492.81290914
  entropy T*S    EENTRO =         0.00000000
  eigenvalues    EBANDS =      -136.37464663
  atomic energy  EATOM  =      1046.36313925
  Solvation  Ediel_sol  =         0.00000000
  ---------------------------------------------------
  free energy    TOTEN  =       -11.15292443 eV

  energy without entropy =      -11.15292443  energy(sigma->0) =      -11.15292443


--------------------------------------------------------------------------------------------------------




--------------------------------------- Iteration      1(  12)  ---------------------------------------


    POTLOK:  cpu time    0.0009: real time    0.0056
    SETDIJ:  cpu time    0.0016: real time    0.0016
     EDDAV:  cpu time    0.2683: real time    0.2689
 BZINTS: Fermi energy:  4.853249; 11.000000 electrons
         Band energy:-136.375876;  BLOECHL correction: -0.110328
       DOS:  cpu time    0.0798: real time    0.0800
    --------------------------------------------
      LOOP:  cpu time    0.3506: real time    0.3562

 eigenvalue-minimisations  :  2360
 total energy-change (2. order) : 0.6499931E-08  (-0.1424711E-08)
 number of electron      10.9999986 magnetization 
 augmentation part        4.0301118 magnetization 

 Free energy of the ion-electron system (eV)
  ---------------------------------------------------
  alpha Z        PSCENC =       124.80261925
  Ewald energy   TEWEN  =      -960.51057943
  -Hartree energ DENC   =      -120.21270692
  -exchange      EXHF   =         0.00000000
  -V(xc)+E(xc)   XCENC  =        26.44144511
  PAW double counting   =      1501.12450502    -1492.78547024
  entropy T*S    EENTRO =         0.00000000
  eigenvalues    EBANDS =      -136.37587646
  atomic energy  EATOM  =      1046.36313925
  Solvation  Ediel_sol  =         0.00000000
  ---------------------------------------------------
  free energy    TOTEN  =       -11.15292442 eV

  energy without entropy =      -11.15292442  energy(sigma->0) =      -11.15292442


--------------------------------------------------------------------------------------------------------




 average (electrostatic) potential at core
  the test charge radii are     1.2165
  (the norm of the test charge is              1.0000)
       1 -34.8966
 
 
 
 E-fermi :   4.8532     XC(G=0): -12.6465     alpha+bet :-12.9149


 k-point     1 :       0.0500    0.0500    0.0500
  band No.  band energies     occupation 
      1     -24.9092      2.00000
      2     -24.7076      2.00000
      3     -24.7076      2.00000
      4      -0.4868      2.00000
      5       4.8787      1.25510
      6       4.8787      0.63847
      7       5.8947      0.00000
      8       7.8890      0.00000
      9       7.8890      0.00000
     10      20.8150      0.00000
     11      21.4044      0.00000
     12      21.4044      0.00000
     13      28.6500      0.00000
     14      28.6500      0.00000
     15      31.0766      0.00000
     16      36.6605      0.00000
     17      36.6605      0.00000
     18      38.2687      0.00000
     19      40.9608      0.00000
     20      40.9608      0.00000
     21      42.1015      0.00000
     22      45.8386      0.00000
     23      53.8748      0.00000
     24      53.8748      0.00000
     25      54.4640      0.00000
     26      60.3630      0.00000
     27      60.3630      0.00000
     28      64.7653      0.00000
     29      66.3792      0.00000
     30      66.3792      0.00000
     31      67.1112      0.00000
     32      69.2328      0.00000
     33      69.9195      0.00000
     34      69.9195      0.00000
     35      71.5144      0.00000
     36      74.3320      0.00000
     37      74.3320      0.00000
     38      76.2718      0.00000
     39      77.6341      0.00000
     40      77.6341      0.00000

 k-point     2 :       0.1500    0.0500    0.0500
  band No.  band energies     occupation 
      1     -25.2491      2.00000
      2     -24.8186      2.00000
      3     -24.7137      2.00000
      4       0.5171      2.00000
      5       4.2836      2.03510
      6       4.5309      2.09350
      7       7.1677      0.00000
      8       7.6094      0.00000
      9       8.1171      0.00000
     10      21.0498      0.00000
     11      21.9377      0.00000
     12      22.5263      0.00000
     13      27.5073      0.00000
     14      27.5271      0.00000
     15      29.8017      0.00000
     16      34.7827      0.00000
     17      35.7662      0.00000
     18      38.9961      0.00000
     19      41.6823      0.00000
     20      42.2028      0.00000
     21      43.0879      0.00000
     22      49.4172      0.00000
     23      51.0520      0.00000
     24      54.2140      0.00000
     25      55.4789      0.00000
     26      55.9000      0.00000
     27      57.3834      0.00000
     28      60.7951      0.00000
     29      63.5534      0.00000
     30      66.4303      0.00000
     31      66.7178      0.00000
     32      68.0701      0.00000
     33      72.1301      0.00000
     34      72.9435      0.00000
     35      74.1375      0.00000
     36      74.8495      0.00000
     37      76.5785      0.00000
     38      77.7384      0.00000
     39      80.1341      0.00000
     40      80.2328      0.00000

 k-point     3 :       0.2500    0.0500    0.0500
  band No.  band energies     occupation 
      1     -25.6314      2.00000
      2     -24.9725      2.00000
      3     -24.7213      2.00000
      4       1.3958      2.00000
      5       3.6903      2.00000
      6       4.6310      1.71608
      7       7.7925      0.00000
      8       8.3897      0.00000
      9       8.9793      0.00000
     10      19.6302      0.00000
     11      20.2790      0.00000
     12      24.7785      0.00000
     13      25.0998      0.00000
     14      29.2647      0.00000
     15      30.6655      0.00000
     16      31.7529      0.00000
     17      36.4577      0.00000
     18      39.0777      0.00000
     19      42.1720      0.00000
     20      42.9207      0.00000
     21      45.2515      0.00000
     22      47.6550      0.00000
     23      50.5077      0.00000
     24      52.1555      0.00000
     25      52.6375      0.00000
     26      57.8085      0.00000
     27      57.8411      0.00000
     28      58.5563      0.00000
     29      60.5166      0.00000
     30      65.4187      0.00000
     31      66.9247      0.00000
     32      67.6025      0.00000
     33      71.9569      0.00000
     34      73.9519      0.00000
     35      76.2687      0.00000
     36      76.4400      0.00000
     37      77.2157      0.00000
     38      78.5020      0.00000
     39      80.1749      0.00000
     40      82.7774      0.00000

 k-point     4 :       0.3500    0.0500    0.0500
  band No.  band energies     occupation 
      1     -25.9246      2.00000
      2     -25.0979      2.00000
      3     -24.7276      2.00000
      4       1.4177      2.00000
      5       3.2785      2.00000
      6       5.8884     -0.19112
      7       8.1216      0.00000
      8       8.6695      0.00000
      9      10.8414      0.00000
     10      17.8506      0.00000
     11      18.1366      0.00000
     12      22.8702      0.00000
     13      27.6303      0.00000
     14      29.0876      0.00000
     15      31.2941      0.00000
     16      32.1550      0.00000
     17      38.0202      0.00000
     18      40.2127      0.00000
     19      41.5032      0.00000
     20      42.1937      0.00000
     21      44.6258      0.00000
     22      46.7808      0.00000
     23      48.0188      0.00000
     24      51.2491      0.00000
     25      51.8780      0.00000
     26      56.8047      0.00000
     27      58.9026      0.00000
     28      59.0158      0.00000
     29      59.5266      0.00000
     30      64.5994      0.00000
     31      67.4050      0.00000
     32      67.8329      0.00000
     33      72.9354      0.00000
     34      73.1194      0.00000
     35      76.4051      0.00000
     36      76.9916      0.00000
     37      79.0933      0.00000
     38      81.7250      0.00000
     39      82.3070      0.00000
     40      82.3864      0.00000

 k-point     5 :       0.4500    0.0500    0.0500
  band No.  band energies     occupation 
      1     -26.0335      2.00000
      2     -25.1455      2.00000
      3     -24.7301      2.00000
      4       1.3013      2.00000
      5       3.1330      2.00000
      6       6.8073     -0.03482
      7       8.1779      0.00000
      8       8.8011      0.00000
      9      11.7524      0.00000
     10      16.6983      0.00000
     11      17.5467      0.00000
     12      21.8181      0.00000
     13      28.0898      0.00000
     14      29.4096      0.00000
     15      31.5330      0.00000
     16      33.8810      0.00000
     17      36.8917      0.00000
     18      39.5532      0.00000
     19      42.1784      0.00000
     20      42.6948      0.00000
     21      45.4394      0.00000
     22      46.4724      0.00000
     23      47.2091      0.00000
     24      49.1514      0.00000
     25      52.1755      0.00000
     26      55.0513      0.00000
     27      57.0957      0.00000
     28      59.2364      0.00000
     29      60.9165      0.00000
     30      67.5454      0.00000
     31      68.0042      0.00000
     32      69.2525      0.00000
     33      73.4046      0.00000
     34      73.8111      0.00000
     35      74.2310      0.00000
     36      74.2858      0.00000
     37      77.7919      0.00000
     38      79.4755      0.00000
     39      82.5791      0.00000
     40      83.6834      0.00000

 k-point     6 :      -0.0500    0.0500    0.0500
  band No.  band energies     occupation 
      1     -24.7348      2.00000
      2     -24.7053      2.00000
      3     -24.7053      2.00000
      4      -0.8796      2.00000
      5       5.1542     -0.25588
      6       5.1542     -0.03558
      7       5.2689      0.00000
      8       7.7770      0.00000
      9       8.1821      0.00000
     10      20.6617      0.00000
     11      20.7575      0.00000
     12      20.7575      0.00000
     13      28.4537      0.00000
     14      30.7942      0.00000
     15      33.9121      0.00000
     16      33.9121      0.00000
     17      35.6805      0.00000
     18      40.6418      0.00000
     19      40.6848      0.00000
     20      40.6849      0.00000
     21      41.8713      0.00000
     22      44.0164      0.00000
     23      52.6161      0.00000
     24      54.5648      0.00000
     25      54.5648      0.00000
     26      63.1672      0.00000
     27      63.6290      0.00000
     28      64.2725      0.00000
     29      67.1943      0.00000
     30      68.0475      0.00000
     31      68.0475      0.00000
     32      69.4484      0.00000
     33      69.7097      0.00000
     34      69.7097      0.00000
     35      70.6580      0.00000
     36      72.9139      0.00000
     37      74.2958      0.00000
     38      75.3089      0.00000
     39      75.3090      0.00000
     40      76.3968      0.00000

 k-point     7 :       0.1500    0.1500    0.0500
  band No.  band energies     occupation 
      1     -25.5491      2.00000
      2     -24.9098      2.00000
      3     -24.7797      2.00000
      4       1.5690      2.00000
      5       3.8753      2.00004
      6       3.9443      2.03151
      7       7.6699      0.00000
      8       8.4199      0.00000
      9       8.9736      0.00000
     10      20.5051      0.00000
     11      21.1183      0.00000
     12      23.1651      0.00000
     13      23.9906      0.00000
     14      29.5217      0.00000
     15      32.1890      0.00000
     16      33.6061      0.00000
     17      34.3713      0.00000
     18      37.3057      0.00000
     19      42.1682      0.00000
     20      44.6332      0.00000
     21      44.9543      0.00000
     22      49.1484      0.00000
     23      49.5873      0.00000
     24      50.9653      0.00000
     25      54.6225      0.00000
     26      56.5633      0.00000
     27      56.8584      0.00000
     28      61.4665      0.00000
     29      61.5029      0.00000
     30      65.9754      0.00000
     31      66.6933      0.00000
     32      68.7355      0.00000
     33      70.1254      0.00000
     34      71.7331      0.00000
     35      72.4453      0.00000
     36      75.3898      0.00000
     37      77.1972      0.00000
     38      78.6818      0.00000
     39      81.7906      0.00000
     40      83.0346      0.00000

 k-point     8 :       0.2500    0.1500    0.0500
  band No.  band energies     occupation 
      1     -25.7872      2.00000
      2     -25.0899      2.00000
      3     -24.8104      2.00000
      4       2.1109      2.00000
      5       3.4359      2.00000
      6       4.4167      1.85350
      7       7.9321      0.00000
      8       8.7183      0.00000
      9      11.0594      0.00000
     10      18.4438      0.00000
     11      19.5209      0.00000
     12      21.7732      0.00000
     13      25.1426      0.00000
     14      30.1459      0.00000
     15      32.5834      0.00000
     16      33.4893      0.00000
     17      37.0163      0.00000
     18      37.1348      0.00000
     19      42.1194      0.00000
     20      42.5528      0.00000
     21      44.1557      0.00000
     22      47.4957      0.00000
     23      49.2097      0.00000
     24      51.8042      0.00000
     25      52.6065      0.00000
     26      56.5217      0.00000
     27      59.7775      0.00000
     28      60.7798      0.00000
     29      62.2450      0.00000
     30      63.5693      0.00000
     31      65.5230      0.00000
     32      67.4420      0.00000
     33      68.5045      0.00000
     34      71.9279      0.00000
     35      73.9420      0.00000
     36      75.7899      0.00000
     37      78.2987      0.00000
     38      81.3358      0.00000
     39      82.2517      0.00000
     40      84.2338      0.00000

 k-point     9 :       0.3500    0.1500    0.0500
  band No.  band energies     occupation 
      1     -25.9123      2.00000
      2     -25.2253      2.00000
      3     -24.8231      2.00000
      4       1.9625      2.00000
      5       3.2294      2.00000
      6       5.5321     -0.07156
      7       8.2162      0.00000
      8       8.8970      0.00000
      9      12.7465      0.00000
     10      16.3951      0.00000
     11      18.2794      0.00000
     12      20.7901      0.00000
     13      27.4388      0.00000
     14      28.7668      0.00000
     15      32.3626      0.00000
     16      33.6104      0.00000
     17      38.2211      0.00000
     18      40.7921      0.00000
     19      41.5560      0.00000
     20      42.2429      0.00000
     21      43.0105      0.00000
     22      44.1549      0.00000
     23      48.9975      0.00000
     24      50.3858      0.00000
     25      53.8739      0.00000
     26      56.2902      0.00000
     27      58.5033      0.00000
     28      60.4792      0.00000
     29      62.8161      0.00000
     30      62.9186      0.00000
     31      65.6981      0.00000
     32      67.9596      0.00000
     33      69.1073      0.00000
     34      72.9314      0.00000
     35      74.0514      0.00000
     36      78.3570      0.00000
     37      79.4027      0.00000
     38      80.7788      0.00000
     39      82.8117      0.00000
     40      85.2205      0.00000

 k-point    10 :      -0.1500    0.1500    0.0500
  band No.  band energies     occupation 
      1     -24.9924      2.00000
      2     -24.7874      2.00000
      3     -24.7147      2.00000
      4      -0.1182      2.00000
      5       4.7568      1.79843
      6       5.0153      0.38931
      7       6.0308      0.00000
      8       7.2013      0.00000
      9       8.3461      0.00000
     10      21.0960      0.00000
     11      21.9123      0.00000
     12      22.0821      0.00000
     13      25.9197      0.00000
     14      29.8859      0.00000
     15      32.1246      0.00000
     16      33.4084      0.00000
     17      37.9965      0.00000
     18      39.6469      0.00000
     19      39.9664      0.00000
     20      40.6264      0.00000
     21      42.2035      0.00000
     22      46.5776      0.00000
     23      51.4472      0.00000
     24      55.6113      0.00000
     25      56.9961      0.00000
     26      59.6456      0.00000
     27      60.6957      0.00000
     28      61.4084      0.00000
     29      63.6561      0.00000
     30      65.1263      0.00000
     31      66.6252      0.00000
     32      69.2531      0.00000
     33      69.7266      0.00000
     34      70.7576      0.00000
     35      72.7714      0.00000
     36      73.5121      0.00000
     37      75.1093      0.00000
     38      77.2961      0.00000
     39      80.2488      0.00000
     40      80.3550      0.00000

 k-point    11 :       0.2500    0.2500    0.0500
  band No.  band energies     occupation 
      1     -25.8065      2.00000
      2     -25.3049      2.00000
      3     -24.8736      2.00000
      4       2.5247      2.00000
      5       3.4950      2.00000
      6       4.4785      1.91189
      7       8.1993      0.00000
      8       8.8594      0.00000
      9      13.2864      0.00000
     10      16.4538      0.00000
     11      18.4197      0.00000
     12      20.6730      0.00000
     13      26.0611      0.00000
     14      29.0706      0.00000
     15      33.0766      0.00000
     16      34.5026      0.00000
     17      38.7882      0.00000
     18      39.3106      0.00000
     19      39.5451      0.00000
     20      42.1541      0.00000
     21      42.2352      0.00000
     22      46.2759      0.00000
     23      52.0076      0.00000
     24      52.1952      0.00000
     25      52.4694      0.00000
     26      53.8015      0.00000
     27      58.9210      0.00000
     28      60.2690      0.00000
     29      61.0935      0.00000
     30      63.3730      0.00000
     31      66.7345      0.00000
     32      69.6989      0.00000
     33      70.6457      0.00000
     34      72.6370      0.00000
     35      73.1117      0.00000
     36      73.2064      0.00000
     37      77.1954      0.00000
     38      82.5447      0.00000
     39      83.5390      0.00000
     40      85.4679      0.00000

 k-point    12 :       0.3500    0.2500    0.0500
  band No.  band energies     occupation 
      1     -25.7544      2.00000
      2     -25.4536      2.00000
      3     -24.8913      2.00000
      4       2.5382      2.00000
      5       3.6028      2.00000
      6       4.6535      1.72924
      7       8.4420      0.00000
      8       8.8468      0.00000
      9      14.7819      0.00000
     10      15.2913      0.00000
     11      17.2482      0.00000
     12      20.8013      0.00000
     13      27.1481      0.00000
     14      27.7248      0.00000
     15      34.0903      0.00000
     16      34.3285      0.00000
     17      37.3588      0.00000
     18      38.2048      0.00000
     19      41.2693      0.00000
     20      42.5841      0.00000
     21      44.9406      0.00000
     22      45.2875      0.00000
     23      50.2316      0.00000
     24      50.3208      0.00000
     25      52.8720      0.00000
     26      55.1012      0.00000
     27      57.5874      0.00000
     28      58.6634      0.00000
     29      62.0269      0.00000
     30      64.3506      0.00000
     31      67.0282      0.00000
     32      68.9722      0.00000
     33      69.5600      0.00000
     34      73.5979      0.00000
     35      76.6583      0.00000
     36      76.6757      0.00000
     37      77.1927      0.00000
     38      80.3766      0.00000
     39      82.2426      0.00000
     40      82.7460      0.00000

 k-point    13 :      -0.2500    0.2500    0.0500
  band No.  band energies     occupation 
      1     -25.4030      2.00000
      2     -24.9176      2.00000
      3     -24.7170      2.00000
      4       0.9483      2.00000
      5       4.1405      2.02310
      6       4.7265      1.79643
      7       7.2164      0.00000
      8       7.5106      0.00000
      9       8.5277      0.00000
     10      20.3252      0.00000
     11      21.5081      0.00000
     12      24.3601      0.00000
     13      26.3698      0.00000
     14      28.8078      0.00000
     15      29.0365      0.00000
     16      32.7276      0.00000
     17      37.4357      0.00000
     18      39.6054      0.00000
     19      40.6317      0.00000
     20      42.1259      0.00000
     21      44.0584      0.00000
     22      47.0546      0.00000
     23      51.2786      0.00000
     24      54.7530      0.00000
     25      55.4050      0.00000
     26      57.5069      0.00000
     27      58.3186      0.00000
     28      58.5087      0.00000
     29      59.5122      0.00000
     30      65.8834      0.00000
     31      67.0151      0.00000
     32      70.7793      0.00000
     33      71.7129      0.00000
     34      71.8061      0.00000
     35      74.6258      0.00000
     36      75.3453      0.00000
     37      76.9232      0.00000
     38      77.5707      0.00000
     39      80.3691      0.00000
     40      81.8911      0.00000

 k-point    14 :      -0.1500    0.2500    0.0500
  band No.  band energies     occupation 
      1     -25.2731      2.00000
      2     -24.8827      2.00000
      3     -24.7737      2.00000
      4       0.8252      2.00000
      5       4.5479      2.00788
      6       4.5872      2.04974
      7       6.7113      0.00000
      8       7.0921      0.00000
      9       8.7044      0.00000
     10      21.3294      0.00000
     11      21.7518      0.00000
     12      23.2958      0.00000
     13      25.6993      0.00000
     14      28.3247      0.00000
     15      30.9815      0.00000
     16      34.0069      0.00000
     17      36.2620      0.00000
     18      38.8833      0.00000
     19      41.5641      0.00000
     20      41.9407      0.00000
     21      42.5845      0.00000
     22      46.1117      0.00000
     23      51.5619      0.00000
     24      55.8693      0.00000
     25      55.9281      0.00000
     26      58.5910      0.00000
     27      58.7096      0.00000
     28      60.1294      0.00000
     29      62.5566      0.00000
     30      64.6526      0.00000
     31      65.5657      0.00000
     32      66.4486      0.00000
     33      71.1404      0.00000
     34      72.8208      0.00000
     35      73.9205      0.00000
     36      75.7081      0.00000
     37      75.9119      0.00000
     38      77.4616      0.00000
     39      81.2092      0.00000
     40      81.5901      0.00000

 k-point    15 :      -0.3500    0.3500    0.0500
  band No.  band energies     occupation 
      1     -25.7933      2.00000
      2     -25.0450      2.00000
      3     -24.7191      2.00000
      4       1.3576      2.00000
      5       3.5993      2.00000
      6       5.3060     -0.00952
      7       7.7360      0.00000
      8       8.7693      0.00000
      9       9.3896      0.00000
     10      18.5657      0.00000
     11      19.4451      0.00000
     12      24.8734      0.00000
     13      27.5853      0.00000
     14      28.1536      0.00000
     15      29.9872      0.00000
     16      31.3666      0.00000
     17      39.4745      0.00000
     18      40.0542      0.00000
     19      41.3012      0.00000
     20      42.1018      0.00000
     21      42.9841      0.00000
     22      47.0634      0.00000
     23      50.0650      0.00000
     24      52.0606      0.00000
     25      54.0481      0.00000
     26      54.1852      0.00000
     27      57.2774      0.00000
     28      59.4974      0.00000
     29      62.1517      0.00000
     30      62.6701      0.00000
     31      67.4028      0.00000
     32      69.3046      0.00000
     33      73.2901      0.00000
     34      73.7266      0.00000
     35      75.2639      0.00000
     36      76.6002      0.00000
     37      79.1211      0.00000
     38      80.3771      0.00000
     39      81.4515      0.00000
     40      82.5294      0.00000

 k-point    16 :      -0.2500    0.3500    0.0500
  band No.  band energies     occupation 
      1     -25.6210      2.00000
      2     -25.0354      2.00000
      3     -24.7915      2.00000
      4       1.6945      2.00000
      5       3.9296      2.00273
      6       4.5048      1.96750
      7       6.9944      0.00000
      8       8.6888      0.00000
      9       9.1576      0.00000
     10      19.3736      0.00000
     11      21.0912      0.00000
     12      24.4693      0.00000
     13      25.4079      0.00000
     14      28.0562      0.00000
     15      31.2065      0.00000
     16      33.6223      0.00000
     17      36.6368      0.00000
     18      37.9338      0.00000
     19      42.0112      0.00000
     20      43.4031      0.00000
     21      44.6100      0.00000
     22      45.5174      0.00000
     23      48.9090      0.00000
     24      52.0622      0.00000
     25      53.8000      0.00000
[...]
     13      25.0019      0.00000
     14      30.7304      0.00000
     15      32.1927      0.00000
     16      34.1319      0.00000
     17      37.4397      0.00000
     18      41.4580      0.00000
     19      42.1331      0.00000
     20      42.7414      0.00000
     21      45.2435      0.00000
     22      46.8389      0.00000
     23      47.5115      0.00000
     24      50.5688      0.00000
     25      52.9619      0.00000
     26      53.3955      0.00000
     27      56.0955      0.00000
     28      57.0737      0.00000
     29      60.4122      0.00000
     30      60.8368      0.00000
     31      63.9990      0.00000
     32      65.8906      0.00000
     33      68.7569      0.00000
     34      70.5206      0.00000
     35      72.8546      0.00000
     36      74.4888      0.00000
     37      76.0015      0.00000
     38      76.0491      0.00000
     39      77.9892      0.00000
     40      83.4936      0.00000

 k-point    39 :      -0.3500    0.4500    0.2500
  band No.  band energies     occupation 
      1     -25.7302      2.00000
      2     -25.4648      2.00000
      3     -25.2351      2.00000
      4       2.2963      2.00000
      5       2.5325      2.00000
      6       5.8991     -0.11364
      7       7.5967      0.00000
      8       9.5454      0.00000
      9      12.1545      0.00000
     10      17.8221      0.00000
     11      18.8524      0.00000
     12      22.9663      0.00000
     13      24.8111      0.00000
     14      29.7213      0.00000
     15      32.4090      0.00000
     16      34.9171      0.00000
     17      36.2693      0.00000
     18      41.5022      0.00000
     19      42.9526      0.00000
     20      43.9421      0.00000
     21      44.4176      0.00000
     22      47.2686      0.00000
     23      48.8320      0.00000
     24      50.4668      0.00000
     25      51.2235      0.00000
     26      53.7967      0.00000
     27      56.3985      0.00000
     28      59.8252      0.00000
     29      60.2308      0.00000
     30      60.3936      0.00000
     31      61.3458      0.00000
     32      63.9220      0.00000
     33      65.8159      0.00000
     34      70.1109      0.00000
     35      71.5497      0.00000
     36      74.4033      0.00000
     37      75.6401      0.00000
     38      77.0085      0.00000
     39      81.4499      0.00000
     40      82.2749      0.00000

 k-point    40 :      -0.4500   -0.4500    0.2500
  band No.  band energies     occupation 
      1     -25.7573      2.00000
      2     -25.5528      2.00000
      3     -25.2297      2.00000
      4       2.0936      2.00000
      5       2.4341      2.00000
      6       5.7351     -0.02874
      7       8.1421      0.00000
      8      10.0424      0.00000
      9      14.3745      0.00000
     10      15.6845      0.00000
     11      17.3706      0.00000
     12      24.1191      0.00000
     13      24.9915      0.00000
     14      27.9542      0.00000
     15      32.2355      0.00000
     16      35.1405      0.00000
     17      39.0758      0.00000
     18      41.5734      0.00000
     19      42.2306      0.00000
     20      44.7411      0.00000
     21      46.3467      0.00000
     22      46.9934      0.00000
     23      47.9608      0.00000
     24      49.6962      0.00000
     25      52.3851      0.00000
     26      53.7204      0.00000
     27      54.1627      0.00000
     28      58.0515      0.00000
     29      58.1010      0.00000
     30      60.8603      0.00000
     31      62.2759      0.00000
     32      64.7947      0.00000
     33      66.6815      0.00000
     34      67.7604      0.00000
     35      69.1790      0.00000
     36      73.8072      0.00000
     37      75.0125      0.00000
     38      75.9965      0.00000
     39      78.9124      0.00000
     40      83.7658      0.00000

 k-point    41 :      -0.3500    0.3500    0.3500
  band No.  band energies     occupation 
      1     -25.6131      2.00000
      2     -25.4296      2.00000
      3     -25.4296      2.00000
      4       2.0862      2.00000
      5       2.3134      2.00000
      6       7.4215     -0.00144
      7       7.4215      0.00000
      8       9.0396      0.00000
      9      11.0474      0.00000
     10      19.2206      0.00000
     11      19.2206      0.00000
     12      21.9060      0.00000
     13      25.0640      0.00000
     14      29.7032      0.00000
     15      32.3688      0.00000
     16      35.5262      0.00000
     17      35.5262      0.00000
     18      40.4949      0.00000
     19      42.8198      0.00000
     20      44.9173      0.00000
     21      44.9173      0.00000
     22      46.9699      0.00000
     23      48.2175      0.00000
     24      53.4445      0.00000
     25      53.4445      0.00000
     26      54.4610      0.00000
     27      56.2207      0.00000
     28      58.1398      0.00000
     29      58.1398      0.00000
     30      59.3507      0.00000
     31      60.8379      0.00000
     32      64.6161      0.00000
     33      64.6161      0.00000
     34      66.7838      0.00000
     35      68.6655      0.00000
     36      74.8074      0.00000
     37      74.8074      0.00000
     38      79.9561      0.00000
     39      82.6918      0.00000
     40      82.6923      0.00000

 k-point    42 :      -0.4500    0.4500    0.3500
  band No.  band energies     occupation 
      1     -25.7039      2.00000
      2     -25.5166      2.00000
      3     -25.4513      2.00000
      4       1.6544      2.00000
      5       1.8838      2.00000
      6       7.8086     -0.01115
      7       8.0709      0.00000
      8      10.3095      0.00000
      9      12.9766      0.00000
     10      16.3709      0.00000
     11      17.2320      0.00000
     12      23.7454      0.00000
     13      25.3137      0.00000
     14      27.2521      0.00000
     15      31.3664      0.00000
     16      37.1888      0.00000
     17      38.5113      0.00000
     18      41.9284      0.00000
     19      43.3341      0.00000
     20      44.1589      0.00000
     21      45.6317      0.00000
     22      47.9352      0.00000
     23      50.2255      0.00000
     24      51.5231      0.00000
     25      54.0270      0.00000
     26      54.2442      0.00000
     27      55.4225      0.00000
     28      55.9275      0.00000
     29      57.7761      0.00000
     30      58.7232      0.00000
     31      60.3977      0.00000
     32      60.7336      0.00000
     33      64.9231      0.00000
     34      65.0600      0.00000
     35      67.1780      0.00000
     36      69.5580      0.00000
     37      70.6516      0.00000
     38      75.1176      0.00000
     39      84.5227      0.00000
     40      85.2631      0.00000

 k-point    43 :      -0.4500   -0.4500    0.3500
  band No.  band energies     occupation 
      1     -25.6481      2.00000
      2     -25.6481      2.00000
      3     -25.4655      2.00000
      4       1.5132      2.00000
      5       1.5132      2.00000
      6       7.9221     -0.00930
      7       9.8536      0.00000
      8       9.8536      0.00000
      9      14.9801      0.00000
     10      14.9801      0.00000
     11      15.3740      0.00000
     12      25.1010      0.00000
     13      25.4448      0.00000
     14      25.4448      0.00000
     15      30.8893      0.00000
     16      37.7947      0.00000
     17      41.6682      0.00000
     18      41.6682      0.00000
     19      42.2652      0.00000
     20      45.4049      0.00000
     21      45.4049      0.00000
     22      47.3140      0.00000
     23      51.9689      0.00000
     24      52.7240      0.00000
     25      52.7240      0.00000
     26      54.0368      0.00000
     27      55.4024      0.00000
     28      55.4024      0.00000
     29      56.7059      0.00000
     30      59.9744      0.00000
     31      60.7149      0.00000
     32      60.7149      0.00000
     33      62.9106      0.00000
     34      63.6109      0.00000
     35      63.6109      0.00000
     36      68.7581      0.00000
     37      68.7581      0.00000
     38      71.4351      0.00000
     39      85.3177      0.00000
     40      93.5053      0.00000

 k-point    44 :      -0.4500    0.4500    0.4500
  band No.  band energies     occupation 
      1     -25.6323      2.00000
      2     -25.6058      2.00000
      3     -25.6058      2.00000
      4       1.1935      2.00000
      5       1.2608      2.00000
      6       9.7749      0.00000
      7       9.7750      0.00000
      8      10.2752      0.00000
      9      13.6491      0.00000
     10      15.1297      0.00000
     11      15.1297      0.00000
     12      23.7991      0.00000
     13      25.8167      0.00000
     14      25.8243      0.00000
     15      30.3476      0.00000
     16      40.8509      0.00000
     17      40.8509      0.00000
     18      41.4835      0.00000
     19      42.5437      0.00000
     20      46.0263      0.00000
     21      46.0263      0.00000
     22      46.0458      0.00000
     23      52.2261      0.00000
     24      53.7296      0.00000
     25      54.5711      0.00000
     26      54.5712      0.00000
     27      56.1177      0.00000
     28      56.1177      0.00000
     29      56.7639      0.00000
     30      58.1044      0.00000
     31      59.7380      0.00000
     32      61.0884      0.00000
     33      61.0884      0.00000
     34      62.2702      0.00000
     35      63.1211      0.00000
     36      64.8976      0.00000
     37      64.8976      0.00000
     38      68.3620      0.00000
     39      94.2242      0.00000
     40      94.2251      0.00000


--------------------------------------------------------------------------------------------------------


 soft charge-density along one line, spin component           1
         0         1         2         3         4         5         6         7         8         9
 total charge-density along one line
 
 pseudopotential strength for first ion, spin component:           1
-27.824   0.000   0.000   0.000   0.000   0.000   5.812   0.000  -0.000   0.000  -0.000   0.000   0.000   0.000  -0.000   0.000
  0.000   0.000 -27.824   0.000   0.000   0.000  -0.000   0.000   5.812   0.000  -0.000   0.000  -0.000   0.000   0.000   0.000
  0.000   0.000   0.000   0.000 -27.824   0.000  -0.000   0.000  -0.000   0.000   5.812   0.000   0.000   0.000  -0.000   0.000
  5.812   0.000  -0.000   0.000  -0.000   0.000   4.387   0.000   0.000   0.000   0.000   0.000  -0.000   0.000   0.000   0.000
 -0.000   0.000   5.812   0.000  -0.000   0.000   0.000   0.000   4.387   0.000   0.000   0.000   0.000   0.000   0.000   0.000
 -0.000   0.000  -0.000   0.000   5.812   0.000   0.000   0.000   0.000   0.000   4.387   0.000  -0.000   0.000   0.000   0.000
  0.000   0.000  -0.000   0.000   0.000   0.000  -0.000   0.000   0.000   0.000  -0.000   0.000  -6.223   0.000   0.000   0.000
 -0.000   0.000   0.000   0.000  -0.000   0.000   0.000   0.000   0.000   0.000   0.000   0.000   0.000   0.000  -6.223   0.000
 -0.000   0.000   0.000   0.000  -0.000   0.000   0.000   0.000   0.000   0.000   0.000   0.000  -0.000   0.000   0.000   0.000
 -0.000   0.000   0.000   0.000   0.000   0.000   0.000   0.000  -0.000   0.000   0.000   0.000   0.000   0.000   0.000   0.000
 -0.000   0.000   0.000   0.000   0.000   0.000   0.000   0.000  -0.000   0.000  -0.000   0.000   0.000   0.000  -0.000   0.000
  0.000   0.000  -0.000   0.000   0.000   0.000  -0.000   0.000   0.000   0.000  -0.000   0.000  -7.051   0.000   0.000   0.000
 -0.000   0.000   0.000   0.000  -0.000   0.000   0.000   0.000  -0.000   0.000   0.000   0.000   0.000   0.000  -7.051   0.000
 -0.000   0.000  -0.000   0.000  -0.000   0.000   0.000   0.000  -0.000   0.000   0.000   0.000  -0.000   0.000   0.000   0.000
 -0.000   0.000   0.000   0.000   0.000   0.000   0.000   0.000  -0.000   0.000  -0.000   0.000   0.000   0.000   0.000   0.000
 -0.000   0.000   0.000   0.000   0.000   0.000   0.000   0.000  -0.000   0.000  -0.000   0.000   0.000   0.000  -0.000   0.000
 -0.000   0.000  -0.000   0.000  -0.000   0.000   0.000   0.000   0.000   0.000   0.000   0.000  -0.000   0.000  -0.000   0.000
  0.000   0.000   0.000   0.000   0.000   0.000   0.000   0.000   0.000   0.000   0.000   0.000   0.000   0.000   0.000   0.000
 total augmentation occupancy for first ion, spin component:           1
  1.996   0.000   0.000  -0.006   0.000   0.000   0.000   0.000   0.000   0.000   0.000   0.000   0.000   0.000   0.000   0.000
  0.000   1.996   0.000   0.000  -0.006   0.000   0.000   0.000   0.000   0.000   0.000   0.000   0.000   0.000   0.000   0.000
  0.000   0.000   1.996  -0.000   0.000  -0.006   0.000   0.000   0.000   0.000   0.000   0.000   0.000   0.000   0.000   0.000
 -0.006  -0.000  -0.000   0.206  -0.000   0.000   0.000   0.000   0.000   0.000   0.000   0.000   0.000   0.000   0.000   0.000
  0.000  -0.006   0.000  -0.000   0.206   0.000   0.000   0.000   0.000   0.000   0.000   0.000   0.000   0.000   0.000   0.000
 -0.000   0.000  -0.006   0.000   0.000   0.206   0.000   0.000   0.000   0.000   0.000   0.000   0.000   0.000   0.000   0.000
  0.000   0.000   0.000   0.000   0.000   0.000   6.649  -0.000   0.000   0.000   0.000  -3.798   0.000  -0.000   0.000   0.000
  0.000   0.000   0.000   0.000   0.000   0.000  -0.000   6.649  -0.000   0.000   0.000   0.000  -3.798   0.000   0.000   0.000
  0.000   0.000   0.000   0.000   0.000   0.000   0.000   0.000   6.118   0.000  -0.000  -0.000   0.000  -3.667   0.000   0.000
  0.000   0.000   0.000   0.000   0.000   0.000   0.000   0.000   0.000   6.649  -0.000   0.000   0.000   0.000  -3.798  -0.000
  0.000   0.000   0.000   0.000   0.000   0.000  -0.000   0.000   0.000   0.000   6.118   0.000   0.000   0.000   0.000  -3.667
  0.000   0.000   0.000   0.000   0.000   0.000  -3.798   0.000  -0.000   0.000  -0.000   2.211   0.000   0.000   0.000   0.000
  0.000   0.000   0.000   0.000   0.000   0.000  -0.000  -3.798   0.000   0.000   0.000  -0.000   2.211   0.000   0.000  -0.000
  0.000   0.000   0.000   0.000   0.000   0.000  -0.000   0.000  -3.667   0.000   0.000   0.000  -0.000   2.216   0.000   0.000
  0.000   0.000   0.000   0.000   0.000   0.000   0.000  -0.000   0.000  -3.798  -0.000   0.000  -0.000   0.000   2.211  -0.000
  0.000   0.000   0.000   0.000   0.000   0.000   0.000   0.000   0.000   0.000  -3.667   0.000  -0.000   0.000   0.000   2.216
  0.000   0.000   0.000   0.000   0.000   0.000  -0.000  -0.000   0.000   0.000  -0.000   0.000   0.000  -0.000  -0.000   0.000
  0.000   0.000   0.000   0.000   0.000   0.000  -0.000  -0.000   0.000   0.000   0.000   0.000   0.000   0.000   0.000   0.000


------------------------ aborting loop because EDIFF is reached ----------------------------------------


    CHARGE:  cpu time    0.0026: real time    0.0025
    FORLOC:  cpu time    0.0002: real time    0.0012
    FORNL :  cpu time    0.0039: real time    0.0068
    STRESS:  cpu time    0.0298: real time    0.0330
    FORCOR:  cpu time    0.0011: real time    0.0026
    FORHAR:  cpu time    0.0008: real time    0.0019
    MIXING:  cpu time    0.0005: real time    0.0004
    OFIELD:  cpu time    0.0003: real time    0.0016

  FORCE on cell =-STRESS in cart. coord.  units (eV):
  Direction    XX          YY          ZZ          XY          YZ          ZX
  --------------------------------------------------------------------------------------
  Alpha Z   124.80262   124.80262   124.80262
  Ewald    -320.17018  -320.17018  -320.17018    -0.00000    -0.00000     0.00000
  Hartree    40.07090    40.07090    40.07090     0.00000     0.00000     0.00000
  E(xc)     -46.89157   -46.89157   -46.89157    -0.00000    -0.00000    -0.00000
  Local     102.78868   102.78868   102.78868    -0.00000    -0.00000    -0.00000
  n-local   -43.12717   -42.29707   -40.65805     3.32515    -2.38197    -2.92242
  augment    26.16453    26.16453    26.16453    -0.00000    -0.00000    -0.00000
  Kinetic   114.02383   112.52633   116.82226    -0.39781     1.00729     1.60687
  Fock        0.00000     0.00000     0.00000     0.00000     0.00000     0.00000
  -------------------------------------------------------------------------------------
  Total      -0.80499    -0.80499    -0.80499     0.00000     0.00000     0.00000
  in kB     -71.72534   -71.72534   -71.72534     0.00000     0.00000     0.00000
  external pressure =      -71.73 kB  Pullay stress =        0.00 kB


 VOLUME and BASIS-vectors are now :
 -----------------------------------------------------------------------------
  energy-cutoff  :      300.00
  volume of cell :       17.98
      direct lattice vectors                 reciprocal lattice vectors
    -1.650400000  1.650400000  1.650400000     0.000000000  0.302956859  0.302956859
     1.650400000 -1.650400000  1.650400000     0.302956859  0.000000000  0.302956859
     1.650400000  1.650400000 -1.650400000     0.302956859  0.302956859  0.000000000

  length of vectors
     2.858576653  2.858576653  2.858576653     0.428445699  0.428445699  0.428445699


 FORCES acting on ions
    electron-ion (+dipol)            ewald-force                    non-local-force                 convergence-correction
 -----------------------------------------------------------------------------------------------
   0.375E-16 0.826E-15 0.244E-14   0.544E-15 -.107E-14 -.107E-14   0.404E-26 0.137E-25 0.727E-26   0.920E-14 0.288E-14 -.162E-14
 -----------------------------------------------------------------------------------------------
   0.375E-16 0.826E-15 0.244E-14   0.544E-15 -.107E-14 -.107E-14   0.404E-26 0.137E-25 0.727E-26   0.920E-14 0.288E-14 -.162E-14
 
 
 POSITION                                       TOTAL-FORCE (eV/Angst)
 -----------------------------------------------------------------------------------
      0.00000      0.00000      0.00000         0.000000     -0.000000      0.000000
 -----------------------------------------------------------------------------------
    total drift:                                0.000000      0.000000     -0.000000


--------------------------------------------------------------------------------------------------------



  FREE ENERGIE OF THE ION-ELECTRON SYSTEM (eV)
  ---------------------------------------------------
  free  energy   TOTEN  =       -11.15292442 eV

  energy  without entropy=      -11.15292442  energy(sigma->0) =      -11.15292442
 


--------------------------------------------------------------------------------------------------------


    POTLOK:  cpu time    0.0033: real time    0.0050


--------------------------------------------------------------------------------------------------------


 writing wavefunctions
     LOOP+:  cpu time    8.2297: real time    8.3771
    4ORBIT:  cpu time    0.0000: real time    0.0000
 BZINTS: Fermi energy:  4.853249; 11.000000 electrons
         Band energy:-136.375876;  BLOECHL correction: -0.110328

 total amount of memory used by VASP MPI-rank0    31892. kBytes
=======================================================================

   base      :      30000. kBytes
   nonl-proj :       1524. kBytes
   fftplans  :         55. kBytes
   grid      :        101. kBytes
   one-center:         15. kBytes
   wavefun   :        197. kBytes
 
  
  
 General timing and accounting informations for this job:
 ========================================================
  
                  Total CPU time used (sec):       10.156
                            User time (sec):        8.273
                          System time (sec):        1.882
                         Elapsed time (sec):       10.505
  
                   Maximum memory used (kb):       54508.
                   Average memory used (kb):           0.
  
                          Minor page faults:        20647
                          Major page faults:           55
                 Voluntary context switches:         1384
