<?xml version="1.0" encoding="ISO-8859-1"?>
<modeling>
 <generator>
  <i name="program" type="string">vasp </i>
  <i name="version" type="string">5.4.4.18Apr17-6-g9f103f2a35  </i>
  <i name="subversion" type="string">(build May 20 2018 16:52:39) complex            parallel </i>
  <i name="platform" type="string">LinuxIFC </i>
  <i name="date" type="string">2022 11 17 </i>
  <i name="time" type="string">21:34:44 </i>
 </generator>
 <incar>
  <i type="string" name="SYSTEM"> Nb</i>
  <i type="string" name="PREC">normal</i>
  <i name="EDIFF">      0.00000010</i>
  <i name="ENCUT">    300.00000000</i>
  <i type="int" name="ISMEAR">    -5</i>
  <v type="int" name="KPOINT_BSE">    -1     0     0     0</v>
 </incar>
 <structure name="primitive_cell" >
  <crystal>
   <varray name="basis" >
    <v>      -1.65040000       1.65040000       1.65040000 </v>
    <v>       1.65040000      -1.65040000       1.65040000 </v>
    <v>       1.65040000       1.65040000      -1.65040000 </v>
   </varray>
   <i name="volume">     17.98157117 </i>
   <varray name="rec_basis" >
    <v>       0.00000000       0.30295686       0.30295686 </v>
    <v>       0.30295686       0.00000000       0.30295686 </v>
    <v>       0.30295686       0.30295686       0.00000000 </v>
   </varray>
  </crystal>
  <varray name="positions" >
   <v>       0.00000000       0.00000000       0.00000000 </v>
  </varray>
 </structure>
 <varray name="primitive_index" >
  <v type="int" >        1 </v>
 </varray>
 <kpoints>
  <generation param="Monkhorst-Pack">
   <v type="int" name="divisions">      10       10       10 </v>
   <v name="usershift">      0.00000000       0.00000000       0.00000000 </v>
   <v name="genvec1">      0.10000000       0.00000000       0.00000000 </v>
   <v name="genvec2">      0.00000000       0.10000000       0.00000000 </v>
   <v name="genvec3">      0.00000000       0.00000000       0.10000000 </v>
   <v name="shift">      0.50000000       0.50000000       0.50000000 </v>
  </generation>
  <varray name="kpointlist" >
   <v>       0.05000000       0.05000000       0.05000000 </v>
   <v>       0.15000000       0.05000000       0.05000000 </v>
   <v>       0.25000000       0.05000000       0.05000000 </v>
   <v>       0.35000000       0.05000000       0.05000000 </v>
   <v>       0.45000000       0.05000000       0.05000000 </v>
   <v>      -0.05000000       0.05000000       0.05000000 </v>
   <v>       0.15000000       0.15000000       0.05000000 </v>
   <v>       0.25000000       0.15000000       0.05000000 </v>
   <v>       0.35000000       0.15000000       0.05000000 </v>
   <v>      -0.15000000       0.15000000       0.05000000 </v>
   <v>       0.25000000       0.25000000       0.05000000 </v>
   <v>       0.35000000       0.25000000       0.05000000 </v>
   <v>      -0.25000000       0.25000000       0.05000000 </v>
   <v>      -0.15000000       0.25000000       0.05000000 </v>
   <v>      -0.35000000       0.35000000       0.05000000 </v>
   <v>      -0.25000000       0.35000000       0.05000000 </v>
   <v>      -0.45000000       0.45000000       0.05000000 </v>
   <v>      -0.35000000       0.45000000       0.05000000 </v>
   <v>      -0.25000000       0.45000000       0.05000000 </v>
   <v>      -0.45000000      -0.45000000       0.05000000 </v>
   <v>      -0.35000000      -0.45000000       0.05000000 </v>
   <v>      -0.35000000      -0.35000000       0.05000000 </v>
   <v>       0.15000000       0.15000000       0.15000000 </v>
   <v>       0.25000000       0.15000000       0.15000000 </v>
   <v>       0.35000000       0.15000000       0.15000000 </v>
   <v>      -0.15000000       0.15000000       0.15000000 </v>
   <v>       0.25000000       0.25000000       0.15000000 </v>
   <v>      -0.25000000       0.25000000       0.15000000 </v>
   <v>      -0.35000000       0.35000000       0.15000000 </v>
   <v>      -0.25000000       0.35000000       0.15000000 </v>
   <v>      -0.45000000       0.45000000       0.15000000 </v>
   <v>      -0.35000000       0.45000000       0.15000000 </v>
   <v>      -0.45000000      -0.45000000       0.15000000 </v>
   <v>      -0.35000000      -0.45000000       0.15000000 </v>
   <v>       0.25000000       0.25000000       0.25000000 </v>
   <v>      -0.25000000       0.25000000       0.25000000 </v>
   <v>      -0.35000000       0.35000000       0.25000000 </v>
   <v>      -0.45000000       0.45000000       0.25000000 </v>
   <v>      -0.35000000       0.45000000       0.25000000 </v>
   <v>      -0.45000000      -0.45000000       0.25000000 </v>
   <v>      -0.35000000       0.35000000       0.35000000 </v>
   <v>      -0.45000000       0.45000000       0.35000000 </v>
   <v>      -0.45000000      -0.45000000       0.35000000 </v>
   <v>      -0.45000000       0.45000000       0.45000000 </v>
  </varray>
  <varray name="weights" >
   <v>       0.00800000 </v>
   <v>       0.02400000 </v>
   <v>       0.02400000 </v>
   <v>       0.02400000 </v>
   <v>       0.01200000 </v>
   <v>       0.00600000 </v>
   <v>       0.02400000 </v>
   <v>       0.04800000 </v>
   <v>       0.04800000 </v>
   <v>       0.02400000 </v>
   <v>       0.02400000 </v>
   <v>       0.02400000 </v>
   <v>       0.02400000 </v>
   <v>       0.02400000 </v>
   <v>       0.02400000 </v>
   <v>       0.04800000 </v>
   <v>       0.02400000 </v>
   <v>       0.04800000 </v>
   <v>       0.02400000 </v>
   <v>       0.02400000 </v>
   <v>       0.04800000 </v>
   <v>       0.00800000 </v>
   <v>       0.00800000 </v>
   <v>       0.02400000 </v>
   <v>       0.01200000 </v>
   <v>       0.00600000 </v>
   <v>       0.02400000 </v>
   <v>       0.02400000 </v>
   <v>       0.02400000 </v>
   <v>       0.02400000 </v>
   <v>       0.02400000 </v>
   <v>       0.04800000 </v>
   <v>       0.02400000 </v>
   <v>       0.02400000 </v>
   <v>       0.00200000 </v>
   <v>       0.00600000 </v>
   <v>       0.02400000 </v>
   <v>       0.02400000 </v>
   <v>       0.02400000 </v>
   <v>       0.02400000 </v>
   <v>       0.00600000 </v>
   <v>       0.02400000 </v>
   <v>       0.00800000 </v>
   <v>       0.00600000 </v>
  </varray>
  <varray name="tetrahedronlist"  type="int" >
   <v type="int" >        4        1        2        2        7 </v>
   <v type="int" >        8        2        2        7        7 </v>
   <v type="int" >        4        2        7        7       23 </v>
   <v type="int" >        4        2        3        7        8 </v>
   <v type="int" >        4        2        7        7        8 </v>
   <v type="int" >       12        7        7        8       23 </v>
   <v type="int" >        8        3        7        8        8 </v>
   <v type="int" >        8        7        8        8       24 </v>
   <v type="int" >        8        7        8       23       24 </v>
   <v type="int" >        4        3        4        8        9 </v>
   <v type="int" >        4        3        8        8        9 </v>
   <v type="int" >       12        8        8        9       24 </v>
   <v type="int" >        8        4        8        9        9 </v>
   <v type="int" >        4        8        9        9       25 </v>
   <v type="int" >        4        8        9       24       25 </v>
   <v type="int" >        4        4        5        9        9 </v>
   <v type="int" >        4        4        9        9        9 </v>
   <v type="int" >        8        9        9        9       25 </v>
   <v type="int" >        8        5        9        9        9 </v>
   <v type="int" >        4        9        9        9       24 </v>
   <v type="int" >        4        9        9       24       25 </v>
   <v type="int" >        4        4        5        8        9 </v>
   <v type="int" >        4        5        8        9        9 </v>
   <v type="int" >        8        8        9        9       24 </v>
   <v type="int" >        8        4        8        8        9 </v>
   <v type="int" >        4        8        8        9       23 </v>
   <v type="int" >        4        8        9       23       24 </v>
   <v type="int" >        4        3        4        7        8 </v>
   <v type="int" >        4        4        7        8        8 </v>
   <v type="int" >       16        7        8        8       23 </v>
   <v type="int" >        8        3        7        7        8 </v>
   <v type="int" >        4        7        7        7        8 </v>
   <v type="int" >        4        2        2        3        7 </v>
   <v type="int" >        8        2        3        7        7 </v>
   <v type="int" >        4        2        7        7        7 </v>
   <v type="int" >        4        2        2        2        7 </v>
   <v type="int" >        8        2        2        7       14 </v>
   <v type="int" >        4        2        7        7       14 </v>
   <v type="int" >       16        1        2        2       10 </v>
   <v type="int" >        4        2        2        2       10 </v>
   <v type="int" >       12        2        2       10       14 </v>
   <v type="int" >       16        1        2       10       10 </v>
   <v type="int" >        4        2       10       10       26 </v>
   <v type="int" >        4        2       10       14       26 </v>
   <v type="int" >       20        1        6       10       10 </v>
   <v type="int" >        4        1       10       10       10 </v>
   <v type="int" >        4       10       10       10       26 </v>
   <v type="int" >        8        6       10       10       10 </v>
   <v type="int" >        4       10       10       10       14 </v>
   <v type="int" >        4       10       10       14       26 </v>
   <v type="int" >        8        1        2        6       10 </v>
   <v type="int" >        8        2        6       10       10 </v>
   <v type="int" >        8        2       10       10       14 </v>
   <v type="int" >        4        2        2        7       10 </v>
   <v type="int" >        4        2        7       10       14 </v>
   <v type="int" >        4        7        8       11       23 </v>
   <v type="int" >       12        8       11       23       24 </v>
   <v type="int" >        4       11       23       24       27 </v>
   <v type="int" >        4        8        9       12       24 </v>
   <v type="int" >        4        8       11       12       24 </v>
   <v type="int" >        8       11       12       24       27 </v>
   <v type="int" >       16        9       12       24       25 </v>
   <v type="int" >       16       12       24       25       27 </v>
   <v type="int" >        8       12       24       27       27 </v>
   <v type="int" >        8        9        9       11       25 </v>
   <v type="int" >       12        9       11       12       25 </v>
   <v type="int" >       16       11       12       25       27 </v>
   <v type="int" >       12        9       11       24       25 </v>
   <v type="int" >        4       11       24       24       25 </v>
   <v type="int" >       16       11       24       25       27 </v>
   <v type="int" >       16        8        9       11       24 </v>
   <v type="int" >        8        8       11       24       24 </v>
   <v type="int" >       16        8        8       23       24 </v>
   <v type="int" >        4        8        8       24       24 </v>
   <v type="int" >       12        3        7        8       23 </v>
   <v type="int" >        8        3        8        8       23 </v>
   <v type="int" >        8        3        7        7       23 </v>
   <v type="int" >        4        3        7       16       23 </v>
   <v type="int" >        4        3        8       16       23 </v>
   <v type="int" >        4        2        7        7       13 </v>
   <v type="int" >        4        3        7        7       13 </v>
   <v type="int" >        8        3        7       13       16 </v>
   <v type="int" >       12        2        7       13       14 </v>
   <v type="int" >        4        7       13       14       28 </v>
   <v type="int" >        4        7       13       16       28 </v>
   <v type="int" >        4        2       10       14       14 </v>
   <v type="int" >        4        2       13       14       14 </v>
   <v type="int" >        4       13       14       14       28 </v>
   <v type="int" >        8       10       14       14       26 </v>
   <v type="int" >        8       14       14       26       28 </v>
   <v type="int" >        4       14       14       28       28 </v>
   <v type="int" >        4       10       10       13       26 </v>
   <v type="int" >       12       10       13       14       26 </v>
   <v type="int" >       12       13       14       26       28 </v>
   <v type="int" >        4       13       14       16       26 </v>
   <v type="int" >        4       13       16       26       28 </v>
   <v type="int" >        4        2        3       10       14 </v>
   <v type="int" >        4        3       10       13       14 </v>
   <v type="int" >        8        3       13       14       16 </v>
   <v type="int" >       16        2        3        7       14 </v>
   <v type="int" >        4        3        7        8       14 </v>
   <v type="int" >        4        3        8       14       16 </v>
   <v type="int" >        8       11       12       12       27 </v>
   <v type="int" >        8       12       12       27       27 </v>
   <v type="int" >       12       12       25       27       27 </v>
   <v type="int" >       12        9       11       12       27 </v>
   <v type="int" >        4        9       12       12       27 </v>
   <v type="int" >        8        9       12       25       27 </v>
   <v type="int" >       12        9       11       24       27 </v>
   <v type="int" >        4        9        9       24       27 </v>
   <v type="int" >        8        9        9       25       27 </v>
   <v type="int" >        4        4        8       11       24 </v>
   <v type="int" >        4        4        9       11       24 </v>
   <v type="int" >        4        4        9        9       24 </v>
   <v type="int" >        4        4        8        8       24 </v>
   <v type="int" >        4        4        8       18       24 </v>
   <v type="int" >        4        4        9       18       24 </v>
   <v type="int" >        4        3        8        8       15 </v>
   <v type="int" >        4        4        8        8       15 </v>
   <v type="int" >        8        4        8       15       18 </v>
   <v type="int" >        8        3        8       15       16 </v>
   <v type="int" >        4        8       15       16       29 </v>
   <v type="int" >        4        8       15       18       29 </v>
   <v type="int" >        4        3       13       16       16 </v>
   <v type="int" >        4        3       15       16       16 </v>
   <v type="int" >        4       15       16       16       29 </v>
   <v type="int" >        8       13       16       16       28 </v>
   <v type="int" >       12       16       16       28       30 </v>
   <v type="int" >        4       16       16       29       30 </v>
   <v type="int" >        8       13       14       16       28 </v>
   <v type="int" >        8       14       16       28       28 </v>
   <v type="int" >        4       16       28       28       29 </v>
   <v type="int" >        8       16       28       29       30 </v>
   <v type="int" >        4       13       14       15       28 </v>
   <v type="int" >        4       14       15       16       28 </v>
   <v type="int" >        8       15       16       28       29 </v>
   <v type="int" >        8       13       15       16       28 </v>
   <v type="int" >        4       15       16       18       28 </v>
   <v type="int" >        4       15       18       28       29 </v>
   <v type="int" >        4        3        4       13       16 </v>
   <v type="int" >        4        4       13       15       16 </v>
   <v type="int" >        8        4       15       16       18 </v>
   <v type="int" >       12        3        4        8       16 </v>
   <v type="int" >        4        4        8        9       16 </v>
   <v type="int" >        4        4        9       16       18 </v>
   <v type="int" >        4        5        9       12       25 </v>
   <v type="int" >        8        5        9        9       25 </v>
   <v type="int" >        4        5        9       20       25 </v>
   <v type="int" >        4        4        9        9       17 </v>
   <v type="int" >        8        5        9        9       17 </v>
   <v type="int" >        8        5        9       17       20 </v>
   <v type="int" >        8        4        9       17       18 </v>
   <v type="int" >        4        9       17       18       31 </v>
   <v type="int" >        4        9       17       20       31 </v>
   <v type="int" >        4        4       15       18       18 </v>
   <v type="int" >        4        4       17       18       18 </v>
   <v type="int" >        4       17       18       18       31 </v>
   <v type="int" >        4       15       18       18       29 </v>
   <v type="int" >        4       18       18       29       32 </v>
   <v type="int" >        4       18       18       31       32 </v>
   <v type="int" >        4       15       16       19       29 </v>
   <v type="int" >        4       15       18       19       29 </v>
   <v type="int" >        8       18       19       29       32 </v>
   <v type="int" >       12       16       19       29       30 </v>
   <v type="int" >       12       19       29       30       32 </v>
   <v type="int" >        4       19       29       32       32 </v>
   <v type="int" >        4       16       16       18       30 </v>
   <v type="int" >       12       16       18       19       30 </v>
   <v type="int" >       12       18       19       30       32 </v>
   <v type="int" >        8       16       18       29       30 </v>
   <v type="int" >        4       18       29       30       31 </v>
   <v type="int" >        4       18       30       31       32 </v>
   <v type="int" >        4       15       16       17       29 </v>
   <v type="int" >        4       16       17       18       29 </v>
   <v type="int" >        8       17       18       29       31 </v>
   <v type="int" >        8       15       17       18       29 </v>
   <v type="int" >        4       17       18       20       29 </v>
   <v type="int" >        4       17       20       29       31 </v>
   <v type="int" >        4        4        5       15       18 </v>
   <v type="int" >        4        5       15       17       18 </v>
   <v type="int" >       12        5       17       18       20 </v>
   <v type="int" >       12        4        5        9       18 </v>
   <v type="int" >        8        5        9        9       18 </v>
   <v type="int" >       12        5        9       18       20 </v>
   <v type="int" >        4        5       17       20       20 </v>
   <v type="int" >        4       17       20       20       31 </v>
   <v type="int" >        4       20       20       31       33 </v>
   <v type="int" >        4       17       18       21       31 </v>
   <v type="int" >        4       17       20       21       31 </v>
   <v type="int" >        8       20       21       31       33 </v>
   <v type="int" >        8       18       21       31       32 </v>
   <v type="int" >        4       21       31       32       34 </v>
   <v type="int" >        4       21       31       33       34 </v>
   <v type="int" >        8       18       19       21       32 </v>
   <v type="int" >        4       18       21       21       32 </v>
   <v type="int" >       12       21       21       32       34 </v>
   <v type="int" >        8       19       21       32       32 </v>
   <v type="int" >        4       21       32       32       33 </v>
   <v type="int" >       16       21       32       33       34 </v>
   <v type="int" >        4       18       19       20       32 </v>
   <v type="int" >        4       19       20       21       32 </v>
   <v type="int" >       12       20       21       32       33 </v>
   <v type="int" >        8       18       20       31       32 </v>
   <v type="int" >        4       20       31       31       32 </v>
   <v type="int" >       12       20       31       32       33 </v>
   <v type="int" >        4       17       17       18       31 </v>
   <v type="int" >        8       17       18       20       31 </v>
   <v type="int" >        8       17       20       31       31 </v>
   <v type="int" >        8       17       17       20       31 </v>
   <v type="int" >        4       17       18       31       31 </v>
   <v type="int" >       16        4        5       17       20 </v>
   <v type="int" >        8        4       17       17       20 </v>
   <v type="int" >        8        4       17       18       20 </v>
   <v type="int" >       16        4        5        9       20 </v>
   <v type="int" >        4        4        8        9       20 </v>
   <v type="int" >        4        4        8       18       20 </v>
   <v type="int" >        4       20       21       22       33 </v>
   <v type="int" >       12       21       22       33       34 </v>
   <v type="int" >        8       22       33       34       34 </v>
   <v type="int" >        4       21       21       21       34 </v>
   <v type="int" >       16       21       21       22       34 </v>
   <v type="int" >       12       21       22       34       34 </v>
   <v type="int" >        8       21       21       33       34 </v>
   <v type="int" >        4       21       32       34       34 </v>
   <v type="int" >       12       18       20       21       33 </v>
   <v type="int" >        4       18       21       21       33 </v>
   <v type="int" >        8       18       21       32       33 </v>
   <v type="int" >       12       18       20       31       33 </v>
   <v type="int" >        4       18       29       31       33 </v>
   <v type="int" >        4       18       29       32       33 </v>
   <v type="int" >        4       15       17       20       31 </v>
   <v type="int" >        4       15       18       20       31 </v>
   <v type="int" >        8       15       18       29       31 </v>
   <v type="int" >        8       15       17       18       31 </v>
   <v type="int" >        4       15       16       18       31 </v>
   <v type="int" >        4       15       16       29       31 </v>
   <v type="int" >        4        3        4       17       18 </v>
   <v type="int" >        4        3       15       17       18 </v>
   <v type="int" >        8        3       15       16       18 </v>
   <v type="int" >       12        3        4        8       18 </v>
   <v type="int" >        4        3        7        8       18 </v>
   <v type="int" >        4        3        7       16       18 </v>
   <v type="int" >        4       19       21       22       34 </v>
   <v type="int" >        8       19       21       32       34 </v>
   <v type="int" >        4       19       30       32       34 </v>
   <v type="int" >        4       16       18       21       32 </v>
   <v type="int" >        4       16       19       21       32 </v>
   <v type="int" >        8       16       19       30       32 </v>
   <v type="int" >        8       16       18       29       32 </v>
   <v type="int" >        4       16       28       29       32 </v>
   <v type="int" >        4       16       28       30       32 </v>
   <v type="int" >        4       13       15       18       29 </v>
   <v type="int" >        4       13       16       18       29 </v>
   <v type="int" >        8       13       16       28       29 </v>
   <v type="int" >        8       13       15       16       29 </v>
   <v type="int" >        4       13       14       16       29 </v>
   <v type="int" >        4       13       14       28       29 </v>
   <v type="int" >        4        2        3       15       16 </v>
   <v type="int" >        4        2       13       15       16 </v>
   <v type="int" >        8        2       13       14       16 </v>
   <v type="int" >       12        2        3        7       16 </v>
   <v type="int" >        4        2        2        7       16 </v>
   <v type="int" >        4        2        2       14       16 </v>
   <v type="int" >        4       14       16       19       30 </v>
   <v type="int" >        8       14       16       28       30 </v>
   <v type="int" >        4       14       26       28       30 </v>
   <v type="int" >        4       10       13       16       28 </v>
   <v type="int" >        4       10       14       16       28 </v>
   <v type="int" >        8       10       14       26       28 </v>
   <v type="int" >        8       10       13       14       28 </v>
   <v type="int" >        4       10       10       14       28 </v>
   <v type="int" >        4       10       10       26       28 </v>
   <v type="int" >        4        1        2       13       14 </v>
   <v type="int" >        4        1       10       13       14 </v>
   <v type="int" >        8        1       10       10       14 </v>
   <v type="int" >        8        1        2        2       14 </v>
   <v type="int" >       12        1        2       10       14 </v>
   <v type="int" >        4        6       10       14       26 </v>
   <v type="int" >        4        6       10       10       26 </v>
   <v type="int" >        4        1        6       10       26 </v>
   <v type="int" >        4        6        6       10       10 </v>
   <v type="int" >       12        1        6        6       10 </v>
   <v type="int" >        6        1        1        6        6 </v>
   <v type="int" >        8        1        1        6       10 </v>
   <v type="int" >        4        1        1        2       10 </v>
   <v type="int" >        4        2        3        7       23 </v>
   <v type="int" >        4        3        8       23       24 </v>
   <v type="int" >       12        8       23       24       24 </v>
   <v type="int" >        8        8        8       11       24 </v>
   <v type="int" >        4        8       11       24       27 </v>
   <v type="int" >        4        8       24       24       27 </v>
   <v type="int" >        4        8        9       11       25 </v>
   <v type="int" >        4        8       11       24       25 </v>
   <v type="int" >        8       11       25       27       27 </v>
   <v type="int" >        8        9        9       12       24 </v>
   <v type="int" >        8        9       11       12       24 </v>
   <v type="int" >        4       11       12       24       24 </v>
   <v type="int" >        4       12       24       24       27 </v>
   <v type="int" >        4        8        9       11       23 </v>
   <v type="int" >        4        9       11       23       24 </v>
   <v type="int" >        8       11       23       24       24 </v>
   <v type="int" >        8        8        8       11       23 </v>
   <v type="int" >        4        7        7        8        8 </v>
   <v type="int" >       16        3        7        8       16 </v>
   <v type="int" >       12        7        8        8       16 </v>
   <v type="int" >        4        3        7        7       14 </v>
   <v type="int" >       12        3        7       14       16 </v>
   <v type="int" >       12        2        3       13       14 </v>
   <v type="int" >        4        3       13       14       28 </v>
   <v type="int" >        4        3       14       16       28 </v>
   <v type="int" >        4        2       10       13       26 </v>
   <v type="int" >        4        2       13       14       26 </v>
   <v type="int" >        4       13       26       28       28 </v>
   <v type="int" >        4       10       10       14       14 </v>
   <v type="int" >        4       10       13       14       14 </v>
   <v type="int" >        4       13       14       14       16 </v>
   <v type="int" >        4       14       14       16       28 </v>
   <v type="int" >        4        2        7       10       13 </v>
   <v type="int" >        4        7       10       13       14 </v>
   <v type="int" >       12        7       13       14       16 </v>
   <v type="int" >        8        2        3        7       13 </v>
   <v type="int" >        4        3        7        8       13 </v>
   <v type="int" >        4        7        8       13       16 </v>
   <v type="int" >        4       23       24       24       27 </v>
   <v type="int" >        8       24       24       27       27 </v>
   <v type="int" >        4       24       27       27       35 </v>
   <v type="int" >       12       24       25       27       27 </v>
   <v type="int" >        8       24       27       27       27 </v>
   <v type="int" >       16       27       27       27       35 </v>
   <v type="int" >        8       25       27       27       27 </v>
   <v type="int" >        8       27       27       27       27 </v>
   <v type="int" >        4       24       24       25       27 </v>
   <v type="int" >        4       24       24       24       27 </v>
   <v type="int" >        8       11       24       24       27 </v>
   <v type="int" >        4       11       24       27       27 </v>
   <v type="int" >        4        8       24       24       24 </v>
   <v type="int" >        4        8        8       19       24 </v>
   <v type="int" >        4        8       11       19       24 </v>
   <v type="int" >        4        7        8       16       23 </v>
   <v type="int" >        4        8        8       16       23 </v>
   <v type="int" >        8        8        8       16       19 </v>
   <v type="int" >        8        7        8       16       16 </v>
   <v type="int" >        4        8       16       16       30 </v>
   <v type="int" >        4        8       16       19       30 </v>
   <v type="int" >        4        7       14       16       28 </v>
   <v type="int" >        4        7       16       16       28 </v>
   <v type="int" >        4       16       28       28       36 </v>
   <v type="int" >        4       16       28       30       36 </v>
   <v type="int" >        4       14       26       28       28 </v>
   <v type="int" >        4       14       28       28       28 </v>
   <v type="int" >        4       28       28       28       36 </v>
   <v type="int" >        4       26       28       28       28 </v>
   <v type="int" >        4       28       28       28       30 </v>
   <v type="int" >        4       28       28       30       36 </v>
   <v type="int" >        4       14       16       26       28 </v>
   <v type="int" >        4       16       26       28       28 </v>
   <v type="int" >        8       16       28       28       30 </v>
   <v type="int" >       12       14       16       16       28 </v>
   <v type="int" >        4       16       16       19       28 </v>
   <v type="int" >        4       16       19       28       30 </v>
   <v type="int" >        4        7        8       14       16 </v>
   <v type="int" >        4        8       14       16       16 </v>
   <v type="int" >        8        8       16       16       19 </v>
   <v type="int" >        4        8        8       11       16 </v>
   <v type="int" >        4        8       11       16       19 </v>
   <v type="int" >       16       25       27       27       35 </v>
   <v type="int" >        4       12       25       27       35 </v>
   <v type="int" >        4        9       24       27       27 </v>
   <v type="int" >        8        9       25       27       27 </v>
   <v type="int" >        4        9       11       21       27 </v>
   <v type="int" >        4        9       12       21       27 </v>
   <v type="int" >        4        8       11       18       24 </v>
   <v type="int" >        4        9       11       18       24 </v>
   <v type="int" >        8        9       11       18       21 </v>
   <v type="int" >       12        8       11       18       19 </v>
   <v type="int" >        4       11       18       19       32 </v>
   <v type="int" >        4       11       18       21       32 </v>
   <v type="int" >        4        8       16       19       29 </v>
   <v type="int" >        4        8       18       19       29 </v>
   <v type="int" >        4       19       29       30       37 </v>
   <v type="int" >        4       19       29       32       37 </v>
   <v type="int" >        4       16       28       30       30 </v>
   <v type="int" >        4       16       29       30       30 </v>
   <v type="int" >        4       29       30       30       37 </v>
   <v type="int" >        8       28       30       30       36 </v>
   <v type="int" >        8       30       30       36       37 </v>
   <v type="int" >        4       30       30       37       37 </v>
   <v type="int" >        4       28       28       29       36 </v>
   <v type="int" >       12       28       29       30       36 </v>
   <v type="int" >       12       29       30       36       37 </v>
   <v type="int" >        4       29       30       32       36 </v>
   <v type="int" >        4       29       32       36       37 </v>
   <v type="int" >        4       16       18       28       30 </v>
   <v type="int" >        4       18       28       29       30 </v>
   <v type="int" >        8       18       29       30       32 </v>
   <v type="int" >        4       18       19       21       30 </v>
   <v type="int" >        4       18       21       30       32 </v>
   <v type="int" >        4        8        9       16       19 </v>
   <v type="int" >        4        9       16       18       19 </v>
   <v type="int" >        8        9       18       19       21 </v>
   <v type="int" >       12        8        9       11       19 </v>
   <v type="int" >        4        9       11       12       19 </v>
   <v type="int" >        4        9       12       19       21 </v>
   <v type="int" >        4        9       12       20       25 </v>
   <v type="int" >        8        9       12       20       21 </v>
   <v type="int" >        4       12       20       21       33 </v>
   <v type="int" >        4        9       18       21       31 </v>
   <v type="int" >        4        9       20       21       31 </v>
   <v type="int" >        4       21       31       32       38 </v>
   <v type="int" >        4       21       31       33       38 </v>
   <v type="int" >        4       18       29       32       32 </v>
   <v type="int" >        4       18       31       32       32 </v>
   <v type="int" >        4       31       32       32       38 </v>
   <v type="int" >        8       29       32       32       37 </v>
   <v type="int" >       12       32       32       37       39 </v>
   <v type="int" >        4       32       32       38       39 </v>
   <v type="int" >        8       29       30       32       37 </v>
   <v type="int" >        8       30       32       37       37 </v>
   <v type="int" >        4       32       37       37       38 </v>
   <v type="int" >        8       32       37       38       39 </v>
   <v type="int" >        4       29       30       31       37 </v>
   <v type="int" >        4       30       31       32       37 </v>
   <v type="int" >        8       31       32       37       38 </v>
   <v type="int" >        8       29       31       32       37 </v>
   <v type="int" >        4       31       32       33       37 </v>
   <v type="int" >        4       31       33       37       38 </v>
   <v type="int" >        4       18       20       29       32 </v>
   <v type="int" >        4       20       29       31       32 </v>
   <v type="int" >        8       18       20       21       32 </v>
   <v type="int" >        4       20       21       21       32 </v>
   <v type="int" >        4        9        9       18       21 </v>
   <v type="int" >        8        9       18       20       21 </v>
   <v type="int" >        8        9       20       21       21 </v>
   <v type="int" >        8        9        9       12       21 </v>
   <v type="int" >       16        9       11       12       21 </v>
   <v type="int" >        4        9       11       21       21 </v>
   <v type="int" >        4       20       31       33       33 </v>
   <v type="int" >        4       31       33       33       38 </v>
   <v type="int" >        4       33       33       38       40 </v>
   <v type="int" >        4       31       32       34       38 </v>
   <v type="int" >        4       31       33       34       38 </v>
   <v type="int" >        8       33       34       38       40 </v>
   <v type="int" >       12       32       34       38       39 </v>
   <v type="int" >       12       34       38       39       40 </v>
   <v type="int" >        4       34       38       40       40 </v>
   <v type="int" >        4       32       32       33       39 </v>
   <v type="int" >       12       32       33       34       39 </v>
   <v type="int" >       16       33       34       39       40 </v>
   <v type="int" >        8       32       33       38       39 </v>
   <v type="int" >        4       33       38       38       39 </v>
   <v type="int" >       12       33       38       39       40 </v>
   <v type="int" >        4       31       31       32       38 </v>
   <v type="int" >        8       31       32       33       38 </v>
   <v type="int" >        8       31       33       38       38 </v>
   <v type="int" >        8       31       31       33       38 </v>
   <v type="int" >        4       31       32       38       38 </v>
   <v type="int" >        4       18       31       31       33 </v>
   <v type="int" >        8       18       31       32       33 </v>
   <v type="int" >        4       18       19       21       33 </v>
   <v type="int" >        4       18       19       32       33 </v>
   <v type="int" >        4        8        9       20       21 </v>
   <v type="int" >        4        8       18       20       21 </v>
   <v type="int" >        8        8       18       19       21 </v>
   <v type="int" >        8        8        9       11       21 </v>
   <v type="int" >        4        8        8       11       21 </v>
   <v type="int" >        4        8        8       19       21 </v>
   <v type="int" >        8       33       34       34       40 </v>
   <v type="int" >        8       34       34       40       40 </v>
   <v type="int" >        8       34       39       40       40 </v>
   <v type="int" >       12       32       33       34       40 </v>
   <v type="int" >        4       32       34       34       40 </v>
   <v type="int" >        8       32       34       39       40 </v>
   <v type="int" >       12       32       33       38       40 </v>
   <v type="int" >        4       32       37       38       40 </v>
   <v type="int" >        4       32       37       39       40 </v>
   <v type="int" >        4       29       31       33       38 </v>
   <v type="int" >        4       29       32       33       38 </v>
   <v type="int" >        8       29       32       37       38 </v>
   <v type="int" >        8       29       31       32       38 </v>
   <v type="int" >        4       29       30       32       38 </v>
   <v type="int" >        4       29       30       37       38 </v>
   <v type="int" >        4       16       18       31       32 </v>
   <v type="int" >        4       16       29       31       32 </v>
   <v type="int" >        8       16       29       30       32 </v>
   <v type="int" >        8       16       18       19       32 </v>
   <v type="int" >        4       16       16       19       32 </v>
   <v type="int" >        4       16       16       30       32 </v>
   <v type="int" >        4        7        8       18       19 </v>
   <v type="int" >        4        7       16       18       19 </v>
   <v type="int" >        4        7       16       16       19 </v>
   <v type="int" >        4        7        8        8       19 </v>
   <v type="int" >        4        3        7        8       19 </v>
   <v type="int" >        4        3        7       16       19 </v>
   <v type="int" >        4       30       32       34       39 </v>
   <v type="int" >        8       30       32       37       39 </v>
   <v type="int" >        4       30       36       37       39 </v>
   <v type="int" >        4       28       29       32       37 </v>
   <v type="int" >        4       28       30       32       37 </v>
   <v type="int" >        8       28       30       36       37 </v>
   <v type="int" >        8       28       29       30       37 </v>
   <v type="int" >        4       28       28       30       37 </v>
   <v type="int" >        4       28       28       36       37 </v>
   <v type="int" >        4       14       16       29       30 </v>
   <v type="int" >        4       14       28       29       30 </v>
   <v type="int" >        4       14       28       28       30 </v>
   <v type="int" >        4       14       16       16       30 </v>
   <v type="int" >        4       13       14       16       30 </v>
   <v type="int" >        4       13       14       28       30 </v>
   <v type="int" >        4        2        7       16       16 </v>
   <v type="int" >        4        2       14       16       16 </v>
   <v type="int" >       12        2        3       13       16 </v>
   <v type="int" >        4        2       13       13       16 </v>
   <v type="int" >        4       26       28       30       36 </v>
   <v type="int" >        4       26       28       28       36 </v>
   <v type="int" >        4       14       26       28       36 </v>
   <v type="int" >        4       10       14       28       28 </v>
   <v type="int" >        4       10       26       28       28 </v>
   <v type="int" >        4        2       10       13       28 </v>
   <v type="int" >        4        2       10       14       28 </v>
   <v type="int" >       16        2       10       13       14 </v>
   <v type="int" >        4       10       10       13       14 </v>
   <v type="int" >       12        2       10       10       13 </v>
   <v type="int" >        8        2       10       13       13 </v>
   <v type="int" >        4       10       13       13       14 </v>
   <v type="int" >        4        1       10       14       26 </v>
   <v type="int" >        4        2       10       10       10 </v>
   <v type="int" >        8        2        2       10       13 </v>
   <v type="int" >        4        2        2        3       13 </v>
   <v type="int" >        4        3        4        8       24 </v>
   <v type="int" >        8        4        8        9       24 </v>
   <v type="int" >        4        4        9       24       25 </v>
   <v type="int" >        4        8        9       11       27 </v>
   <v type="int" >        4        8        9       24       27 </v>
   <v type="int" >        8        9       24       25       27 </v>
   <v type="int" >        4        9       12       27       27 </v>
   <v type="int" >        4       11       12       27       27 </v>
   <v type="int" >        8       12       27       27       27 </v>
   <v type="int" >        4       12       12       12       27 </v>
   <v type="int" >        4       12       12       25       27 </v>
   <v type="int" >        4       11       12       12       24 </v>
   <v type="int" >        4       12       12       24       27 </v>
   <v type="int" >        4        8        8        9       11 </v>
   <v type="int" >        8        4        8        9       18 </v>
   <v type="int" >        4        8        9        9       18 </v>
   <v type="int" >        4        4        8        8       16 </v>
   <v type="int" >        8        4        8       16       18 </v>
   <v type="int" >       12        3        4       15       16 </v>
   <v type="int" >        4        4       15       16       29 </v>
   <v type="int" >        4        4       16       18       29 </v>
   <v type="int" >        4        3       13       15       28 </v>
   <v type="int" >        4        3       15       16       28 </v>
   <v type="int" >        4       15       16       28       30 </v>
   <v type="int" >        4       15       28       29       30 </v>
   <v type="int" >        4       13       16       28       28 </v>
   <v type="int" >        8       16       16       28       29 </v>
   <v type="int" >        4       13       14       16       16 </v>
   <v type="int" >        4       13       15       16       16 </v>
   <v type="int" >        4       15       16       16       18 </v>
   <v type="int" >        4       16       16       18       29 </v>
   <v type="int" >        4        3        8       13       15 </v>
   <v type="int" >        4        8       13       15       16 </v>
   <v type="int" >        8        8       15       16       18 </v>
   <v type="int" >        8        3        4        8       15 </v>
   <v type="int" >        4        4        8        9       15 </v>
   <v type="int" >        4        8        9       15       18 </v>
   <v type="int" >        4       24       25       27       35 </v>
   <v type="int" >        4        9       11       21       25 </v>
   <v type="int" >        4       11       12       21       25 </v>
   <v type="int" >        4        8        9       19       24 </v>
   <v type="int" >        4        9       11       19       24 </v>
   <v type="int" >       12        9       11       19       21 </v>
   <v type="int" >        8        8        9       18       19 </v>
   <v type="int" >        4        9       18       19       32 </v>
   <v type="int" >        4        9       19       21       32 </v>
   <v type="int" >        4        8       16       18       30 </v>
   <v type="int" >        4        8       18       19       30 </v>
   <v type="int" >        4       18       29       30       37 </v>
   <v type="int" >        4       18       30       32       37 </v>
   <v type="int" >        4       16       28       29       36 </v>
   <v type="int" >        4       16       29       30       36 </v>
   <v type="int" >        4       29       36       37       37 </v>
   <v type="int" >        4       28       28       30       30 </v>
   <v type="int" >        4       28       29       30       30 </v>
   <v type="int" >        4       29       30       30       32 </v>
   <v type="int" >        4       30       30       32       37 </v>
   <v type="int" >        4       16       19       28       29 </v>
   <v type="int" >        4       19       28       29       30 </v>
   <v type="int" >        8       16       18       19       29 </v>
   <v type="int" >        4       18       19       21       29 </v>
   <v type="int" >        4       19       21       29       32 </v>
   <v type="int" >        4        8       11       16       18 </v>
   <v type="int" >        4       11       16       18       19 </v>
   <v type="int" >       12       11       18       19       21 </v>
   <v type="int" >        8        8        9       11       18 </v>
   <v type="int" >        4        9       11       12       18 </v>
   <v type="int" >        4       11       12       18       21 </v>
   <v type="int" >        4       12       27       27       35 </v>
   <v type="int" >        4       12       12       22       27 </v>
   <v type="int" >        4       11       12       21       27 </v>
   <v type="int" >        4       12       12       21       27 </v>
   <v type="int" >       12       12       12       21       22 </v>
   <v type="int" >        8       11       12       21       21 </v>
   <v type="int" >        8       12       21       21       34 </v>
   <v type="int" >        8       12       21       22       34 </v>
   <v type="int" >        4       11       19       21       32 </v>
   <v type="int" >        4       11       21       21       32 </v>
   <v type="int" >        4       21       32       32       39 </v>
   <v type="int" >        4       21       32       34       39 </v>
   <v type="int" >        4       19       30       32       37 </v>
   <v type="int" >        4       19       32       32       37 </v>
   <v type="int" >        4       32       37       37       41 </v>
   <v type="int" >        4       32       37       39       41 </v>
   <v type="int" >        4       30       36       37       37 </v>
   <v type="int" >        4       30       37       37       37 </v>
   <v type="int" >        4       37       37       37       41 </v>
   <v type="int" >        4       36       37       37       37 </v>
   <v type="int" >        4       37       37       37       39 </v>
   <v type="int" >        4       37       37       39       41 </v>
   <v type="int" >        4       30       32       36       37 </v>
   <v type="int" >        4       32       36       37       37 </v>
   <v type="int" >        8       32       37       37       39 </v>
   <v type="int" >       12       30       32       32       37 </v>
   <v type="int" >        4       32       32       34       37 </v>
   <v type="int" >        4       32       34       37       39 </v>
   <v type="int" >        4       19       21       30       32 </v>
   <v type="int" >        4       21       30       32       32 </v>
   <v type="int" >        8       21       32       32       34 </v>
   <v type="int" >        8       19       21       21       32 </v>
   <v type="int" >        4       21       21       22       32 </v>
   <v type="int" >        4       21       22       32       34 </v>
   <v type="int" >        4       11       12       19       21 </v>
   <v type="int" >        4       12       19       21       21 </v>
   <v type="int" >       16       12       21       21       22 </v>
   <v type="int" >        8       11       12       12       21 </v>
   <v type="int" >        4       12       12       12       21 </v>
   <v type="int" >        4       12       21       22       33 </v>
   <v type="int" >        4       22       33       34       40 </v>
   <v type="int" >        4       21       32       34       38 </v>
   <v type="int" >        4       21       33       34       38 </v>
   <v type="int" >        4       34       38       39       42 </v>
   <v type="int" >        4       34       38       40       42 </v>
   <v type="int" >        4       32       37       39       39 </v>
   <v type="int" >        4       32       38       39       39 </v>
   <v type="int" >        4       38       39       39       42 </v>
   <v type="int" >        8       37       39       39       41 </v>
   <v type="int" >        8       39       39       41       42 </v>
   <v type="int" >        4       39       39       42       42 </v>
   <v type="int" >        4       37       37       38       41 </v>
   <v type="int" >       12       37       38       39       41 </v>
   <v type="int" >       12       38       39       41       42 </v>
   <v type="int" >        4       38       39       40       41 </v>
   <v type="int" >        4       38       40       41       42 </v>
   <v type="int" >        4       32       33       37       39 </v>
   <v type="int" >        4       33       37       38       39 </v>
   <v type="int" >        4       33       34       34       39 </v>
   <v type="int" >        8       21       33       34       34 </v>
   <v type="int" >        4       21       21       34       34 </v>
   <v type="int" >       12       11       12       21       22 </v>
   <v type="int" >        8       11       21       21       22 </v>
   <v type="int" >        8       11       12       12       22 </v>
   <v type="int" >        4        9       11       12       22 </v>
   <v type="int" >        4        9       11       21       22 </v>
   <v type="int" >        4       33       38       40       40 </v>
   <v type="int" >        8       38       40       40       42 </v>
   <v type="int" >       16       40       40       42       43 </v>
   <v type="int" >       16       38       39       40       42 </v>
   <v type="int" >        8       39       40       42       42 </v>
   <v type="int" >        4       40       42       42       42 </v>
   <v type="int" >       16       40       42       42       43 </v>
   <v type="int" >        4       38       38       39       42 </v>
   <v type="int" >       12       38       40       42       42 </v>
   <v type="int" >        8       38       38       40       42 </v>
   <v type="int" >        4       38       39       42       42 </v>
   <v type="int" >        4       32       38       38       40 </v>
   <v type="int" >        8       32       38       39       40 </v>
   <v type="int" >        4       32       32       34       40 </v>
   <v type="int" >        4       32       32       39       40 </v>
   <v type="int" >        4       19       21       33       34 </v>
   <v type="int" >        4       19       32       33       34 </v>
   <v type="int" >        4       19       32       32       34 </v>
   <v type="int" >        4       19       21       21       34 </v>
   <v type="int" >        4       18       19       21       34 </v>
   <v type="int" >        4       18       19       32       34 </v>
   <v type="int" >        4        8       11       21       21 </v>
   <v type="int" >        4        8       19       21       21 </v>
   <v type="int" >        4        4        8        9       21 </v>
   <v type="int" >        4        4        8       18       21 </v>
   <v type="int" >        8       39       40       40       43 </v>
   <v type="int" >       12       39       40       42       43 </v>
   <v type="int" >        4       39       41       42       43 </v>
   <v type="int" >        4       37       38       40       42 </v>
   <v type="int" >        4       37       39       40       42 </v>
   <v type="int" >        8       37       39       41       42 </v>
   <v type="int" >        8       37       38       39       42 </v>
   <v type="int" >        4       37       37       39       42 </v>
   <v type="int" >        4       37       37       41       42 </v>
   <v type="int" >        4       30       32       38       39 </v>
   <v type="int" >        4       30       37       38       39 </v>
   <v type="int" >        4       30       37       37       39 </v>
   <v type="int" >        4       30       32       32       39 </v>
   <v type="int" >        4       29       30       32       39 </v>
   <v type="int" >        4       29       30       37       39 </v>
   <v type="int" >        4       16       19       32       32 </v>
   <v type="int" >        4       16       30       32       32 </v>
   <v type="int" >        4       15       16       18       32 </v>
   <v type="int" >        4       15       16       29       32 </v>
   <v type="int" >        4        3        8       18       19 </v>
   <v type="int" >        4        3       16       18       19 </v>
   <v type="int" >       12        3        4       15       18 </v>
   <v type="int" >        4        3       15       15       18 </v>
   <v type="int" >        4       36       37       39       41 </v>
   <v type="int" >        4       36       37       37       41 </v>
   <v type="int" >        4       30       36       37       41 </v>
   <v type="int" >        4       28       30       37       37 </v>
   <v type="int" >        4       28       36       37       37 </v>
   <v type="int" >        4       16       28       29       37 </v>
   <v type="int" >        4       16       28       30       37 </v>
   <v type="int" >        4       13       16       29       30 </v>
   <v type="int" >        4       13       28       29       30 </v>
   <v type="int" >        4        3       13       15       29 </v>
   <v type="int" >        4        3       13       16       29 </v>
   <v type="int" >        8        3       13       15       16 </v>
   <v type="int" >        4       13       13       15       16 </v>
   <v type="int" >        8        3       13       13       15 </v>
   <v type="int" >        8        3       13       15       15 </v>
   <v type="int" >        4       13       15       15       16 </v>
   <v type="int" >        4       14       28       30       36 </v>
   <v type="int" >        4        7       14       16       30 </v>
   <v type="int" >        4        2       13       16       28 </v>
   <v type="int" >        4        2       14       16       28 </v>
   <v type="int" >        8        2        7       14       16 </v>
   <v type="int" >        4        2        7        7       16 </v>
   <v type="int" >        4        3       13       13       14 </v>
   <v type="int" >        4        3       14       16       16 </v>
   <v type="int" >        4        2        2        7       13 </v>
   <v type="int" >        4        7       13       15       16 </v>
   <v type="int" >        4        3        7       13       15 </v>
   <v type="int" >        4        2        3        3       13 </v>
   <v type="int" >        4        3        3       13       15 </v>
   <v type="int" >        4        3        3        4       15 </v>
   <v type="int" >        4        4        5        9       25 </v>
   <v type="int" >        4        5        9       24       25 </v>
   <v type="int" >        4        9        9       12       27 </v>
   <v type="int" >        4        9       24       24       27 </v>
   <v type="int" >        4       11       12       12       25 </v>
   <v type="int" >        4        9        9        9       12 </v>
   <v type="int" >        4        9        9       12       25 </v>
   <v type="int" >        4        5        9        9       20 </v>
   <v type="int" >        4        9        9        9       20 </v>
   <v type="int" >       12        4        5       17       18 </v>
   <v type="int" >        4        5       17       18       31 </v>
   <v type="int" >        4        5       18       20       31 </v>
   <v type="int" >        4        4       15       17       29 </v>
   <v type="int" >        4        4       17       18       29 </v>
   <v type="int" >        4       17       18       29       32 </v>
   <v type="int" >        4       17       29       31       32 </v>
   <v type="int" >        4       15       16       18       30 </v>
   <v type="int" >        4       15       18       29       30 </v>
   <v type="int" >        4       18       30       32       32 </v>
   <v type="int" >        4       16       16       19       29 </v>
   <v type="int" >        4       18       19       29       31 </v>
   <v type="int" >        4       19       29       31       32 </v>
   <v type="int" >        4       15       16       18       18 </v>
   <v type="int" >        4       16       18       18       29 </v>
   <v type="int" >        4       18       18       29       31 </v>
   <v type="int" >        4       15       17       18       18 </v>
   <v type="int" >        4       17       18       18       20 </v>
   <v type="int" >        4       18       18       20       31 </v>
   <v type="int" >        4        4        9       15       17 </v>
   <v type="int" >        4        9       15       17       18 </v>
   <v type="int" >        8        9       17       18       20 </v>
   <v type="int" >        8        4        5        9       17 </v>
   <v type="int" >        4        9        9       17       20 </v>
   <v type="int" >        4        9       12       21       24 </v>
   <v type="int" >        4       11       12       21       24 </v>
   <v type="int" >        4        9        9       21       25 </v>
   <v type="int" >        4        9       12       21       25 </v>
   <v type="int" >       12        9       12       21       21 </v>
   <v type="int" >        8        9        9       20       21 </v>
   <v type="int" >        4        9       20       21       33 </v>
   <v type="int" >        4        9       21       21       33 </v>
   <v type="int" >        4        9       18       20       32 </v>
   <v type="int" >        4        9       20       21       32 </v>
   <v type="int" >        4       20       31       32       38 </v>
   <v type="int" >        4       20       32       33       38 </v>
   <v type="int" >        4       18       29       31       37 </v>
   <v type="int" >        4       18       31       32       37 </v>
   <v type="int" >        4       31       32       37       39 </v>
   <v type="int" >        4       31       37       38       39 </v>
   <v type="int" >        4       29       32       37       37 </v>
   <v type="int" >        8       32       32       37       38 </v>
   <v type="int" >        4       29       30       32       32 </v>
   <v type="int" >        4       29       31       32       32 </v>
   <v type="int" >        4       31       32       32       33 </v>
   <v type="int" >        4       32       32       33       38 </v>
   <v type="int" >        4       18       21       29       31 </v>
   <v type="int" >        4       21       29       31       32 </v>
   <v type="int" >        8       21       31       32       33 </v>
   <v type="int" >        8       18       20       21       31 </v>
   <v type="int" >        4       20       21       21       31 </v>
   <v type="int" >        4       21       21       31       33 </v>
   <v type="int" >        4        9       12       18       20 </v>
   <v type="int" >        4       12       18       20       21 </v>
   <v type="int" >        4       12       20       21       21 </v>
   <v type="int" >        4        9        9       12       20 </v>
   <v type="int" >        4        9       11       12       20 </v>
   <v type="int" >        4       11       12       20       21 </v>
   <v type="int" >        4       11       12       22       27 </v>
   <v type="int" >        4       11       21       22       34 </v>
   <v type="int" >        4       21       33       34       40 </v>
   <v type="int" >        4       21       34       34       40 </v>
   <v type="int" >        4       21       32       33       39 </v>
   <v type="int" >        4       21       33       34       39 </v>
   <v type="int" >        4       33       38       39       42 </v>
   <v type="int" >        4       33       39       40       42 </v>
   <v type="int" >        4       32       37       38       41 </v>
   <v type="int" >        4       32       38       39       41 </v>
   <v type="int" >        4       38       41       42       42 </v>
   <v type="int" >        4       37       37       39       39 </v>
   <v type="int" >        4       37       38       39       39 </v>
   <v type="int" >        4       38       39       39       40 </v>
   <v type="int" >        4       39       39       40       42 </v>
   <v type="int" >        4       32       34       37       38 </v>
   <v type="int" >        4       34       37       38       39 </v>
   <v type="int" >        8       32       33       34       38 </v>
   <v type="int" >        4       33       34       34       38 </v>
   <v type="int" >        4       34       34       38       40 </v>
   <v type="int" >        4       21       22       32       33 </v>
   <v type="int" >        4       22       32       33       34 </v>
   <v type="int" >        8       21       21       22       33 </v>
   <v type="int" >        4       12       12       21       21 </v>
   <v type="int" >        4       22       34       34       40 </v>
   <v type="int" >        4       34       40       40       43 </v>
   <v type="int" >        4       34       39       40       42 </v>
   <v type="int" >        4       34       40       40       42 </v>
   <v type="int" >        8       40       42       42       44 </v>
   <v type="int" >        8       40       42       43       44 </v>
   <v type="int" >        4       39       41       42       42 </v>
   <v type="int" >        4       39       42       42       42 </v>
   <v type="int" >        8       42       42       42       44 </v>
   <v type="int" >        4       41       42       42       42 </v>
   <v type="int" >        4       42       42       42       43 </v>
   <v type="int" >       20       42       42       43       44 </v>
   <v type="int" >        4       39       40       41       42 </v>
   <v type="int" >        4       40       41       42       42 </v>
   <v type="int" >       12       39       40       40       42 </v>
   <v type="int" >        4       40       40       40       42 </v>
   <v type="int" >        4       34       34       39       40 </v>
   <v type="int" >        4       34       40       40       40 </v>
   <v type="int" >        4       34       34       34       40 </v>
   <v type="int" >        4       33       34       40       40 </v>
   <v type="int" >        4       21       34       34       34 </v>
   <v type="int" >        4       20       21       21       34 </v>
   <v type="int" >        4       20       21       33       34 </v>
   <v type="int" >        4        9       12       21       22 </v>
   <v type="int" >        4        9       21       21       22 </v>
   <v type="int" >        4        5        9        9       21 </v>
   <v type="int" >        4        5        9       20       21 </v>
   <v type="int" >        4       40       42       43       43 </v>
   <v type="int" >        8       42       43       43       44 </v>
   <v type="int" >        6       43       43       44       44 </v>
   <v type="int" >       12       42       43       44       44 </v>
   <v type="int" >        4       42       42       44       44 </v>
   <v type="int" >        8       39       42       42       43 </v>
   <v type="int" >        4       38       39       40       43 </v>
   <v type="int" >        4       38       39       42       43 </v>
   <v type="int" >        4       32       34       40       40 </v>
   <v type="int" >        4       32       39       40       40 </v>
   <v type="int" >        4       31       32       33       40 </v>
   <v type="int" >        4       31       32       38       40 </v>
   <v type="int" >        4       18       21       33       34 </v>
   <v type="int" >        4       18       32       33       34 </v>
   <v type="int" >        4       17       18       20       33 </v>
   <v type="int" >        4       17       18       31       33 </v>
   <v type="int" >        4        4        9       20       21 </v>
   <v type="int" >        4        4       18       20       21 </v>
   <v type="int" >        4       41       42       43       44 </v>
   <v type="int" >        4       41       42       42       44 </v>
   <v type="int" >        4       39       41       42       44 </v>
   <v type="int" >        4       37       39       42       42 </v>
   <v type="int" >        4       37       41       42       42 </v>
   <v type="int" >        4       32       37       38       42 </v>
   <v type="int" >        4       32       37       39       42 </v>
   <v type="int" >        4       29       32       38       39 </v>
   <v type="int" >        4       29       37       38       39 </v>
   <v type="int" >        4       18       29       31       38 </v>
   <v type="int" >        4       18       29       32       38 </v>
   <v type="int" >        4       15       18       31       32 </v>
   <v type="int" >        4       15       29       31       32 </v>
   <v type="int" >        4        4       15       17       31 </v>
   <v type="int" >        4        4       15       18       31 </v>
   <v type="int" >        8        4       15       17       18 </v>
   <v type="int" >        4       15       15       17       18 </v>
   <v type="int" >        8        4       15       15       17 </v>
   <v type="int" >        8        4       15       17       17 </v>
   <v type="int" >        4       15       17       17       18 </v>
   <v type="int" >        4       30       37       39       41 </v>
   <v type="int" >        4       19       30       32       39 </v>
   <v type="int" >        4       16       29       32       37 </v>
   <v type="int" >        4       16       30       32       37 </v>
   <v type="int" >        4        8       16       18       32 </v>
   <v type="int" >        4        8       16       19       32 </v>
   <v type="int" >        4        3       15       18       29 </v>
   <v type="int" >        4        3       16       18       29 </v>
   <v type="int" >        8        3        8       16       18 </v>
   <v type="int" >        4        3        8        8       18 </v>
   <v type="int" >        4        4       15       15       16 </v>
   <v type="int" >        4        4       16       18       19 </v>
   <v type="int" >        4        4        8       16       19 </v>
   <v type="int" >        4        7       16       19       30 </v>
   <v type="int" >        8        7        8       16       19 </v>
   <v type="int" >        4        7        8       19       23 </v>
   <v type="int" >        4        7        7        8       16 </v>
   <v type="int" >        4        7        8        8        8 </v>
   <v type="int" >        4        3        8       16       16 </v>
   <v type="int" >        8        8       16       18       19 </v>
   <v type="int" >        4        8        8       16       18 </v>
   <v type="int" >        4        3        4        8       23 </v>
   <v type="int" >        4        7        8       15       16 </v>
   <v type="int" >        4        3        7        8       15 </v>
   <v type="int" >        4        8       15       17       18 </v>
   <v type="int" >        4        4        8       15       17 </v>
   <v type="int" >        4        3        4        4       15 </v>
   <v type="int" >        4        4        4       15       17 </v>
   <v type="int" >        4        4        4        5       17 </v>
   <v type="int" >        4        4        5        9       24 </v>
   <v type="int" >        4        4        8       23       24 </v>
   <v type="int" >        4        8        9       24       24 </v>
   <v type="int" >        4        8        8        8       24 </v>
   <v type="int" >        4        8        9        9       11 </v>
   <v type="int" >        4        8        8        9       18 </v>
   <v type="int" >        8        4        9        9       20 </v>
   <v type="int" >        8        4        9       18       20 </v>
   <v type="int" >        4        4       17       20       31 </v>
   <v type="int" >        4        4       18       20       31 </v>
   <v type="int" >        4        5       17       17       31 </v>
   <v type="int" >        4        5       17       20       31 </v>
   <v type="int" >        4       17       20       31       33 </v>
   <v type="int" >        4       17       31       31       33 </v>
   <v type="int" >        4       17       18       20       32 </v>
   <v type="int" >        4       17       20       31       32 </v>
   <v type="int" >        4       20       21       32       34 </v>
   <v type="int" >        4       20       32       33       34 </v>
   <v type="int" >        4       18       21       32       32 </v>
   <v type="int" >        4       21       21       32       33 </v>
   <v type="int" >        4       18       19       21       31 </v>
   <v type="int" >        4       19       21       31       32 </v>
   <v type="int" >        4       20       21       31       31 </v>
   <v type="int" >        4       21       31       31       33 </v>
   <v type="int" >        4       17       18       20       20 </v>
   <v type="int" >        4       18       20       20       31 </v>
   <v type="int" >        2       20       20       31       31 </v>
   <v type="int" >        2       17       17       20       20 </v>
   <v type="int" >        8        5        9       17       17 </v>
   <v type="int" >        4        9       17       17       20 </v>
   <v type="int" >        4        4        8        9       17 </v>
   <v type="int" >        4        8        9       17       18 </v>
   <v type="int" >        4        8       11       19       23 </v>
   <v type="int" >        4        8        9       21       24 </v>
   <v type="int" >        4        8       11       21       24 </v>
   <v type="int" >        8        8       11       19       21 </v>
   <v type="int" >        8        8        9       18       21 </v>
   <v type="int" >        4        8       18       21       32 </v>
   <v type="int" >        4        8       19       21       32 </v>
   <v type="int" >        4        9       18       20       33 </v>
   <v type="int" >        4        9       18       21       33 </v>
   <v type="int" >        4       18       31       33       38 </v>
   <v type="int" >        4       18       32       33       38 </v>
   <v type="int" >        4       20       31       31       38 </v>
   <v type="int" >        4       20       31       33       38 </v>
   <v type="int" >        4       31       33       38       40 </v>
   <v type="int" >        4       31       38       38       40 </v>
   <v type="int" >        4       31       32       33       39 </v>
   <v type="int" >        4       31       33       38       39 </v>
   <v type="int" >        4       33       39       40       40 </v>
   <v type="int" >        4       32       32       34       38 </v>
   <v type="int" >        4       33       34       38       38 </v>
   <v type="int" >        4       34       38       38       40 </v>
   <v type="int" >        4       31       32       33       33 </v>
   <v type="int" >        4       32       33       33       38 </v>
   <v type="int" >        2       33       33       38       38 </v>
   <v type="int" >        2       31       31       33       33 </v>
   <v type="int" >        4        9       11       18       20 </v>
   <v type="int" >        4       11       18       20       21 </v>
   <v type="int" >        4        8        8       11       18 </v>
   <v type="int" >        4       11       19       21       34 </v>
   <v type="int" >        4       19       32       34       39 </v>
   <v type="int" >        4       21       32       33       40 </v>
   <v type="int" >        4       21       32       34       40 </v>
   <v type="int" >        4       32       38       40       42 </v>
   <v type="int" >        4       32       39       40       42 </v>
   <v type="int" >        4       33       38       38       42 </v>
   <v type="int" >        4       33       38       40       42 </v>
   <v type="int" >        4       38       40       42       43 </v>
   <v type="int" >        4       38       42       42       43 </v>
   <v type="int" >        6       40       40       42       42 </v>
   <v type="int" >        4       38       39       40       40 </v>
   <v type="int" >        2       38       38       40       40 </v>
   <v type="int" >        4        9       19       21       21 </v>
   <v type="int" >        4        4        8        9       19 </v>
   <v type="int" >        4        4        9       18       19 </v>
   <v type="int" >        4       34       39       40       43 </v>
   <v type="int" >        4       39       42       43       44 </v>
   <v type="int" >        4       42       44       44       44 </v>
   <v type="int" >        6       42       42       43       43 </v>
   <v type="int" >        4        5        9       18       21 </v>
   <v type="int" >        4        5       18       20       21 </v>
   <v type="int" >        8        5       17       17       18 </v>
   <v type="int" >        4       43       44       44       44 </v>
   <v type="int" >        2       44       44       44       44 </v>
   <v type="int" >        4        5       17       17       20 </v>
   <v type="int" >        4       17       17       17       20 </v>
   <v type="int" >        8        5       17       17       17 </v>
   <v type="int" >        4        4        5        5       17 </v>
   <v type="int" >        4        5        5       17       17 </v>
   <v type="int" >        4        1        6       10       14 </v>
   <v type="int" >        4        1        2        7       14 </v>
   <v type="int" >        4        2       10       13       16 </v>
   <v type="int" >        4        2       10       14       16 </v>
   <v type="int" >        4        2        3        8       16 </v>
   <v type="int" >        4        2        7        8       16 </v>
   <v type="int" >        4        3       13       15       18 </v>
   <v type="int" >        4        3       13       16       18 </v>
   <v type="int" >        4        3        4        9       18 </v>
   <v type="int" >        4        3        8        9       18 </v>
   <v type="int" >        4        4       15       17       20 </v>
   <v type="int" >        4        4       15       18       20 </v>
   <v type="int" >        4        4        5        8       18 </v>
   <v type="int" >        4        5        8        9       18 </v>
   <v type="int" >        4        4       15       16       17 </v>
   <v type="int" >        4        4       16       17       18 </v>
   <v type="int" >        4        3        4        7       16 </v>
   <v type="int" >        4        4        7        8       16 </v>
   <v type="int" >        4        3       13       14       15 </v>
   <v type="int" >        4        3       14       15       16 </v>
   <v type="int" >        4        2        2        3       14 </v>
   <v type="int" >        6        2        2       10       10 </v>
   <v type="int" >        6        1        1       10       10 </v>
   <v type="int" >        4        6        6        6       10 </v>
   <v type="int" >        4        7       14       16       19 </v>
   <v type="int" >        4        7        8       11       19 </v>
   <v type="int" >        4        8       16       18       21 </v>
   <v type="int" >        4        8       16       19       21 </v>
   <v type="int" >        4        8        9       12       21 </v>
   <v type="int" >        4        8       11       12       21 </v>
   <v type="int" >        4        9       18       21       21 </v>
   <v type="int" >        4        9        9       11       21 </v>
   <v type="int" >        4        9       18       19       20 </v>
   <v type="int" >        4        9       19       20       21 </v>
   <v type="int" >        4        8        8        9       19 </v>
   <v type="int" >        4        8       16       16       18 </v>
   <v type="int" >        4        3        8        8       16 </v>
   <v type="int" >        4        7       13       16       16 </v>
   <v type="int" >        4        2        7       13       13 </v>
   <v type="int" >        4        3        7       13       13 </v>
   <v type="int" >        4        2        2       13       14 </v>
   <v type="int" >        2        2        2       13       13 </v>
   <v type="int" >        4        1       10       10       13 </v>
   <v type="int" >        4        1        2       10       13 </v>
   <v type="int" >        4        2        3       10       13 </v>
   <v type="int" >        4        3       10       13       13 </v>
   <v type="int" >        4       11       19       21       22 </v>
   <v type="int" >        4       12       21       21       21 </v>
   <v type="int" >        4        9       12       12       21 </v>
   <v type="int" >        4       11       18       21       21 </v>
   <v type="int" >        4        4        8       11       18 </v>
   <v type="int" >        4        4        9       11       18 </v>
   <v type="int" >        4        8       15       16       19 </v>
   <v type="int" >        4        8       15       18       19 </v>
[...]
       <r>   25.3137    0.0000 </r>
       <r>   27.2521    0.0000 </r>
       <r>   31.3664    0.0000 </r>
       <r>   37.1888    0.0000 </r>
       <r>   38.5113    0.0000 </r>
       <r>   41.9284    0.0000 </r>
       <r>   43.3341    0.0000 </r>
       <r>   44.1589    0.0000 </r>
       <r>   45.6317    0.0000 </r>
       <r>   47.9352    0.0000 </r>
       <r>   50.2255    0.0000 </r>
       <r>   51.5231    0.0000 </r>
       <r>   54.0270    0.0000 </r>
       <r>   54.2442    0.0000 </r>
       <r>   55.4225    0.0000 </r>
       <r>   55.9275    0.0000 </r>
       <r>   57.7761    0.0000 </r>
       <r>   58.7232    0.0000 </r>
       <r>   60.3977    0.0000 </r>
       <r>   60.7336    0.0000 </r>
       <r>   64.9231    0.0000 </r>
       <r>   65.0600    0.0000 </r>
       <r>   67.1780    0.0000 </r>
       <r>   69.5580    0.0000 </r>
       <r>   70.6516    0.0000 </r>
       <r>   75.1176    0.0000 </r>
       <r>   84.5227    0.0000 </r>
       <r>   85.2631    0.0000 </r>
      </set>
      <set comment="kpoint 43">
       <r>  -25.6481    1.0000 </r>
       <r>  -25.6481    1.0000 </r>
       <r>  -25.4655    1.0000 </r>
       <r>    1.5132    1.0000 </r>
       <r>    1.5132    1.0000 </r>
       <r>    7.9221   -0.0047 </r>
       <r>    9.8536    0.0000 </r>
       <r>    9.8536    0.0000 </r>
       <r>   14.9801    0.0000 </r>
       <r>   14.9801    0.0000 </r>
       <r>   15.3740    0.0000 </r>
       <r>   25.1010    0.0000 </r>
       <r>   25.4448    0.0000 </r>
       <r>   25.4448    0.0000 </r>
       <r>   30.8893    0.0000 </r>
       <r>   37.7947    0.0000 </r>
       <r>   41.6682    0.0000 </r>
       <r>   41.6682    0.0000 </r>
       <r>   42.2652    0.0000 </r>
       <r>   45.4049    0.0000 </r>
       <r>   45.4049    0.0000 </r>
       <r>   47.3140    0.0000 </r>
       <r>   51.9689    0.0000 </r>
       <r>   52.7240    0.0000 </r>
       <r>   52.7240    0.0000 </r>
       <r>   54.0368    0.0000 </r>
       <r>   55.4024    0.0000 </r>
       <r>   55.4024    0.0000 </r>
       <r>   56.7059    0.0000 </r>
       <r>   59.9744    0.0000 </r>
       <r>   60.7149    0.0000 </r>
       <r>   60.7149    0.0000 </r>
       <r>   62.9106    0.0000 </r>
       <r>   63.6109    0.0000 </r>
       <r>   63.6109    0.0000 </r>
       <r>   68.7581    0.0000 </r>
       <r>   68.7581    0.0000 </r>
       <r>   71.4351    0.0000 </r>
       <r>   85.3177    0.0000 </r>
       <r>   93.5053    0.0000 </r>
      </set>
      <set comment="kpoint 44">
       <r>  -25.6323    1.0000 </r>
       <r>  -25.6058    1.0000 </r>
       <r>  -25.6058    1.0000 </r>
       <r>    1.1935    1.0000 </r>
       <r>    1.2608    1.0000 </r>
       <r>    9.7749    0.0000 </r>
       <r>    9.7750    0.0000 </r>
       <r>   10.2752    0.0000 </r>
       <r>   13.6491    0.0000 </r>
       <r>   15.1297    0.0000 </r>
       <r>   15.1297    0.0000 </r>
       <r>   23.7991    0.0000 </r>
       <r>   25.8167    0.0000 </r>
       <r>   25.8243    0.0000 </r>
       <r>   30.3476    0.0000 </r>
       <r>   40.8509    0.0000 </r>
       <r>   40.8509    0.0000 </r>
       <r>   41.4835    0.0000 </r>
       <r>   42.5437    0.0000 </r>
       <r>   46.0263    0.0000 </r>
       <r>   46.0263    0.0000 </r>
       <r>   46.0458    0.0000 </r>
       <r>   52.2261    0.0000 </r>
       <r>   53.7296    0.0000 </r>
       <r>   54.5711    0.0000 </r>
       <r>   54.5712    0.0000 </r>
       <r>   56.1177    0.0000 </r>
       <r>   56.1177    0.0000 </r>
       <r>   56.7639    0.0000 </r>
       <r>   58.1044    0.0000 </r>
       <r>   59.7380    0.0000 </r>
       <r>   61.0884    0.0000 </r>
       <r>   61.0884    0.0000 </r>
       <r>   62.2702    0.0000 </r>
       <r>   63.1211    0.0000 </r>
       <r>   64.8976    0.0000 </r>
       <r>   64.8976    0.0000 </r>
       <r>   68.3620    0.0000 </r>
       <r>   94.2242    0.0000 </r>
       <r>   94.2251    0.0000 </r>
      </set>
     </set>
    </set>
   </array>
  </eigenvalues>
  <separator name="orbital magnetization" >
   <v name="MAGDIPOLOUT">      0.00000000      0.00000000      0.00000000</v>
  </separator>
  <dos>
   <i name="efermi">      4.85324902 </i>
   <total>
    <array>
     <dimension dim="1">gridpoints</dimension>
     <dimension dim="2">spin</dimension>
     <field>energy</field>
     <field>total</field>
     <field>integrated</field>
     <set>
      <set comment="spin 1">
       <r>   -32.0464     0.0000     0.0000 </r>
       <r>   -31.6054     0.0000     0.0000 </r>
       <r>   -31.1645     0.0000     0.0000 </r>
       <r>   -30.7235     0.0000     0.0000 </r>
       <r>   -30.2826     0.0000     0.0000 </r>
       <r>   -29.8416     0.0000     0.0000 </r>
       <r>   -29.4007     0.0000     0.0000 </r>
       <r>   -28.9598     0.0000     0.0000 </r>
       <r>   -28.5188     0.0000     0.0000 </r>
       <r>   -28.0779     0.0000     0.0000 </r>
       <r>   -27.6369     0.0000     0.0000 </r>
       <r>   -27.1960     0.0000     0.0000 </r>
       <r>   -26.7550     0.0000     0.0000 </r>
       <r>   -26.3141     0.0000     0.0000 </r>
       <r>   -25.8731     4.0892     0.3446 </r>
       <r>   -25.4322     3.1892     2.0713 </r>
       <r>   -24.9912     4.3996     4.0887 </r>
       <r>   -24.5503     0.0000     6.0000 </r>
       <r>   -24.1093     0.0000     6.0000 </r>
       <r>   -23.6684     0.0000     6.0000 </r>
       <r>   -23.2274     0.0000     6.0000 </r>
       <r>   -22.7865     0.0000     6.0000 </r>
       <r>   -22.3455     0.0000     6.0000 </r>
       <r>   -21.9046     0.0000     6.0000 </r>
       <r>   -21.4636     0.0000     6.0000 </r>
       <r>   -21.0227     0.0000     6.0000 </r>
       <r>   -20.5817     0.0000     6.0000 </r>
       <r>   -20.1408     0.0000     6.0000 </r>
       <r>   -19.6998     0.0000     6.0000 </r>
       <r>   -19.2589     0.0000     6.0000 </r>
       <r>   -18.8179     0.0000     6.0000 </r>
       <r>   -18.3770     0.0000     6.0000 </r>
       <r>   -17.9360     0.0000     6.0000 </r>
       <r>   -17.4951     0.0000     6.0000 </r>
       <r>   -17.0542     0.0000     6.0000 </r>
       <r>   -16.6132     0.0000     6.0000 </r>
       <r>   -16.1723     0.0000     6.0000 </r>
       <r>   -15.7313     0.0000     6.0000 </r>
       <r>   -15.2904     0.0000     6.0000 </r>
       <r>   -14.8494     0.0000     6.0000 </r>
       <r>   -14.4085     0.0000     6.0000 </r>
       <r>   -13.9675     0.0000     6.0000 </r>
       <r>   -13.5266     0.0000     6.0000 </r>
       <r>   -13.0856     0.0000     6.0000 </r>
       <r>   -12.6447     0.0000     6.0000 </r>
       <r>   -12.2037     0.0000     6.0000 </r>
       <r>   -11.7628     0.0000     6.0000 </r>
       <r>   -11.3218     0.0000     6.0000 </r>
       <r>   -10.8809     0.0000     6.0000 </r>
       <r>   -10.4399     0.0000     6.0000 </r>
       <r>    -9.9990     0.0000     6.0000 </r>
       <r>    -9.5580     0.0000     6.0000 </r>
       <r>    -9.1171     0.0000     6.0000 </r>
       <r>    -8.6761     0.0000     6.0000 </r>
       <r>    -8.2352     0.0000     6.0000 </r>
       <r>    -7.7942     0.0000     6.0000 </r>
       <r>    -7.3533     0.0000     6.0000 </r>
       <r>    -6.9123     0.0000     6.0000 </r>
       <r>    -6.4714     0.0000     6.0000 </r>
       <r>    -6.0304     0.0000     6.0000 </r>
       <r>    -5.5895     0.0000     6.0000 </r>
       <r>    -5.1486     0.0000     6.0000 </r>
       <r>    -4.7076     0.0000     6.0000 </r>
       <r>    -4.2667     0.0000     6.0000 </r>
       <r>    -3.8257     0.0000     6.0000 </r>
       <r>    -3.3848     0.0000     6.0000 </r>
       <r>    -2.9438     0.0000     6.0000 </r>
       <r>    -2.5029     0.0000     6.0000 </r>
       <r>    -2.0619     0.0000     6.0000 </r>
       <r>    -1.6210     0.0000     6.0000 </r>
       <r>    -1.1800     0.0000     6.0000 </r>
       <r>    -0.7391     0.0290     6.0038 </r>
       <r>    -0.2981     0.0669     6.0244 </r>
       <r>     0.1428     0.0944     6.0595 </r>
       <r>     0.5838     0.1386     6.1101 </r>
       <r>     1.0247     0.2192     6.1872 </r>
       <r>     1.4657     0.9655     6.4337 </r>
       <r>     1.9066     1.2793     6.9380 </r>
       <r>     2.3476     1.7529     7.6127 </r>
       <r>     2.7885     0.6261     8.1037 </r>
       <r>     3.2295     1.7878     8.3235 </r>
       <r>     3.6704     1.6454     9.3328 </r>
       <r>     4.1114     0.7980     9.7804 </r>
       <r>     4.5523     2.3776    10.3538 </r>
       <r>     4.9933     1.4125    11.2224 </r>
       <r>     5.4342     0.5568    11.5844 </r>
       <r>     5.8752     0.5172    11.7903 </r>
       <r>     6.3161     0.4645    11.9863 </r>
       <r>     6.7570     0.7008    12.2258 </r>
       <r>     7.1980     1.2392    12.6453 </r>
       <r>     7.6389     1.3789    13.2254 </r>
       <r>     8.0799     1.5552    13.8754 </r>
       <r>     8.5208     1.2873    14.4446 </r>
       <r>     8.9618     1.7898    15.3592 </r>
       <r>     9.4027     0.8919    15.9376 </r>
       <r>     9.8437     0.6872    16.2731 </r>
       <r>    10.2846     0.7607    16.5842 </r>
       <r>    10.7256     0.3052    16.7603 </r>
       <r>    11.1665     0.3852    16.9189 </r>
       <r>    11.6075     0.3597    17.0845 </r>
       <r>    12.0484     0.3259    17.2357 </r>
       <r>    12.4894     0.3208    17.3781 </r>
       <r>    12.9303     0.3011    17.5158 </r>
       <r>    13.3713     0.2949    17.6483 </r>
       <r>    13.8122     0.2626    17.7738 </r>
       <r>    14.2532     0.2158    17.8794 </r>
       <r>    14.6941     0.1639    17.9626 </r>
       <r>    15.1351     0.0486    18.0057 </r>
       <r>    15.5760     0.2353    18.0752 </r>
       <r>    16.0170     0.4117    18.2142 </r>
       <r>    16.4579     0.5734    18.4781 </r>
       <r>    16.8989     0.5987    18.7331 </r>
       <r>    17.3398     0.7212    18.9993 </r>
       <r>    17.7808     0.6932    19.2854 </r>
       <r>    18.2217     0.8948    19.6365 </r>
       <r>    18.6626     0.8085    20.0355 </r>
       <r>    19.1036     0.8120    20.4020 </r>
       <r>    19.5445     0.7676    20.7570 </r>
       <r>    19.9855     0.6453    21.0688 </r>
       <r>    20.4264     0.5747    21.3356 </r>
       <r>    20.8674     0.7473    21.6161 </r>
       <r>    21.3083     0.6080    21.9477 </r>
       <r>    21.7493     0.8929    22.2702 </r>
       <r>    22.1902     0.8229    22.6443 </r>
       <r>    22.6312     0.7080    23.0188 </r>
       <r>    23.0721     0.5539    23.2897 </r>
       <r>    23.5131     0.4876    23.5153 </r>
       <r>    23.9540     0.4997    23.7399 </r>
       <r>    24.3950     0.4858    23.9545 </r>
       <r>    24.8359     0.7179    24.1864 </r>
       <r>    25.2769     0.9439    24.6441 </r>
       <r>    25.7178     0.6781    24.9884 </r>
       <r>    26.1588     0.5591    25.2616 </r>
       <r>    26.5997     0.4987    25.4937 </r>
       <r>    27.0407     0.4689    25.7058 </r>
       <r>    27.4816     0.4963    25.9159 </r>
       <r>    27.9226     0.3877    26.1363 </r>
       <r>    28.3635     0.5904    26.3275 </r>
       <r>    28.8045     0.9097    26.6563 </r>
       <r>    29.2454     1.0340    27.1127 </r>
       <r>    29.6864     0.8128    27.5219 </r>
       <r>    30.1273     0.6705    27.8480 </r>
       <r>    30.5682     0.5504    28.1142 </r>
       <r>    31.0092     0.5083    28.3421 </r>
       <r>    31.4501     0.6059    28.5843 </r>
       <r>    31.8911     0.7026    28.8691 </r>
       <r>    32.3320     0.8687    29.2153 </r>
       <r>    32.7730     0.9075    29.6195 </r>
       <r>    33.2139     0.9218    30.0029 </r>
       <r>    33.6549     1.0482    30.4636 </r>
       <r>    34.0958     0.8997    30.8823 </r>
       <r>    34.5368     0.7485    31.2860 </r>
       <r>    34.9777     0.6237    31.5868 </r>
       <r>    35.4187     0.4852    31.8403 </r>
       <r>    35.8596     0.4081    32.0342 </r>
       <r>    36.3006     0.5581    32.2386 </r>
       <r>    36.7415     0.7887    32.5414 </r>
       <r>    37.1825     1.0934    32.9393 </r>
       <r>    37.6234     1.0712    33.4363 </r>
       <r>    38.0644     0.9946    33.9006 </r>
       <r>    38.5053     0.8092    34.2947 </r>
       <r>    38.9463     0.8107    34.6397 </r>
       <r>    39.3872     0.9041    35.0255 </r>
       <r>    39.8282     0.7693    35.3976 </r>
       <r>    40.2691     0.5775    35.6938 </r>
       <r>    40.7101     0.7850    35.9753 </r>
       <r>    41.1510     0.8087    36.3100 </r>
       <r>    41.5920     2.0959    36.8876 </r>
       <r>    42.0329     1.8746    37.8011 </r>
       <r>    42.4738     2.0745    38.8827 </r>
       <r>    42.9148     1.2525    39.5742 </r>
       <r>    43.3557     0.9932    40.0553 </r>
       <r>    43.7967     1.3864    40.5788 </r>
       <r>    44.2376     1.4093    41.2067 </r>
       <r>    44.6786     0.9598    41.7169 </r>
       <r>    45.1195     0.7193    42.0729 </r>
       <r>    45.5605     0.8264    42.4009 </r>
       <r>    46.0014     0.7368    42.7661 </r>
       <r>    46.4424     0.6829    43.0732 </r>
       <r>    46.8833     0.7143    43.3816 </r>
       <r>    47.3243     0.6891    43.7053 </r>
       <r>    47.7652     0.8089    44.0369 </r>
       <r>    48.2062     0.7917    44.3971 </r>
       <r>    48.6471     0.7398    44.7352 </r>
       <r>    49.0881     0.6067    45.0308 </r>
       <r>    49.5290     0.6669    45.3215 </r>
       <r>    49.9700     0.8103    45.6461 </r>
       <r>    50.4109     1.3772    46.0777 </r>
       <r>    50.8519     0.8996    46.5480 </r>
       <r>    51.2928     1.0505    46.9678 </r>
       <r>    51.7338     0.9854    47.4173 </r>
       <r>    52.1747     0.7821    47.8350 </r>
       <r>    52.6157     0.7394    48.1584 </r>
       <r>    53.0566     0.9121    48.5190 </r>
       <r>    53.4976     1.0272    48.9426 </r>
       <r>    53.9385     1.0637    49.4222 </r>
       <r>    54.3794     0.8566    49.8402 </r>
       <r>    54.8204     0.8024    50.2017 </r>
       <r>    55.2613     0.8527    50.5832 </r>
       <r>    55.7023     1.1228    51.0128 </r>
       <r>    56.1432     0.9323    51.4563 </r>
       <r>    56.5842     0.9444    51.9151 </r>
       <r>    57.0251     0.7646    52.2765 </r>
       <r>    57.4661     0.8648    52.6353 </r>
       <r>    57.9070     1.0143    53.0514 </r>
       <r>    58.3480     1.1073    53.5262 </r>
       <r>    58.7889     1.1760    54.0316 </r>
       <r>    59.2299     1.1654    54.5372 </r>
       <r>    59.6708     1.0476    55.0406 </r>
       <r>    60.1118     0.9952    55.4822 </r>
       <r>    60.5527     1.0496    55.9465 </r>
       <r>    60.9937     1.0255    56.4090 </r>
       <r>    61.4346     0.9976    56.8506 </r>
       <r>    61.8756     1.2459    57.3261 </r>
       <r>    62.3165     1.1556    57.9385 </r>
       <r>    62.7575     0.4873    58.3015 </r>
       <r>    63.1984     0.7095    58.5192 </r>
       <r>    63.6394     1.1147    58.9330 </r>
       <r>    64.0803     1.0981    59.4224 </r>
       <r>    64.5213     0.8250    59.8650 </r>
       <r>    64.9622     0.6284    60.1751 </r>
       <r>    65.4032     0.6474    60.4511 </r>
       <r>    65.8441     0.9703    60.8075 </r>
       <r>    66.2850     1.1155    61.2717 </r>
       <r>    66.7260     1.4319    61.8081 </r>
       <r>    67.1669     1.0676    62.3585 </r>
       <r>    67.6079     1.1263    62.8215 </r>
       <r>    68.0488     1.4130    63.3914 </r>
       <r>    68.4898     1.2079    63.9900 </r>
       <r>    68.9307     0.9724    64.4725 </r>
       <r>    69.3717     0.8683    64.8830 </r>
       <r>    69.8126     0.8576    65.2337 </r>
       <r>    70.2536     0.7908    65.5756 </r>
       <r>    70.6945     0.8637    65.9378 </r>
       <r>    71.1355     0.9081    66.3291 </r>
       <r>    71.5764     0.8650    66.7211 </r>
       <r>    72.0174     1.0553    67.1609 </r>
       <r>    72.4583     1.0577    67.6070 </r>
       <r>    72.8993     1.2443    68.1289 </r>
       <r>    73.3402     1.1559    68.6374 </r>
       <r>    73.7812     1.0636    69.1494 </r>
       <r>    74.2221     1.1437    69.6477 </r>
       <r>    74.6631     1.2305    70.1663 </r>
       <r>    75.1040     1.1842    70.6822 </r>
       <r>    75.5450     1.3119    71.2270 </r>
       <r>    75.9859     1.0501    71.7637 </r>
       <r>    76.4269     0.9497    72.1993 </r>
       <r>    76.8678     0.9330    72.6152 </r>
       <r>    77.3087     1.0857    73.0554 </r>
       <r>    77.7497     1.2251    73.6030 </r>
       <r>    78.1906     1.0110    74.0951 </r>
       <r>    78.6316     0.8231    74.4953 </r>
       <r>    79.0725     0.7757    74.8474 </r>
       <r>    79.5135     0.7966    75.1861 </r>
       <r>    79.9544     0.8497    75.5644 </r>
       <r>    80.3954     0.9435    75.9687 </r>
       <r>    80.8363     1.0978    76.4111 </r>
       <r>    81.2773     1.2498    76.9413 </r>
       <r>    81.7182     1.1539    77.4677 </r>
       <r>    82.1592     1.2245    78.0213 </r>
       <r>    82.6001     1.2713    78.5443 </r>
       <r>    83.0411     0.8913    79.0482 </r>
       <r>    83.4820     0.5365    79.3540 </r>
       <r>    83.9230     0.3472    79.5441 </r>
       <r>    84.3639     0.2314    79.6672 </r>
       <r>    84.8049     0.1843    79.7591 </r>
       <r>    85.2458     0.1144    79.8284 </r>
       <r>    85.6868     0.0758    79.8674 </r>
       <r>    86.1277     0.0580    79.8967 </r>
       <r>    86.5687     0.0434    79.9190 </r>
       <r>    87.0096     0.0305    79.9352 </r>
       <r>    87.4506     0.0190    79.9461 </r>
       <r>    87.8915     0.0113    79.9523 </r>
       <r>    88.3325     0.0106    79.9571 </r>
       <r>    88.7734     0.0099    79.9616 </r>
       <r>    89.2143     0.0092    79.9658 </r>
       <r>    89.6553     0.0086    79.9697 </r>
       <r>    90.0962     0.0080    79.9734 </r>
       <r>    90.5372     0.0074    79.9768 </r>
       <r>    90.9781     0.0068    79.9799 </r>
       <r>    91.4191     0.0063    79.9828 </r>
       <r>    91.8600     0.0057    79.9854 </r>
       <r>    92.3010     0.0052    79.9879 </r>
       <r>    92.7419     0.0048    79.9901 </r>
       <r>    93.1829     0.0043    79.9921 </r>
       <r>    93.6238     0.0060    79.9940 </r>
       <r>    94.0648     0.0082    79.9974 </r>
       <r>    94.5057     0.0000    80.0000 </r>
       <r>    94.9467     0.0000    80.0000 </r>
       <r>    95.3876     0.0000    80.0000 </r>
       <r>    95.8286     0.0000    80.0000 </r>
       <r>    96.2695     0.0000    80.0000 </r>
       <r>    96.7105     0.0000    80.0000 </r>
       <r>    97.1514     0.0000    80.0000 </r>
       <r>    97.5924     0.0000    80.0000 </r>
       <r>    98.0333     0.0000    80.0000 </r>
       <r>    98.4743     0.0000    80.0000 </r>
       <r>    98.9152     0.0000    80.0000 </r>
       <r>    99.3562     0.0000    80.0000 </r>
       <r>    99.7971     0.0000    80.0000 </r>
       <r>   100.2381     0.0000    80.0000 </r>
      </set>
     </set>
    </array>
   </total>
  </dos>
 </calculation>
 <structure name="finalpos" >
  <crystal>
   <varray name="basis" >
    <v>      -1.65040000       1.65040000       1.65040000 </v>
    <v>       1.65040000      -1.65040000       1.65040000 </v>
    <v>       1.65040000       1.65040000      -1.65040000 </v>
   </varray>
   <i name="volume">     17.98157117 </i>
   <varray name="rec_basis" >
    <v>       0.00000000       0.30295686       0.30295686 </v>
    <v>       0.30295686       0.00000000       0.30295686 </v>
    <v>       0.30295686       0.30295686       0.00000000 </v>
   </varray>
  </crystal>
  <varray name="positions" >
   <v>       0.00000000       0.00000000       0.00000000 </v>
  </varray>
 </structure>
</modeling>
