 running on   40 total cores
 distrk:  each k-point on   40 cores,    1 groups
 distr:  one band on    1 cores,   40 groups
 using from now: INCAR     
 vasp.5.4.4.18Apr17-6-g9f103f2a35 (build May 20 2018 16:52:39) complex          
  
 POSCAR found type information on POSCAR  Nb
 POSCAR found :  1 types and       1 ions
 scaLAPACK will be used

 ----------------------------------------------------------------------------- 
|                                                                             |
|           W    W    AA    RRRRR   N    N  II  N    N   GGGG   !!!           |
|           W    W   A  A   R    R  NN   N  II  NN   N  G    G  !!!           |
|           W    W  A    A  R    R  N N  N  II  N N  N  G       !!!           |
|           W WW W  AAAAAA  RRRRR   N  N N  II  N  N N  G  GGG   !            |
|           WW  WW  A    A  R   R   N   NN  II  N   NN  G    G                |
|           W    W  A    A  R    R  N    N  II  N    N   GGGG   !!!           |
|                                                                             |
|      For optimal performance we recommend to set                            |
|        NCORE= 4 - approx SQRT( number of cores)                             |
|      NCORE specifies how many cores store one orbital (NPAR=cpu/NCORE).     |
|      This setting can  greatly improve the performance of VASP for DFT.     |
|      The default,   NCORE=1            might be grossly inefficient         |
|      on modern multi-core architectures or massively parallel machines.     |
|      Do your own testing !!!!                                               |
|      Unfortunately you need to use the default for GW and RPA calculations. |
|      (for HF NCORE is supported but not extensively tested yet)             |
|                                                                             |
 ----------------------------------------------------------------------------- 

 LDA part: xc-table for Ceperly-Alder, standard interpolation
 POSCAR, INCAR and KPOINTS ok, starting setup
 FFT: planning ...
 WAVECAR not read
 entering main loop
       N       E                     dE             d eps       ncg     rms          rms(c)
DAV:   1    -0.105745626909E+02   -0.10575E+02   -0.55315E+03  4840   0.183E+02
DAV:   2    -0.116962291064E+02   -0.11217E+01   -0.10947E+01  3760   0.950E+00
DAV:   3    -0.116965239584E+02   -0.29485E-03   -0.29537E-03  6160   0.149E-01
DAV:   4    -0.116965239591E+02   -0.73169E-09   -0.86005E-09  3960   0.168E-04
DAV:   5    -0.116965239589E+02    0.23101E-09   -0.13303E-12  5880   0.109E-06    0.182E+01
DAV:   6    -0.112584009330E+02    0.43812E+00   -0.67227E-01  4120   0.237E+00    0.818E+00
DAV:   7    -0.111562120193E+02    0.10219E+00   -0.34149E-01  4280   0.158E+00    0.660E-01
DAV:   8    -0.111529672872E+02    0.32447E-02   -0.50929E-03  3800   0.231E-01    0.601E-02
DAV:   9    -0.111529261957E+02    0.41092E-04   -0.80572E-05  4640   0.297E-02    0.905E-03
DAV:  10    -0.111529245304E+02    0.16653E-05   -0.16632E-06  4280   0.353E-03    0.207E-03
DAV:  11    -0.111529244282E+02    0.10212E-06   -0.16636E-08  3680   0.418E-04    0.121E-03
DAV:  12    -0.111529244217E+02    0.64999E-08   -0.14247E-08  2360   0.449E-04
   1 F= -.11152924E+02 E0= -.11152924E+02  d E =0.000000E+00
 writing wavefunctions
