GaAs                                    
   5.65000000000000     
     0.500000    0.500000    0.000000
     0.000000    0.500000    0.500000
     0.500000    0.000000    0.500000
   Ga   As
     1     1
Direct
  0.000000  0.000000  0.000000
  0.250000  0.250000  0.250000
 
   32   32   32
 0.73940515970E+03 0.69722775571E+03 0.58360177102E+03 0.43089078437E+03 0.27669439866E+03
 0.15087556784E+03 0.68566288644E+02 0.28582594303E+02 0.16351476958E+02 0.12675339901E+02
 0.10459234109E+02 0.90505113109E+01 0.81826215735E+01 0.77040090828E+01 0.73915086681E+01
 0.71332682896E+01 0.70195684045E+01 0.71331813004E+01 0.73914371353E+01 0.77040437867E+01
 0.81827318997E+01 0.90505602776E+01 0.10459121690E+02 0.12675141646E+02 0.16351435720E+02
 0.28582941766E+02 0.68567035826E+02 0.15087644983E+03 0.27669503998E+03 0.43089096750E+03
 0.58360159100E+03 0.69722752969E+03 0.69722775571E+03 0.61924190628E+03 0.48645109494E+03
 0.33476484048E+03 0.19821947024E+03 0.98759914728E+02 0.42463712753E+02 0.20654639752E+02
 0.15234528457E+02 0.12655796255E+02 0.11046229023E+02 0.10003473045E+02 0.94487708671E+01
 0.91682025002E+01 0.89112148761E+01 0.87109080152E+01 0.87290502686E+01 0.89224948127E+01
 0.91409218454E+01 0.94415947471E+01 0.10042306237E+02 0.11054903903E+02 0.12607504152E+02
 0.15221991750E+02 0.20713410511E+02 0.42494285808E+02 0.98722654524E+02 0.19821378102E+03
 0.33480585804E+03 0.48638741274E+03 0.61903852194E+03 0.69710685856E+03 0.58360177102E+03
 0.48645109494E+03 0.35634934663E+03 0.22627259654E+03 0.12220384294E+03 0.56373050296E+02
 0.26164477120E+02 0.17622730545E+02 0.14690461360E+02 0.13035696388E+02 0.11988347211E+02
 0.11342069370E+02 0.11055786020E+02 0.10907190983E+02 0.10728342348E+02 0.10628964465E+02
 0.10728220948E+02 0.10907051735E+02 0.11055738382E+02 0.11342123155E+02 0.11988409054E+02
 0.13035660822E+02 0.14690331977E+02 0.17622624601E+02 0.26164539740E+02 0.56373288247E+02
 0.12220411307E+03 0.22627267338E+03 0.35634914052E+03 0.48645071838E+03 0.58360147338E+03
 0.61968918971E+03 0.43089078437E+03 0.33476484048E+03 0.22627259654E+03 0.13102410645E+03
 0.64989613165E+02 0.30926753928E+02 0.19692522420E+02 0.16469698926E+02 0.14742300048E+02
 0.13827624485E+02 0.13300625309E+02 0.13042512025E+02 0.12965280239E+02 0.12916860591E+02
 0.12844363051E+02 0.12831727008E+02 0.12908811363E+02 0.12983995705E+02 0.13047436829E+02
 0.13273270600E+02 0.13821274006E+02 0.14777010790E+02 0.16478545538E+02 0.19644658294E+02
 0.30894918143E+02 0.65020088813E+02 0.13105764901E+03 0.22627484533E+03 0.33480568891E+03
 0.43099775619E+03 0.48779087322E+03 0.48772753254E+03 0.27669439866E+03 0.19821947024E+03
 0.12220384294E+03 0.64989613165E+02 0.32776391269E+02 0.20915698109E+02 0.17707384551E+02
 0.16083417571E+02 0.15325742081E+02 0.15013654653E+02 0.14951858752E+02 0.15027962561E+02
 0.15124359193E+02 0.15173846107E+02 0.15184366317E+02 0.15173882580E+02 0.15124392768E+02
 0.15027961314E+02 0.14951847039E+02 0.15013697185E+02 0.15325881472E+02 0.16083603475E+02
 0.17707506774E+02 0.20915660624E+02 0.32776227311E+02 0.64989472480E+02 0.12220389309E+03
 0.19821978812E+03 0.27669483772E+03 0.33620652433E+03 0.35845019101E+03 0.33620621368E+03
 0.15087556784E+03 0.98759914728E+02 0.56373050296E+02 0.30926753928E+02 0.20915698109E+02
 0.18115522317E+02 0.16788382770E+02 0.16329821101E+02 0.16320019114E+02 0.16531667146E+02
 0.16863160609E+02 0.17203997696E+02 0.17450681616E+02 0.17568274708E+02 0.17572405864E+02
 0.17452858963E+02 0.17197477482E+02 0.16863032559E+02 0.16542762180E+02 0.16320692438E+02
 0.16315264818E+02 0.16790774075E+02 0.18148095310E+02 0.20936029237E+02 0.30894949014E+02
 0.56312758227E+02 0.98722319353E+02 0.15087211835E+03 0.19889629812E+03 0.22776673941E+03
 0.22776406592E+03 0.19888924354E+03 0.68566288644E+02 0.42463712753E+02 0.26164477120E+02
 0.19692522420E+02 0.17707384551E+02 0.16788382770E+02 0.16660331398E+02 0.17013486954E+02
 0.17598513418E+02 0.18267256049E+02 0.18913030068E+02 0.19407464904E+02 0.19691485931E+02
 0.19780771144E+02 0.19691643317E+02 0.19407654537E+02 0.18913115561E+02 0.18267210743E+02
 0.17598445940E+02 0.17013529354E+02 0.16660539927E+02 0.16788666019E+02 0.17707609188E+02
 0.19692641206E+02 0.26164557147E+02 0.42463945548E+02 0.68566701993E+02 0.98302579358E+02
 0.12200695464E+03 0.13105259800E+03 0.12200662638E+03 0.98302091999E+02 0.28582594303E+02
 0.20654639752E+02 0.17622730545E+02 0.16469698926E+02 0.16083417571E+02 0.16329821101E+02
 0.17013486954E+02 0.17963581210E+02 0.19029626326E+02 0.20045861966E+02 0.20812305920E+02
 0.21277252355E+02 0.21489198360E+02 0.21491278403E+02 0.21279748569E+02 0.20810438975E+02
 0.20042370771E+02 0.19030642298E+02 0.17967613732E+02 0.17010669282E+02 0.16315117067E+02
 0.16068735360E+02 0.16478695708E+02 0.17667326638E+02 0.20713393036E+02 0.28610121800E+02
 0.41119467692E+02 0.54294964376E+02 0.62773084749E+02 0.62803811292E+02 0.54355586083E+02
 0.41149593652E+02 0.16351476958E+02 0.15234528457E+02 0.14690461360E+02 0.14742300048E+02
 0.15325742081E+02 0.16320019114E+02 0.17598513418E+02 0.19029626326E+02 0.20435229913E+02
 0.21539550093E+02 0.22237714470E+02 0.22590249574E+02 0.22693819079E+02 0.22590334062E+02
 0.22237851982E+02 0.21539687211E+02 0.20435307920E+02 0.19029616777E+02 0.17598428965E+02
 0.16319909678E+02 0.15325657417E+02 0.14742290336E+02 0.14690465567E+02 0.15234528390E+02
 0.16351409564E+02 0.18833747009E+02 0.22889211655E+02 0.26807789867E+02 0.28431377883E+02
 0.26807924509E+02 0.22889423176E+02 0.18833929279E+02 0.12675339901E+02 0.12655796255E+02
 0.13035696388E+02 0.13827624485E+02 0.15013654653E+02 0.16531667146E+02 0.18267256049E+02
 0.20045861966E+02 0.21539550093E+02 0.22552561082E+02 0.23113804740E+02 0.23345353099E+02
 0.23343548941E+02 0.23112469355E+02 0.22555414921E+02 0.21541408317E+02 0.20042479651E+02
 0.18266587369E+02 0.16542775877E+02 0.15027371509E+02 0.13821075264E+02 0.12999136356E+02
 0.12607624230E+02 0.12647686494E+02 0.13053992116E+02 0.13678398420E+02 0.14405776918E+02
 0.14974414952E+02 0.14954031772E+02 0.14357852828E+02 0.13633941500E+02 0.13041773378E+02
 0.10459234109E+02 0.11046229023E+02 0.11988347211E+02 0.13300625309E+02 0.14951858752E+02
 0.16863160609E+02 0.18913030068E+02 0.20812305920E+02 0.22237714470E+02 0.23113804740E+02
 0.23543095936E+02 0.23665720967E+02 0.23543069061E+02 0.23113814544E+02 0.22237828652E+02
 0.20812529498E+02 0.18913287838E+02 0.16863358585E+02 0.14951931074E+02 0.13300603411E+02
 0.11988284244E+02 0.11046193340E+02 0.10459239182E+02 0.10185081333E+02 0.10164942747E+02
 0.10308660862E+02 0.10485226418E+02 0.10563072015E+02 0.10485315426E+02 0.10308785912E+02
 0.10165042236E+02 0.10185107021E+02 0.90505113109E+01 0.10003473045E+02 0.11342069370E+02
 0.13042512025E+02 0.15027962561E+02 0.17203997696E+02 0.19407464904E+02 0.21277252355E+02
 0.22590249574E+02 0.23345353099E+02 0.23665720967E+02 0.23664240824E+02 0.23343487398E+02
 0.22591357866E+02 0.21279682977E+02 0.19406353150E+02 0.17197648508E+02 0.15021685568E+02
 0.13047582027E+02 0.11367527359E+02 0.10042248859E+02 0.90767654706E+01 0.84233956787E+01
 0.80175409490E+01 0.78002526302E+01 0.77105196009E+01 0.76852758801E+01 0.76874383176E+01
 0.77254701423E+01 0.78349688351E+01 0.80539830860E+01 0.84320197133E+01 0.81826215735E+01
 0.94487708671E+01 0.11055786020E+02 0.12965280239E+02 0.15124359193E+02 0.17450681616E+02
 0.19691485931E+02 0.21489198360E+02 0.22693819079E+02 0.23343548941E+02 0.23543069061E+02
 0.23343487398E+02 0.22693736822E+02 0.21489154297E+02 0.19691522334E+02 0.17450796625E+02
 0.15124512971E+02 0.12965423804E+02 0.11055871854E+02 0.94488143399E+01 0.81826719244E+01
 0.72593195112E+01 0.66296863316E+01 0.62175283170E+01 0.59578314972E+01 0.58130689383E+01
 0.57663788887E+01 0.58129356831E+01 0.59576198284E+01 0.62173091443E+01 0.66295266867E+01
 0.72592258084E+01 0.77040090828E+01 0.91682025002E+01 0.10907190983E+02 0.12916860591E+02
 0.15173846107E+02 0.17568274708E+02 0.19780771144E+02 0.21491278403E+02 0.22590334062E+02
 0.23112469355E+02 0.23113814544E+02 0.22591357866E+02 0.21489154297E+02 0.19779552253E+02
 0.17572242340E+02 0.15177501682E+02 0.12908878083E+02 0.10884312879E+02 0.91409863996E+01
 0.76889593774E+01 0.65433471352E+01 0.57091544321E+01 0.51482599013E+01 0.47858612509E+01
 0.45586666367E+01 0.44458010835E+01 0.44484971753E+01 0.45590822711E+01 0.47718236258E+01
 0.51206517122E+01 0.56835862519E+01 0.65360874037E+01 0.73915086681E+01 0.89112148761E+01
 0.10728342348E+02 0.12844363051E+02 0.15184366317E+02 0.17572405864E+02 0.19691643317E+02
 0.21279748569E+02 0.22237851982E+02 0.22555414921E+02 0.22237828652E+02 0.21279682977E+02
 0.19691522334E+02 0.17572242340E+02 0.15184199709E+02 0.12844238076E+02 0.10728255434E+02
 0.89111465457E+01 0.73914226179E+01 0.61463999967E+01 0.51698574716E+01 0.44586698826E+01
 0.39817567918E+01 0.36828468453E+01 0.35147936403E+01 0.34593897574E+01 0.35147451191E+01
 0.36827955517E+01 0.39817629941E+01 0.44587525726E+01 0.51699942996E+01 0.61465270651E+01
 0.71332682896E+01 0.87109080152E+01 0.10628964465E+02 0.12831727008E+02 0.15173882580E+02
 0.17452858963E+02 0.19407654537E+02 0.20810438975E+02 0.21539687211E+02 0.21541408317E+02
 0.20812529498E+02 0.19406353150E+02 0.17450796625E+02 0.15177501682E+02 0.12844238076E+02
 0.10647996051E+02 0.87291000850E+01 0.71399089077E+01 0.58575093109E+01 0.48366617816E+01
 0.40479162903E+01 0.34729588290E+01 0.30862102222E+01 0.28544666703E+01 0.27484081489E+01
 0.27494728313E+01 0.28552114582E+01 0.30861317292E+01 0.34796654647E+01 0.40670251931E+01
 0.48598241944E+01 0.58690483526E+01 0.70195684045E+01 0.87290502686E+01 0.10728220948E+02
 0.12908811363E+02 0.15124392768E+02 0.17197477482E+02 0.18913115561E+02 0.20042370771E+02
 0.20435307920E+02 0.20042479651E+02 0.18913287838E+02 0.17197648508E+02 0.15124512971E+02
 0.12908878083E+02 0.10728255434E+02 0.87291000850E+01 0.70196505362E+01 0.56455821059E+01
 0.45824543167E+01 0.37687009095E+01 0.31516318814E+01 0.27040125107E+01 0.24092765845E+01
 0.22468576668E+01 0.21957568302E+01 0.22469619861E+01 0.24094448637E+01 0.27041820529E+01
 0.31517470269E+01 0.37687284880E+01 0.45824121075E+01 0.56454992177E+01 0.71331813004E+01
 0.89224948127E+01 0.10907051735E+02 0.12983995705E+02 0.15027961314E+02 0.16863032559E+02
 0.18267210743E+02 0.19030642298E+02 0.19029616777E+02 0.18266587369E+02 0.16863358585E+02
 0.15021685568E+02 0.12965423804E+02 0.10884312879E+02 0.89111465457E+01 0.71399089077E+01
 0.56455821059E+01 0.44689541161E+01 0.35903056224E+01 0.29429747295E+01 0.24637863271E+01
 0.21236500830E+01 0.19119672848E+01 0.18129449378E+01 0.18113933120E+01 0.19102098560E+01
 0.21251381994E+01 0.24657666322E+01 0.29390851438E+01 0.35774508826E+01 0.44496134836E+01
 0.56272109465E+01 0.73914371353E+01 0.91409218454E+01 0.11055738382E+02 0.13047436829E+02
 0.14951847039E+02 0.16542762180E+02 0.17598445940E+02 0.17967613732E+02 0.17598428965E+02
 0.16542775877E+02 0.14951931074E+02 0.13047582027E+02 0.11055871854E+02 0.91409863996E+01
 0.73914226179E+01 0.58575093109E+01 0.45824543167E+01 0.35903056224E+01 0.28606942263E+01
 0.23370057202E+01 0.19637905975E+01 0.17106057754E+01 0.15647799340E+01 0.15176275246E+01
 0.15648306579E+01 0.17106382327E+01 0.19637273570E+01 0.23368347574E+01 0.28604893707E+01
 0.35901601697E+01 0.45824260643E+01 0.58575495277E+01 0.77040437867E+01 0.94415947471E+01
 0.11342123155E+02 0.13273270600E+02 0.15013697185E+02 0.16320692438E+02 0.17013529354E+02
 0.17010669282E+02 0.16319909678E+02 0.15027371509E+02 0.13300603411E+02 0.11367527359E+02
 0.94488143399E+01 0.76889593774E+01 0.61463999967E+01 0.48366617816E+01 0.37687009095E+01
 0.29429747295E+01 0.23370057202E+01 0.19093679407E+01 0.16178099713E+01 0.14325258099E+01
 0.13396507075E+01 0.13381566419E+01 0.14312422626E+01 0.16197913866E+01 0.19104613337E+01
 0.23327794477E+01 0.29391161772E+01 0.37767963354E+01 0.48598608246E+01 0.61738294275E+01
 0.81827318997E+01 0.10042306237E+02 0.11988409054E+02 0.13821274006E+02 0.15325881472E+02
 0.16315264818E+02 0.16660539927E+02 0.16315117067E+02 0.15325657417E+02 0.13821075264E+02
 0.11988284244E+02 0.10042248859E+02 0.81826719244E+01 0.65433471352E+01 0.51698574716E+01
 0.40479162903E+01 0.31516318814E+01 0.24637863271E+01 0.19637905975E+01 0.16178099713E+01
 0.13897416840E+01 0.12571185305E+01 0.12130483655E+01 0.12570718885E+01 0.13896597462E+01
 0.16177226947E+01 0.19637438445E+01 0.24638231942E+01 0.31517690859E+01 0.40481101868E+01
 0.51700529240E+01 0.65434790698E+01 0.90505602776E+01 0.11054903903E+02 0.13035660822E+02
 0.14777010790E+02 0.16083603475E+02 0.16790774075E+02 0.16788666019E+02 0.16068735360E+02
 0.14742290336E+02 0.12999136356E+02 0.11046193340E+02 0.90767654706E+01 0.72593195112E+01
 0.57091544321E+01 0.44586698826E+01 0.34729588290E+01 0.27040125107E+01 0.21236500830E+01
 0.17106057754E+01 0.14325258099E+01 0.12571185305E+01 0.11705072870E+01 0.11719951704E+01
 0.12589175311E+01 0.14312454526E+01 0.17081622322E+01 0.21251426425E+01 0.27109556812E+01
 0.34796450991E+01 0.44536864476E+01 0.56836445478E+01 0.72205291035E+01 0.10459121690E+02
 0.12607504152E+02 0.14690331977E+02 0.16478545538E+02 0.17707506774E+02 0.18148095310E+02
 0.17707609188E+02 0.16478695708E+02 0.14690465567E+02 0.12607624230E+02 0.10459239182E+02
 0.84233956787E+01 0.66296863316E+01 0.51482599013E+01 0.39817567918E+01 0.30862102222E+01
 0.24092765845E+01 0.19119672848E+01 0.15647799340E+01 0.13396507075E+01 0.12130483655E+01
 0.11719951704E+01 0.12130273498E+01 0.13396513182E+01 0.15648458305E+01 0.19120955797E+01
 0.24094090706E+01 0.30862703027E+01 0.39817141249E+01 0.51481278105E+01 0.66295435441E+01
 0.84232733900E+01 0.12675141646E+02 0.15221991750E+02 0.17622624601E+02 0.19644658294E+02
 0.20915660624E+02 0.20936029237E+02 0.19692641206E+02 0.17667326638E+02 0.15234528390E+02
 0.12647686494E+02 0.10185081333E+02 0.80175409490E+01 0.62175283170E+01 0.47858612509E+01
 0.36828468453E+01 0.28544666703E+01 0.22468576668E+01 0.18129449378E+01 0.15176275246E+01
 0.13381566419E+01 0.12570718885E+01 0.12589175311E+01 0.13396513182E+01 0.15150672467E+01
 0.18114192870E+01 0.22504561309E+01 0.28551447815E+01 0.36715351975E+01 0.47718049702E+01
 0.62237636712E+01 0.80539328754E+01 0.10233160634E+02 0.16351435720E+02 0.20713410511E+02
 0.26164539740E+02 0.30894918143E+02 0.32776227311E+02 0.30894949014E+02 0.26164557147E+02
 0.20713393036E+02 0.16351409564E+02 0.13053992116E+02 0.10164942747E+02 0.78002526302E+01
 0.59578314972E+01 0.45586666367E+01 0.35147936403E+01 0.27484081489E+01 0.21957568302E+01
 0.18113933120E+01 0.15648306579E+01 0.14312422626E+01 0.13896597462E+01 0.14312454526E+01
 0.15648458305E+01 0.18114192870E+01 0.21957726590E+01 0.27483747122E+01 0.35146892855E+01
 0.45585017555E+01 0.59576728474E+01 0.78001383941E+01 0.10164937512E+02 0.13054026923E+02
 0.28582941766E+02 0.42494285808E+02 0.56373288247E+02 0.65020088813E+02 0.64989472480E+02
 0.56312758227E+02 0.42463945548E+02 0.28610121800E+02 0.18833747009E+02 0.13678398420E+02
 0.10308660862E+02 0.77105196009E+01 0.58130689383E+01 0.44458010835E+01 0.34593897574E+01
 0.27494728313E+01 0.22469619861E+01 0.19102098560E+01 0.17106382327E+01 0.16197913866E+01
 0.16177226947E+01 0.17081622322E+01 0.19120955797E+01 0.22504561309E+01 0.27483747122E+01
 0.34551684941E+01 0.44485047927E+01 0.58279551207E+01 0.77255721248E+01 0.10299891671E+02
 0.13633847167E+02 0.18775150422E+02 0.68567035826E+02 0.98722654524E+02 0.12220411307E+03
 0.13105764901E+03 0.12220389309E+03 0.98722319353E+02 0.68566701993E+02 0.41119467692E+02
 0.22889211655E+02 0.14405776918E+02 0.10485226418E+02 0.76852758801E+01 0.57663788887E+01
 0.44484971753E+01 0.35147451191E+01 0.28552114582E+01 0.24094448637E+01 0.21251381994E+01
 0.19637273570E+01 0.19104613337E+01 0.19637438445E+01 0.21251426425E+01 0.24094090706E+01
 0.28551447815E+01 0.35146892855E+01 0.44485047927E+01 0.57664592922E+01 0.76854083380E+01
 0.10485370426E+02 0.14405920199E+02 0.22889407888E+02 0.41119717431E+02 0.15087644983E+03
 0.19821378102E+03 0.22627267338E+03 0.22627484533E+03 0.19821978812E+03 0.15087211835E+03
 0.98302579358E+02 0.54294964376E+02 0.26807789867E+02 0.14974414952E+02 0.10563072015E+02
 0.76874383176E+01 0.58129356831E+01 0.45590822711E+01 0.36827955517E+01 0.30861317292E+01
 0.27041820529E+01 0.24657666322E+01 0.23368347574E+01 0.23327794477E+01 0.24638231942E+01
 0.27109556812E+01 0.30862703027E+01 0.36715351975E+01 0.45585017555E+01 0.58279551207E+01
 0.76854083380E+01 0.10530448551E+02 0.14953960159E+02 0.26839792659E+02 0.54355706002E+02
 0.98340760734E+02 0.27669503998E+03 0.33480585804E+03 0.35634914052E+03 0.33480568891E+03
 0.27669483772E+03 0.19889629812E+03 0.12200695464E+03 0.62773084749E+02 0.28431377883E+02
 0.14954031772E+02 0.10485315426E+02 0.77254701423E+01 0.59576198284E+01 0.47718236258E+01
 0.39817629941E+01 0.34796654647E+01 0.31517470269E+01 0.29390851438E+01 0.28604893707E+01
 0.29391161772E+01 0.31517690859E+01 0.34796450991E+01 0.39817141249E+01 0.47718049702E+01
 0.59576728474E+01 0.77255721248E+01 0.10485370426E+02 0.14953960159E+02 0.28431175800E+02
 0.62772863743E+02 0.12200686384E+03 0.19889638093E+03 0.43089096750E+03 0.48638741274E+03
 0.48645071838E+03 0.43099775619E+03 0.33620652433E+03 0.22776673941E+03 0.13105259800E+03
 0.62803811292E+02 0.26807924509E+02 0.14357852828E+02 0.10308785912E+02 0.78349688351E+01
 0.62173091443E+01 0.51206517122E+01 0.44587525726E+01 0.40670251931E+01 0.37687284880E+01
 0.35774508826E+01 0.35901601697E+01 0.37767963354E+01 0.40481101868E+01 0.44536864476E+01
 0.51481278105E+01 0.62237636712E+01 0.78001383941E+01 0.10299891671E+02 0.14405920199E+02
 0.26839792659E+02 0.62772863743E+02 0.13101848590E+03 0.22776437382E+03 0.33616591740E+03
 0.58360159100E+03 0.61903852194E+03 0.58360147338E+03 0.48779087322E+03 0.35845019101E+03
 0.22776406592E+03 0.12200662638E+03 0.54355586083E+02 0.22889423176E+02 0.13633941500E+02
 0.10165042236E+02 0.80539830860E+01 0.66295266867E+01 0.56835862519E+01 0.51699942996E+01
 0.48598241944E+01 0.45824121075E+01 0.44496134836E+01 0.45824260643E+01 0.48598608246E+01
 0.51700529240E+01 0.56836445478E+01 0.66295435441E+01 0.80539328754E+01 0.10164937512E+02
 0.13633847167E+02 0.22889407888E+02 0.54355706002E+02 0.12200686384E+03 0.22776437382E+03
 0.35845048279E+03 0.48779108954E+03 0.69722752969E+03 0.69710685856E+03 0.61968918971E+03
 0.48772753254E+03 0.33620621368E+03 0.19888924354E+03 0.98302091999E+02 0.41149593652E+02
 0.18833929279E+02 0.13041773378E+02 0.10185107021E+02 0.84320197133E+01 0.72592258084E+01
 0.65360874037E+01 0.61465270651E+01 0.58690483526E+01 0.56454992177E+01 0.56272109465E+01
 0.58575495277E+01 0.61738294275E+01 0.65434790698E+01 0.72205291035E+01 0.84232733900E+01
 0.10233160634E+02 0.13054026923E+02 0.18775150422E+02 0.41119717431E+02 0.98340760734E+02
 0.19889638093E+03 0.33616591740E+03 0.48779108954E+03 0.61989211447E+03 0.69722775571E+03
 0.61924190628E+03 0.48645109494E+03 0.33476484048E+03 0.19821947024E+03 0.98759914728E+02
 0.42463712753E+02 0.20654639752E+02 0.15234528457E+02 0.12655796255E+02 0.11046229023E+02
 0.10003473045E+02 0.94487708671E+01 0.91682025002E+01 0.89112148761E+01 0.87109080152E+01
 0.87290502686E+01 0.89224948127E+01 0.91409218454E+01 0.94415947471E+01 0.10042306237E+02
 0.11054903903E+02 0.12607504152E+02 0.15221991750E+02 0.20713410511E+02 0.42494285808E+02
 0.98722654524E+02 0.19821378102E+03 0.33480585804E+03 0.48638741274E+03 0.61903852194E+03
 0.69710685856E+03 0.61924190628E+03 0.51672351823E+03 0.37929203481E+03 0.24165545691E+03
 0.13109408027E+03 0.60535875490E+02 0.27579313435E+02 0.18068257517E+02 0.15024755791E+02
 0.13313670183E+02 0.12233153556E+02 0.11566990069E+02 0.11277417851E+02 0.11130419926E+02
 0.10944967816E+02 0.10838376037E+02 0.10941907032E+02 0.11129906125E+02 0.11280791079E+02
 0.11568832959E+02 0.12231494219E+02 0.13314102709E+02 0.15028209633E+02 0.18067221633E+02
 0.27580798911E+02 0.60570333874E+02 0.13116442961E+03 0.24168173221E+03 0.37916605987E+03
 0.51645566957E+03 0.61901203849E+03 0.65721795284E+03 0.48645109494E+03 0.37929203481E+03
 0.25793345068E+03 0.15058213391E+03 0.74997022511E+02 0.34814466036E+02 0.20888813379E+02
 0.17262327352E+02 0.15401763943E+02 0.14421975961E+02 0.13860092372E+02 0.13589315108E+02
 0.13514488061E+02 0.13463469264E+02 0.13379129409E+02 0.13363790230E+02 0.13453233432E+02
 0.13536690251E+02 0.13596522809E+02 0.13829423894E+02 0.14415039371E+02 0.15442199044E+02
 0.17272886596E+02 0.20838972480E+02 0.34800035525E+02 0.75071250395E+02 0.15063952726E+03
 0.25787475858E+03 0.37918096082E+03 0.48639393981E+03 0.54968719473E+03 0.54969450871E+03
 0.33476484048E+03 0.24165545691E+03 0.15058213391E+03 0.80578164566E+02 0.39482042017E+02
 0.23159576025E+02 0.19040613050E+02 0.17205549484E+02 0.16354812038E+02 0.16004453790E+02
 0.15932494380E+02 0.16018453363E+02 0.16123690812E+02 0.16166812372E+02 0.16168458605E+02
 0.16162930378E+02 0.16122962202E+02 0.16021240632E+02 0.15931648475E+02 0.15999872620E+02
 0.16355384603E+02 0.17211735855E+02 0.19038157719E+02 0.23140163456E+02 0.39461741413E+02
 0.80583799856E+02 0.15062186754E+03 0.24171083641E+03 0.33481058978E+03 0.40513258308E+03
 0.43137966083E+03 0.40510917045E+03 0.19821947024E+03 0.13109408027E+03 0.74997022511E+02
 0.39482042017E+02 0.24068346844E+02 0.20001624595E+02 0.18400504461E+02 0.17832143290E+02
 0.17803277706E+02 0.18029130869E+02 0.18393724881E+02 0.18766827384E+02 0.19008272630E+02
 0.19103785817E+02 0.19107157616E+02 0.19008289370E+02 0.18758407658E+02 0.18393788136E+02
 0.18040481329E+02 0.17802177173E+02 0.17816374379E+02 0.18400472781E+02 0.20020142337E+02
 0.24068501658E+02 0.39461085710E+02 0.75002753724E+02 0.13113425924E+03 0.19823185051E+03
 0.25918173217E+03 0.29563219662E+03 0.29566318591E+03 0.25922378140E+03 0.98759914728E+02
 0.60535875490E+02 0.34814466036E+02 0.23159576025E+02 0.20001624595E+02 0.18814237393E+02
 0.18604100581E+02 0.18988465219E+02 0.19642424928E+02 0.20391346235E+02 0.21071050146E+02
 0.21519605657E+02 0.21729625580E+02 0.21784130004E+02 0.21730629106E+02 0.21519338091E+02
 0.21069189879E+02 0.20390248975E+02 0.19642584477E+02 0.18987534309E+02 0.18603795229E+02
 0.18822824990E+02 0.20021281729E+02 0.23173535580E+02 0.34799322466E+02 0.60490838894E+02
 0.98713031646E+02 0.14059149403E+03 0.17330624994E+03 0.18568008367E+03 0.17330843108E+03
 0.14061424774E+03 0.42463712753E+02 0.27579313435E+02 0.20888813379E+02 0.19040613050E+02
 0.18400504461E+02 0.18604100581E+02 0.19393358704E+02 0.20505405934E+02 0.21726925315E+02
 0.22762386339E+02 0.23407823901E+02 0.23701842877E+02 0.23792321313E+02 0.23793046213E+02
 0.23703480905E+02 0.23407984396E+02 0.22758916194E+02 0.21722787143E+02 0.20505963353E+02
 0.19397156170E+02 0.18604213109E+02 0.18396546221E+02 0.19039771609E+02 0.20892549517E+02
 0.27581141075E+02 0.42463850573E+02 0.63688351076E+02 0.84826175202E+02 0.98028736040E+02
 0.98019677298E+02 0.84809690043E+02 0.63680288282E+02 0.20654639752E+02 0.18068257517E+02
 0.17262327352E+02 0.17205549484E+02 0.17832143290E+02 0.18988465219E+02 0.20505405934E+02
 0.22190311648E+02 0.23646280214E+02 0.24555947685E+02 0.24942724249E+02 0.25027270591E+02
 0.25027499804E+02 0.25028401554E+02 0.24943224863E+02 0.24554425962E+02 0.23643885838E+02
 0.22189610884E+02 0.20505537047E+02 0.18982856730E+02 0.17816581118E+02 0.17190971572E+02
 0.17272522482E+02 0.18114460689E+02 0.20713293636E+02 0.26956263932E+02 0.35758219009E+02
 0.43580888294E+02 0.46721813908E+02 0.43608962967E+02 0.35773344298E+02 0.26927022480E+02
 0.15234528457E+02 0.15024755791E+02 0.15401763943E+02 0.16354812038E+02 0.17803277706E+02
 0.19642424928E+02 0.21726925315E+02 0.23646280214E+02 0.24936217744E+02 0.25520002731E+02
 0.25629430885E+02 0.25580785500E+02 0.25581055089E+02 0.25630753605E+02 0.25521891436E+02
 0.24936108868E+02 0.23643462356E+02 0.21724394447E+02 0.19642323414E+02 0.17803896200E+02
 0.16354645850E+02 0.15402360010E+02 0.15026685473E+02 0.15235158742E+02 0.15930743266E+02
 0.17441817176E+02 0.19657539878E+02 0.21329849897E+02 0.21328372441E+02 0.19655763617E+02
 0.17442819987E+02 0.15932519476E+02 0.12655796255E+02 0.13313670183E+02 0.14421975961E+02
 0.16004453790E+02 0.18029130869E+02 0.20391346235E+02 0.22762386339E+02 0.24555947685E+02
 0.25520002731E+02 0.25799058004E+02 0.25745657121E+02 0.25685397951E+02 0.25746997438E+02
 0.25801823862E+02 0.25522310895E+02 0.24554682633E+02 0.22758632317E+02 0.20392902762E+02
 0.18041481348E+02 0.16017810838E+02 0.14414915019E+02 0.13276582486E+02 0.12607284560E+02
 0.12371967778E+02 0.12484716769E+02 0.12794582189E+02 0.13100708888E+02 0.13223064685E+02
 0.13073174515E+02 0.12760987775E+02 0.12474516335E+02 0.12399170592E+02 0.11046229023E+02
 0.12233153556E+02 0.13860092372E+02 0.15932494380E+02 0.18393724881E+02 0.21071050146E+02
 0.23407823901E+02 0.24942724249E+02 0.25629430885E+02 0.25745657121E+02 0.25673769941E+02
 0.25674429581E+02 0.25747385988E+02 0.25631359820E+02 0.24943641319E+02 0.23407239997E+02
 0.21069865679E+02 0.18393225643E+02 0.15932802967E+02 0.13860253227E+02 0.12232762113E+02
 0.11046150271E+02 0.10252362339E+02 0.97885605818E+01 0.95861027699E+01 0.95542396143E+01
 0.95811660154E+01 0.95821123928E+01 0.95559297165E+01 0.95866254205E+01 0.97876623019E+01
 0.10251476212E+02 0.10003473045E+02 0.11566990069E+02 0.13589315108E+02 0.16018453363E+02
 0.18766827384E+02 0.21519605657E+02 0.23701842877E+02 0.25027270591E+02 0.25580785500E+02
 0.25685397951E+02 0.25674429581E+02 0.25685977326E+02 0.25581717664E+02 0.25028691097E+02
 0.23703033245E+02 0.21517372028E+02 0.18758846840E+02 0.16010731234E+02 0.13596121152E+02
 0.11596401928E+02 0.10042795471E+02 0.89090258102E+01 0.81247909065E+01 0.76121237990E+01
 0.73066073701E+01 0.71538457699E+01 0.71112647983E+01 0.71643395957E+01 0.73295405610E+01
 0.76377557082E+01 0.81317464484E+01 0.88858836896E+01 0.94487708671E+01 0.11277417851E+02
 0.13514488061E+02 0.16123690812E+02 0.19008272630E+02 0.21729625580E+02 0.23792321313E+02
 0.25027499804E+02 0.25581055089E+02 0.25746997438E+02 0.25747385988E+02 0.25581717664E+02
 0.25028020632E+02 0.23793053241E+02 0.21730247243E+02 0.19007702336E+02 0.16122541436E+02
 0.13514928115E+02 0.11279391120E+02 0.94494440412E+01 0.80373192533E+01 0.70176784228E+01
 0.63211352444E+01 0.58624691114E+01 0.55786926238E+01 0.54412770808E+01 0.54420311999E+01
 0.55793300006E+01 0.58613907462E+01 0.63202108284E+01 0.70189255937E+01 0.80389467146E+01
 0.91682025002E+01 0.11130419926E+02 0.13463469264E+02 0.16166812372E+02 0.19103785817E+02
 0.21784130004E+02 0.23793046213E+02 0.25028401554E+02 0.25630753605E+02 0.25801823862E+02
 0.25631359820E+02 0.25028691097E+02 0.23793053241E+02 0.21785796384E+02 0.19107894235E+02
 0.16168366904E+02 0.13453532414E+02 0.11106315331E+02 0.91405696316E+01 0.75485884103E+01
 0.63266890691E+01 0.54545593016E+01 0.48729342358E+01 0.45030537670E+01 0.42903548994E+01
 0.42192331780E+01 0.42884361872E+01 0.44947915968E+01 0.48562402499E+01 0.54364571158E+01
 0.63209025130E+01 0.75631241071E+01 0.89112148761E+01 0.10944967816E+02 0.13379129409E+02
 0.16168458605E+02 0.19107157616E+02 0.21730629106E+02 0.23703480905E+02 0.24943224863E+02
 0.25521891436E+02 0.25522310895E+02 0.24943641319E+02 0.23703033245E+02 0.21730247243E+02
 0.19107894235E+02 0.16169332300E+02 0.13378556749E+02 0.10943489270E+02 0.89108121722E+01
 0.72538663033E+01 0.59345661899E+01 0.49313707704E+01 0.42203700017E+01 0.37541211648E+01
 0.34746862716E+01 0.33420708190E+01 0.33418094648E+01 0.34743784194E+01 0.37545770368E+01
 0.42214720906E+01 0.49318720635E+01 0.59337131159E+01 0.72528083439E+01 0.87109080152E+01
 0.10838376037E+02 0.13363790230E+02 0.16162930378E+02 0.19008289370E+02 0.21519338091E+02
 0.23407984396E+02 0.24554425962E+02 0.24936108868E+02 0.24554682633E+02 0.23407239997E+02
 0.21517372028E+02 0.19007702336E+02 0.16168366904E+02 0.13378556749E+02 0.10859968203E+02
 0.87296766443E+01 0.70101462703E+01 0.56557967315E+01 0.46062875958E+01 0.38194148044E+01
 0.32649447217E+01 0.29086112160E+01 0.27137546559E+01 0.26530695599E+01 0.27155831651E+01
 0.29107651498E+01 0.32693544201E+01 0.38302656113E+01 0.46216871409E+01 0.56654228026E+01
 0.70047635522E+01 0.87290502686E+01 0.10941907032E+02 0.13453233432E+02 0.16122962202E+02
 0.18758407658E+02 0.21069189879E+02 0.22758916194E+02 0.23643885838E+02 0.23643462356E+02
 0.22758632317E+02 0.21069865679E+02 0.18758846840E+02 0.16122541436E+02 0.13453532414E+02
 0.10943489270E+02 0.87296766443E+01 0.68961021806E+01 0.54592556207E+01 0.43708008519E+01
 0.35553183274E+01 0.29543065576E+01 0.25371039869E+01 0.22820008380E+01 0.21636065679E+01
 0.21629917343E+01 0.22815365698E+01 0.25380281204E+01 0.29549665432E+01 0.35543673276E+01
 0.43701577805E+01 0.54606564127E+01 0.68976417546E+01 0.89224948127E+01 0.11129906125E+02
 0.13536690251E+02 0.16021240632E+02 0.18393788136E+02 0.20390248975E+02 0.21722787143E+02
 0.22189610884E+02 0.21724394447E+02 0.20392902762E+02 0.18393225643E+02 0.16010731234E+02
 0.13514928115E+02 0.11106315331E+02 0.89108121722E+01 0.70101462703E+01 0.54592556207E+01
 0.42701253460E+01 0.33975117366E+01 0.27645365746E+01 0.23095600717E+01 0.20042383901E+01
 0.18337541353E+01 0.17801924496E+01 0.18334436643E+01 0.20034938636E+01 0.23087555469E+01
 0.27629284089E+01 0.33915695473E+01 0.42572036635E+01 0.54442273125E+01 0.70046571110E+01
 0.91409218454E+01 0.11280791079E+02 0.13596522809E+02 0.15931648475E+02 0.18040481329E+02
 0.19642584477E+02 0.20505963353E+02 0.20505537047E+02 0.19642323414E+02 0.18041481348E+02
 0.15932802967E+02 0.13596121152E+02 0.11279391120E+02 0.91405696316E+01 0.72538663033E+01
 0.56557967315E+01 0.43708008519E+01 0.33975117366E+01 0.26943062093E+01 0.21974263441E+01
 0.18542968743E+01 0.16367599357E+01 0.15316731975E+01 0.15319679024E+01 0.16371651071E+01
 0.18540852310E+01 0.21967957218E+01 0.26942795695E+01 0.33983542608E+01 0.43713190079E+01