   2   2   1   0
  0.2254527E+02  0.3995153E-09  0.3995153E-09  0.3995153E-09  0.5000000E-15
  1.000000000000000E-004
  CAR 
 GaAs                                    
     15.45054309    -14.06097965  301      3.18839879      1.00000000
    -14.061  0.0000E+00  0.0000E+00
    -13.963  0.0000E+00  0.0000E+00
    -13.864  0.0000E+00  0.0000E+00
    -13.766  0.0000E+00  0.0000E+00
    -13.667  0.0000E+00  0.0000E+00
    -13.569  0.0000E+00  0.0000E+00
    -13.471  0.0000E+00  0.0000E+00
    -13.372  0.0000E+00  0.0000E+00
    -13.274  0.0000E+00  0.0000E+00
    -13.176  0.8803E-14  0.8660E-15
    -13.077  0.1934E-11  0.1911E-12
    -12.979  0.2642E-09  0.2618E-10
    -12.881  0.2261E-07  0.2251E-08
    -12.782  0.1219E-05  0.1222E-06
    -12.684  0.4165E-04  0.4220E-05
    -12.585  0.9100E-03  0.9374E-04
    -12.487  0.1287E-01  0.1360E-02
    -12.389  0.1199E+00  0.1315E-01
    -12.290  0.7479E+00  0.8673E-01
    -12.192  0.3179E+01  0.3995E+00
    -12.094  0.9292E+01  0.1314E+01
    -11.995  0.1864E+02  0.3147E+01
    -11.897  0.2540E+02  0.5646E+01
    -11.798  0.2318E+02  0.7926E+01
    -11.700  0.1396E+02  0.9299E+01
    -11.602  0.5484E+01  0.9838E+01
    -11.503  0.1392E+01  0.9975E+01
    -11.405  0.2266E+00  0.9998E+01
    -11.307  0.2352E-01  0.1000E+02
    -11.208  0.1549E-02  0.1000E+02
    -11.110  0.6442E-04  0.1000E+02
    -11.011  0.1687E-05  0.1000E+02
    -10.913  0.2771E-07  0.1000E+02
    -10.815  0.2873E-09  0.1000E+02
    -10.716  0.2688E-09  0.1000E+02
    -10.618  0.1882E-07  0.1000E+02
    -10.520  0.8301E-06  0.1000E+02
    -10.421  0.2298E-04  0.1000E+02
    -10.323  0.4004E-03  0.1000E+02
    -10.224  0.4411E-02  0.1000E+02
    -10.126  0.3090E-01  0.1000E+02
    -10.028  0.1388E+00  0.1002E+02
     -9.929  0.4051E+00  0.1006E+02
     -9.831  0.7854E+00  0.1013E+02
     -9.733  0.1054E+01  0.1024E+02
     -9.634  0.1055E+01  0.1034E+02
     -9.536  0.8888E+00  0.1043E+02
     -9.438  0.7247E+00  0.1050E+02
     -9.339  0.6190E+00  0.1056E+02
     -9.241  0.5555E+00  0.1062E+02
     -9.142  0.5137E+00  0.1067E+02
     -9.044  0.4840E+00  0.1071E+02
     -8.946  0.4621E+00  0.1076E+02
     -8.847  0.4460E+00  0.1080E+02
     -8.749  0.4347E+00  0.1085E+02
     -8.651  0.4279E+00  0.1089E+02
     -8.552  0.4262E+00  0.1093E+02
     -8.454  0.4315E+00  0.1097E+02
     -8.355  0.4486E+00  0.1102E+02
     -8.257  0.4819E+00  0.1106E+02
     -8.159  0.5185E+00  0.1112E+02
     -8.060  0.5178E+00  0.1117E+02
     -7.962  0.4554E+00  0.1121E+02
     -7.864  0.3717E+00  0.1125E+02
     -7.765  0.3348E+00  0.1128E+02
     -7.667  0.4074E+00  0.1132E+02
     -7.568  0.6890E+00  0.1139E+02
     -7.470  0.1223E+01  0.1151E+02
     -7.372  0.1710E+01  0.1168E+02
     -7.273  0.1653E+01  0.1184E+02
     -7.175  0.1055E+01  0.1194E+02
     -7.077  0.4377E+00  0.1199E+02
     -6.978  0.1170E+00  0.1200E+02
     -6.880  0.2006E-01  0.1200E+02
     -6.781  0.2198E-02  0.1200E+02
     -6.683  0.1532E-03  0.1200E+02
     -6.585  0.6778E-05  0.1200E+02
     -6.486  0.1895E-06  0.1200E+02
     -6.388  0.3339E-08  0.1200E+02
     -6.290  0.3698E-10  0.1200E+02
     -6.191  0.2567E-12  0.1200E+02
     -6.093  0.1129E-14  0.1200E+02
     -5.994  0.0000E+00  0.1200E+02
     -5.896  0.0000E+00  0.1200E+02
     -5.798  0.0000E+00  0.1200E+02
     -5.699  0.0000E+00  0.1200E+02
     -5.601  0.0000E+00  0.1200E+02
     -5.503  0.0000E+00  0.1200E+02
     -5.404  0.0000E+00  0.1200E+02
     -5.306  0.0000E+00  0.1200E+02
     -5.208  0.0000E+00  0.1200E+02
     -5.109  0.4232E-16  0.1200E+02
     -5.011  0.1158E-13  0.1200E+02
     -4.912  0.2033E-11  0.1200E+02
     -4.814  0.2224E-09  0.1200E+02
     -4.716  0.1520E-07  0.1200E+02
     -4.617  0.6512E-06  0.1200E+02
     -4.519  0.1753E-04  0.1200E+02
     -4.421  0.2978E-03  0.1200E+02
     -4.322  0.3214E-02  0.1200E+02
     -4.224  0.2227E-01  0.1200E+02
     -4.125  0.1010E+00  0.1201E+02
     -4.027  0.3101E+00  0.1204E+02
     -3.929  0.6819E+00  0.1211E+02
     -3.830  0.1149E+01  0.1222E+02
     -3.732  0.1542E+01  0.1237E+02
     -3.634  0.1632E+01  0.1254E+02
     -3.535  0.1332E+01  0.1267E+02
     -3.437  0.8674E+00  0.1275E+02
     -3.338  0.5270E+00  0.1280E+02
     -3.240  0.3727E+00  0.1284E+02
     -3.142  0.3112E+00  0.1287E+02
     -3.043  0.2813E+00  0.1290E+02
     -2.945  0.2714E+00  0.1293E+02
     -2.847  0.2581E+00  0.1295E+02
     -2.748  0.2350E+00  0.1297E+02
     -2.650  0.2324E+00  0.1300E+02
     -2.551  0.2386E+00  0.1302E+02
     -2.453  0.2167E+00  0.1304E+02
     -2.355  0.1984E+00  0.1306E+02
     -2.256  0.2163E+00  0.1308E+02
     -2.158  0.2206E+00  0.1310E+02
     -2.060  0.1874E+00  0.1312E+02
     -1.961  0.1778E+00  0.1314E+02
     -1.863  0.2080E+00  0.1316E+02
     -1.765  0.2098E+00  0.1318E+02
     -1.666  0.1700E+00  0.1320E+02
     -1.568  0.1603E+00  0.1321E+02
     -1.469  0.1990E+00  0.1323E+02
     -1.371  0.2211E+00  0.1325E+02
     -1.273  0.2329E+00  0.1328E+02
     -1.174  0.3721E+00  0.1331E+02
     -1.076  0.7035E+00  0.1338E+02
     -0.978  0.1020E+01  0.1348E+02
     -0.879  0.1052E+01  0.1359E+02
     -0.781  0.8491E+00  0.1367E+02
     -0.682  0.6686E+00  0.1374E+02
     -0.584  0.6025E+00  0.1380E+02
     -0.486  0.5541E+00  0.1385E+02
     -0.387  0.4840E+00  0.1390E+02
     -0.289  0.4876E+00  0.1395E+02
     -0.191  0.6531E+00  0.1401E+02
     -0.092  0.9382E+00  0.1410E+02
      0.006  0.1205E+01  0.1422E+02
      0.105  0.1405E+01  0.1436E+02
      0.203  0.1593E+01  0.1452E+02
      0.301  0.1696E+01  0.1468E+02
      0.400  0.1565E+01  0.1484E+02
      0.498  0.1290E+01  0.1496E+02
      0.596  0.1098E+01  0.1507E+02
      0.695  0.1025E+01  0.1517E+02
      0.793  0.9585E+00  0.1527E+02
      0.892  0.8498E+00  0.1535E+02
      0.990  0.7361E+00  0.1542E+02
      1.088  0.6534E+00  0.1549E+02
      1.187  0.6240E+00  0.1555E+02
      1.285  0.6335E+00  0.1561E+02
      1.383  0.6306E+00  0.1567E+02
      1.482  0.6173E+00  0.1573E+02
      1.580  0.6794E+00  0.1580E+02
      1.678  0.8973E+00  0.1589E+02
      1.777  0.1227E+01  0.1601E+02
      1.875  0.1484E+01  0.1616E+02
      1.974  0.1543E+01  0.1631E+02
      2.072  0.1461E+01  0.1645E+02
      2.170  0.1348E+01  0.1658E+02
      2.269  0.1252E+01  0.1671E+02
      2.367  0.1188E+01  0.1682E+02
      2.465  0.1197E+01  0.1694E+02
      2.564  0.1305E+01  0.1707E+02
      2.662  0.1486E+01  0.1722E+02
      2.761  0.1722E+01  0.1739E+02
      2.859  0.1951E+01  0.1758E+02
      2.957  0.1909E+01  0.1776E+02
      3.056  0.1425E+01  0.1790E+02
      3.154  0.7952E+00  0.1798E+02
      3.252  0.4119E+00  0.1802E+02
      3.351  0.2843E+00  0.1805E+02
      3.449  0.2477E+00  0.1808E+02
      3.548  0.2552E+00  0.1810E+02
      3.646  0.3161E+00  0.1813E+02
      3.744  0.4236E+00  0.1817E+02
      3.843  0.5621E+00  0.1823E+02
      3.941  0.6831E+00  0.1830E+02
      4.039  0.7730E+00  0.1837E+02
      4.138  0.9103E+00  0.1846E+02
      4.236  0.1147E+01  0.1857E+02
      4.335  0.1391E+01  0.1871E+02
      4.433  0.1494E+01  0.1886E+02
      4.531  0.1409E+01  0.1900E+02
      4.630  0.1225E+01  0.1912E+02
      4.728  0.1077E+01  0.1922E+02
      4.826  0.1032E+01  0.1933E+02
      4.925  0.1037E+01  0.1943E+02
      5.023  0.1019E+01  0.1953E+02
      5.122  0.9762E+00  0.1962E+02
      5.220  0.9616E+00  0.1972E+02
      5.318  0.9822E+00  0.1981E+02
      5.417  0.9827E+00  0.1991E+02
      5.515  0.9397E+00  0.2000E+02
      5.613  0.8547E+00  0.2009E+02
      5.712  0.7200E+00  0.2016E+02
      5.810  0.6005E+00  0.2022E+02
      5.908  0.5810E+00  0.2027E+02
      6.007  0.6282E+00  0.2034E+02
      6.105  0.6491E+00  0.2040E+02
      6.204  0.6039E+00  0.2046E+02
      6.302  0.5474E+00  0.2051E+02
      6.400  0.6476E+00  0.2058E+02
      6.499  0.1108E+01  0.2069E+02
      6.597  0.1863E+01  0.2087E+02
      6.695  0.2418E+01  0.2111E+02
      6.794  0.2393E+01  0.2134E+02
      6.892  0.1997E+01  0.2154E+02
      6.991  0.1613E+01  0.2170E+02
      7.089  0.1362E+01  0.2183E+02
      7.187  0.1229E+01  0.2195E+02
      7.286  0.1265E+01  0.2208E+02
      7.384  0.1554E+01  0.2223E+02
      7.482  0.2015E+01  0.2243E+02
      7.581  0.2276E+01  0.2265E+02
      7.679  0.2012E+01  0.2285E+02
      7.778  0.1411E+01  0.2299E+02
      7.876  0.9351E+00  0.2308E+02
      7.974  0.7941E+00  0.2316E+02
      8.073  0.8636E+00  0.2324E+02
      8.171  0.9369E+00  0.2334E+02
      8.269  0.9766E+00  0.2343E+02
      8.368  0.1049E+01  0.2354E+02
      8.466  0.1105E+01  0.2364E+02
      8.565  0.1044E+01  0.2375E+02
      8.663  0.8993E+00  0.2384E+02
      8.761  0.7800E+00  0.2391E+02
      8.860  0.7018E+00  0.2398E+02
      8.958  0.6078E+00  0.2404E+02
      9.056  0.4942E+00  0.2409E+02
      9.155  0.4205E+00  0.2413E+02
      9.253  0.4080E+00  0.2417E+02
      9.351  0.4138E+00  0.2421E+02
      9.450  0.4095E+00  0.2425E+02
      9.548  0.4284E+00  0.2429E+02
      9.647  0.5050E+00  0.2434E+02
      9.745  0.5885E+00  0.2440E+02
      9.843  0.6041E+00  0.2446E+02
      9.942  0.5887E+00  0.2452E+02
     10.040  0.6246E+00  0.2458E+02
     10.138  0.6775E+00  0.2465E+02
     10.237  0.6751E+00  0.2471E+02
     10.335  0.6876E+00  0.2478E+02
     10.434  0.8256E+00  0.2486E+02
     10.532  0.9991E+00  0.2496E+02
     10.630  0.9955E+00  0.2506E+02
     10.729  0.7957E+00  0.2514E+02
     10.827  0.5847E+00  0.2519E+02
     10.925  0.4747E+00  0.2524E+02
     11.024  0.4282E+00  0.2528E+02
     11.122  0.3786E+00  0.2532E+02
     11.221  0.3017E+00  0.2535E+02
     11.319  0.2295E+00  0.2537E+02
     11.417  0.2135E+00  0.2539E+02
     11.516  0.2401E+00  0.2542E+02
     11.614  0.2496E+00  0.2544E+02
     11.712  0.2428E+00  0.2547E+02
     11.811  0.2540E+00  0.2549E+02
     11.909  0.2679E+00  0.2552E+02
     12.008  0.2567E+00  0.2554E+02
     12.106  0.2388E+00  0.2557E+02
     12.204  0.2540E+00  0.2559E+02
     12.303  0.2942E+00  0.2562E+02
     12.401  0.3033E+00  0.2565E+02
     12.499  0.2765E+00  0.2568E+02
     12.598  0.2743E+00  0.2570E+02
     12.696  0.3187E+00  0.2574E+02
     12.795  0.3990E+00  0.2577E+02
     12.893  0.5112E+00  0.2582E+02
     12.991  0.5792E+00  0.2588E+02
     13.090  0.4969E+00  0.2593E+02
     13.188  0.3025E+00  0.2596E+02
     13.286  0.1423E+00  0.2597E+02
     13.385  0.8213E-01  0.2598E+02
     13.483  0.7424E-01  0.2599E+02
     13.581  0.5951E-01  0.2600E+02
     13.680  0.3176E-01  0.2600E+02
     13.778  0.1073E-01  0.2600E+02
     13.877  0.2276E-02  0.2600E+02
     13.975  0.3026E-03  0.2600E+02
     14.073  0.2517E-04  0.2600E+02
     14.172  0.1308E-05  0.2600E+02
     14.270  0.4242E-07  0.2600E+02
     14.368  0.8572E-09  0.2600E+02
     14.467  0.1078E-10  0.2600E+02
     14.565  0.8425E-13  0.2600E+02
     14.664  0.3950E-15  0.2600E+02
     14.762  0.0000E+00  0.2600E+02
     14.860  0.0000E+00  0.2600E+02
     14.959  0.0000E+00  0.2600E+02
     15.057  0.0000E+00  0.2600E+02
     15.155  0.0000E+00  0.2600E+02
     15.254  0.0000E+00  0.2600E+02
     15.352  0.0000E+00  0.2600E+02
     15.451  0.0000E+00  0.2600E+02
     15.45054309    -14.06097965  301      3.18839879      1.00000000
    -14.061  0.0000E+00  0.0000E+00  0.0000E+00
    -13.963  0.0000E+00  0.0000E+00  0.0000E+00
    -13.864  0.0000E+00  0.0000E+00  0.0000E+00
    -13.766  0.0000E+00  0.0000E+00  0.0000E+00
    -13.667  0.0000E+00  0.0000E+00  0.0000E+00
    -13.569  0.0000E+00  0.0000E+00  0.0000E+00
    -13.471  0.0000E+00  0.0000E+00  0.0000E+00
    -13.372  0.0000E+00  0.0000E+00  0.0000E+00
    -13.274  0.0000E+00  0.0000E+00  0.0000E+00
    -13.176  0.1213E-17  0.6756E-17  0.8288E-14
    -13.077  0.2925E-15  0.1461E-14  0.1822E-11
    -12.979  0.4336E-13  0.1972E-12  0.2489E-09
    -12.881  0.4023E-11  0.1660E-10  0.2132E-07
    -12.782  0.2341E-09  0.8726E-09  0.1150E-05
    -12.684  0.8555E-08  0.2872E-07  0.3935E-04
    -12.585  0.1969E-06  0.5931E-06  0.8613E-03
    -12.487  0.2858E-05  0.7712E-05  0.1222E-01
    -12.389  0.2624E-04  0.6338E-04  0.1142E+00
    -12.290  0.1529E-03  0.3309E-03  0.7155E+00
    -12.192  0.5665E-03  0.1105E-02  0.3057E+01
    -12.094  0.1340E-02  0.2383E-02  0.8980E+01
    -11.995  0.2034E-02  0.3352E-02  0.1809E+02
    -11.897  0.1991E-02  0.3115E-02  0.2474E+02
    -11.798  0.1266E-02  0.1935E-02  0.2263E+02
    -11.700  0.5272E-03  0.8098E-03  0.1365E+02
    -11.602  0.1453E-03  0.2283E-03  0.5368E+01
    -11.503  0.2674E-04  0.4308E-04  0.1364E+01
    -11.405  0.3298E-05  0.5376E-05  0.2221E+00
    -11.307  0.2723E-06  0.4381E-06  0.2306E-01
    -11.208  0.1492E-07  0.2304E-07  0.1519E-02
    -11.110  0.5364E-09  0.7752E-09  0.6320E-04
    -11.011  0.1248E-10  0.1658E-10  0.1655E-05
    -10.913  0.1877E-12  0.2242E-12  0.2719E-07
    -10.815  0.3336E-12  0.2073E-14  0.2797E-09
    -10.716  0.3745E-10  0.2071E-13  0.1886E-11
    -10.618  0.2640E-08  0.1683E-11  0.7129E-11
    -10.520  0.1164E-06  0.8666E-10  0.3576E-09
    -10.421  0.3221E-05  0.2842E-08  0.1143E-07
    -10.323  0.5611E-04  0.5973E-07  0.2339E-06
    -10.224  0.6178E-03  0.8112E-06  0.3092E-05
    -10.126  0.4325E-02  0.7204E-05  0.2671E-04
    -10.028  0.1940E-01  0.4249E-04  0.1531E-03
     -9.929  0.5653E-01  0.1704E-03  0.5961E-03
     -9.831  0.1093E+00  0.4798E-03  0.1627E-02
     -9.733  0.1458E+00  0.9953E-03  0.3258E-02
     -9.634  0.1445E+00  0.1619E-02  0.5093E-02
     -9.536  0.1199E+00  0.2217E-02  0.6674E-02
     -9.438  0.9561E-01  0.2736E-02  0.7849E-02
     -9.339  0.7967E-01  0.3190E-02  0.8711E-02
     -9.241  0.6970E-01  0.3606E-02  0.9384E-02
     -9.142  0.6280E-01  0.4006E-02  0.9951E-02
     -9.044  0.5755E-01  0.4400E-02  0.1046E-01
     -8.946  0.5335E-01  0.4800E-02  0.1094E-01
     -8.847  0.4989E-01  0.5215E-02  0.1143E-01
     -8.749  0.4698E-01  0.5656E-02  0.1195E-01
     -8.651  0.4454E-01  0.6138E-02  0.1254E-01
     -8.552  0.4254E-01  0.6690E-02  0.1324E-01
     -8.454  0.4107E-01  0.7371E-02  0.1419E-01
     -8.355  0.4044E-01  0.8301E-02  0.1561E-01
     -8.257  0.4087E-01  0.9590E-02  0.1772E-01
     -8.159  0.4140E-01  0.1097E-01  0.1997E-01
     -8.060  0.3909E-01  0.1156E-01  0.2057E-01
     -7.962  0.3226E-01  0.1080E-01  0.1839E-01
     -7.864  0.2377E-01  0.9619E-02  0.1519E-01
     -7.765  0.1772E-01  0.9733E-02  0.1404E-01
     -7.667  0.1533E-01  0.1344E-01  0.1798E-01
     -7.568  0.1632E-01  0.2505E-01  0.3191E-01
     -7.470  0.1981E-01  0.4669E-01  0.5794E-01
     -7.372  0.2187E-01  0.6678E-01  0.8154E-01
     -7.273  0.1806E-01  0.6545E-01  0.7887E-01
     -7.175  0.1015E-01  0.4224E-01  0.5029E-01
     -7.077  0.3728E-02  0.1768E-01  0.2081E-01
     -6.978  0.8820E-03  0.4768E-02  0.5548E-02
     -6.880  0.1333E-03  0.8241E-03  0.9487E-03
     -6.781  0.1282E-04  0.9093E-04  0.1036E-03
     -6.683  0.7826E-06  0.6382E-05  0.7209E-05
     -6.585  0.3024E-07  0.2839E-06  0.3182E-06
     -6.486  0.7382E-09  0.7978E-08  0.8878E-08
     -6.388  0.1137E-10  0.1412E-09  0.1562E-09
     -6.290  0.1102E-12  0.1570E-11  0.1727E-11
     -6.191  0.6733E-15  0.1093E-13  0.1197E-13
     -6.093  0.1887E-17  0.4845E-16  0.5246E-16
     -5.994  0.0000E+00  0.0000E+00  0.0000E+00
     -5.896  0.0000E+00  0.0000E+00  0.0000E+00
     -5.798  0.0000E+00  0.0000E+00  0.0000E+00
     -5.699  0.0000E+00  0.0000E+00  0.0000E+00
     -5.601  0.0000E+00  0.0000E+00  0.0000E+00
     -5.503  0.0000E+00  0.0000E+00  0.0000E+00
     -5.404  0.0000E+00  0.0000E+00  0.0000E+00
     -5.306  0.0000E+00  0.0000E+00  0.0000E+00
     -5.208  0.0000E+00  0.0000E+00  0.0000E+00
     -5.109  0.1534E-16  0.1055E-20  0.2038E-18
     -5.011  0.4197E-14  0.9857E-18  0.5586E-16
     -4.912  0.7366E-12  0.2003E-15  0.9809E-14
     -4.814  0.8057E-10  0.2561E-13  0.1074E-11
     -4.716  0.5508E-08  0.2081E-11  0.7343E-10
     -4.617  0.2359E-06  0.1090E-09  0.3147E-08
     -4.519  0.6348E-05  0.3761E-08  0.8471E-07
     -4.421  0.1078E-03  0.8779E-07  0.1438E-05
     -4.322  0.1162E-02  0.1427E-05  0.1548E-04
     -4.224  0.8041E-02  0.1643E-04  0.1065E-03
     -4.125  0.3633E-01  0.1338E-03  0.4743E-03
     -4.027  0.1108E+00  0.7574E-03  0.1401E-02
     -3.929  0.2412E+00  0.2931E-02  0.2864E-02
     -3.830  0.4009E+00  0.7709E-02  0.4322E-02
     -3.732  0.5316E+00  0.1390E-01  0.5171E-02
     -3.634  0.5567E+00  0.1767E-01  0.5119E-02
     -3.535  0.4474E+00  0.1689E-01  0.4263E-02
     -3.437  0.2816E+00  0.1366E-01  0.3182E-02
     -3.338  0.1605E+00  0.1099E-01  0.2519E-02
     -3.240  0.1054E+00  0.9731E-02  0.2343E-02
     -3.142  0.8383E-01  0.9119E-02  0.2318E-02
     -3.043  0.7350E-01  0.8759E-02  0.2372E-02
     -2.945  0.6927E-01  0.8782E-02  0.2546E-02
     -2.847  0.6462E-01  0.8624E-02  0.2594E-02
     -2.748  0.5765E-01  0.8143E-02  0.2516E-02
     -2.650  0.5571E-01  0.8321E-02  0.2690E-02
     -2.551  0.5643E-01  0.8676E-02  0.2912E-02
     -2.453  0.5067E-01  0.8010E-02  0.2739E-02
     -2.355  0.4529E-01  0.7610E-02  0.2641E-02
     -2.256  0.4843E-01  0.8494E-02  0.3030E-02
     -2.158  0.4922E-01  0.8647E-02  0.3180E-02
     -2.060  0.4142E-01  0.7421E-02  0.2778E-02
     -1.961  0.3819E-01  0.7340E-02  0.2747E-02
     -1.863  0.4399E-01  0.8728E-02  0.3317E-02
     -1.765  0.4448E-01  0.8709E-02  0.3416E-02
     -1.666  0.3582E-01  0.7072E-02  0.2834E-02
     -1.568  0.3274E-01  0.6960E-02  0.2759E-02
     -1.469  0.3968E-01  0.8919E-02  0.3488E-02
     -1.371  0.4206E-01  0.1068E-01  0.3812E-02
     -1.273  0.3364E-01  0.1554E-01  0.3476E-02
     -1.174  0.2837E-01  0.3515E-01  0.4222E-02
     -1.076  0.3539E-01  0.7393E-01  0.7008E-02
     -0.978  0.4269E-01  0.1108E+00  0.9706E-02
     -0.879  0.3761E-01  0.1170E+00  0.9738E-02
     -0.781  0.2852E-01  0.9523E-01  0.7975E-02
     -0.682  0.3035E-01  0.7170E-01  0.7108E-02
     -0.584  0.3990E-01  0.5944E-01  0.7470E-02
     -0.486  0.4096E-01  0.5318E-01  0.7245E-02
     -0.387  0.3088E-01  0.4915E-01  0.6026E-02
     -0.289  0.2474E-01  0.5330E-01  0.5635E-02
     -0.191  0.3116E-01  0.7385E-01  0.7293E-02
     -0.092  0.3958E-01  0.1106E+00  0.9806E-02
      0.006  0.3650E-01  0.1516E+00  0.1110E-01
      0.105  0.2611E-01  0.1877E+00  0.1120E-01
      0.203  0.2324E-01  0.2186E+00  0.1195E-01
      0.301  0.3077E-01  0.2304E+00  0.1349E-01
      0.400  0.3641E-01  0.2079E+00  0.1386E-01
      0.498  0.3148E-01  0.1699E+00  0.1259E-01
      0.596  0.2326E-01  0.1456E+00  0.1154E-01
      0.695  0.2267E-01  0.1347E+00  0.1173E-01
      0.793  0.2853E-01  0.1211E+00  0.1225E-01
      0.892  0.3133E-01  0.1030E+00  0.1207E-01
      0.990  0.2748E-01  0.8809E-01  0.1123E-01
      1.088  0.2283E-01  0.7823E-01  0.1051E-01
      1.187  0.2333E-01  0.7302E-01  0.1073E-01
      1.285  0.2650E-01  0.7165E-01  0.1165E-01
      1.383  0.2637E-01  0.7049E-01  0.1215E-01
      1.482  0.2373E-01  0.6930E-01  0.1235E-01
      1.580  0.2325E-01  0.7682E-01  0.1414E-01
      1.678  0.2519E-01  0.1035E+00  0.1916E-01
      1.777  0.2512E-01  0.1459E+00  0.2646E-01
      1.875  0.2147E-01  0.1800E+00  0.3252E-01
      1.974  0.1959E-01  0.1858E+00  0.3508E-01
      2.072  0.2286E-01  0.1696E+00  0.3516E-01
      2.170  0.2621E-01  0.1492E+00  0.3460E-01
      2.269  0.2364E-01  0.1342E+00  0.3420E-01
      2.367  0.1741E-01  0.1249E+00  0.3450E-01
      2.465  0.1547E-01  0.1214E+00  0.3695E-01
      2.564  0.1977E-01  0.1245E+00  0.4267E-01
      2.662  0.2255E-01  0.1336E+00  0.5152E-01
      2.761  0.1770E-01  0.1480E+00  0.6374E-01
      2.859  0.9284E-02  0.1618E+00  0.7628E-01
      2.957  0.4972E-02  0.1538E+00  0.7697E-01
      3.056  0.1044E-01  0.1108E+00  0.5742E-01
      3.154  0.3045E-01  0.5543E-01  0.2931E-01
      3.252  0.5973E-01  0.1851E-01  0.9904E-02
      3.351  0.7722E-01  0.4569E-02  0.2442E-02
      3.449  0.7371E-01  0.2549E-02  0.1284E-02
      3.548  0.6799E-01  0.4713E-02  0.2188E-02
      3.646  0.7628E-01  0.8789E-02  0.3563E-02
      3.744  0.9864E-01  0.1499E-01  0.5062E-02
      3.843  0.1287E+00  0.2299E-01  0.6698E-02
      3.941  0.1517E+00  0.3075E-01  0.8199E-02
      4.039  0.1573E+00  0.3972E-01  0.1006E-01
      4.138  0.1538E+00  0.5705E-01  0.1417E-01
      4.236  0.1560E+00  0.8415E-01  0.2097E-01
      4.335  0.1711E+00  0.1062E+00  0.2734E-01
      4.433  0.1889E+00  0.1064E+00  0.3015E-01
      4.531  0.1879E+00  0.8793E-01  0.2981E-01
      4.630  0.1628E+00  0.6864E-01  0.2805E-01
      4.728  0.1337E+00  0.6045E-01  0.2648E-01
      4.826  0.1194E+00  0.6189E-01  0.2601E-01
      4.925  0.1175E+00  0.6538E-01  0.2580E-01
      5.023  0.1165E+00  0.6637E-01  0.2470E-01
      5.122  0.1143E+00  0.6514E-01  0.2297E-01
      5.220  0.1171E+00  0.6452E-01  0.2189E-01
      5.318  0.1247E+00  0.6580E-01  0.2166E-01
      5.417  0.1283E+00  0.6718E-01  0.2094E-01
      5.515  0.1232E+00  0.6740E-01  0.1940E-01
      5.613  0.1080E+00  0.6521E-01  0.1748E-01
      5.712  0.8234E-01  0.6018E-01  0.1477E-01
      5.810  0.5622E-01  0.5942E-01  0.1186E-01
      5.908  0.4248E-01  0.6860E-01  0.1043E-01
      6.007  0.4132E-01  0.7989E-01  0.1046E-01
      6.105  0.4383E-01  0.8291E-01  0.1047E-01
      6.204  0.4181E-01  0.7800E-01  0.9763E-02
      6.302  0.3353E-01  0.8035E-01  0.8839E-02
      6.400  0.2514E-01  0.1275E+00  0.9064E-02
      6.499  0.2307E-01  0.2679E+00  0.1212E-01
      6.597  0.2608E-01  0.4827E+00  0.1787E-01
      6.695  0.2916E-01  0.6349E+00  0.2297E-01
      6.794  0.3170E-01  0.6166E+00  0.2450E-01
      6.892  0.3508E-01  0.4902E+00  0.2342E-01
      6.991  0.3569E-01  0.3744E+00  0.2167E-01
      7.089  0.2984E-01  0.3100E+00  0.1987E-01
      7.187  0.2149E-01  0.2819E+00  0.1908E-01
      7.286  0.1721E-01  0.2853E+00  0.2215E-01
      7.384  0.1840E-01  0.3320E+00  0.3233E-01
      7.482  0.2134E-01  0.4082E+00  0.4810E-01
      7.581  0.2208E-01  0.4464E+00  0.5838E-01
      7.679  0.2094E-01  0.3861E+00  0.5253E-01
      7.778  0.2009E-01  0.2630E+00  0.3583E-01
      7.876  0.2020E-01  0.1652E+00  0.2229E-01
      7.974  0.2294E-01  0.1299E+00  0.1812E-01
      8.073  0.2950E-01  0.1301E+00  0.1962E-01
      8.171  0.3742E-01  0.1287E+00  0.2111E-01
      8.269  0.4256E-01  0.1241E+00  0.2167E-01
      8.368  0.4256E-01  0.1319E+00  0.2307E-01
      8.466  0.3892E-01  0.1411E+00  0.2409E-01
      8.565  0.3561E-01  0.1316E+00  0.2228E-01
      8.663  0.3419E-01  0.1102E+00  0.1863E-01
      8.761  0.3274E-01  0.9659E-01  0.1590E-01
      8.860  0.2910E-01  0.9218E-01  0.1441E-01
      8.958  0.2272E-01  0.8553E-01  0.1290E-01
      9.056  0.1500E-01  0.7490E-01  0.1138E-01
      9.155  0.8634E-02  0.7031E-01  0.1081E-01
      9.253  0.5457E-02  0.7414E-01  0.1093E-01
      9.351  0.5289E-02  0.7605E-01  0.1085E-01
      9.450  0.6174E-02  0.7202E-01  0.1080E-01
      9.548  0.6086E-02  0.7425E-01  0.1195E-01
      9.647  0.5183E-02  0.9155E-01  0.1453E-01
      9.745  0.5002E-02  0.1099E+00  0.1672E-01
      9.843  0.5887E-02  0.1114E+00  0.1694E-01
      9.942  0.7042E-02  0.1051E+00  0.1658E-01
     10.040  0.7900E-02  0.1101E+00  0.1750E-01
     10.138  0.8089E-02  0.1200E+00  0.1830E-01
     10.237  0.7660E-02  0.1179E+00  0.1715E-01
     10.335  0.7598E-02  0.1118E+00  0.1605E-01
     10.434  0.8732E-02  0.1216E+00  0.1803E-01
     10.532  0.1054E-01  0.1422E+00  0.2143E-01
     10.630  0.1184E-01  0.1474E+00  0.2128E-01
     10.729  0.1191E-01  0.1284E+00  0.1668E-01
     10.827  0.1044E-01  0.1044E+00  0.1198E-01
     10.925  0.7609E-02  0.9167E-01  0.1016E-01
     11.024  0.4983E-02  0.8606E-01  0.9988E-02
     11.122  0.4032E-02  0.7639E-01  0.9233E-02
     11.221  0.4017E-02  0.5954E-01  0.7339E-02
     11.319  0.3589E-02  0.4471E-01  0.5478E-02
     11.417  0.2999E-02  0.4295E-01  0.5072E-02
     11.516  0.2890E-02  0.4975E-01  0.5728E-02
     11.614  0.3135E-02  0.5158E-01  0.5874E-02
     11.712  0.3550E-02  0.4939E-01  0.5499E-02
     11.811  0.3762E-02  0.5206E-01  0.5600E-02
     11.909  0.3349E-02  0.5675E-01  0.5932E-02
     12.008  0.2826E-02  0.5576E-01  0.5625E-02
     12.106  0.2869E-02  0.5202E-01  0.4965E-02
     12.204  0.3259E-02  0.5540E-01  0.5069E-02
     12.303  0.3439E-02  0.6512E-01  0.5878E-02
     12.401  0.3182E-02  0.6836E-01  0.6029E-02
     12.499  0.2762E-02  0.6353E-01  0.5289E-02
     12.598  0.2604E-02  0.6448E-01  0.4972E-02
     12.696  0.2613E-02  0.7682E-01  0.5634E-02
     12.795  0.2551E-02  0.9878E-01  0.7023E-02
     12.893  0.2686E-02  0.1286E+00  0.9006E-02
     12.991  0.3192E-02  0.1453E+00  0.1023E-01
     13.090  0.3423E-02  0.1225E+00  0.8782E-02
     13.188  0.2740E-02  0.7230E-01  0.5389E-02
     13.286  0.1673E-02  0.3195E-01  0.2725E-02
     13.385  0.1107E-02  0.1645E-01  0.1947E-02
     13.483  0.9817E-03  0.1396E-01  0.1998E-02
     13.581  0.7715E-03  0.1107E-01  0.1642E-02
     13.680  0.4097E-03  0.5904E-02  0.8792E-03
     13.778  0.1383E-03  0.1994E-02  0.2971E-03
     13.877  0.2932E-04  0.4231E-03  0.6304E-04
     13.975  0.3898E-05  0.5624E-04  0.8380E-05
     14.073  0.3243E-06  0.4678E-05  0.6971E-06
     14.172  0.1685E-07  0.2432E-06  0.3623E-07
     14.270  0.5466E-09  0.7885E-08  0.1175E-08
     14.368  0.1104E-10  0.1593E-09  0.2374E-10
     14.467  0.1389E-12  0.2003E-11  0.2985E-12
     14.565  0.1085E-14  0.1566E-13  0.2334E-14
     14.664  0.5089E-17  0.7342E-16  0.1094E-16
     14.762  0.0000E+00  0.0000E+00  0.0000E+00
     14.860  0.0000E+00  0.0000E+00  0.0000E+00
     14.959  0.0000E+00  0.0000E+00  0.0000E+00
     15.057  0.0000E+00  0.0000E+00  0.0000E+00
     15.155  0.0000E+00  0.0000E+00  0.0000E+00
     15.254  0.0000E+00  0.0000E+00  0.0000E+00
     15.352  0.0000E+00  0.0000E+00  0.0000E+00
     15.451  0.0000E+00  0.0000E+00  0.0000E+00
     15.45054309    -14.06097965  301      3.18839879      1.00000000
    -14.061  0.0000E+00  0.0000E+00  0.0000E+00
    -13.963  0.0000E+00  0.0000E+00  0.0000E+00
    -13.864  0.0000E+00  0.0000E+00  0.0000E+00
    -13.766  0.0000E+00  0.0000E+00  0.0000E+00
    -13.667  0.0000E+00  0.0000E+00  0.0000E+00
    -13.569  0.0000E+00  0.0000E+00  0.0000E+00
    -13.471  0.0000E+00  0.0000E+00  0.0000E+00
    -13.372  0.0000E+00  0.0000E+00  0.0000E+00
    -13.274  0.0000E+00  0.0000E+00  0.0000E+00
    -13.176  0.2194E-15  0.1197E-17  0.1277E-17
    -13.077  0.4746E-13  0.3737E-15  0.2877E-15
    -12.979  0.6411E-11  0.6140E-13  0.3997E-13
    -12.881  0.5400E-09  0.6497E-11  0.3517E-11
    -12.782  0.2841E-07  0.4446E-09  0.1979E-09
    -12.684  0.9353E-06  0.1972E-07  0.7205E-08
    -12.585  0.1930E-04  0.5669E-06  0.1722E-06
    -12.487  0.2503E-03  0.1055E-04  0.2742E-05
    -12.389  0.2043E-02  0.1267E-03  0.2939E-04
    -12.290  0.1053E-01  0.9791E-03  0.2132E-03
    -12.192  0.3431E-01  0.4858E-02  0.1042E-02
    -12.094  0.7092E-01  0.1543E-01  0.3406E-02
    -11.995  0.9318E-01  0.3134E-01  0.7362E-02
    -11.897  0.7798E-01  0.4063E-01  0.1043E-01
    -11.798  0.4166E-01  0.3357E-01  0.9615E-02
    -11.700  0.1424E-01  0.1767E-01  0.5733E-02
    -11.602  0.3124E-02  0.5913E-02  0.2201E-02
    -11.503  0.4412E-03  0.1258E-02  0.5419E-03
    -11.405  0.4030E-04  0.1697E-03  0.8526E-04
    -11.307  0.2396E-05  0.1451E-04  0.8542E-05
    -11.208  0.9355E-07  0.7856E-06  0.5430E-06
    -11.110  0.2422E-08  0.2689E-07  0.2183E-07
    -11.011  0.4199E-10  0.5810E-09  0.5534E-09
    -10.913  0.4956E-12  0.7919E-11  0.8819E-11
    -10.815  0.1008E-11  0.6815E-13  0.8814E-13
    -10.716  0.1134E-09  0.1860E-13  0.1327E-14
    -10.618  0.7991E-08  0.1481E-11  0.6171E-13
    -10.520  0.3525E-06  0.7624E-10  0.3109E-11
    -10.421  0.9757E-05  0.2498E-08  0.9977E-10
    -10.323  0.1700E-03  0.5241E-07  0.2053E-08
    -10.224  0.1873E-02  0.7103E-06  0.2733E-07
    -10.126  0.1312E-01  0.6286E-05  0.2383E-06
    -10.028  0.5895E-01  0.3690E-04  0.1383E-05
     -9.929  0.1720E+00  0.1469E-03  0.5474E-05
     -9.831  0.3336E+00  0.4094E-03  0.1529E-04
     -9.733  0.4477E+00  0.8365E-03  0.3163E-04
     -9.634  0.4483E+00  0.1332E-02  0.5161E-04
     -9.536  0.3783E+00  0.1774E-02  0.7132E-04
     -9.438  0.3092E+00  0.2116E-02  0.8910E-04
     -9.339  0.2651E+00  0.2373E-02  0.1053E-03
     -9.241  0.2390E+00  0.2572E-02  0.1207E-03
     -9.142  0.2223E+00  0.2729E-02  0.1360E-03
     -9.044  0.2108E+00  0.2855E-02  0.1514E-03
     -8.946  0.2028E+00  0.2954E-02  0.1673E-03
     -8.847  0.1975E+00  0.3028E-02  0.1840E-03
     -8.749  0.1943E+00  0.3079E-02  0.2020E-03
     -8.651  0.1934E+00  0.3108E-02  0.2220E-03
     -8.552  0.1950E+00  0.3117E-02  0.2455E-03
     -8.454  0.2001E+00  0.3105E-02  0.2755E-03
     -8.355  0.2114E+00  0.3077E-02  0.3187E-03
     -8.257  0.2311E+00  0.3031E-02  0.3812E-03
     -8.159  0.2528E+00  0.2936E-02  0.4469E-03
     -8.060  0.2557E+00  0.2733E-02  0.4627E-03
     -7.962  0.2275E+00  0.2414E-02  0.3940E-03
     -7.864  0.1884E+00  0.2080E-02  0.2872E-03
     -7.765  0.1741E+00  0.1841E-02  0.2176E-03
     -7.667  0.2201E+00  0.1753E-02  0.2191E-03
     -7.568  0.3854E+00  0.1898E-02  0.3111E-03
     -7.470  0.6968E+00  0.2278E-02  0.4994E-03
     -7.372  0.9815E+00  0.2496E-02  0.6745E-03
     -7.273  0.9523E+00  0.2062E-02  0.6504E-03
     -7.175  0.6095E+00  0.1164E-02  0.4199E-03
     -7.077  0.2533E+00  0.4308E-03  0.1771E-03
     -6.978  0.6782E-01  0.1029E-03  0.4823E-04
     -6.880  0.1164E-01  0.1572E-04  0.8429E-05
     -6.781  0.1277E-02  0.1531E-05  0.9404E-06
     -6.683  0.8916E-04  0.9477E-07  0.6670E-07
     -6.585  0.3947E-05  0.3717E-08  0.2996E-08
     -6.486  0.1105E-06  0.9222E-10  0.8492E-10
     -6.388  0.1948E-08  0.1444E-11  0.1514E-11
     -6.290  0.2159E-10  0.1425E-13  0.1695E-13
     -6.191  0.1499E-12  0.8857E-16  0.1187E-15
     -6.093  0.6601E-15  0.2634E-18  0.5342E-18
     -5.994  0.0000E+00  0.0000E+00  0.0000E+00
     -5.896  0.0000E+00  0.0000E+00  0.0000E+00
     -5.798  0.0000E+00  0.0000E+00  0.0000E+00
     -5.699  0.0000E+00  0.0000E+00  0.0000E+00
     -5.601  0.0000E+00  0.0000E+00  0.0000E+00
     -5.503  0.0000E+00  0.0000E+00  0.0000E+00
     -5.404  0.0000E+00  0.0000E+00  0.0000E+00
     -5.306  0.0000E+00  0.0000E+00  0.0000E+00