    2    2    1    1
  0.2254527E+02  0.3995153E-09  0.3995153E-09  0.3995153E-09  0.5000000E-15
  1.000000000000000E-004
  CAR 
 GaAs                                    
     18     80     13
 
  0.5000000E+00  0.5000000E+00  0.5000000E+00  0.1250000E-01
    1      -12.029584
    2      -11.931301
    3      -11.931301
    4      -11.866347
    5      -11.866347
    6       -8.060660
    7       -3.755091
    8        1.796385
    9        1.796385
   10        3.817071
   11        7.530670
   12        7.530670
   13       10.512748
 
  0.4736842E+00  0.4736842E+00  0.4736842E+00  0.1250000E-01
    1      -12.029099
    2      -11.931380
    3      -11.931380
    4      -11.866401
    5      -11.866401
    6       -8.081364
    7       -3.718176
    8        1.801911
    9        1.801911
   10        3.822719
   11        7.533756
   12        7.533756
   13       10.515986
 
  0.4473684E+00  0.4473684E+00  0.4473684E+00  0.1250000E-01
    1      -12.027905
    2      -11.931693
    3      -11.931693
    4      -11.866811
    5      -11.866811
    6       -8.141214
    7       -3.609756
    8        1.818441
    9        1.818441
   10        3.839620
   11        7.542534
   12        7.542534
   13       10.522966
 
  0.4210526E+00  0.4210526E+00  0.4210526E+00  0.1250000E-01
    1      -12.025623
    2      -11.932293
    3      -11.932293
    4      -11.866956
    5      -11.866956
    6       -8.234173
    7       -3.435996
    8        1.845854
    9        1.845854
   10        3.867618
   11        7.555569
   12        7.555569
   13       10.523711
 
  0.3947368E+00  0.3947368E+00  0.3947368E+00  0.1250000E-01
    1      -12.022425
    2      -11.932923
    3      -11.932923
    4      -11.867377
    5      -11.867376
    6       -8.352233
    7       -3.205162
    8        1.883928
    9        1.883928
   10        3.906433
   11        7.570405
   12        7.570405
   13       10.494086
 
  0.3684211E+00  0.3684211E+00  0.3684211E+00  0.1250000E-01
    1      -12.018831
    2      -11.933833
    3      -11.933833
    4      -11.868068
    5      -11.868068
    6       -8.487215
    7       -2.925802
    8        1.932331
    9        1.932331
   10        3.955584
   11        7.583512
   12        7.583512
   13       10.387000
 
  0.3421053E+00  0.3421053E+00  0.3421053E+00  0.1250000E-01
    1      -12.014159
    2      -11.934851
    3      -11.934851
    4      -11.868560
    5      -11.868560
    6       -8.631833
    7       -2.605636
    8        1.990610
    9        1.990610
   10        4.014382
   11        7.590389
   12        7.590389
   13       10.155297
 
  0.3157895E+00  0.3157895E+00  0.3157895E+00  0.1250000E-01
    1      -12.008851
    2      -11.936048
    3      -11.936048
    4      -11.869015
    5      -11.869015
    6       -8.780067
    7       -2.251326
    8        2.058155
    9        2.058155
   10        4.081690
   11        7.585744
   12        7.585744
   13        9.812958
 
  0.2894737E+00  0.2894737E+00  0.2894737E+00  0.1250000E-01
    1      -12.002734
    2      -11.937402
    3      -11.937402
    4      -11.869387
    5      -11.869387
    6       -8.927153
    7       -1.868357
    8        2.134165
    9        2.134165
   10        4.155825
   11        7.564109
   12        7.564110
   13        9.412141
 
  0.2631579E+00  0.2631579E+00  0.2631579E+00  0.1250000E-01
    1      -11.996415
    2      -11.938883
    3      -11.938883
    4      -11.869632
    5      -11.869632
    6       -9.069433
    7       -1.461322
    8        2.217606
    9        2.217606
   10        4.234121
   11        7.520857
   12        7.520857
   13        8.990099
 
  0.2368421E+00  0.2368421E+00  0.2368421E+00  0.1250000E-01
    1      -11.990018
    2      -11.940661
    3      -11.940661
    4      -11.869848
    5      -11.869848
    6       -9.204086
    7       -1.034208
    8        2.307133
    9        2.307133
   10        4.312490
   11        7.453423
   12        7.453423
   13        8.566951
 
  0.2105263E+00  0.2105263E+00  0.2105263E+00  0.1250000E-01
    1      -11.983495
    2      -11.942326
    3      -11.942326
    4      -11.870005
    5      -11.870004
    6       -9.328921
    7       -0.590564
    8        2.401067
    9        2.401067
   10        4.384598
   11        7.362477
   12        7.362477
   13        8.155530
 
  0.1842105E+00  0.1842105E+00  0.1842105E+00  0.1250000E-01
    1      -11.977028
    2      -11.943978
    3      -11.943978
    4      -11.870063
    5      -11.870062
    6       -9.442247
    7       -0.133727
    8        2.497259
    9        2.497259
   10        4.440575
   11        7.252081
   12        7.252082
   13        7.767272
 
  0.1578947E+00  0.1578947E+00  0.1578947E+00  0.1250000E-01
    1      -11.971438
    2      -11.945910
    3      -11.945910
    4      -11.870313
    5      -11.870313
    6       -9.542782
    7        0.332914
    8        2.592996
    9        2.592996
   10        4.465548
   11        7.129138
   12        7.129138
   13        7.415695
 
  0.1315789E+00  0.1315789E+00  0.1315789E+00  0.1250000E-01
    1      -11.965802
    2      -11.947382
    3      -11.947382
    4      -11.870259
    5      -11.870259
    6       -9.629430
    7        0.805757
    8        2.685057
    9        2.685057
   10        4.439266
   11        7.002514
   12        7.002514
   13        7.118043
 
  0.1052632E+00  0.1052632E+00  0.1052632E+00  0.1250000E-01
    1      -11.960822
    2      -11.948659
    3      -11.948659
    4      -11.870159
    5      -11.870159
    6       -9.701373
    7        1.280751
    8        2.769536
    9        2.769537
   10        4.339575
   11        6.881579
   12        6.881580
   13        6.891362
 
  0.7894737E-01  0.7894737E-01  0.7894737E-01  0.1250000E-01
    1      -11.956738
    2      -11.949801
    3      -11.949801
    4      -11.870223
    5      -11.870223
    6       -9.757987
    7        1.752913
    8        2.842056
    9        2.842056
   10        4.152518
   11        6.743299
   12        6.775557
   13        6.775558
 
  0.5263158E-01  0.5263158E-01  0.5263158E-01  0.1250000E-01
    1      -11.953639
    2      -11.950833
    3      -11.950833
    4      -11.870298
    5      -11.870298
    6       -9.798788
    7        2.215214
    8        2.898132
    9        2.898132
   10        3.882052
   11        6.663876
   12        6.692794
   13        6.692794
 
  0.2631579E-01  0.2631579E-01  0.2631579E-01  0.1250000E-01
    1      -11.952158
    2      -11.951384
    3      -11.951384
    4      -11.870429
    5      -11.870429
    6       -9.823399
    7        2.652926
    8        2.933717
    9        2.933717
   10        3.552215
   11        6.630443
   12        6.640136
   13        6.640136
 
  0.0000000E+00  0.0000000E+00  0.0000000E+00  0.1250000E-01
    1      -11.951553
    2      -11.951553
    3      -11.951523
    4      -11.870416
    5      -11.870415
    6       -9.831610
    7        2.945929
    8        2.945929
    9        2.945939
   10        3.293766
   11        6.622058
   12        6.622058
   13        6.622078
 
  0.0000000E+00  0.0000000E+00  0.0000000E+00  0.1250000E-01
    1      -11.951553
    2      -11.951553
    3      -11.951523
    4      -11.870416
    5      -11.870416
    6       -9.831610
    7        2.945929
    8        2.945929
    9        2.945939
   10        3.293766
   11        6.622058
   12        6.622058
   13        6.622078
 
  0.2631579E-01  0.0000000E+00  0.2631579E-01  0.1250000E-01
    1      -11.952573
    2      -11.951236
    3      -11.951216
    4      -11.870535
    5      -11.870330
    6       -9.820659
    7        2.615220
    8        2.908040
    9        2.908047
   10        3.622878
   11        6.578174
   12        6.673259
   13        6.673274
 
  0.5263158E-01  0.0000000E+00  0.5263158E-01  0.1250000E-01
    1      -11.955451
    2      -11.949863
    3      -11.949844
    4      -11.870508
    5      -11.870021
    6       -9.787843
    7        2.157979
    8        2.800782
    9        2.800789
   10        4.073523
   11        6.456730
   12        6.820461
   13        6.820475
 
  0.7894737E-01  0.0000000E+00  0.7894737E-01  0.1250000E-01
    1      -11.960306
    2      -11.948406
    3      -11.948386
    4      -11.871231
    5      -11.869613
    6       -9.733475
    7        1.694090
    8        2.639713
    9        2.639720
   10        4.519341
   11        6.282108
   12        7.047743
   13        7.047756
 
  0.1052632E+00  0.0000000E+00  0.1052632E+00  0.1250000E-01
    1      -11.966465
    2      -11.946123
    3      -11.946105
    4      -11.872137
    5      -11.868712
    6       -9.658034
    7        1.232081
    8        2.442686
    9        2.442693
   10        4.937448
   11        6.084069
   12        7.337106
   13        7.337119
 
  0.1315789E+00  0.0000000E+00  0.1315789E+00  0.1250000E-01
    1      -11.974047
    2      -11.943562
    3      -11.943544
    4      -11.873467
    5      -11.868062
    6       -9.562125
    7        0.774287
    8        2.225103
    9        2.225111
   10        5.284342
   11        5.907979
   12        7.672591
   13        7.672603
 
  0.1578947E+00  0.0000000E+00  0.1578947E+00  0.1250000E-01
    1      -11.982468
    2      -11.940523
    3      -11.940505
    4      -11.874971
    5      -11.867287
    6       -9.446506
    7        0.321911
    8        1.998785
    9        1.998793
   10        5.408176
   11        5.895228
   12        8.042006
   13        8.042018
 
  0.1842105E+00  0.0000000E+00  0.1842105E+00  0.1250000E-01
    1      -11.991366
    2      -11.936854
    3      -11.936835
    4      -11.876531
    5      -11.866391
    6       -9.312129
    7       -0.124162
    8        1.772280
    9        1.772288
   10        5.276718
   11        6.055688
   12        8.436451
   13        8.436470
 
  0.2105263E+00  0.0000000E+00  0.2105263E+00  0.1250000E-01
    1      -12.000514
    2      -11.933170
    3      -11.933151
    4      -11.878460
    5      -11.865444
    6       -9.160095
    7       -0.563074
    8        1.551683
    9        1.551691
   10        5.092483
   11        6.162202
   12        8.849233
   13        8.849274
 
  0.2368421E+00  0.0000000E+00  0.2368421E+00  0.1250000E-01
    1      -12.009293
    2      -11.929217
    3      -11.929199
    4      -11.880342
    5      -11.864191
    6       -8.991761
    7       -0.993692
    8        1.341441
    9        1.341449
   10        4.911353
   11        6.152456
   12        9.275615
   13        9.275651
 
  0.2631579E+00  0.0000000E+00  0.2631579E+00  0.1250000E-01
    1      -12.018042
    2      -11.925137
    3      -11.925120
    4      -11.882932
    5      -11.863062
    6       -8.808861
    7       -1.414531
    8        1.144757
    9        1.144765
   10        4.745807
   11        6.037432
   12        9.711913
   13        9.711941
 
  0.2894737E+00  0.0000000E+00  0.2894737E+00  0.1250000E-01
    1      -12.026389
    2      -11.921195
    3      -11.921177
    4      -11.885163
    5      -11.862092
    6       -8.613586
    7       -1.823453
    8        0.964070
    9        0.964079
   10        4.600700
   11        5.852949
   12       10.154867
   13       10.168141
 
  0.3157895E+00  0.0000000E+00  0.3157895E+00  0.1250000E-01
    1      -12.034084
    2      -11.917344
    3      -11.917327
    4      -11.887000
    5      -11.861154
    6       -8.408865
    7       -2.217512
    8        0.801248
    9        0.801256
   10        4.478625
   11        5.634078
   12       10.601566
   13       10.602102
 
  0.3421053E+00  0.0000000E+00  0.3421053E+00  0.1250000E-01
    1      -12.040991
    2      -11.913643
    3      -11.913626
    4      -11.889021
    5      -11.860255
    6       -8.198707
    7       -2.592575
    8        0.657715
    9        0.657723
   10        4.381182
   11        5.406208
   12       11.048480
   13       11.058337
 
  0.3684211E+00  0.0000000E+00  0.3684211E+00  0.1250000E-01
    1      -12.047116
    2      -11.910556
    3      -11.910538
    4      -11.890979
    5      -11.859463
    6       -7.988669
    7       -2.942881
    8        0.534600
    9        0.534609
   10        4.309389
   11        5.185638
   12       11.490490
   13       11.520057
 
  0.3947368E+00  0.0000000E+00  0.3947368E+00  0.1250000E-01
    1      -12.052166
    2      -11.907818
    3      -11.907800
    4      -11.892891
    5      -11.858776
    6       -7.786579
    7       -3.260319
    8        0.432788
    9        0.432797
   10        4.263811
   11        4.982572
   12       11.919268
   13       11.932208
 
  0.4210526E+00  0.0000000E+00  0.4210526E+00  0.1250000E-01
    1      -12.055682
    2      -11.905086
    3      -11.905070
    4      -11.894108
    5      -11.858058
    6       -7.603330
    7       -3.533634
    8        0.352968
    9        0.352976
   10        4.244352
   11        4.803790
   12       12.320285
   13       12.346010
 
  0.4473684E+00  0.0000000E+00  0.4473684E+00  0.1250000E-01
    1      -12.058613
    2      -11.903468
    3      -11.903453
    4      -11.895160
    5      -11.857665
    6       -7.453329
    7       -3.748228
    8        0.295597
    9        0.295605
   10        4.249303
   11        4.654921
   12       12.666633
   13       13.059109
 
  0.4736842E+00  0.0000000E+00  0.4736842E+00  0.1250000E-01
    1      -12.060386
    2      -11.902334
    3      -11.902319
    4      -11.895802
    5      -11.857312
    6       -7.353287
    7       -3.887114
    8        0.261046
    9        0.261054
   10        4.271922
   11        4.545127
   12       12.913998
   13       12.924034
 
  0.5000000E+00  0.0000000E+00  0.5000000E+00  0.1250000E-01
    1      -12.060980
    2      -11.902005
    3      -11.901990
    4      -11.896018
    5      -11.857236
    6       -7.317913
    7       -3.935447
    8        0.249503
    9        0.249512
   10        4.288363
   11        4.499496
   12       13.006191
   13       13.450543
 
  0.5000000E+00  0.0000000E+00  0.5000000E+00  0.1250000E-01
    1      -12.060980
    2      -11.902005
    3      -11.901990
    4      -11.896018
    5      -11.857236
    6       -7.317913
    7       -3.935447
    8        0.249503
    9        0.249512
   10        4.288363
   11        4.499496
   12       13.006187
   13       13.009677
 
  0.4934211E+00  0.1973684E-01  0.5131579E+00  0.1250000E-01
    1      -12.060754
    2      -11.902265
    3      -11.902181
    4      -11.895717
    5      -11.857325
    6       -7.319265
    7       -3.929874
    8        0.233735
    9        0.236868
   10        4.318740
   11        4.534866
   12       12.924306
   13       12.945677
 
  0.4868421E+00  0.3947368E-01  0.5263158E+00  0.1250000E-01
    1      -12.060206
    2      -11.903182
    3      -11.902684
    4      -11.894923
    5      -11.857631
    6       -7.323225
    7       -3.913538
    8        0.187623
    9        0.201386
   10        4.409104
   11        4.638164
   12       12.658804
   13       12.800364
 
  0.4802632E+00  0.5921053E-01  0.5394737E+00  0.1250000E-01
    1      -12.059386
    2      -11.904635
    3      -11.903388
    4      -11.893803
    5      -11.858127
    6       -7.329508
    7       -3.887561
    8        0.114786
    9        0.149406
   10        4.556857
   11        4.802331
   12       12.244207
   13       12.598394
 
  0.4736842E+00  0.7894737E-01  0.5526316E+00  0.1250000E-01
    1      -12.058033
    2      -11.906549
    3      -11.904085
    4      -11.892435
    5      -11.858743
    6       -7.337676
    7       -3.853754
    8        0.020771
    9        0.089159
   10        4.757451
   11        5.018608
   12       11.738664
   13       12.358552
 
  0.4671053E+00  0.9868421E-01  0.5657895E+00  0.1250000E-01
    1      -12.056602
    2      -11.908722
    3      -11.904830
    4      -11.890953
    5      -11.859602
    6       -7.347185
    7       -3.814536
    8       -0.088031
    9        0.029129
   10        5.005015
   11        5.278254
   12       11.184799
   13       12.089359
 
  0.4605263E+00  0.1184211E+00  0.5789474E+00  0.1250000E-01
    1      -12.054779
    2      -11.911050
    3      -11.905493
    4      -11.889309
    5      -11.860483
    6       -7.357427
    7       -3.772774
    8       -0.205318
    9       -0.022798
   10        5.293380
   11        5.573299
   12       10.608872
   13       11.797604
 
  0.4539474E+00  0.1381579E+00  0.5921053E+00  0.1250000E-01
    1      -12.052792
    2      -11.913388
    3      -11.906058
    4      -11.887586
    5      -11.861439
    6       -7.367776
    7       -3.731597
    8       -0.325515
    9       -0.059847
   10        5.616537
   11        5.896336
   12       10.027585
   13       11.490548
 
  0.4473684E+00  0.1578947E+00  0.6052632E+00  0.1250000E-01
    1      -12.050921
    2      -11.915760
    3      -11.906705
    4      -11.885926
    5      -11.862596
    6       -7.377639
    7       -3.694110
    8       -0.443959
    9       -0.076599
   10        5.968506
   11        6.239781
   12        9.453500
   13       11.174987
 
  0.4407895E+00  0.1776316E+00  0.6184211E+00  0.1250000E-01
    1      -12.049131
    2      -11.918077
    3      -11.907532
    4      -11.884247
    5      -11.863816
    6       -7.386463
    7       -3.663013
    8       -0.556869
    9       -0.069163
   10        6.341756
   11        6.594231
   12        8.900532
   13       10.857088
 
  0.4342105E+00  0.1973684E+00  0.6315789E+00  0.1250000E-01
    1      -12.047622
    2      -11.919950
    3      -11.908092
    4      -11.882734
    5      -11.864779
    6       -7.393766
    7       -3.640341
    8       -0.661214
    9       -0.035467
   10        6.717778
   11        6.945352
   12        8.396737
   13       10.544937
 
  0.4276316E+00  0.2171053E+00  0.6447368E+00  0.1250000E-01
    1      -12.046462
    2      -11.921328
    3      -11.908603
    4      -11.881507
    5      -11.865673
    6       -7.399151
    7       -3.627177
    8       -0.754631
    9        0.024522
   10        6.993363
   11        7.290063
   12        8.040486
   13       10.248042
 
  0.4210526E+00  0.2368421E+00  0.6578947E+00  0.1250000E-01
    1      -12.045679
    2      -11.922071
    3      -11.909047
    4      -11.880592
    5      -11.866144
    6       -7.402312
    7       -3.623585
    8       -0.835250
    9        0.108620
   10        6.884647
   11        7.681545
   12        8.047146
   13        9.983045
 
  0.4144737E+00  0.2565789E+00  0.6710526E+00  0.1250000E-01
    1      -12.045396
    2      -11.922252
    3      -11.909500
    4      -11.880208
    5      -11.866454
    6       -7.403027
    7       -3.628748
    8       -0.901620
    9        0.212319
   10        6.512242
   11        8.079417
   12        8.302594
   13        9.784823
 
  0.4078947E+00  0.2763158E+00  0.6842105E+00  0.1250000E-01
    1      -12.045472
    2      -11.921784
    3      -11.909793
    4      -11.880268
    5      -11.866269
    6       -7.401160
    7       -3.641163
    8       -0.952611
    9        0.328632
   10        6.097890
   11        8.316955
   12        8.684089
   13        9.721346
 
  0.4013158E+00  0.2960526E+00  0.6973684E+00  0.1250000E-01
    1      -12.045885
    2      -11.920787
    3      -11.909907
    4      -11.880795
    5      -11.865960
    6       -7.396651
    7       -3.658991
    8       -0.987392
    9        0.447822
   10        5.705548
   11        8.319377
   12        9.147464
   13        9.846437
 
  0.3947368E+00  0.3157895E+00  0.7105263E+00  0.1250000E-01
    1      -12.046827
    2      -11.919658
    3      -11.910000
    4      -11.881697
    5      -11.865500
    6       -7.389536
    7       -3.680293
    8       -1.005381
    9        0.557201
   10        5.361073
   11        8.173574
   12        9.633534
   13       10.101839
 
  0.3881579E+00  0.3355263E+00  0.7236842E+00  0.1250000E-01
    1      -12.047762
    2      -11.918200
    3      -11.909899
    4      -11.882693
    5      -11.864789
    6       -7.379935
    7       -3.703204
    8       -1.006200
    9        0.641387
   10        5.083851
   11        7.963842
   12       10.122452
   13       10.390974
 
  0.3815789E+00  0.3552632E+00  0.7368421E+00  0.1250000E-01
    1      -12.048809
    2      -11.916884
    3      -11.909572
    4      -11.883696
    5      -11.863993
    6       -7.368094
    7       -3.726099
    8       -0.989699
    9        0.683968
   10        4.891659
   11        7.732282
   12       10.570226
   13       10.661676
 
  0.3750000E+00  0.3750000E+00  0.7500000E+00  0.1250000E-01
    1      -12.049608
    2      -11.915687
    3      -11.908783
    4      -11.884584
    5      -11.863296
    6       -7.354368
    7       -3.747610
    8       -0.955909
    9        0.671542
   10        4.798498
   11        7.496833
   12       10.778133
   13       10.942074
 
  0.3750000E+00  0.3750000E+00  0.7500000E+00  0.1250000E-01
    1      -12.049608
    2      -11.915687
    3      -11.908783
    4      -11.884584
    5      -11.863296
    6       -7.354368
    7       -3.747610
    8       -0.955909
    9        0.671542
   10        4.798498
   11        7.496833
   12       10.778632
   13       10.941615
 
  0.3552632E+00  0.3552632E+00  0.7105263E+00  0.1250000E-01
    1      -12.046889
    2      -11.918448
    3      -11.911361
    4      -11.881957
    5      -11.864976
    6       -7.411303
    7       -3.677416
    8       -1.048090
    9        0.807405
   10        4.927229
   11        8.173837
   12       10.506355
   13       10.516054
 
  0.3355263E+00  0.3355263E+00  0.6710526E+00  0.1250000E-01
    1      -12.043805
    2      -11.921006
    3      -11.913815
    4      -11.879291
    5      -11.866803
    6       -7.497804
    7       -3.584261
    8       -1.069193
    9        0.958028
   10        5.065145
   11        8.695518
   12       10.104474
   13       10.377210
 
  0.3157895E+00  0.3157895E+00  0.6315789E+00  0.1250000E-01
    1      -12.040261
    2      -11.922920
    3      -11.916369
    4      -11.876419
    5      -11.867999
    6       -7.615479
    7       -3.460030
    8       -1.021776
    9        1.121081
   10        5.206515
   11        8.878987
   12        9.710157
   13        9.998155
 
  0.2960526E+00  0.2960526E+00  0.5921053E+00  0.1250000E-01
    1      -12.036759
    2      -11.924771
    3      -11.919222
    4      -11.874150
    5      -11.869526
    6       -7.762337
    7       -3.298139
    8       -0.912268
    9        1.293813
   10        5.343314
   11        8.803496
   12        9.335914
   13        9.563941
 
  0.2763158E+00  0.2763158E+00  0.5526316E+00  0.1250000E-01
    1      -12.032792
    2      -11.926301
    3      -11.922103
    4      -11.872167
    5      -11.870682
    6       -7.933328
    7       -3.094609
    8       -0.748503
    9        1.473097
   10        5.464962
   11        8.656300
   12        8.983825
   13        9.152411
 
  0.2565789E+00  0.2565789E+00  0.5131579E+00  0.1250000E-01
    1      -12.028169
    2      -11.927558
    3      -11.925026
    4      -11.871631
    5      -11.870565
    6       -8.121637
    7       -2.848315
    8       -0.538271
    9        1.655408
   10        5.558818
   11        8.514835
   12        8.655193
   13        8.776749
 
  0.2368421E+00  0.2368421E+00  0.4736842E+00  0.1250000E-01
    1      -12.023079
    2      -11.928924
    3      -11.928011
    4      -11.872394
    5      -11.869402
    6       -8.319970
    7       -2.560140
    8       -0.288696
    9        1.836830
   10        5.612488
   11        8.334228
   12        8.350929
   13        8.515989
 
  0.2171053E+00  0.2171053E+00  0.4342105E+00  0.1250000E-01
    1      -12.017353
    2      -11.931154
    3      -11.930390
    4      -11.873012
    5      -11.868612
    6       -8.521506
    7       -2.232107
    8       -0.006173
    9        2.013270
   10        5.618179
   11        8.036125
   12        8.071503
   13        8.457827
 
  0.1973684E+00  0.1973684E+00  0.3947368E+00  0.1250000E-01
    1      -12.010712
    2      -11.934061
    3      -11.931957
    4      -11.873109
    5      -11.868200
    6       -8.720310
    7       -1.866763
    8        0.303294
    9        2.180709
   10        5.576074
   11        7.741315
   12        7.817252
   13        8.470931
 
  0.1776316E+00  0.1776316E+00  0.3552632E+00  0.1250000E-01
    1      -12.003529
    2      -11.936840
    3      -11.933832
    4      -11.873040
    5      -11.868119
    6       -8.911434
    7       -1.466778
    8        0.633609
    9        2.335356
   10        5.493261
   11        7.474328
   12        7.588120
   13        8.500684
 
  0.1578947E+00  0.1578947E+00  0.3157895E+00  0.1250000E-01
    1      -11.996186
    2      -11.939525
    3      -11.936064
    4      -11.872890
    5      -11.868257
    6       -9.090904
    7       -1.034859
    8        0.978166
    9        2.474066
   10        5.379274
   11        7.239774
   12        7.383945
   13        8.495600
 
  0.1381579E+00  0.1381579E+00  0.2763158E+00  0.1250000E-01
    1      -11.988262
    2      -11.941979
    3      -11.938421
    4      -11.872533
    5      -11.868467
    6       -9.255514
    7       -0.573789
    8        1.329248
    9        2.594650
   10        5.241394
   11        7.040386
   12        7.204491
   13        8.400073
 
  0.1184211E+00  0.1184211E+00  0.2368421E+00  0.1250000E-01
    1      -11.980437
    2      -11.944240
    3      -11.940958
    4      -11.872005
    5      -11.868678
    6       -9.402704
    7       -0.086593
    8        1.677414
    9        2.696003
   10        5.081790
   11        6.878438
   12        7.049471
   13        8.180901
 
  0.9868421E-01  0.9868421E-01  0.1973684E+00  0.1250000E-01
    1      -11.972771
    2      -11.946607
    3      -11.943484
    4      -11.871528
    5      -11.869170
    6       -9.530472
    7        0.423231
    8        2.011021
    9        2.778135
   10        4.895981
   11        6.755940
   12        6.918578
   13        7.855878
 
  0.7894737E-01  0.7894737E-01  0.1578947E+00  0.1250000E-01
    1      -11.965726
    2      -11.948274
    3      -11.946081
    4      -11.871015
    5      -11.869492
    6       -9.637162
    7        0.951374
    8        2.316085
    9        2.842029
   10        4.672215
   11        6.673761
   12        6.811728
   13        7.483788
 
  0.5921053E-01  0.5921053E-01  0.1184211E+00  0.1250000E-01
    1      -11.959753
    2      -11.949642
    3      -11.948269
    4      -11.870647
    5      -11.869963
    6       -9.721466
    7        1.491937
    8        2.576708
    9        2.889176
   10        4.393515
   11        6.629674
   12        6.728713
   13        7.131876
 
  0.3947368E-01  0.3947368E-01  0.7894737E-01  0.1250000E-01
    1      -11.955059
    2      -11.950693
    3      -11.949844
    4      -11.870410
    5      -11.870144
    6       -9.782422
    7        2.036020
    8        2.776865
    9        2.921283
   10        4.046089
   11        6.616050
   12        6.669452
   13        6.853769
 
  0.1973684E-01  0.1973684E-01  0.3947368E-01  0.1250000E-01
    1      -11.952535
    2      -11.951353
    3      -11.951186
    4      -11.870492
    5      -11.870378
    6       -9.819292
    7        2.566176
    8        2.902904
    9        2.939857
   10        3.634457
   11        6.618741
   12        6.633903
   13        6.680306
 
  0.0000000E+00  0.0000000E+00  0.0000000E+00  0.1250000E-01
    1      -11.951553
    2      -11.951553
    3      -11.951523
    4      -11.870416
    5      -11.870416
    6       -9.831610
    7        2.945929
    8        2.945929
    9        2.945939
   10        3.293766
   11        6.622058
   12        6.622058
   13        6.622078
