       N       E                     dE             d eps       ncg     rms          rms(c)
DAV:   1     0.676783115152E+02    0.67678E+02   -0.67823E+03  2105   0.158E+03
DAV:   2    -0.593668205321E+00   -0.68272E+02   -0.65966E+02  2220   0.265E+02
DAV:   3    -0.587562744806E+01   -0.52820E+01   -0.51879E+01  2635   0.688E+01
DAV:   4    -0.594926256464E+01   -0.73635E-01   -0.73611E-01  2280   0.912E+00
DAV:   5    -0.594995981213E+01   -0.69725E-03   -0.69723E-03  2500   0.856E-01
DAV:   6    -0.594996957391E+01   -0.97618E-05   -0.97613E-05  1786   0.970E-02
   1 F= -.59499696E+01 E0= -.59456030E+01  d E =-.873320E-02
 imaginary and real dielectric function
