 vasp.5.3.5 31Mar14 (build Dec 14 2018 19:18:10) complex                        
  
 executed on             LinuxIFC date 2022.11.15  17:18:16
 serial version


--------------------------------------------------------------------------------------------------------


 INCAR:
 POTCAR:    PAW Ga                                
 POTCAR:    PAW As                                
 POTCAR:    PAW Ga                                
   VRHFIN =Ga: s2p1                                                             
   LEXCH  = CA                                                                  
   EATOM  =  2154.4866 eV,  158.3503 Ry                                         
                                                                                
   TITEL  = PAW Ga                                                              
   LULTRA =        F    use ultrasoft PP ?                                      
   IUNSCR =        1    unscreen: 0-lin 1-nonlin 2-no                           
   RPACOR =    2.000    partial core radius                                     
   POMASS =   69.723; ZVAL   =   13.000    mass and valenz                      
   RCORE  =    2.300    outmost cutoff radius                                   
   RWIGS  =    2.300; RWIGS  =    1.217    wigner-seitz radius (au A)           
   ENMAX  =  282.829; ENMIN  =  212.121 eV                                      
   ICORE  =        3    local potential                                         
   LCOR   =        T    correct aug charges                                     
   LPAW   =        T    paw PP                                                  
   EAUG   =  490.690                                                            
   DEXC   =    -.001                                                            
   RMAX   =    2.742    core radius for proj-oper                               
   RAUG   =    1.300    factor for augmentation sphere                          
   RDEP   =    2.413    core radius for depl-charge                             
   QCUT   =   -4.559; QGAM   =    9.119    optimization parameters              
                                                                                
   Description                                                                  
     l     E      TYP  RCUT    TYP  RCUT                                        
     2   .000     23  2.300                                                     
     2  -.400     23  2.300                                                     
     0   .000     23  2.300                                                     
     0   .000     23  2.300                                                     
     1   .000     23  2.300                                                     
     1   .000     23  2.300                                                     
     3  -.100      7  2.300                                                     
  local pseudopotential read in
  partial core-charges read in
  atomic valenz-charges read in
  non local Contribution for L=           2  read in
    real space projection operators read in
  non local Contribution for L=           2  read in
    real space projection operators read in
  non local Contribution for L=           0  read in
    real space projection operators read in
  non local Contribution for L=           0  read in
    real space projection operators read in
  non local Contribution for L=           1  read in
    real space projection operators read in
  non local Contribution for L=           1  read in
    real space projection operators read in
    PAW grid and wavefunctions read in
 
   number of l-projection  operators is LMAX  =           6
   number of lm-projection operators is LMMAX =          18
 
 POTCAR:    PAW As                                
   VRHFIN =As: s2p3                                                             
   LEXCH  = CA                                                                  
   EATOM  =   171.6739 eV,   12.6177 Ry                                         
                                                                                
   TITEL  = PAW As                                                              
   LULTRA =        F    use ultrasoft PP ?                                      
   IUNSCR =        1    unscreen: 0-lin 1-nonlin 2-no                           
   RPACOR =    1.900    partial core radius                                     
   POMASS =   74.922; ZVAL   =    5.000    mass and valenz                      
   RCORE  =    2.100    outmost cutoff radius                                   
   RWIGS  =    2.300; RWIGS  =    1.217    wigner-seitz radius (au A)           
   ENMAX  =  208.870; ENMIN  =  156.653 eV                                      
   ICORE  =        3    local potential                                         
   LCOR   =        T    correct aug charges                                     
   LPAW   =        T    paw PP                                                  
   EAUG   =  462.758                                                            
   DEXC   =    -.083                                                            
   RMAX   =    3.190    core radius for proj-oper                               
   RAUG   =    1.300    factor for augmentation sphere                          
   RDEP   =    2.140    core radius for depl-charge                             
   QCUT   =   -3.918; QGAM   =    7.836    optimization parameters              
                                                                                
   Description                                                                  
     l     E      TYP  RCUT    TYP  RCUT                                        
     0   .000     23  2.100                                                     
     0   .000     23  2.100                                                     
     1   .000     23  2.100                                                     
     1   .000     23  2.100                                                     
     2   .000     23  2.100                                                     
     3  -.100      7  2.100                                                     
  local pseudopotential read in
  partial core-charges read in
  atomic valenz-charges read in
  non local Contribution for L=           0  read in
    real space projection operators read in
  non local Contribution for L=           0  read in
    real space projection operators read in
  non local Contribution for L=           1  read in
    real space projection operators read in
  non local Contribution for L=           1  read in
    real space projection operators read in
  non local Contribution for L=           2  read in
    real space projection operators read in
    PAW grid and wavefunctions read in
 
   number of l-projection  operators is LMAX  =           5
   number of lm-projection operators is LMMAX =          13
 
  PAW Ga                                :
 energy of atom  1       EATOM=-2154.4866
 kinetic energy error for atom=    0.0281 (will be added to EATOM!!)
  PAW As                                :
 energy of atom  2       EATOM= -171.6739
 kinetic energy error for atom=    0.0023 (will be added to EATOM!!)
 
 
 POSCAR: GaAs in Zincblend structure             
  positions in direct lattice
  velocities in cartesian coordinates
  No initial velocities read in
 exchange correlation table for  LEXCH =        2
   RHO(1)=    0.500       N(1)  =     2000
   RHO(2)=  100.500       N(2)  =     4000
 


--------------------------------------------------------------------------------------------------------


 ion  position               nearest neighbor table
   1  0.000  0.000  0.000-   2 2.45   2 2.45   2 2.45   2 2.45
   2  0.250  0.250  0.250-   1 2.45   1 2.45   1 2.45   1 2.45
 
  LATTYP: Found a face centered cubic cell.
 ALAT       =     5.6500000000
  
  Lattice vectors:
  
 A1 = (   2.8250000000,   2.8250000000,   0.0000000000)
 A2 = (   0.0000000000,   2.8250000000,   2.8250000000)
 A3 = (   2.8250000000,   0.0000000000,   2.8250000000)


Analysis of symmetry for initial positions (statically):
=====================================================================
 Subroutine PRICEL returns:
 Original cell was already a primitive cell.
 

 Routine SETGRP: Setting up the symmetry group for a 
 face centered cubic supercell.


 Subroutine GETGRP returns: Found 24 space group operations
 (whereof 24 operations were pure point group operations)
 out of a pool of 48 trial point group operations.


The static configuration has the point symmetry T_d .


Analysis of symmetry for dynamics (positions and initial velocities):
=====================================================================
 Subroutine PRICEL returns:
 Original cell was already a primitive cell.
 

 Routine SETGRP: Setting up the symmetry group for a 
 face centered cubic supercell.


 Subroutine GETGRP returns: Found 24 space group operations
 (whereof 24 operations were pure point group operations)
 out of a pool of 48 trial point group operations.


The dynamic configuration has the point symmetry T_d .
 
 
 KPOINTS: K-Path for diamond GaAs.                
  interpolating k-points between supplied coordinates
  k-points in reciprocal lattice
Space group operators:
 irot       det(A)        alpha          n_x          n_y          n_z        tau_x        tau_y        tau_z
    1     1.000000     0.000000     1.000000     0.000000     0.000000     0.000000     0.000000     0.000000
    2     1.000000   120.000000    -0.577350    -0.577350    -0.577350     0.000000     0.000000     0.000000
    3     1.000000   120.000000     0.577350     0.577350     0.577350     0.000000     0.000000     0.000000
    4    -1.000000    90.000000     0.000000    -1.000000     0.000000     0.000000     0.000000     0.000000
    5    -1.000000   180.000000     0.707107     0.707107     0.000000     0.000000     0.000000     0.000000
    6    -1.000000    90.000000     1.000000     0.000000     0.000000     0.000000     0.000000     0.000000
    7     1.000000   180.000000     0.000000     1.000000     0.000000     0.000000     0.000000     0.000000
    8     1.000000   120.000000     0.577350     0.577350    -0.577350     0.000000     0.000000     0.000000
    9     1.000000   120.000000     0.577350    -0.577350    -0.577350     0.000000     0.000000     0.000000
   10    -1.000000    90.000000     0.000000     1.000000     0.000000     0.000000     0.000000     0.000000
   11    -1.000000    90.000000     0.000000     0.000000    -1.000000     0.000000     0.000000     0.000000
   12    -1.000000   180.000000     0.000000     0.707107     0.707107     0.000000     0.000000     0.000000
   13     1.000000   120.000000    -0.577350     0.577350     0.577350     0.000000     0.000000     0.000000
   14     1.000000   120.000000    -0.577350     0.577350    -0.577350     0.000000     0.000000     0.000000
   15     1.000000   180.000000     0.000000     0.000000     1.000000     0.000000     0.000000     0.000000
   16    -1.000000    90.000000    -1.000000     0.000000     0.000000     0.000000     0.000000     0.000000
   17    -1.000000   180.000000     0.707107     0.000000     0.707107     0.000000     0.000000     0.000000
   18    -1.000000    90.000000     0.000000     0.000000     1.000000     0.000000     0.000000     0.000000
   19     1.000000   120.000000    -0.577350    -0.577350     0.577350     0.000000     0.000000     0.000000
   20     1.000000   180.000000     1.000000     0.000000     0.000000     0.000000     0.000000     0.000000
   21     1.000000   120.000000     0.577350    -0.577350     0.577350     0.000000     0.000000     0.000000
   22    -1.000000   180.000000     0.707107    -0.707107     0.000000     0.000000     0.000000     0.000000
   23    -1.000000   180.000000     0.707107     0.000000    -0.707107     0.000000     0.000000     0.000000
   24    -1.000000   180.000000     0.000000    -0.707107     0.707107     0.000000     0.000000     0.000000


--------------------------------------------------------------------------------------------------------




 Dimension of arrays:
   k-points           NKPTS =     80   k-points in BZ     NKDIM =     80   number of bands    NBANDS=     13
   number of dos      NEDOS =    301   number of ions     NIONS =      2
   non local maximal  LDIM  =      6   non local SUM 2l+1 LMDIM =     18
   total plane-waves  NPLWV =   4096
   max r-space proj   IRMAX =      1   max aug-charges    IRDMAX=   3958
   dimension x,y,z NGX =    16 NGY =   16 NGZ =   16
   dimension x,y,z NGXF=    32 NGYF=   32 NGZF=   32
   support grid    NGXF=    32 NGYF=   32 NGZF=   32
   ions per type =               1   1
 NGX,Y,Z   is equivalent  to a cutoff of   6.66,  6.66,  6.66 a.u.
 NGXF,Y,Z  is equivalent  to a cutoff of  13.32, 13.32, 13.32 a.u.


 I would recommend the setting:
   dimension x,y,z NGX =    16 NGY =   16 NGZ =   16
 SYSTEM =  GaAs                                    
 POSCAR =  GaAs in Zincblend structure             

 Startparameter for this run:
   NWRITE =      2    write-flag & timer
   PREC   = normal    normal or accurate (medium, high low for compatibility)
   ISTART =      0    job   : 0-new  1-cont  2-samecut
   ICHARG =     11    charge: 1-file 2-atom 10-const
   ISPIN  =      1    spin polarized calculation?
   LNONCOLLINEAR =      F non collinear calculations
   LSORBIT =      F    spin-orbit coupling
   INIWAV =      1    electr: 0-lowe 1-rand  2-diag
   LASPH  =      F    aspherical Exc in radial PAW
   METAGGA=      F    non-selfconsistent MetaGGA calc.

 Electronic Relaxation 1
   ENCUT  =  282.8 eV  20.79 Ry    4.56 a.u.   5.48  5.48  5.48*2*pi/ulx,y,z
   ENINI  =  282.8     initial cutoff
   ENAUG  =  490.7 eV  augmentation charge cutoff
   NELM   =     60;   NELMIN=  2; NELMDL=  0     # of ELM steps 
   EDIFF  = 0.1E-03   stopping-criterion for ELM
   LREAL  =      F    real-space projection
   NLSPLINE    = F    spline interpolate recip. space projectors
   LCOMPAT=      F    compatible to vasp.4.4
   GGA_COMPAT  = T    GGA compatible to vasp.4.4-vasp.4.6
   LMAXPAW     = -100 max onsite density
   LMAXMIX     =    2 max onsite mixed and CHGCAR
   VOSKOWN=      0    Vosko Wilk Nusair interpolation
   ROPT   =    0.00000   0.00000
 Ionic relaxation
   EDIFFG = 0.1E-02   stopping-criterion for IOM
   NSW    =      0    number of steps for IOM
   NBLOCK =      1;   KBLOCK =      1    inner block; outer block 
   IBRION =     -1    ionic relax: 0-MD 1-quasi-New 2-CG
   NFREE  =      0    steps in history (QN), initial steepest desc. (CG)
   ISIF   =      2    stress and relaxation
   IWAVPR =      0    prediction:  0-non 1-charg 2-wave 3-comb
   ISYM   =      2    0-nonsym 1-usesym 2-fastsym
   LCORR  =      T    Harris-Foulkes like correction to forces

   POTIM  = 0.5000    time-step for ionic-motion
   TEIN   =    0.0    initial temperature
   TEBEG  =    0.0;   TEEND  =   0.0 temperature during run
   SMASS  =  -3.00    Nose mass-parameter (am)
   estimated Nose-frequenzy (Omega)   =  0.10E-29 period in steps =****** mass=  -0.365E-27a.u.
   SCALEE = 1.0000    scale energy and forces
   NPACO  =    256;   APACO  = 16.0  distance and # of slots for P.C.
   PSTRESS=    0.0 pullay stress

  Mass of Ions in am
   POMASS =  69.72 74.92
  Ionic Valenz
   ZVAL   =  13.00  5.00
  Atomic Wigner-Seitz radii
   RWIGS  =   1.22  1.22
  virtual crystal weights 
   VCA    =   1.00  1.00
   NELECT =      18.0000    total number of electrons
   NUPDOWN=      -1.0000    fix difference up-down

 DOS related values:
   EMIN   =  10.00;   EMAX   =-10.00  energy-range for DOS
   EFERMI =   0.00
   ISMEAR =     0;   SIGMA  =   0.20  broadening in eV -4-tet -1-fermi 0-gaus

 Electronic relaxation 2 (details)
   IALGO  =     38    algorithm
   LDIAG  =      T    sub-space diagonalisation (order eigenvalues)
   LSUBROT=      F    optimize rotation matrix (better conditioning)
   TURBO    =      0    0=normal 1=particle mesh
   IRESTART =      0    0=no restart 2=restart with 2 vectors
   NREBOOT  =      0    no. of reboots
   NMIN     =      0    reboot dimension
   EREF     =   0.00    reference energy to select bands
   IMIX   =      4    mixing-type and parameters
     AMIX     =   0.40;   BMIX     =  1.00
     AMIX_MAG =   1.60;   BMIX_MAG =  1.00
     AMIN     =   0.10
     WC   =   100.;   INIMIX=   1;  MIXPRE=   1;  MAXMIX= -45

 Intra band minimization:
   WEIMIN = 0.0000     energy-eigenvalue tresh-hold
   EBREAK =  0.19E-05  absolut break condition
   DEPER  =   0.30     relativ break condition  

   TIME   =   0.40     timestep for ELM

  volume/ion in A,a.u.               =      22.55       152.14
  Fermi-wavevector in a.u.,A,eV,Ry     =   1.205417  2.277907 19.769666  1.453029
  Thomas-Fermi vector in A             =   2.341114
 
 Write flags
   LWAVE  =      T    write WAVECAR
   LCHARG =      F    write CHGCAR
   LVTOT  =      F    write LOCPOT, total local potential
   LVHAR  =      F    write LOCPOT, Hartree potential only
   LELF   =      F    write electronic localiz. function (ELF)
   LORBIT =      0    0 simple, 1 ext, 2 COOP (PROOUT)


 Dipole corrections
   LMONO  =      F    monopole corrections only (constant potential shift)
   LDIPOL =      F    correct potential (dipole corrections)
   IDIPOL =      0    1-x, 2-y, 3-z, 4-all directions 
   EPSILON=  1.0000000 bulk dielectric constant

 Exchange correlation treatment:
   GGA     =    --    GGA type
   LEXCH   =     2    internal setting for exchange type
   VOSKOWN=      0    Vosko Wilk Nusair interpolation
   LHFCALC =     F    Hartree Fock is set to
   LHFONE  =     F    Hartree Fock one center treatment
   AEXX    =    0.0000 exact exchange contribution

 Linear response parameters
   LEPSILON=     F    determine dielectric tensor
   LRPA    =     F    only Hartree local field effects (RPA)
   LNABLA  =     F    use nabla operator in PAW spheres
   LVEL    =     F    velocity operator in full k-point grid
   LINTERFAST=   F  fast interpolation
   KINTER  =     0    interpolate to denser k-point grid
   CSHIFT  =0.1000    complex shift for real part using Kramers Kronig
   OMEGAMAX=  -1.0    maximum frequency
   DEG_THRESHOLD= 0.2000000E-02 threshold for treating states as degnerate
   RTIME   =    0.100 relaxation time in fs

 Orbital magnetization related:
   ORBITALMAG=     F  switch on orbital magnetization
   LCHIMAG   =     F  perturbation theory with respect to B field
   DQ        =  0.001000  dq finite difference perturbation B field



--------------------------------------------------------------------------------------------------------


 Static calculation
 charge density and potential remain constant during run
 non-spin polarized calculation
 Variant of blocked Davidson
 Davidson routine will perform the subspace rotation
 perform sub-space diagonalisation
    after iterative eigenvector-optimisation
 no mixing
 using additional bands            4
 reciprocal scheme for non local part
 use partial core corrections
 calculate Harris-corrections to forces 
   (improved forces if not selfconsistent)
 use of overlap-Matrix (Vanderbilt PP)
 Gauss-broadening in eV      SIGMA  =   0.20


--------------------------------------------------------------------------------------------------------


  energy-cutoff  :      282.83
  volume of cell :       45.09
      direct lattice vectors                 reciprocal lattice vectors
     2.825000000  2.825000000  0.000000000     0.176991150  0.176991150 -0.176991150
     0.000000000  2.825000000  2.825000000    -0.176991150  0.176991150  0.176991150
     2.825000000  0.000000000  2.825000000     0.176991150 -0.176991150  0.176991150

  length of vectors
     3.995153314  3.995153314  3.995153314     0.306557665  0.306557665  0.306557665


 
 k-points in units of 2pi/SCALE and weight: K-Path for diamond GaAs.                
   0.50000000  0.50000000  0.50000000       0.013
   0.47368421  0.47368421  0.47368421       0.013
   0.44736842  0.44736842  0.44736842       0.013
   0.42105263  0.42105263  0.42105263       0.013
   0.39473684  0.39473684  0.39473684       0.013
   0.36842105  0.36842105  0.36842105       0.013
   0.34210526  0.34210526  0.34210526       0.013
   0.31578947  0.31578947  0.31578947       0.013
   0.28947368  0.28947368  0.28947368       0.013
   0.26315789  0.26315789  0.26315789       0.013
   0.23684211  0.23684211  0.23684211       0.013
   0.21052632  0.21052632  0.21052632       0.013
   0.18421053  0.18421053  0.18421053       0.013
   0.15789474  0.15789474  0.15789474       0.013
   0.13157895  0.13157895  0.13157895       0.013
   0.10526316  0.10526316  0.10526316       0.013
   0.07894737  0.07894737  0.07894737       0.013
   0.05263158  0.05263158  0.05263158       0.013
   0.02631579  0.02631579  0.02631579       0.013
   0.00000000  0.00000000  0.00000000       0.013
   0.00000000  0.00000000  0.00000000       0.013
   0.05263158  0.00000000  0.00000000       0.013
   0.10526316  0.00000000  0.00000000       0.013
   0.15789474  0.00000000  0.00000000       0.013
   0.21052632  0.00000000  0.00000000       0.013
   0.26315789  0.00000000  0.00000000       0.013
   0.31578947  0.00000000  0.00000000       0.013
   0.36842105  0.00000000  0.00000000       0.013
   0.42105263  0.00000000  0.00000000       0.013
   0.47368421  0.00000000  0.00000000       0.013
   0.52631579  0.00000000  0.00000000       0.013
   0.57894737  0.00000000  0.00000000       0.013
   0.63157895  0.00000000  0.00000000       0.013
   0.68421053  0.00000000  0.00000000       0.013
   0.73684211  0.00000000  0.00000000       0.013
   0.78947368  0.00000000  0.00000000       0.013
   0.84210526  0.00000000  0.00000000       0.013
   0.89473684  0.00000000  0.00000000       0.013
   0.94736842  0.00000000  0.00000000       0.013
   1.00000000  0.00000000  0.00000000       0.013
   1.00000000  0.00000000  0.00000000       0.013
   0.98684211 -0.00000000  0.03947368       0.013
   0.97368421  0.00000000  0.07894737       0.013
   0.96052632 -0.00000000  0.11842105       0.013
   0.94736842  0.00000000  0.15789474       0.013
   0.93421053  0.00000000  0.19736842       0.013
   0.92105263 -0.00000000  0.23684211       0.013
   0.90789474  0.00000000  0.27631579       0.013
   0.89473684  0.00000000  0.31578947       0.013
   0.88157895 -0.00000000  0.35526316       0.013
   0.86842105  0.00000000  0.39473684       0.013
   0.85526316 -0.00000000  0.43421053       0.013
   0.84210526 -0.00000000  0.47368421       0.013
   0.82894737  0.00000000  0.51315789       0.013
   0.81578947 -0.00000000  0.55263158       0.013
   0.80263158 -0.00000000  0.59210526       0.013
   0.78947368 -0.00000000  0.63157895       0.013
   0.77631579  0.00000000  0.67105263       0.013
   0.76315789  0.00000000  0.71052632       0.013
   0.75000000  0.00000000  0.75000000       0.013
   0.75000000  0.00000000  0.75000000       0.013
   0.71052632  0.00000000  0.71052632       0.013
   0.67105263  0.00000000  0.67105263       0.013
   0.63157895  0.00000000  0.63157895       0.013
   0.59210526  0.00000000  0.59210526       0.013
   0.55263158  0.00000000  0.55263158       0.013
   0.51315789  0.00000000  0.51315789       0.013
   0.47368421  0.00000000  0.47368421       0.013
   0.43421053  0.00000000  0.43421053       0.013
   0.39473684  0.00000000  0.39473684       0.013
   0.35526316  0.00000000  0.35526316       0.013
   0.31578947  0.00000000  0.31578947       0.013
   0.27631579  0.00000000  0.27631579       0.013
   0.23684211  0.00000000  0.23684211       0.013
   0.19736842  0.00000000  0.19736842       0.013
   0.15789474  0.00000000  0.15789474       0.013
   0.11842105  0.00000000  0.11842105       0.013
   0.07894737  0.00000000  0.07894737       0.013
   0.03947368  0.00000000  0.03947368       0.013
   0.00000000  0.00000000  0.00000000       0.013
 
 k-points in reciprocal lattice and weights: K-Path for diamond GaAs.                
   0.50000000  0.50000000  0.50000000       0.013
   0.47368421  0.47368421  0.47368421       0.013
   0.44736842  0.44736842  0.44736842       0.013
   0.42105263  0.42105263  0.42105263       0.013
   0.39473684  0.39473684  0.39473684       0.013
   0.36842105  0.36842105  0.36842105       0.013
   0.34210526  0.34210526  0.34210526       0.013
   0.31578947  0.31578947  0.31578947       0.013
   0.28947368  0.28947368  0.28947368       0.013
   0.26315789  0.26315789  0.26315789       0.013
   0.23684211  0.23684211  0.23684211       0.013
   0.21052632  0.21052632  0.21052632       0.013
   0.18421053  0.18421053  0.18421053       0.013
   0.15789474  0.15789474  0.15789474       0.013
   0.13157895  0.13157895  0.13157895       0.013
   0.10526316  0.10526316  0.10526316       0.013
   0.07894737  0.07894737  0.07894737       0.013
   0.05263158  0.05263158  0.05263158       0.013
   0.02631579  0.02631579  0.02631579       0.013
   0.00000000  0.00000000  0.00000000       0.013
   0.00000000  0.00000000  0.00000000       0.013
   0.02631579  0.00000000  0.02631579       0.013
   0.05263158  0.00000000  0.05263158       0.013
   0.07894737  0.00000000  0.07894737       0.013
   0.10526316  0.00000000  0.10526316       0.013
   0.13157895  0.00000000  0.13157895       0.013
   0.15789474  0.00000000  0.15789474       0.013
   0.18421053  0.00000000  0.18421053       0.013
   0.21052632  0.00000000  0.21052632       0.013
   0.23684211  0.00000000  0.23684211       0.013
   0.26315789  0.00000000  0.26315789       0.013
   0.28947368  0.00000000  0.28947368       0.013
   0.31578947  0.00000000  0.31578947       0.013
   0.34210526  0.00000000  0.34210526       0.013
   0.36842105  0.00000000  0.36842105       0.013
   0.39473684  0.00000000  0.39473684       0.013
   0.42105263  0.00000000  0.42105263       0.013
   0.44736842  0.00000000  0.44736842       0.013
   0.47368421  0.00000000  0.47368421       0.013
   0.50000000  0.00000000  0.50000000       0.013
   0.50000000  0.00000000  0.50000000       0.013
   0.49342105  0.01973684  0.51315789       0.013
   0.48684211  0.03947368  0.52631579       0.013
   0.48026316  0.05921053  0.53947368       0.013
   0.47368421  0.07894737  0.55263158       0.013
   0.46710526  0.09868421  0.56578947       0.013
   0.46052632  0.11842105  0.57894737       0.013
   0.45394737  0.13815789  0.59210526       0.013
   0.44736842  0.15789474  0.60526316       0.013
   0.44078947  0.17763158  0.61842105       0.013
   0.43421053  0.19736842  0.63157895       0.013
   0.42763158  0.21710526  0.64473684       0.013
   0.42105263  0.23684211  0.65789474       0.013
   0.41447368  0.25657895  0.67105263       0.013
   0.40789474  0.27631579  0.68421053       0.013
   0.40131579  0.29605263  0.69736842       0.013
   0.39473684  0.31578947  0.71052632       0.013
   0.38815789  0.33552632  0.72368421       0.013
   0.38157895  0.35526316  0.73684211       0.013
   0.37500000  0.37500000  0.75000000       0.013
   0.37500000  0.37500000  0.75000000       0.013
   0.35526316  0.35526316  0.71052632       0.013
   0.33552632  0.33552632  0.67105263       0.013
   0.31578947  0.31578947  0.63157895       0.013
   0.29605263  0.29605263  0.59210526       0.013
   0.27631579  0.27631579  0.55263158       0.013
   0.25657895  0.25657895  0.51315789       0.013
   0.23684211  0.23684211  0.47368421       0.013
   0.21710526  0.21710526  0.43421053       0.013
   0.19736842  0.19736842  0.39473684       0.013
   0.17763158  0.17763158  0.35526316       0.013
   0.15789474  0.15789474  0.31578947       0.013
   0.13815789  0.13815789  0.27631579       0.013
   0.11842105  0.11842105  0.23684211       0.013
   0.09868421  0.09868421  0.19736842       0.013
   0.07894737  0.07894737  0.15789474       0.013
   0.05921053  0.05921053  0.11842105       0.013
   0.03947368  0.03947368  0.07894737       0.013
   0.01973684  0.01973684  0.03947368       0.013
   0.00000000  0.00000000  0.00000000       0.013
 
 position of ions in fractional coordinates (direct lattice) 
   0.00000000  0.00000000  0.00000000
   0.25000000  0.25000000  0.25000000
 
 position of ions in cartesian coordinates  (Angst):
   0.00000000  0.00000000  0.00000000
   1.41250000  1.41250000  1.41250000
 


--------------------------------------------------------------------------------------------------------


 k-point  1 :   0.5000 0.5000 0.5000  plane waves:     476
 k-point  2 :   0.4737 0.4737 0.4737  plane waves:     476
 k-point  3 :   0.4474 0.4474 0.4474  plane waves:     483
 k-point  4 :   0.4211 0.4211 0.4211  plane waves:     483
 k-point  5 :   0.3947 0.3947 0.3947  plane waves:     483
 k-point  6 :   0.3684 0.3684 0.3684  plane waves:     492
 k-point  7 :   0.3421 0.3421 0.3421  plane waves:     492
 k-point  8 :   0.3158 0.3158 0.3158  plane waves:     492
 k-point  9 :   0.2895 0.2895 0.2895  plane waves:     489
 k-point 10 :   0.2632 0.2632 0.2632  plane waves:     486
 k-point 11 :   0.2368 0.2368 0.2368  plane waves:     489
 k-point 12 :   0.2105 0.2105 0.2105  plane waves:     489
 k-point 13 :   0.1842 0.1842 0.1842  plane waves:     489
 k-point 14 :   0.1579 0.1579 0.1579  plane waves:     507
 k-point 15 :   0.1316 0.1316 0.1316  plane waves:     507
 k-point 16 :   0.1053 0.1053 0.1053  plane waves:     507
 k-point 17 :   0.0789 0.0789 0.0789  plane waves:     513
 k-point 18 :   0.0526 0.0526 0.0526  plane waves:     522
 k-point 19 :   0.0263 0.0263 0.0263  plane waves:     531
 k-point 20 :   0.0000 0.0000 0.0000  plane waves:     531
 k-point 21 :   0.0000 0.0000 0.0000  plane waves:     531
 k-point 22 :   0.0263 0.0000 0.0263  plane waves:     531
 k-point 23 :   0.0526 0.0000 0.0526  plane waves:     515
 k-point 24 :   0.0789 0.0000 0.0789  plane waves:     515
 k-point 25 :   0.1053 0.0000 0.1053  plane waves:     503
 k-point 26 :   0.1316 0.0000 0.1316  plane waves:     504
 k-point 27 :   0.1579 0.0000 0.1579  plane waves:     504
 k-point 28 :   0.1842 0.0000 0.1842  plane waves:     496
 k-point 29 :   0.2105 0.0000 0.2105  plane waves:     496
 k-point 30 :   0.2368 0.0000 0.2368  plane waves:     488
 k-point 31 :   0.2632 0.0000 0.2632  plane waves:     488
 k-point 32 :   0.2895 0.0000 0.2895  plane waves:     488
 k-point 33 :   0.3158 0.0000 0.3158  plane waves:     484
 k-point 34 :   0.3421 0.0000 0.3421  plane waves:     480
 k-point 35 :   0.3684 0.0000 0.3684  plane waves:     484
 k-point 36 :   0.3947 0.0000 0.3947  plane waves:     488
 k-point 37 :   0.4211 0.0000 0.4211  plane waves:     472
 k-point 38 :   0.4474 0.0000 0.4474  plane waves:     472
 k-point 39 :   0.4737 0.0000 0.4737  plane waves:     468
 k-point 40 :   0.5000 0.0000 0.5000  plane waves:     468
 k-point 41 :   0.5000 0.0000 0.5000  plane waves:     468
 k-point 42 :   0.4934 0.0197 0.5132  plane waves:     468
 k-point 43 :   0.4868 0.0395 0.5263  plane waves:     471
 k-point 44 :   0.4803 0.0592 0.5395  plane waves:     476
 k-point 45 :   0.4737 0.0789 0.5526  plane waves:     478
 k-point 46 :   0.4671 0.0987 0.5658  plane waves:     482
 k-point 47 :   0.4605 0.1184 0.5789  plane waves:     482
 k-point 48 :   0.4539 0.1382 0.5921  plane waves:     480
 k-point 49 :   0.4474 0.1579 0.6053  plane waves:     483
 k-point 50 :   0.4408 0.1776 0.6184  plane waves:     488
 k-point 51 :   0.4342 0.1974 0.6316  plane waves:     488
 k-point 52 :   0.4276 0.2171 0.6447  plane waves:     489
 k-point 53 :   0.4211 0.2368 0.6579  plane waves:     487
 k-point 54 :   0.4145 0.2566 0.6711  plane waves:     489
 k-point 55 :   0.4079 0.2763 0.6842  plane waves:     487
 k-point 56 :   0.4013 0.2961 0.6974  plane waves:     485
 k-point 57 :   0.3947 0.3158 0.7105  plane waves:     489
 k-point 58 :   0.3882 0.3355 0.7237  plane waves:     487
 k-point 59 :   0.3816 0.3553 0.7368  plane waves:     485
 k-point 60 :   0.3750 0.3750 0.7500  plane waves:     478
 k-point 61 :   0.3750 0.3750 0.7500  plane waves:     478
 k-point 62 :   0.3553 0.3553 0.7105  plane waves:     490
 k-point 63 :   0.3355 0.3355 0.6711  plane waves:     498
 k-point 64 :   0.3158 0.3158 0.6316  plane waves:     488
 k-point 65 :   0.2961 0.2961 0.5921  plane waves:     492
 k-point 66 :   0.2763 0.2763 0.5526  plane waves:     492
 k-point 67 :   0.2566 0.2566 0.5132  plane waves:     489
 k-point 68 :   0.2368 0.2368 0.4737  plane waves:     489
 k-point 69 :   0.2171 0.2171 0.4342  plane waves:     493
 k-point 70 :   0.1974 0.1974 0.3947  plane waves:     489
 k-point 71 :   0.1776 0.1776 0.3553  plane waves:     487
 k-point 72 :   0.1579 0.1579 0.3158  plane waves:     491
 k-point 73 :   0.1382 0.1382 0.2763  plane waves:     491
 k-point 74 :   0.1184 0.1184 0.2368  plane waves:     493
 k-point 75 :   0.0987 0.0987 0.1974  plane waves:     501
 k-point 76 :   0.0789 0.0789 0.1579  plane waves:     505
 k-point 77 :   0.0592 0.0592 0.1184  plane waves:     513
 k-point 78 :   0.0395 0.0395 0.0789  plane waves:     517
 k-point 79 :   0.0197 0.0197 0.0395  plane waves:     531
 k-point 80 :   0.0000 0.0000 0.0000  plane waves:     531

 maximum number of plane-waves:       531
 maximum index in each direction: 
   IXMAX=    5   IYMAX=    5   IZMAX=    5
   IXMIN=   -5   IYMIN=   -5   IZMIN=   -6

 WARNING: aliasing errors must be expected set NGX to  22 to avoid them
 WARNING: aliasing errors must be expected set NGY to  22 to avoid them
 WARNING: aliasing errors must be expected set NGZ to  24 to avoid them
 aliasing errors are usually negligible using standard VASP settings
 and one can safely disregard these warnings

 total amount of memory used by VASP on root node    54909. kBytes
========================================================================

   base      :      30000. kBytes
   nonl-proj :      12251. kBytes
   grid      :       3276. kBytes
   one-center:         31. kBytes
   wavefun   :       9351. kBytes
 
     INWAV:  cpu time    0.00: real time    0.00
 initial charge density was supplied:
 number of electron      18.0000104 magnetization 
 keeping initial charge density in first step


--------------------------------------------------------------------------------------------------------


 Maximum index for augmentation-charges         3589 (set IRDMAX)


--------------------------------------------------------------------------------------------------------


 First call to EWALD:  gamma=   0.498
 Maximum number of real-space cells 3x 3x 3
 Maximum number of reciprocal cells 3x 3x 3

    FEWALD:  cpu time    0.00: real time    0.00


----------------------------------------- Iteration    1(   1)  ---------------------------------------




----------------------------------------- Iteration    1(   1)  --------------------------------     EDDAV:  cpu time   43.37: real time   43.49
       DOS:  cpu time    0.07: real time    0.07
    ------     EDDAV:  cpu time   44.05: real time   44.16
       DOS:  cpu time    0.07: real time    0.08
    --------------------------------------------
      LOOP:  cpu time   44.26: real time   44.37

 eigenvalue-minimisat     EDDAV:  cpu time   44.29: real time   44.43
       DOS:  cpu time    0.06: real time    0.06
    ----     EDDAV:  cpu time   44.80: real time   44.91
       DOS:  cpu time    0.00: real time    0.00
    --------------------------------------------
      LOOP:  cpu time   44.94: real time   45.05

 eigenvalue-minimisations  :  2105
 total energy-change (2. order) : 0.6767831E+02  (-0.6782310E+03)
 number of electron      18.0000104 magnetization 
 augmentation part       18.0000104 magnetization 

 Free energy of the ion-electron system (eV)
  ---------------------------------------------------
  alpha Z        PSCENC =             EDDAV:  cpu time   44.69: real time   44.92
       DOS:  cpu time    0.08: real time    0.08
    --------------------------------------------
      LOOP:  cpu time   44.91: real time   45.14

 eigenvalue-minimisations  :  2105
 total energy-change (2. order) : 0.6767831E+02  (-0.6782310E+03)
 number of electron      18.0000104 magnetization 
 augmentation part       18.0000104 magnetization 

 Free energy of the ion-electron system (eV)
  ---------------------------------------------------
  alpha Z        PSCENC =        72.97670546
  Ewald energy   TEWEN  =     -1     EDDAV:  cpu time   44.19: real time   44.49
       DOS:  cpu time    0.08: real time    0.08
    --------------------------------------------
      LOOP:  cpu time   44.28: real time   44.58

 eigenvalue-minimisations  :  2220
 total energy-change (2. order) :-0.6827198E+02  (-0.6596616E+02)
 number of electron      18.0000104 magnetization 
 augmentation part       18.0000104 magnetization 

 Free energy of the ion-electron system (eV)
  ---------------------------------------------------
  alpha Z        PSCENC =        72.97670546
  Ewald energy   TEWEN  =     -1266.30826995
  -Hartree energ DENC   =      -719.91429371
  -exchange      EXHF   =         0.00000000
  -V(xc)+E(xc)   XCENC  =        52.27267908
  PAW double counting       EDDAV:  cpu time   44.86: real time   44.97
       DOS:  cpu time    0.06: real time    0.06
    --------------------------------------------
      LOOP:  cpu time   44.93: real time   45.04

 eigenvalue-minimisa     EDDAV:  cpu time   44.97: real time   45.08
       DOS:  cpu time    0.08: real time    0.08
    --------------------------------------------
      LOOP:  cpu time   45.06: real time   45.17

 eigenvalue-minimisations  :  2220
 total energy-change (2. order) :-0.6827198E+02  (-0.6596616E+02)
 number of electron      18.0000104 magnetization 
 augmentation part       18.0000104 magnetization 

 Free energy of the ion-electron system (eV)
  -----------------------------------       DOS:  cpu time    0.07: real time    0.07
    --------------------------------------------
      LOOP:  cpu time   44.83: real time   45.07

 eigenvalue-minimisations  :  2220
 total energy-change (2. order) :-0.6827198E+02  (-0.6596616E+02)
 number of electron      18.0000104 magnetization 
 augmentation part       18.0000104 magnetization 

 Free energy of the ion-electron system (eV)
  ------------------------------------       DOS:  cpu time    0.08: real time    0.08
    -------     EDDAV:  cpu time   45.58: real time   45.70
       DOS:  cpu time    0.07: real time    0.07
    --------------------------------------------
      LOOP:  cpu time   45.80: real time   45.92

 eigenvalue-minimisations  :  2220
 total energy-change (2. order) :-0.6827198E+02  (-0.6596616E+02)
 number of electron      18.0000104 magnetization 
 augmentation part       18.0000104 magnetization 

 Free energy of the ion-electron system (eV)
  ---------------------------------------------------
  alpha Z        PSCENC =        72.97670546
  Ewald energy   TEWEN  =     -1266.30826995
        DOS:  cpu time    0.08: real time    0.08
    --------------------------------------------
      LOOP:  cpu time   45.69: real time   45.80

 eigenvalue-minimisations  :  2220
 total energy-change (2. order) :-0.6827198E+02  (-0.6596616E+02)
 number of electron      18.0000104 magnetization 
 augmentation part       18.0000104 magnetization 

 Free energy of the ion-electron system (eV)
  ---------------------------------------------------
  alpha Z        PSCENC =        72.97670546
  Ewald energy   TEWEN  =     -1266.30826995
  -Hartree energ DENC   =      -719.91429371
  -exchange      EXHF   =         0.00000000
  -V(xc)+E(xc)   XCENC  =        52.27267908
  PAW double counting   =      1555.72240197    -1892.24867362
  entropy T*S    EENTRO =        -0.00976257
  eigenvalues    EBANDS =      -129.21456605
  atomic energy  EATOM  =      2326.13011118
  ---------------------------------------------------
  free energy    TOTEN  =        -0.59366821 eV

  energy without entropy =       -0.58390564  energy(sigma     EDDAV:  cpu time   45.45: real time   45.56
       DOS:  cpu time    0.08: real time    0.08
    --------------------------------------------
      LOOP:  cpu time   45.54: real time   45.65

 eigenvalue-minimisations  :  2220
 total energy-change (2. order) :-0.6827198E+02  (-0.6596616E+02)
 number of electron      18.0000104 magnetization 
 augmentation part       18.0000104 magnetization 

 Free energy of the ion-electron system (eV)
  ---------------------------------------------------
  alpha Z        PSCENC =        72.97670546
  Ewald energy   TEWEN  =     -1266.30826995
  -Hartree energ DENC   =      -719.91429371
  -exchange      EXHF   =         0.00000000
  -V(xc)+E(xc)   XCENC  =        52.27267908
  PAW double counting   =      1555.72240197    -1892.24867362
  entropy T*S    EENTRO =        -0.00976257
  eigenvalues    EBANDS =      -129.21456605
  atomic energy  EATOM  =      2326.13011118
  ---------------------------------------------------
  free energy    TOTEN  =        -0.59366821 eV

  energy without entropy =       -0.58390564  energy(sigma->0) =       -0.58878692
 =        -0.59366821 eV

  energy without entropy =       -0.58390564  energy(sigma-     EDDAV:  cpu time   45.07: real time   45.18
       DOS:  cpu time    0.07: real time    0.07
    --------------------------------------------
      LOOP:  cpu time   45.15: real time   45.26

 eigenvalue-minimisations  :  2220
 total energy-change (2. order) :-       DOS:  cpu time    0.06: real time    0.06
    --------------------------------------------
      LOOP:  cpu time   45.16: real time   45.29

 eigenvalue-minimisations  :  2220
 total energy-change (2. order) :-0.6827198E+02  (-0.6596616E+02)
 number of electron      18.0000104 magnetization 
 augmentation part       18.0000104 magnetization 

 Free energy of the ion-electron      EDDAV:  cpu time   45.47: real time   45.58
       DOS:  cpu time    0.08: real time    0.08
    --------------------------------------------
      LOOP:  cpu time   45.63: real time   45.74

 eigenvalue-minimisations  :  2220
 total energy-change (2. order) :-0.6827198E+02  (-0.6596616E+02)
 number of electron      18.0000104 magnetization 
 augmentation part       18.0000104 magnetization 

 Free energy of the ion-electron      EDDAV:  cpu time   52.73: real time   52.87
       DOS:  cpu time    0.15: real time    0.15
    --------------------------------------------
      LOOP:  cpu time   52.90: real time   53.03

 eigenvalue-minimisations  :  2635
 total energy-change (2. order) :-0.5281959E+01  (-0.5187911E+01)
 number of electron      18.0000104 magnetization 
 augmentation part       18.0000104 magnetization 

 Free energy of the ion-electron system (eV)
  ---------------------------------------------------
  alpha Z        PSCENC =        72.97670546
  Ewald energy   TEWEN  =     -1266.30826995
  -Hartree energ DENC   =      -719.91429371
  -exchange      EXHF   =         0.00000000
  -V(xc)+E(xc)   XCENC  =        52.27267908
  PAW double counting   =      1555.72240197    -1892.24867362
  entropy T*S    EENTRO =        -0.00890099
  eigenvalues    EBANDS =      -134.49738687
  atomic energy  EATOM  =      2326.13011118
  ---------------------------------------------------
  free energy    TOTEN  =        -5.87562745 eV

  energy without entropy =       -5.86672646  energy(sigma->0) =       -5.87117695
--------------
      LOOP:  cpu time   52.37: real time   52.50

 eigenvalue-minimisa     EDDAV:  cpu time   54.03: real time   54.19
       DOS:  cpu time    0.14: real time    0.14
    --------------------------------------------
      LOOP:  cpu time   54.18: real time   54.34

 eigenvalue-minimisations  :  2635
 total energy-change (2. order) :-0.5281959E+01  (-0.5187911E+01)
 number of electron      18.0000104 magnetization 
 augmentation part       18.0000104 magnetization 

 Free energy of the ion-electron system (eV)
  ---------------------------------------------------
  alpha Z        PSCENC =        72.97670546
  Ewald energy   TEWEN  =     -1266.30826995
  -Hartree energ DENC   =      -719.91429371
  -exchange      EXHF   =         0.00000000
  -V(xc)+E(xc)   XCENC  =        52.27267908
  PAW double counting   =      1555.72240197    -1892.24867362
  entropy T*S    EENTRO =        -0.00890099
  eigenvalues    EBANDS =      -134.49738687
  atomic energy  EATOM  =      2326.13011118
  ---------------------------------------------------
  free energy    TOTEN  =        -5.87562745 eV

  energy without entropy =       -5.86672646  energy(sigma->0) =       -5.87117695
-----------------------------------------
  alpha Z        PSCENC =        72.97670546
  Ewald energy   TEWEN  =     -1266.30826995
  -Hartree energ DENC   =      -719.91429371
  -exchange          EDDAV:  cpu time   54.37: real time   54.63
       DOS:  cpu time    0.14: real time    0.14
    --------------------------------------------
      LOOP:  cpu time   54.52: real time   54.78

 eigenvalue-minimisations  :  2635
 total energy-change (2. order) :-0.5281959E+01  (-0.5187911E+01)
 number of electron      18.0000104 magnetization 
 augmentation part       18.0000104 magnetization 

 Free energy of the ion-electron system (eV)
  ---------------------------------------------------
  alpha Z        PSCENC =        72.97670546
  Ewald energy   TEWEN  =     -1266.30826995
  -Hartree energ DENC   =      -719.91429371
  -exchange      EXHF   =         0.00000000
  -V(xc)+E(xc)   XCENC  =        52.27267908
  PAW double counting   =      1555.72240197    -1892.24867362
  entropy T*S    EENTRO =        -0.00890099
  eigenvalues    EBANDS =      -134.49738687
  atomic energy  EATOM  =      2326.13011118
  ---------------------------------------------------
  free energy    TOTEN  =        -5.87562745 eV

  energy without entropy =       -5.86672646  energy(sigma->0) =       -5.87117695
N  =     -1266.30826995
  -Hartree energ DENC   =      -719.91429371
  -exchange      EXHF   =         0.00000000
  -V(xc)+E(xc)   XCENC  =        52.27267908
  PAW double counting   =      1555.72240197    -1892.24867362
  entropy T*S    EENTRO =        -0.00890099
  eigenvalues    EBANDS =      -134.49738687
  atomic energy  EATOM  =      2326.13011118
  ---------------------------------------------------
  free energy    TOTEN  =        -5.87562745 eV

  energy without entropy =       -5.86672646  energy(sigma->0) =       -5.87117695
52.57: real time   52.72
       DOS:  cpu time    0.14: real time    0.14
    --------------------------------------------
      LOOP:  cpu time   52.73: real time   52.88

 eigenvalue-minimisations  :  2635
 total energy-change (2. order) :-0.5281959E+01  (-0.5187911E+01)
 number of electron      18.0000104 magnetization 
 augmentation part       18.0000104 magnetization 

 Free energy of the ion-electron system (eV)
  ---------------------------------------------------
  alpha Z        PSCENC =        72.97670546
  Ewald energy   TEWEN  =     -1266.30826995
  -Hartree energ DENC   =      -719.91429371
  -exchange          EDDAV:  cpu time   52.84: real time   53.00
       DOS:  cpu time    0.12: real time    0.12
    --------------------------------------------
      LOOP:  cpu time   52.98: real time   53.14

 eigenvalue-minimisa     EDDAV:  cpu time   53.35: real time   53.49
       DOS:  cpu time    0.16: real time    0.16
    --------------------------------------------
      LOOP:  cpu time   53.53: real time   53.66

 eigenvalue-minimisat     EDDAV:  cpu time   53.51: real time   53.64        DOS:  cpu time    0.12: real time    0.12
    --------------------------------------------
      LOOP:  cpu time   53.67: real time   53.80

 eigenvalue-minimisations  :  2635
 total energy-change (2. order) :-0.5281959E+01  (-0.5187911E+01)
 number of electron      18.0000104 magnetization 
 augmentation part       18.0000104 magnetization 

 Free energy of the ion-electron system (eV)
  ----------------------------------       DOS:  cpu time    0.14: real time    0.14
    --------------------------------------------
      LOOP:  cpu time   53.75: real time   53.89

 eigenvalue-minimisations  :  2635
 total energy-change (2. order) :-0.5281959E+01  (-0.5187911E+01)
 number of electron      18.0000104 magnetization 
 augmentation part       18.0000104 magnetization 

 Free energy of the ion-electron system (eV)
  ---------------------------------------------------
  alpha Z        PSCENC =        72.97670546
  Ewald energy   TEWEN  =     -1266.30826995
  -Hartree energ DENC   =      -719.91429371
  -exchange          EDDAV:  cpu time   53.71: real time   53.85
       DOS:  cpu time    0.14: real time    0.14
    --------------------------------------------
      LOOP:  cpu time   53.87: real time   54.01

 eigenvalue-minimisations  :  2635
 total energy-change (2. order) :-0.5281959E+01  (-0.5187911E+01)
 number of electron      18.0000104 magnetization 
 augmentation part       18.0000104 magnetization 

 Free energy of the ion-electron system (eV)
  ---------------------------------------------------
  alpha Z        PSCENC =        72.97670546
  Ewald energy   TEWEN  =     -1266.30826995
  -Hartree energ DENC   =      -719.91429371
  -exchange          EDDAV:  cpu time   46.51: real time   46.65
       DOS:  cpu time    0.08: real time    0.08
    --------------------------------------------
      LOOP:  cpu time   46.62: real time   46.76

 eigenvalue-minimisations  :  2280
 total energy-change (2. order) :-0.7363512E-01  (-0.7361079E-01)
 number of electron      18.0000104 magnetization 
 augmentation part       18.0000104 magnetization 

 Free energy of the ion-electron      EDDAV:  cpu time   46.14: real time   46.25
       DOS:  cpu time    0.08: real time    0.08
    --------------------------------------------
      LOOP:  cpu time   46.27: real time   46.38

 eigenvalue-minimisations  :  2280
 total energy-change (2. order) :-0.7363512E-01  (-0.7361079E-01)
 number of electron      18.0000104 magnetization 
 augmentation part       18.0000104 magnetization 

 Free energy of the ion-electron      EDDAV:  cpu time   46.59: real time   46.71
       DOS:  cpu time    0.08: real time    0.08
    --------------------------------------------
      LOOP:  cpu time   46.71: real time   46.83

 eigenvalue-minimisations  :  2280
 total energy-change (2. order) :-0.7363512E-01  (-0.7361079E-01)
 number of electron      18.0000104 magnetization 
 augmentation part       18.0000104 magnetization 

 Free energy of the ion-electron system (eV)
  ---------------------------------------------------
  alpha Z        PSCENC =        72.97670546
  Ewald energy   TEWEN  =     -1266.30826995
  -Hartree energ DENC   =      -719.91429371
  -exchange      EXHF   =         0.00000000
  -V(xc)+E(xc)   XCENC  =        52.27267908
  PAW double counting   =      1555.72240197    -1892.24867362
  entropy T*S    EENTRO =        -0.00873285
  eigenvalues    EBANDS =      -134.57119013
  atomic energy  EATOM  =      2326.13011118
  ---------------------------------------------------
  free energy    TOTEN  =        -5.94926256 eV

  energy without entropy =       -5.94052972  energy(sigma->0) =       -5.94489614
46.37: real time   46.49
       DOS:  cpu time    0.08: real time    0.08
    --------------------------------------------
      LOOP:  cpu time   46.49: real time   46.61

 eigenvalue-minimisa     EDDAV:  cpu time   46.56: real time   46.69
       DOS:  cpu time    0.07: real time    0.07
    --------------------------------------------
      LOOP:  cpu time   46.70: real time   46.82

 eigenvalue-minimisations  :  2280
 total energy-change (2. order) :-0.7363512E-01  (-0.7361079E-01)
 number of electron      18.0000104 magnetization 
 augmentation part       18.0000104 magnetization 

 Free energy of the ion-electron system (eV)
  ---------------------------------------------------
  alpha Z        PSCENC =        72.97670546
  Ewald energy   TEWEN  =     -1266.30826995
  -Hartree energ DENC   =      -719.91429371
  -exchange      EXHF   =         0.00000000
  -V(xc)+E(xc)   XCENC  =        52.27267908
  PAW double counting   =      1555.72240197    -1892.24867362
  entropy T*S    EENTRO =        -0.00873285
  eigenvalues    EBANDS =      -134.57119013
  atomic energy  EATOM  =      2326.13011118
  ---------------------------------------------------
  free energy    TOTEN  =        -5.94926256 eV

  energy without entropy =       -5.94052972  energy(sigma->0) =       -5.94489614
------------------------------------------
  alpha Z        PSCENC =        72.97670546
  Ewald energy   TEWEN  =     -1266.30826995
  -Hartree energ DENC   =      -719.91429371
  -exchange      EXHF   =         0.00000000
  -V(xc)+E(xc)   XCENC  =        52.27267908
  PAW double counting   =      1555.72240197    -1892.24867362
  entropy T*S    EENTRO =        -0.00873285
  eigenvalues    EBANDS =      -134.57119013
  atomic energy  EATOM  =      2326.13011118
  ---------------------------------------------------
  free energy    TOTEN  =        -5.94926256 eV

  energy without entropy =       -5.94052972  energy(sigma->0) =       -5.94489614
0000
  -V(xc)+E(xc)   XCENC  =        52.27267908
  PAW double counting   =      1555.72240197    -1892.24867362
  entropy T*S    EENTRO =        -0.00873285
  eigenvalues    EBANDS =      -134.57119013
  atomic energy  EATOM  =      2326.13011118
  ---------------------------------------------------
  free energy    TOTEN  =        -5.94926256 eV

  energy without entropy =       -5.94052972  energy(sigma->0) =       -5.94489614
45.75: real time   45.86
       DOS:  cpu time    0.07: real time    0.07
    --------------------------------------------
      LOOP:  cpu time   45.87: real time   45.98

 eigenvalue-minimisations  :  2280
 total energy-change (2. order) :-0.7363512E-01  (-0.7361079E-01)
 number of electron      18.0000104 magnetization 
 augmentation part       18.0000104 magnetization 

 Free energy of the ion-electron system (eV)
  ---------------------------------------------------
  alpha Z        PSCENC =        72.97670546
  Ewald energy   TEWEN  =     -1266.30826995
  -Hartree energ DENC   =      -719.91429371
  -exchange      EXHF   =         0.00000000
  -V(xc)+E(xc)   XCENC  =        52.27267908
  PAW double counting   =      1555.72240197    -1892.24867362
  entropy T*S    EENTRO =        -0.00873285
  eigenvalues    EBANDS =      -134.57119013
  atomic energy  EATOM  =      2326.13011118
  ---------------------------------------------------
  free energy    TOTEN  =        -5.94926256 eV

  energy without entropy 
 Free energy of the ion-electron      EDDAV:  cpu time   45.91: real time   46.02
       DOS:  cpu time    0.08: real time    0.08
    --------------------------------------------
      LOOP:  cpu time   46.04: real time   46.15

 eigenvalue-minimisations  :  2280
 total energy-change (2. order) :-0.7363512E-01  (-0.7361079E-01)
 number of electron      18.0000104 magnetization 
 augmentation part       18.0000104 magnetization 

 Free energy of the ion-electron system (eV)
  ---------------------------------------------------
  alpha Z        PSCENC =        72.97670546
  Ewald energy   TEWEN  =     -1266.30826995
  -Hartree energ DENC   =      -719.91429371
  -exchange      EXHF   =         0.00000000
  -V(xc)+E(xc)   XCENC  =        52.27267908
  PAW double counting   =      1555.72240197    -1892.24867362
  entropy T*S    EENTRO =        -0.00873285
  eigenvalues    EBANDS =      -134     EDDAV:  cpu time   45.98: real time   46.10
       DOS:  cpu time    0.07: real time    0.07
    --------------------------------------------
      LOOP:  cpu time   46.10: real time   46.22

 eigenvalue-minimisations  :  2280
 total energy-change (2. order) :-0.7363512E-01  (-0.7361079E-01)
 number of electron      18.0000104 magnetization 
 augmentation part       18.0000104 magnetization 

 Free energy of the ion-electron      EDDAV:  cpu time   46.30: real time   46.50
       DOS:  cpu time    0.08: real time    0.08
    --------------------------------------------
      LOOP:  cpu time   46.44: real time   46.64

 eigenvalue-minimisa     EDDAV:  cpu time   46.11: real time   46.22
       DOS:  cpu time    0.08: real time    0.08
    --------------------------------------------
      LOOP:  cpu time   46.22: real time   46.34

 eigenvalue-minimisations  :  2280
 total energy-change (2. order) :-       DOS:  cpu time    0.08: real time    0.08
    --------------------------------------------
      LOOP:  cpu time   46.24: real time   46.37

 eigenvalue-minimisations  :  2280
 total energy-change (2. order) :-0.7363512E-01  (-0.7361079E-01)
 number of electron      18.0000104 magnetization 
 augmentation part       18.0000104 magnetization 

 Free energy of the ion-electron system (eV)
  ---------------------------------------------------
  alpha Z        PSCENC =        72.97670546
  Ewald energy   TEWEN  =     -1266.30826995
  -Hartree energ DENC   =      -719.91429371
  -exchange      EXHF   =         0.00000000
  -V(xc)+E(xc)   XCENC  =        52.27267908
  PAW double counting   =      1555.72240197    -1892.24867362
  entropy T*S    EENTRO =        -0.00873285
  eigenvalues    EBANDS =      -134.57119013
  atomic energy  EATOM  =      2326.13011118
  ---------------------------------------------------
  free energy    TOTEN  =        -5.94926256 eV

  energy without entropy =       -5.94052972  energy(sigma-     EDDAV:  cpu time   45.76: real time   45.89
       DOS:  cpu time    0.08: real time    0.08
    --------------------------------------------
      LOOP:  cpu time   45.89: real time   46.02

 eigenvalue-minimisa     EDDAV:  cpu time   51.12: real time   51.25
       DOS:  cpu time    0.07: real time    0.07
    --------------------------------------------
      LOOP:  cpu time   51.21: real time   51.35

 eigenvalue-minimisations  :  2500
 total energy-change (2. order) :-       DOS:  cpu time    0.07: real time    0.07
    --------------------------------------------
      LOOP:  cpu time   50.74: real time   50.89

 eigenvalue-minimisations  :  2500
 total energy-change (2. order) :-0.6972475E-03  (-0.6972342E-03)
 number of electron      18.0000104 magnetization 
 augmentation part       18.0000104 magnetization 

 Free energy of the ion-electron      EDDAV:  cpu time   51.25: real time   51.40
       DOS:  cpu time    0.07: real time    0.07
    --------------------------------------------
      LOOP:  cpu time   51.34: real time   51.49

 eigenvalue-minimisations  :  2500
 total energy-change (2. order) :-0.6972475E-03  (-0.6972342E-03)
 number of electron      18.0000104 magnetization 
 augmentation part       18.0000104 magnetization 

 Free energy of the ion-electron system (eV)
  ---------------------------------------------------
  alpha Z        PSCENC =        72.97670546
  Ewald energy   TEWEN  =     -1266.30826995
  -Hartree energ DENC   =      -719.91429371
  -exchange      EXHF   =         0.00000000
  -V(xc)+E(xc)   XCENC  =        52.27267908
  PAW double counting   =      1555.72240197    -1892.24867362
  entropy T*S    EENTRO =        -0.00873312
  eigenvalues    EBANDS =      -134.57188711
  atomic energy  EATOM  =      2326.13011118
  ---------------------------------------------------
  free energy    TOTEN  =        -5.94995981 eV

  energy without entropy =       -5.94122670  energy(sigma->0) =       -5.94559325
0000
  -V(xc)+E(xc)   XCENC  =        52.27267908
  PAW double counting   =      1555.72240197    -1892.24867362
  entropy T*S    EENTRO =        -0.00873312
  eigenvalues    EBANDS =      -134     EDDAV:  cpu time   52.44: real time   52.62
       DOS:  cpu time    0.03: real time    0.03
    --------------------------------------------
      LOOP:  cpu time   52.48: real time   52.66

 eigenvalue-minimisations  :  2500
 total energy-change (2. order) :-0.6972475E-03  (-0.6972342E-03)
 number of electron      18.0000104 magnetization 
 augmentation part       18.0000104 magnetization 

 Free energy of the ion-electron system (eV)
  ---------------------------------------------------
  alpha Z        PSCENC =        72.97670546
  Ewald energy   TEWEN  =     -1266.30826995
  -Hartree energ DENC   =      -719.91429371
  -exchange      EXHF   =         0.00000000
  -V(xc)+E(xc)   XCENC  =        52.27267908
  PAW double counting   =      1555.72240197    -1892.24867362
  entropy T*S    EENTRO =        -0.00873312
  eigenvalues    EBANDS =      -134.57188711
  atomic energy  EATOM  =      2326.13011118
  ---------------------------------------------------
  free energy    TOTEN  =        -5.94995981 eV

  energy without entropy =       -5.94122670  energy(sigma->0) =       -5.94559325
0000
  -V(xc)+E(xc)   XCENC  =        52.27267908
  PAW double counting   =      1555.72240197    -1892.24867362
  entropy T*S    EENTRO =        -0.00873312
  eigenvalues    EBANDS =      -134.57188711
  atomic energy  EATOM  =      2326.13011118
  ---------------------------------------------------
  free energy    TOTEN  =        -5.94995981 eV

  energy without entropy =       -5.94122670  energy(sigma->0) =       -5.94559325
gy  EATOM  =      2326.13011118
  ---------------------------------------------------
  free energy    TOTEN  =        -5.94995981 eV

  energy without entropy =       -5.94122670  energy(sigma->0) =       -5.94559325
  EATOM  =      2326.13011118
  ---------------------------------------------------
  free energy    TOTEN  =        -5.94995981 eV

  energy without entropy =       -5.94122670  energy(sigma->0) =       -5.94559325
50.45: real time   50.59
       DOS:  cpu time    0.03: real time    0.03
    --------------------------------------------
      LOOP:  cpu time   50.50: real time   50.63

 eigenvalue-minimisations  :  2500
 total energy-change (2. order) :-0.6972475E-03  (-0.6972342E-03)
 number of electron      18.0000104 magnetization 
 augmentation part       18.0000104 magnetization 

 Free energy of the ion-electron      EDDAV:  cpu time   51.12: real time   51.24
       DOS:  cpu time    0.07: real time    0.07
    --------------------------------------------
      LOOP:  cpu time   51.21: real time   51.33

 eigenvalue-minimisations  :  2500
 total energy-change (2. order) :-0.6972475E-03  (-0.6972342E-03)
 number of electron      18.0000104 magnetization 
 augmentation part       18.0000104 magnetization 

 Free energy of the ion-electron      EDDAV:  cpu time   51.99: real time   52.16
       DOS:  cpu time    0.08: real time    0.08
    --------------------------------------------
      LOOP:  cpu time   52.08: real time   52.25

 eigenvalue-minimisations  :  2500
 total energy-change (2. order) :-0.6972475E-03  (-0.6972342E-03)
 number of electron      18.0000104 magnetization 
 augmentation part       18.0000104 magnetization 

 Free energy of the ion-electron system (eV)
  ---------------------------------------------------
  alpha Z        PSCENC =        72.97670546
  Ewald energy   TEWEN  =     -1266.30826995
  -Hartree energ DENC   =      -719.91429371
  -exchange      EXHF   =         0.00000000
  -V(xc)+E(xc)   XCENC  =        52.27267908
  PAW double counting   =      1555.72240197    -1892.24867362
  entropy T*S    EENTRO =        -0.00873312
  eigenvalues    EBANDS =      -134.57188711
  atomic energy  EATOM  =      2326.13011118
  ---------------------------------------------------
     EDDAV:  cpu time   52.73: real time   52.87
       DOS:  cpu time    0.08: real time    0.08
    --------------------------------------------
      LOOP:  cpu time   52.83: real time   52.97

 eigenvalue-minimisations  :  2500
 total energy-change (2. order) :-0.6972475E-03  (-0.6972342E-03)
 number of electron      18.0000104 magnetization 
 augmentation part       18.0000104 magnetization 

 Free energy of the ion-electron system (eV)
  ---------------------------------------------------
  alpha Z        PSCENC =        72.97670546
  Ewald energy   TEWEN  =     -1266.30826995
  -Hartree energ DENC   =      -719.91429371
  -exchange      EXHF   =         0.00000000
  -V(xc)+E(xc)   XCENC  =        52.27267908
  PAW double counting   =      1555.72240197    -1892.24867362
  entropy T*S    EENTRO =        -0.00873312
  eigenvalues    EBANDS =      -134.57188711
  atomic energy  EATOM  =      2326.13011118
  ---------------------------------------------------
  free energy    TOTEN  =        -5.94995981 eV

  energy without entropy =       -5.94122670  energy(sigma->0) =       -5.94559325
50.41: real time   50.65
       DOS:  cpu time    0.08: real time    0.08
    --------------------------------------------
      LOOP:  cpu time   50.51: real time   50.75

 eigenvalue-minimisa     EDDAV:  cpu time   51.46: real time   51.69
       DOS:  cpu time    0.07: real time    0.07
    --------------------------------------------
      LOOP:  cpu time   51.55: real time   51.77

 eigenvalue-minimisa     EDDAV:  cpu time   52.83: real time   52.96
       DOS:  cpu time    0.07: real time    0.07
    --------------------------------------------
      LOOP:  cpu time   52.92: real time   53.05

 eigenvalue-minimisations  :  2500
 total energy-change (2. order) :-0.6972475E-03  (-0.6972342E-03)
 number of electron      18.0000104 magnetization 
 augmentation part       18.0000104 magnetization 

 Free energy of the ion-electron system (eV)
  ---------------------------------------------------
  alpha Z        PSCENC =        72.97670546
  Ewald energy   TEWEN  =     -1266.30826995
  -Hartree energ DENC   =      -719.91429371
  -exchange      EXHF   =         0.00000000
  -V(xc)+E(xc)   XCENC  =        52.27267908
  PAW double counting   =      1555.72240197    -1892.24867362
  entropy T*S    EENTRO =        -0.00873312
  eigenvalues    EBANDS =      -134.     EDDAV:  cpu time   29.61: real time   29.68
       DOS:  cpu time    0.08: real time    0.08
    --------------------------------------------
      LOOP:  cpu time   29.70: real time   29.78

 eigenvalue-minimisations  :  1786
 total energy-change (2. order) :-0.9761777E-05  (-0.9761339E-05)
 number of electron      18.0000104 magnetization 
 augmentation part       18.0000104 magnetization 

 Free energy of the ion-electron system (eV)
  ---------------------------------------------------
  alpha Z        PSCENC =        72.97670546
  Ewald energy   TEWEN  =     -1266.30826995
  -Hartree energ DENC   =      -719.91429371
  -exchange      EXHF   =         0.00000000
  -V(xc)+E(xc)   XCENC  =        52.27267908
  PAW double counting   =      1555.72240197    -1892.24867362
  entropy T*S    EENTRO =        -0.00873320
  eigenvalues    EBANDS =      -134     EDDAV:  cpu time   30.11: real time   30.18
       DOS:  cpu time    0.07: real time    0.07
    --------------------------------------------
      LOOP:  cpu time   30.20: real time   30.27

 eigenvalue-minimisa     EDDAV:  cpu time   29.91: real time   29.98
       DOS:  cpu time    0.07: real time    0.07
    --------------------------------------------
      LOOP:  cpu time   30.00: real time   30.07

 eigenvalue-minimisations  :  1786
 total energy-change (2. order) :-0.9761777E-05  (-0.9761339E-05)
 number of electron      18.0000104 magnetization 
 augmentation part       18.0000104 magnetization 

 Free energy of the ion-electron system (eV)
  ---------------------------------------------------
  alpha Z        PSCENC =        72.97670546
  Ewald energy   TEWEN  =     -1266.30826995
  -Hartree energ DENC   =      -719.91429371
  -exchange      EXHF   =         0.00000000
  -V(xc)+E(xc)   XCENC  =        52.27267908
  PAW double counting   =      1555.72240197    -1892.24867362
  entropy T*S    EENTRO =        -0.00873320
  eigenvalues    EBANDS =      -134.57189679
  atomic energy  EATOM  =      2326.13011118
  ---------------------------------------------------
  free energy    TOTEN  =        -5.94996957 eV

  energy without entropy =       -5.94123638  energy(sigma->0) =       -5.94560298
ergy-change (2. order) :-0.9761777E-05  (-0.9761339E-05)
 number of electron      18.0000104 magnetization 
 augmentation part       18.0000104 magnetization 

 Free energy of the ion-electron system (eV)
  ---------------------------------------------------
  alpha Z        PSCENC =        72.97670546
  Ewald energy   TEWEN  =     -1266.30826995
  -Hartree energ DENC   =      -719.91429371
  -exchange      EXHF   =         0.00000000
  -V(xc)+E(xc)   XCENC  =        52.27267908
  PAW double counting   =      1555.72240197    -1892.24867362
  entropy T*S    EENTRO =        -0.00873320
  eigenvalues    EBANDS =      -134.57189679
  atomic energy  EATOM  =      2326.13011118
  ---------------------------------------------------
  free energy    TOTEN  =        -5.94996957 eV

  energy without entropy =       -5.94123638  energy(sigma->0) =       -5.94560298
ergy-change (2. order) :-0.9761777E-05  (-0.9761339E-05)
 number of electron      18.0000104 magnetization 
 augmentation part       18.0000104 magnetization 

 Free energy of the ion-electron      EDDAV:  cpu time   29.33: real time   29.41
       DOS:  cpu time    0.07: real time    0.07
    --------------------------------------------
      LOOP:  cpu time   29.42: real time   29.50

 eigenvalue-minimisations  :  1786
 total energy-change (2. order) :-0.9761777E-05  (-0.9761339E-05)
 number of electron      18.0000104 magnetization 
 augmentation part       18.0000104 magnetization 

 Free energy of the ion-electron      EDDAV:  cpu time   29.27: real time   29.37
       DOS:  cpu time    0.07: real time    0.07
    --------------------------------------------
      LOOP:  cpu time   29.37: real time   29.47

 eigenvalue-minimisations  :  1786
 total energy-change (2. order) :-       DOS:  cpu time    0.07: real time    0.07
    --------------------------------------------
      LOOP:  cpu time   29.38: real time   29.45

 eigenvalue-minimisa     EDDAV:  cpu time   30.08: real time   30.15
       DOS:  cpu time    0.07: real time    0.07
    --------------------------------------------
      LOOP:  cpu time   30.16: real time   30.23

 eigenvalue-minimisations  :  1786
 total energy-change (2. order) :-0.9761777E-05  (-0.9761339E-05)
 number of electron      18.0000104 magnetization 
 augmentation part       18.0000104 magnetization 

 Free energy of the ion-electron system (eV)
  ---------------------------------------------------
  alpha Z        PSCENC =        72.97670546
  Ewald energy   TEWEN  =     -1266.30826995
  -Hartree energ DENC   =      -719.91429371
  -exchange          EDDAV:  cpu time   29.77: real time   29.89
       DOS:  cpu time    0.07: real time    0.07
    --------------------------------------------
      LOOP:  cpu time   29.86: real time   29.97

 eigenvalue-minimisations  :  1786
 total energy-change (2. order) :-0.9761777E-05  (-0.9761339E-05)
 number of electron      18.0000104 magnetization 
 augmentation part       18.0000104 magnetization 

 Free energy of the ion-electron system (eV)
  ---------------------------------------------------
  alpha Z        PSCENC =        72.97670546
  Ewald energy   TEWEN  =     -1266.30826995
  -Hartree energ DENC   =      -719.91429371
  -exchange      EXHF   =         0.00000000
  -V(xc)+E(xc)   XCENC  =        52.27267908
  PAW double counting   =      1555.72240197    -1892.24867362
  entropy T*S    EENTRO =        -0.00873320
  eigenvalues    EBANDS =      -134.57189679
  atomic energy  EATOM  =      2326.13011118
  ---------------------------------------------------
  free energy    TOTEN  =        -5.94996957 eV

  energy without entropy =       -5.94123638  energy(sigma->0) =       -5.94560298
0000
  -V(xc)+E(xc)   XCENC  =        52.27267908
  PAW double counting   =      1555.72240197    -1892.24867362
  entropy T*S    EENTRO =        -0.00873320
  eigenvalues    EBANDS =      -134     EDDAV:  cpu time   29.58: real time   29.65
       DOS:  cpu time    0.07: real time    0.07
    --------------------------------------------
      LOOP:  cpu time   29.66: real time   29.73

 eigenvalue-minimisations  :  1786
 total energy-change (2. order) :-0.9761777E-05  (-0.9761339E-05)
 number of electron      18.0000104 magnetization 
 augmentation part       18.0000104 magnetization 

 Free energy of the ion-electron system (eV)
  ---------------------------------------------------
  alpha Z        PSCENC =        72.97670546
  Ewald energy   TEWEN  =     -1266.30826995
  -Hartree energ DENC   =      -719.91429371
  -exchange          EDDAV:  cpu time   28.88: real time   28.95
       DOS:  cpu time    0.08: real time    0.08
    --------------------------------------------
      LOOP:  cpu time   28.97: real time   29.04

 eigenvalue-minimisa     EDDAV:  cpu time   29.72: real time   29.87
       DOS:  cpu time    0.07: real time    0.07
    --------------------------------------------
      LOOP:  cpu time   29.81: real time   29.96

 eigenvalue-minimisa     EDDAV:  cpu time   29.75: real time   29.82
       DOS:  cpu time    0.07: real time    0.07
    --------------------------------------------
      LOOP:  cpu time   29.83: real time   29.91

 eigenvalue-minimisations  :  1786
 total energy-change (2. order) :-0.9761777E-05  (-0.9761339E-05)
 number of electron      18.0000104 magnetization 
 augmentation part       18.0000104 magnetization 

 Free energy of the ion-electron      EDDAV:  cpu time   29.71: real time   29.78
       DOS:  cpu time    0.07: real time    0.07
    --------------------------------------------
      LOOP:  cpu time   29.79: real time   29.87

 eigenvalue-minimisations  :  1786
 total energy-change (2. order) :-0.9761777E-05  (-0.9761339E-05)
 number of electron      18.0000104 magnetization 
 augmentation part       18.0000104 magnetization 

 Free energy of the ion-electron system (eV)
  -----------------------------------       DOS:  cpu time    0.07: real time    0.07
    --------------------------------------------
      LOOP:  cpu time   29.50: real time   29.58

 eigenvalue-minimisa     EDDAV:  cpu time   28.84: real time   28.93
       DOS:  cpu time    0.06: real time    0.06
    --------------------------------------------
      LOOP:  cpu time   28.92: real time   29.01

 eigenvalue-minimisations  :  1786
 total energy-change (2. order) :-0.9761777E-05  (-0.9761339E-05)
 number of electron      18.0000104 magnetization 
 augmentation part       18.0000104 magnetization 

 Free energy of the ion-electron system (eV)
  ---------------------------------------------------
  alpha Z        PSCENC =        72.97670546
  Ewald energy   TEWEN  =     -1266.30826995
  -Hartree energ DENC   =      -719.91429371
  -exchange      EXHF   =         0.00000000
  -V(xc)+E(xc)   XCENC  =        52.27267908
  PAW double counting   =      1555.72240197    -1892.24867362
  entropy T*S    EENTRO =        -0.00873320
  eigenvalues    EBANDS =      -134.57189679
  atomic energy  EATOM  =      2326.13011118
  ---------------------------------------------------
  free energy    TOTEN  =        -5.94996957 eV

  energy without entropy =       -5.94123638  energy(sigma->0) =       -5.94560298
.8664      2.00000
      5     -11.8664      2.00000
      6      -8.0814      2.00000
      7      -3.7182      2.00000
      8       1.8019      2.00000
      9       1.8019      2.00000
     10       3.8227      0.00001
     11       7.5338      0.00000
     12       7.5338      0.00000
     13      10.5160      0.00000

 k-point     3 :       0.4474    0.4474    0.4474
  band No.  band energies     occupation 
      1     -12.0279      2.00000
      2     -11.9317      2.00000
      3     -11.9317      2.00000
      4     -11.8668      2.00000
      5     -11.8668      2.00000
      6      -8.1412      2.00000
      7      -3.6098      2.00000
      8       1.8184      2.00000
      9       1.8184      2.00000
     10       3.8396      0.00000
     11       7.5425      0.00000
     12       7.5425      0.00000
     13      10.5230      0.00000

 k-point     4 :       0.4211    0.4211    0.4211
  band No.  band energies     occupation 
      1     -12.0256      2.00000
      2     -11.9323      2.00000
      3     -11.9323      2.00000
      4     -11.8670      2.00000
      5     -11.8670      2.00000
      6      -8.2342      2.00000
      7      -3.4360      2.00000
      8       1.8459      2.00000
      9       1.8459      2.00000
     10       3.8676      0.00000
     11       7.5556      0.00000
     12       7.5556      0.00000
     13      10.5237      0.00000

 k-point     5 :       0.3947    0.3947    0.3947
  band No.  band energies     occupation 
      1     -12.0224      2.00000
      2     -11.9329      2.00000
      3     -11.9329      2.00000
      4     -11.8674      2.00000
      5     -11.8674      2.00000
      6      -8.3522      2.00000
      7      -3.2052      2.00000
      8       1.8839      2.00000
      9       1.8839      2.00000
     10       3.9064      0.00000
     11       7.5704      0.00000
     12       7.5704      0.00000
     13      10.4941      0.00000

 k-point     6 :       0.3684    0.3684    0.3684
  band No.  band energies     occupation 
      1     -12.0188      2.00000
      2     -11.9338      2.00000
      3     -11.9338      2.00000
      4     -11.8681      2.00000
      5     -11.8681      2.00000
      6      -8.4872      2.00000
      7      -2.9258      2.00000
      8       1.9323      2.00000
      9       1.9323      2.00000
     10       3.9556      0.00000
     11       7.5835      0.00000
     12       7.5835      0.00000
     13      10.3870      0.00000

 k-point     7 :       0.3421    0.3421    0.3421
  band No.  band energies     occupation 
      1     -12.0142      2.00000
      2     -11.9349      2.00000
      3     -11.9349      2.00000
      4     -11.8686      2.00000
      5     -11.8686      2.00000
      6      -8.6318      2.00000
      7      -2.6056      2.00000
      8       1.9906      2.00000
      9       1.9906      2.00000
     10       4.0144      0.00000
     11       7.5904      0.00000
     12       7.5904      0.00000
     13      10.1553      0.00000

 k-point     8 :       0.3158    0.3158    0.3158
  band No.  band energies     occupation 
      1     -12.0089      2.00000
      2     -11.9360      2.00000
      3     -11.9360      2.00000
      4     -11.8690      2.00000
      5     -11.8690      2.00000
      6      -8.7801      2.00000
      7      -2.2513      2.00000
      8       2.0582      2.00000
      9       2.0582      2.00000
     10       4.0817      0.00000
     11       7.5857      0.00000
     12       7.5857      0.00000
     13       9.8130      0.00000

 k-point     9 :       0.2895    0.2895    0.2895
  band No.  band energies     occupation 
      1     -12.0027      2.00000
      2     -11.9374      2.00000
      3     -11.9374      2.00000
      4     -11.8694      2.00000
      5     -11.8694      2.00000
      6      -8.9272      2.00000
      7      -1.8684      2.00000
      8       2.1342      2.00000
      9       2.1342      2.00000
     10       4.1558      0.00000
     11       7.5641      0.00000
     12       7.5641      0.00000
     13       9.4121      0.00000

 k-point    10 :       0.2632    0.2632    0.2632
  band No.  band energies     occupation 
      1     -11.9964      2.00000
      2     -11.9389      2.00000
      3     -11.9389      2.00000
      4     -11.8696      2.00000
      5     -11.8696      2.00000
      6      -9.0694      2.00000
      7      -1.4613      2.00000
      8       2.2176      2.00000
      9       2.2176      2.00000
     10       4.2341      0.00000
     11       7.5209      0.00000
     12       7.5209      0.00000
     13       8.9901      0.00000

 k-point    11 :       0.2368    0.2368    0.2368
  band No.  band energies     occupation 
      1     -11.9900      2.00000
      2     -11.9407      2.00000
      3     -11.9407      2.00000
      4     -11.8698      2.00000
[...]
    0.612889  341.964025  341.964025  341.964025   -0.000000    0.000000   -0.000000
    0.919334  111.491177  111.491177  111.491177   -0.000000   -0.000000   -0.000000
    1.225779   61.309019   61.309019   61.309019    0.000000   -0.000000   -0.000000
    1.532224   48.968883   48.968883   48.968883    0.000000   -0.000000   -0.000000
    1.838668   86.520252   86.520252   86.520252    0.000000   -0.000000    0.000000
    2.145113   79.528720   79.528720   79.528720    0.000000    0.000000    0.000000
    2.451558   22.091756   22.091756   22.091756   -0.000000   -0.000000    0.000000
    2.758003   12.113260   12.113260   12.113260    0.000000    0.000000    0.000000
    3.064447   12.081908   12.081908   12.081908    0.000000   -0.000000   -0.000000
    3.370892   24.560553   24.560553   24.560553    0.000000   -0.000000    0.000000
    3.677337   57.122184   57.122184   57.122184    0.000000   -0.000000   -0.000000
    3.983781   49.214430   49.214430   49.214430    0.000000   -0.000000   -0.000000
    4.290226   34.158706   34.158706   34.158706    0.000000   -0.000000    0.000000
    4.596671   21.805424   21.805424   21.805424   -0.000000   -0.000000    0.000000
    4.903116   15.526933   15.526933   15.526933    0.000000    0.000000   -0.000000
    5.209560   11.118226   11.118226   11.118226    0.000000    0.000000    0.000000
    5.516005   12.925196   12.925196   12.925196    0.000000    0.000000    0.000000
    5.822450   10.818106   10.818106   10.818106   -0.000000    0.000000   -0.000000
    6.128895    4.552432    4.552432    4.552432    0.000000    0.000000    0.000000
    6.435339    2.960773    2.960773    2.960773   -0.000000   -0.000000   -0.000000
    6.741784    2.260613    2.260613    2.260613    0.000000    0.000000   -0.000000
    7.048229    1.811052    1.811052    1.811052    0.000000   -0.000000    0.000000
    7.354674    1.460901    1.460901    1.460901   -0.000000    0.000000    0.000000
    7.661118    1.340235    1.340235    1.340235   -0.000000   -0.000000   -0.000000
    7.967563    1.419122    1.419122    1.419122    0.000000   -0.000000    0.000000
    8.274008    1.416877    1.416877    1.416877    0.000000   -0.000000   -0.000000
    8.580452    1.296123    1.296123    1.296123    0.000000   -0.000000    0.000000
    8.886897    1.017284    1.017284    1.017284    0.000000   -0.000000    0.000000
    9.193342    0.957138    0.957138    0.957138   -0.000000   -0.000000    0.000000
    9.499787    0.748373    0.748373    0.748373    0.000000   -0.000000    0.000000
    9.806231    0.606858    0.606858    0.606858   -0.000000    0.000000    0.000000
   10.112676    0.445599    0.445599    0.445599   -0.000000    0.000000   -0.000000
   10.419121    0.384476    0.384476    0.384476   -0.000000    0.000000   -0.000000
   10.725566    0.357189    0.357189    0.357189    0.000000   -0.000000    0.000000
   11.032010    0.356621    0.356621    0.356621   -0.000000    0.000000    0.000000
   11.338455    0.354325    0.354325    0.354325    0.000000   -0.000000   -0.000000
   11.644900    0.392506    0.392506    0.392506    0.000000   -0.000000   -0.000000
   11.951344    0.389871    0.389871    0.389871    0.000000    0.000000    0.000000
   12.257789    0.293836    0.293836    0.293836   -0.000000   -0.000000    0.000000
   12.564234    0.258918    0.258918    0.258918    0.000000   -0.000000    0.000000
   12.870679    0.206467    0.206467    0.206467    0.000000   -0.000000    0.000000
   13.177123    0.148427    0.148427    0.148427    0.000000   -0.000000   -0.000000
   13.483568    0.141449    0.141449    0.141449   -0.000000    0.000000    0.000000
   13.790013    0.133747    0.133747    0.133747   -0.000000    0.000000   -0.000000
   14.096458    0.125273    0.125273    0.125273   -0.000000   -0.000000   -0.000000
   14.402902    0.117414    0.117414    0.117414   -0.000000    0.000000   -0.000000
   14.709347    0.086492    0.086492    0.086492    0.000000   -0.000000    0.000000
   15.015792    0.071782    0.071782    0.071782    0.000000   -0.000000   -0.000000
   15.322236    0.078885    0.078885    0.078885    0.000000   -0.000000   -0.000000
   15.628681    0.109640    0.109640    0.109640    0.000000   -0.000000   -0.000000
   15.935126    0.134093    0.134093    0.134093    0.000000   -0.000000    0.000000
   16.241571    0.205592    0.205592    0.205592    0.000000   -0.000000    0.000000
   16.548015    0.247946    0.247946    0.247946    0.000000    0.000000    0.000000
   16.854460    0.152977    0.152977    0.152977   -0.000000    0.000000    0.000000
   17.160905    0.113813    0.113813    0.113813   -0.000000    0.000000    0.000000
   17.467350    0.101724    0.101724    0.101724   -0.000000    0.000000   -0.000000
   17.773794    0.096789    0.096789    0.096789   -0.000000    0.000000   -0.000000
   18.080239    0.111303    0.111303    0.111303    0.000000   -0.000000    0.000000
   18.386684    0.213358    0.213358    0.213358   -0.000000    0.000000   -0.000000
   18.693129    0.272073    0.272073    0.272073   -0.000000    0.000000   -0.000000
   18.999573    0.192647    0.192647    0.192647    0.000000    0.000000   -0.000000
   19.306018    0.199619    0.199619    0.199619    0.000000    0.000000   -0.000000
   19.612463    0.164780    0.164780    0.164780   -0.000000   -0.000000    0.000000
   19.918907    0.107906    0.107906    0.107906   -0.000000   -0.000000   -0.000000
   20.225352    0.105226    0.105226    0.105226   -0.000000   -0.000000    0.000000
   20.531797    0.096082    0.096082    0.096082   -0.000000    0.000000   -0.000000
   20.838242    0.071570    0.071570    0.071570   -0.000000    0.000000   -0.000000
   21.144686    0.057117    0.057117    0.057117   -0.000000   -0.000000   -0.000000
   21.451131    0.057108    0.057108    0.057108    0.000000   -0.000000   -0.000000
   21.757576    0.063382    0.063382    0.063382   -0.000000   -0.000000   -0.000000
   22.064021    0.067749    0.067749    0.067749    0.000000   -0.000000   -0.000000
   22.370465    0.077919    0.077919    0.077919   -0.000000   -0.000000    0.000000
   22.676910    0.065813    0.065813    0.065813   -0.000000   -0.000000   -0.000000
   22.983355    0.045737    0.045737    0.045737   -0.000000   -0.000000   -0.000000
   23.289799    0.033198    0.033198    0.033198    0.000000   -0.000000    0.000000
   23.596244    0.031312    0.031312    0.031312   -0.000000    0.000000   -0.000000
   23.902689    0.030848    0.030848    0.030848    0.000000   -0.000000   -0.000000
   24.209134    0.031765    0.031765    0.031765    0.000000    0.000000   -0.000000
   24.515578    0.033821    0.033821    0.033821    0.000000    0.000000    0.000000
   24.822023    0.042031    0.042031    0.042031    0.000000   -0.000000    0.000000
   25.128468    0.029018    0.029018    0.029018    0.000000    0.000000    0.000000
   25.434913    0.013726    0.013726    0.013726    0.000000   -0.000000   -0.000000
   25.741357    0.008740    0.008740    0.008740    0.000000   -0.000000    0.000000
   26.047802    0.007085    0.007085    0.007085    0.000000   -0.000000    0.000000
   26.354247    0.006431    0.006431    0.006431    0.000000   -0.000000    0.000000
   26.660691    0.006002    0.006002    0.006002    0.000000   -0.000000    0.000000
   26.967136    0.005668    0.005668    0.005668    0.000000   -0.000000    0.000000
   27.273581    0.005387    0.005387    0.005387    0.000000   -0.000000    0.000000
   27.580026    0.005142    0.005142    0.005142    0.000000   -0.000000    0.000000
   27.886470    0.004922    0.004922    0.004922    0.000000   -0.000000    0.000000
   28.192915    0.004722    0.004722    0.004722    0.000000   -0.000000    0.000000
   28.499360    0.004538    0.004538    0.004538    0.000000   -0.000000    0.000000
   28.805805    0.004366    0.004366    0.004366    0.000000   -0.000000    0.000000
   29.112249    0.004206    0.004206    0.004206    0.000000   -0.000000    0.000000
   29.418694    0.004056    0.004056    0.004056    0.000000   -0.000000    0.000000
   29.725139    0.003914    0.003914    0.003914    0.000000   -0.000000    0.000000
   30.031584    0.003780    0.003780    0.003780    0.000000   -0.000000    0.000000
   30.338028    0.003653    0.003653    0.003653    0.000000   -0.000000    0.000000

  frequency dependent      REAL DIELECTRIC FUNCTION (independent particle, no local field effects)
     E(ev)      X         Y         Z        XY        YZ        ZX
  --------------------------------------------------------------------------------------
    0.000000  768.950194  768.950194  768.950194   -0.000000   -0.000000   -0.000000
    0.306445  417.510722  417.510722  417.510722   -0.000000   -0.000000   -0.000000
    0.612889 -138.483996 -138.483996 -138.483996   -0.000000   -0.000000   -0.000000
    0.919334  -93.789863  -93.789863  -93.789863    0.000000   -0.000000    0.000000
    1.225779  -34.418872  -34.418872  -34.418872    0.000000   -0.000000    0.000000
    1.532224   -0.382489   -0.382489   -0.382489    0.000000    0.000000    0.000000
    1.838668   17.368929   17.368929   17.368929    0.000000   -0.000000    0.000000
    2.145113  -55.388200  -55.388200  -55.388200   -0.000000    0.000000    0.000000
    2.451558  -40.301360  -40.301360  -40.301360   -0.000000    0.000000   -0.000000
    2.758003  -16.283685  -16.283685  -16.283685   -0.000000    0.000000   -0.000000
    3.064447    0.895923    0.895923    0.895923   -0.000000   -0.000000   -0.000000
    3.370892   19.655193   19.655193   19.655193   -0.000000   -0.000000   -0.000000
    3.677337    7.124025    7.124025    7.124025    0.000000   -0.000000   -0.000000
    3.983781  -20.201187  -20.201187  -20.201187   -0.000000   -0.000000    0.000000
    4.290226  -29.262174  -29.262174  -29.262174   -0.000000    0.000000    0.000000
    4.596671  -27.309258  -27.309258  -27.309258   -0.000000    0.000000   -0.000000
    4.903116  -24.222985  -24.222985  -24.222985    0.000000    0.000000    0.000000
    5.209560  -19.168821  -19.168821  -19.168821   -0.000000    0.000000    0.000000
    5.516005  -16.157589  -16.157589  -16.157589   -0.000000   -0.000000   -0.000000
    5.822450  -20.903354  -20.903354  -20.903354   -0.000000   -0.000000    0.000000
    6.128895  -18.011707  -18.011707  -18.011707   -0.000000   -0.000000   -0.000000
    6.435339  -14.724417  -14.724417  -14.724417   -0.000000   -0.000000   -0.000000
    6.741784  -12.381916  -12.381916  -12.381916   -0.000000    0.000000    0.000000
    7.048229  -10.821039  -10.821039  -10.821039   -0.000000    0.000000    0.000000
    7.354674   -9.340469   -9.340469   -9.340469   -0.000000    0.000000   -0.000000
    7.661118   -8.204211   -8.204211   -8.204211   -0.000000    0.000000   -0.000000
    7.967563   -7.272325   -7.272325   -7.272325   -0.000000    0.000000   -0.000000
    8.274008   -6.719951   -6.719951   -6.719951   -0.000000    0.000000    0.000000
    8.580452   -6.331587   -6.331587   -6.331587   -0.000000    0.000000    0.000000
    8.886897   -5.798088   -5.798088   -5.798088   -0.000000    0.000000   -0.000000
    9.193342   -5.351277   -5.351277   -5.351277   -0.000000    0.000000   -0.000000
    9.499787   -4.984514   -4.984514   -4.984514   -0.000000    0.000000   -0.000000
    9.806231   -4.586683   -4.586683   -4.586683   -0.000000    0.000000   -0.000000
   10.112676   -4.163942   -4.163942   -4.163942   -0.000000    0.000000   -0.000000
   10.419121   -3.778234   -3.778234   -3.778234   -0.000000    0.000000   -0.000000
   10.725566   -3.425090   -3.425090   -3.425090   -0.000000    0.000000   -0.000000
   11.032010   -3.129281   -3.129281   -3.129281   -0.000000    0.000000   -0.000000
   11.338455   -2.878637   -2.878637   -2.878637   -0.000000    0.000000   -0.000000
   11.644900   -2.666100   -2.666100   -2.666100   -0.000000    0.000000   -0.000000
   11.951344   -2.554774   -2.554774   -2.554774   -0.000000    0.000000   -0.000000
   12.257789   -2.402361   -2.402361   -2.402361   -0.000000    0.000000   -0.000000
   12.564234   -2.213337   -2.213337   -2.213337   -0.000000    0.000000   -0.000000
   12.870679   -2.084629   -2.084629   -2.084629   -0.000000    0.000000   -0.000000
   13.177123   -1.891894   -1.891894   -1.891894   -0.000000    0.000000   -0.000000
   13.483568   -1.728411   -1.728411   -1.728411   -0.000000    0.000000   -0.000000
   13.790013   -1.588887   -1.588887   -1.588887   -0.000000    0.000000   -0.000000
   14.096458   -1.463719   -1.463719   -1.463719   -0.000000    0.000000   -0.000000
   14.402902   -1.354121   -1.354121   -1.354121   -0.000000    0.000000   -0.000000
   14.709347   -1.241863   -1.241863   -1.241863   -0.000000    0.000000   -0.000000
   15.015792   -1.113304   -1.113304   -1.113304   -0.000000    0.000000   -0.000000
   15.322236   -0.986612   -0.986612   -0.986612   -0.000000    0.000000   -0.000000
   15.628681   -0.879064   -0.879064   -0.879064   -0.000000    0.000000   -0.000000
   15.935126   -0.787735   -0.787735   -0.787735   -0.000000    0.000000   -0.000000
   16.241571   -0.708092   -0.708092   -0.708092   -0.000000    0.000000   -0.000000
   16.548015   -0.753243   -0.753243   -0.753243   -0.000000    0.000000   -0.000000
   16.854460   -0.732556   -0.732556   -0.732556   -0.000000    0.000000   -0.000000
   17.160905   -0.637645   -0.637645   -0.637645   -0.000000    0.000000   -0.000000
   17.467350   -0.557856   -0.557856   -0.557856   -0.000000    0.000000   -0.000000
   17.773794   -0.469883   -0.469883   -0.469883   -0.000000    0.000000   -0.000000
   18.080239   -0.379054   -0.379054   -0.379054   -0.000000    0.000000   -0.000000
   18.386684   -0.285034   -0.285034   -0.285034   -0.000000    0.000000   -0.000000
   18.693129   -0.387425   -0.387425   -0.387425   -0.000000    0.000000   -0.000000
   18.999573   -0.376203   -0.376203   -0.376203   -0.000000    0.000000   -0.000000
   19.306018   -0.331018   -0.331018   -0.331018   -0.000000    0.000000   -0.000000
   19.612463   -0.356751   -0.356751   -0.356751   -0.000000    0.000000   -0.000000
   19.918907   -0.293348   -0.293348   -0.293348   -0.000000    0.000000   -0.000000
   20.225352   -0.240771   -0.240771   -0.240771   -0.000000    0.000000   -0.000000
   20.531797   -0.215532   -0.215532   -0.215532   -0.000000    0.000000   -0.000000
   20.838242   -0.178238   -0.178238   -0.178238   -0.000000    0.000000   -0.000000
   21.144686   -0.129092   -0.129092   -0.129092   -0.000000    0.000000   -0.000000
   21.451131   -0.082319   -0.082319   -0.082319   -0.000000    0.000000   -0.000000
   21.757576   -0.048062   -0.048062   -0.048062   -0.000000    0.000000   -0.000000
   22.064021   -0.018785   -0.018785   -0.018785   -0.000000    0.000000   -0.000000
   22.370465    0.001945    0.001945    0.001945   -0.000000    0.000000   -0.000000
   22.676910    0.005386    0.005386    0.005386   -0.000000    0.000000   -0.000000
   22.983355    0.031986    0.031986    0.031986   -0.000000    0.000000   -0.000000
   23.289799    0.065818    0.065818    0.065818   -0.000000    0.000000   -0.000000
   23.596244    0.097959    0.097959    0.097959   -0.000000    0.000000   -0.000000
   23.902689    0.124917    0.124917    0.124917   -0.000000    0.000000   -0.000000
   24.209134    0.149847    0.149847    0.149847   -0.000000    0.000000   -0.000000
   24.515578    0.172566    0.172566    0.172566   -0.000000    0.000000   -0.000000
   24.822023    0.186011    0.186011    0.186011   -0.000000    0.000000   -0.000000
   25.128468    0.189679    0.189679    0.189679   -0.000000    0.000000   -0.000000
   25.434913    0.214986    0.214986    0.214986   -0.000000    0.000000   -0.000000
   25.741357    0.240610    0.240610    0.240610   -0.000000    0.000000   -0.000000
   26.047802    0.263649    0.263649    0.263649   -0.000000    0.000000   -0.000000
   26.354247    0.284221    0.284221    0.284221   -0.000000    0.000000   -0.000000
   26.660691    0.303222    0.303222    0.303222   -0.000000    0.000000   -0.000000
   26.967136    0.321077    0.321077    0.321077   -0.000000    0.000000   -0.000000
   27.273581    0.338000    0.338000    0.338000   -0.000000    0.000000   -0.000000
   27.580026    0.354123    0.354123    0.354123   -0.000000    0.000000   -0.000000
   27.886470    0.369536    0.369536    0.369536   -0.000000    0.000000   -0.000000
   28.192915    0.384308    0.384308    0.384308   -0.000000    0.000000   -0.000000
   28.499360    0.398491    0.398491    0.398491   -0.000000    0.000000   -0.000000
   28.805805    0.412130    0.412130    0.412130   -0.000000    0.000000   -0.000000
   29.112249    0.425261    0.425261    0.425261   -0.000000    0.000000   -0.000000
   29.418694    0.437916    0.437916    0.437916   -0.000000    0.000000   -0.000000
   29.725139    0.450125    0.450125    0.450125   -0.000000    0.000000   -0.000000
   30.031584    0.461911    0.461911    0.461911   -0.000000    0.000000   -0.000000
   30.338028    0.473298    0.473298    0.473298   -0.000000    0.000000   -0.000000
 
 The outermost node in the dielectric function lies at epsilon=  22.3


--------------------------------------------------------------------------------------------------------


    OPTICS:  cpu time    2.47: real time    2.48
    4ORBIT:  cpu time    0.00: real time    0.00

volume of typ            1:    16.7 %

volume of typ            2:    16.7 %
 
total charge     
 
# of ion     s       p       d       tot
----------------------------------------
  1        0.658   0.591   9.901  11.150
  2        1.182   1.886   0.036   3.104
------------------------------------------------
tot         1.84    2.48    9.94   14.25
 
orbital moment (x)
 
# of ion   s             p             d             tot
---------------------------------------------------------------
   1     0.000000E+00  0.238936E-01  0.780172E-02  0.316953E-01
   2     0.000000E+00 -0.369195E-01 -0.342778E-02 -0.403473E-01
----------------------------------------------------------------------------
tot      0.000000E+00 -0.130259E-01  0.437393E-02 -0.865200E-02
 
orbital moment (y)
 
# of ion   s             p             d             tot
---------------------------------------------------------------
   1     0.000000E+00  0.367292E-06  0.671880E-06  0.103917E-05
   2     0.000000E+00  0.809296E-06  0.607683E-07  0.870064E-06
----------------------------------------------------------------------------
tot      0.000000E+00  0.117659E-05  0.732648E-06  0.190924E-05
 
orbital moment (z)
 
# of ion   s             p             d             tot
---------------------------------------------------------------
   1     0.000000E+00 -0.606323E-01 -0.179574E-01 -0.785897E-01
   2     0.000000E+00  0.864732E-01  0.900573E-02  0.954789E-01
----------------------------------------------------------------------------
tot      0.000000E+00  0.258409E-01 -0.895168E-02  0.168892E-01
 

 total amount of memory used by VASP on root node    54909. kBytes
========================================================================

   base      :      30000. kBytes
   nonl-proj :      12251. kBytes
   grid      :       3276. kBytes
   one-center:         31. kBytes
   wavefun   :       9351. kBytes
 
  
  
 General timing and accounting informations for this job:
 ========================================================
  
                  Total CPU time used (sec):      279.574
                            User time (sec):      118.919
                          System time (sec):      160.656
                         Elapsed time (sec):      281.397
  
                   Maximum memory used (kb):      573344.
                   Average memory used (kb):           0.
  
                          Minor page faults:        23920
                          Major page faults:            9
                 Voluntary context switches:        17084
