<?xml version="1.0" encoding="ISO-8859-1"?>
<modeling>
 <generator>
  <i name="program" type="string">vasp </i>
  <i name="version" type="string">5.3.5  </i>
  <i name="subversion" type="string">31Mar14 (build Dec 14 2018 19:18:10) complex                          serial </i>
  <i name="platform" type="string">LinuxIFC </i>
  <i name="date" type="string">2022 11 15 </i>
  <i name="time" type="string">17:18:16 </i>
 </generator>
 <incar>
  <i type="string" name="SYSTEM"> GaAs</i>
  <i type="string" name="PREC">normal</i>
  <i type="int" name="ICHARG">    11</i>
  <v name="RWIGS">      1.21700000      1.21700000</v>
  <i type="int" name="ISMEAR">     0</i>
  <i type="logical" name="LCHARG"> F  </i>
  <i type="logical" name="LOPTICS"> T  </i>
  <i type="logical" name="LSCALAPACK"> F  </i>
 </incar>
 <kpoints>
  <generation param="listgenerated">
   <i name="divisions" type="int">      20 </i>
   <v>       0.50000000       0.50000000       0.50000000 </v>
   <v>       0.00000000       0.00000000       0.00000000 </v>
   <v>       0.50000000       0.00000000       0.50000000 </v>
   <v>       0.37500000       0.37500000       0.75000000 </v>
   <v>       0.00000000       0.00000000       0.00000000 </v>
  </generation>
  <varray name="kpointlist" >
   <v>       0.50000000       0.50000000       0.50000000 </v>
   <v>       0.47368421       0.47368421       0.47368421 </v>
   <v>       0.44736842       0.44736842       0.44736842 </v>
   <v>       0.42105263       0.42105263       0.42105263 </v>
   <v>       0.39473684       0.39473684       0.39473684 </v>
   <v>       0.36842105       0.36842105       0.36842105 </v>
   <v>       0.34210526       0.34210526       0.34210526 </v>
   <v>       0.31578947       0.31578947       0.31578947 </v>
   <v>       0.28947368       0.28947368       0.28947368 </v>
   <v>       0.26315789       0.26315789       0.26315789 </v>
   <v>       0.23684211       0.23684211       0.23684211 </v>
   <v>       0.21052632       0.21052632       0.21052632 </v>
   <v>       0.18421053       0.18421053       0.18421053 </v>
   <v>       0.15789474       0.15789474       0.15789474 </v>
   <v>       0.13157895       0.13157895       0.13157895 </v>
   <v>       0.10526316       0.10526316       0.10526316 </v>
   <v>       0.07894737       0.07894737       0.07894737 </v>
   <v>       0.05263158       0.05263158       0.05263158 </v>
   <v>       0.02631579       0.02631579       0.02631579 </v>
   <v>       0.00000000       0.00000000       0.00000000 </v>
   <v>       0.00000000       0.00000000       0.00000000 </v>
   <v>       0.02631579       0.00000000       0.02631579 </v>
   <v>       0.05263158       0.00000000       0.05263158 </v>
   <v>       0.07894737       0.00000000       0.07894737 </v>
   <v>       0.10526316       0.00000000       0.10526316 </v>
   <v>       0.13157895       0.00000000       0.13157895 </v>
   <v>       0.15789474       0.00000000       0.15789474 </v>
   <v>       0.18421053       0.00000000       0.18421053 </v>
   <v>       0.21052632       0.00000000       0.21052632 </v>
   <v>       0.23684211       0.00000000       0.23684211 </v>
   <v>       0.26315789       0.00000000       0.26315789 </v>
   <v>       0.28947368       0.00000000       0.28947368 </v>
   <v>       0.31578947       0.00000000       0.31578947 </v>
   <v>       0.34210526       0.00000000       0.34210526 </v>
   <v>       0.36842105       0.00000000       0.36842105 </v>
   <v>       0.39473684       0.00000000       0.39473684 </v>
   <v>       0.42105263       0.00000000       0.42105263 </v>
   <v>       0.44736842       0.00000000       0.44736842 </v>
   <v>       0.47368421       0.00000000       0.47368421 </v>
   <v>       0.50000000       0.00000000       0.50000000 </v>
   <v>       0.50000000       0.00000000       0.50000000 </v>
   <v>       0.49342105       0.01973684       0.51315789 </v>
   <v>       0.48684211       0.03947368       0.52631579 </v>
   <v>       0.48026316       0.05921053       0.53947368 </v>
   <v>       0.47368421       0.07894737       0.55263158 </v>
   <v>       0.46710526       0.09868421       0.56578947 </v>
   <v>       0.46052632       0.11842105       0.57894737 </v>
   <v>       0.45394737       0.13815789       0.59210526 </v>
   <v>       0.44736842       0.15789474       0.60526316 </v>
   <v>       0.44078947       0.17763158       0.61842105 </v>
   <v>       0.43421053       0.19736842       0.63157895 </v>
   <v>       0.42763158       0.21710526       0.64473684 </v>
   <v>       0.42105263       0.23684211       0.65789474 </v>
   <v>       0.41447368       0.25657895       0.67105263 </v>
   <v>       0.40789474       0.27631579       0.68421053 </v>
   <v>       0.40131579       0.29605263       0.69736842 </v>
   <v>       0.39473684       0.31578947       0.71052632 </v>
   <v>       0.38815789       0.33552632       0.72368421 </v>
   <v>       0.38157895       0.35526316       0.73684211 </v>
   <v>       0.37500000       0.37500000       0.75000000 </v>
   <v>       0.37500000       0.37500000       0.75000000 </v>
   <v>       0.35526316       0.35526316       0.71052632 </v>
   <v>       0.33552632       0.33552632       0.67105263 </v>
   <v>       0.31578947       0.31578947       0.63157895 </v>
   <v>       0.29605263       0.29605263       0.59210526 </v>
   <v>       0.27631579       0.27631579       0.55263158 </v>
   <v>       0.25657895       0.25657895       0.51315789 </v>
   <v>       0.23684211       0.23684211       0.47368421 </v>
   <v>       0.21710526       0.21710526       0.43421053 </v>
   <v>       0.19736842       0.19736842       0.39473684 </v>
   <v>       0.17763158       0.17763158       0.35526316 </v>
   <v>       0.15789474       0.15789474       0.31578947 </v>
   <v>       0.13815789       0.13815789       0.27631579 </v>
   <v>       0.11842105       0.11842105       0.23684211 </v>
   <v>       0.09868421       0.09868421       0.19736842 </v>
   <v>       0.07894737       0.07894737       0.15789474 </v>
   <v>       0.05921053       0.05921053       0.11842105 </v>
   <v>       0.03947368       0.03947368       0.07894737 </v>
   <v>       0.01973684       0.01973684       0.03947368 </v>
   <v>       0.00000000       0.00000000       0.00000000 </v>
  </varray>
  <varray name="weights" >
   <v>       0.01250000 </v>
   <v>       0.01250000 </v>
   <v>       0.01250000 </v>
   <v>       0.01250000 </v>
   <v>       0.01250000 </v>
   <v>       0.01250000 </v>
   <v>       0.01250000 </v>
   <v>       0.01250000 </v>
   <v>       0.01250000 </v>
   <v>       0.01250000 </v>
   <v>       0.01250000 </v>
   <v>       0.01250000 </v>
   <v>       0.01250000 </v>
   <v>       0.01250000 </v>
   <v>       0.01250000 </v>
   <v>       0.01250000 </v>
   <v>       0.01250000 </v>
   <v>       0.01250000 </v>
   <v>       0.01250000 </v>
   <v>       0.01250000 </v>
   <v>       0.01250000 </v>
   <v>       0.01250000 </v>
   <v>       0.01250000 </v>
   <v>       0.01250000 </v>
   <v>       0.01250000 </v>
   <v>       0.01250000 </v>
   <v>       0.01250000 </v>
   <v>       0.01250000 </v>
   <v>       0.01250000 </v>
   <v>       0.01250000 </v>
   <v>       0.01250000 </v>
   <v>       0.01250000 </v>
   <v>       0.01250000 </v>
   <v>       0.01250000 </v>
   <v>       0.01250000 </v>
   <v>       0.01250000 </v>
   <v>       0.01250000 </v>
   <v>       0.01250000 </v>
   <v>       0.01250000 </v>
   <v>       0.01250000 </v>
   <v>       0.01250000 </v>
   <v>       0.01250000 </v>
   <v>       0.01250000 </v>
   <v>       0.01250000 </v>
   <v>       0.01250000 </v>
   <v>       0.01250000 </v>
   <v>       0.01250000 </v>
   <v>       0.01250000 </v>
   <v>       0.01250000 </v>
   <v>       0.01250000 </v>
   <v>       0.01250000 </v>
   <v>       0.01250000 </v>
   <v>       0.01250000 </v>
   <v>       0.01250000 </v>
   <v>       0.01250000 </v>
   <v>       0.01250000 </v>
   <v>       0.01250000 </v>
   <v>       0.01250000 </v>
   <v>       0.01250000 </v>
   <v>       0.01250000 </v>
   <v>       0.01250000 </v>
   <v>       0.01250000 </v>
   <v>       0.01250000 </v>
   <v>       0.01250000 </v>
   <v>       0.01250000 </v>
   <v>       0.01250000 </v>
   <v>       0.01250000 </v>
   <v>       0.01250000 </v>
   <v>       0.01250000 </v>
   <v>       0.01250000 </v>
   <v>       0.01250000 </v>
   <v>       0.01250000 </v>
   <v>       0.01250000 </v>
   <v>       0.01250000 </v>
   <v>       0.01250000 </v>
   <v>       0.01250000 </v>
   <v>       0.01250000 </v>
   <v>       0.01250000 </v>
   <v>       0.01250000 </v>
   <v>       0.01250000 </v>
  </varray>
 </kpoints>
 <parameters>
  <separator name="general" >
   <i type="string" name="SYSTEM">GaAs</i>
   <i type="logical" name="LCOMPAT"> F  </i>
  </separator>
  <separator name="electronic" >
   <i type="string" name="PREC">normal</i>
   <i name="ENMAX">    282.82900000</i>
   <i name="ENAUG">    490.69000000</i>
   <i name="EDIFF">      0.00010000</i>
   <i type="int" name="IALGO">    38</i>
   <i type="int" name="IWAVPR">     0</i>
   <i type="int" name="NBANDS">    13</i>
   <i name="NELECT">     18.00000000</i>
   <i type="int" name="TURBO">     0</i>
   <i type="int" name="IRESTART">     0</i>
   <i type="int" name="NREBOOT">     0</i>
   <i type="int" name="NMIN">     0</i>
   <i name="EREF">      0.00000000</i>
   <separator name="electronic smearing" >
    <i type="int" name="ISMEAR">     0</i>
    <i name="SIGMA">      0.20000000</i>
    <i name="KSPACING">      0.50000000</i>
    <i type="logical" name="KGAMMA"> T  </i>
   </separator>
   <separator name="electronic projectors" >
    <i type="logical" name="LREAL"> F  </i>
    <v name="ROPT">      0.00000000      0.00000000</v>
    <i type="int" name="LMAXPAW">  -100</i>
    <i type="int" name="LMAXMIX">     2</i>
    <i type="logical" name="NLSPLINE"> F  </i>
   </separator>
   <separator name="electronic startup" >
    <i type="int" name="ISTART">     0</i>
    <i type="int" name="ICHARG">    11</i>
    <i type="int" name="INIWAV">     1</i>
   </separator>
   <separator name="electronic spin" >
    <i type="int" name="ISPIN">     1</i>
    <i type="logical" name="LNONCOLLINEAR"> F  </i>
    <v name="MAGMOM">      1.00000000      1.00000000</v>
    <i name="NUPDOWN">     -1.00000000</i>
    <i type="logical" name="LSORBIT"> F  </i>
    <v name="SAXIS">      0.00000000      0.00000000      1.00000000</v>
    <i type="logical" name="LSPIRAL"> F  </i>
    <v name="QSPIRAL">      0.00000000      0.00000000      0.00000000</v>
    <i type="logical" name="LZEROZ"> F  </i>
   </separator>
   <separator name="electronic exchange-correlation" >
    <i type="logical" name="LASPH"> F  </i>
    <i type="logical" name="LMETAGGA"> F  </i>
   </separator>
   <separator name="electronic convergence" >
    <i type="int" name="NELM">    60</i>
    <i type="int" name="NELMDL">     0</i>
    <i type="int" name="NELMIN">     2</i>
    <i name="ENINI">    282.82900000</i>
    <separator name="electronic convergence detail" >
     <i type="logical" name="LDIAG"> T  </i>
     <i type="logical" name="LSUBROT"> F  </i>
     <i name="WEIMIN">      0.00000000</i>
     <i name="EBREAK">      0.00000192</i>
     <i name="DEPER">      0.30000000</i>
     <i type="int" name="NRMM">     4</i>
     <i name="TIME">      0.40000000</i>
    </separator>
   </separator>
   <separator name="electronic mixer" >
    <i name="AMIX">      0.40000000</i>
    <i name="BMIX">      1.00000000</i>
    <i name="AMIN">      0.10000000</i>
    <i name="AMIX_MAG">      1.60000000</i>
    <i name="BMIX_MAG">      1.00000000</i>
    <separator name="electronic mixer details" >
     <i type="int" name="IMIX">     4</i>
     <i type="int" name="MAXMIX">   -45</i>
     <i name="WC">    100.00000000</i>
     <i type="int" name="INIMIX">     1</i>
     <i type="int" name="MIXPRE">     1</i>
     <i type="int" name="MREMOVE">     5</i>
    </separator>
   </separator>
   <separator name="electronic dipolcorrection" >
    <i type="logical" name="LDIPOL"> F  </i>
    <i type="logical" name="LMONO"> F  </i>
    <i type="int" name="IDIPOL">     0</i>
    <i name="EPSILON">      1.00000000</i>
    <v name="DIPOL">   -100.00000000   -100.00000000   -100.00000000</v>
    <i name="EFIELD">      0.00000000</i>
   </separator>
  </separator>
  <separator name="grids" >
   <i type="int" name="NGX">    16</i>
   <i type="int" name="NGY">    16</i>
   <i type="int" name="NGZ">    16</i>
   <i type="int" name="NGXF">    32</i>
   <i type="int" name="NGYF">    32</i>
   <i type="int" name="NGZF">    32</i>
   <i type="logical" name="ADDGRID"> F  </i>
  </separator>
  <separator name="ionic" >
   <i type="int" name="NSW">     0</i>
   <i type="int" name="IBRION">    -1</i>
   <i type="int" name="ISIF">     2</i>
   <i name="PSTRESS">      0.00000000</i>
   <i name="EDIFFG">      0.00100000</i>
   <i type="int" name="NFREE">     0</i>
   <i name="POTIM">      0.50000000</i>
   <i name="SMASS">     -3.00000000</i>
   <i name="SCALEE">      1.00000000</i>
  </separator>
  <separator name="ionic md" >
   <i name="TEBEG">      0.00010000</i>
   <i name="TEEND">      0.00010000</i>
   <i type="int" name="NBLOCK">     1</i>
   <i type="int" name="KBLOCK">     1</i>
   <i type="int" name="NPACO">   256</i>
   <i name="APACO">     16.00000000</i>
  </separator>
  <separator name="symmetry" >
   <i type="int" name="ISYM">     2</i>
   <i name="SYMPREC">      0.00001000</i>
  </separator>
  <separator name="dos" >
   <i type="logical" name="LORBIT"> F  </i>
   <v name="RWIGS">      1.21700000      1.21700000</v>
   <i type="int" name="NEDOS">   301</i>
   <i name="EMIN">     10.00000000</i>
   <i name="EMAX">    -10.00000000</i>
   <i name="EFERMI">      0.00000000</i>
  </separator>
  <separator name="writing" >
   <i type="int" name="NWRITE">     2</i>
   <i type="logical" name="LWAVE"> T  </i>
   <i type="logical" name="LCHARG"> F  </i>
   <i type="logical" name="LPARD"> F  </i>
   <i type="logical" name="LVTOT"> F  </i>
   <i type="logical" name="LVHAR"> F  </i>
   <i type="logical" name="LELF"> F  </i>
   <i type="logical" name="LOPTICS"> T  </i>
   <v name="STM">      0.00000000      0.00000000      0.00000000      0.00000000      0.00000000      0.00000000      0.00000000</v>
  </separator>
  <separator name="performance" >
   <i type="int" name="NPAR">     1</i>
   <i type="int" name="NSIM">     4</i>
   <i type="int" name="NBLK">    -1</i>
   <i type="logical" name="LPLANE"> T  </i>
   <i type="logical" name="LSCALAPACK"> F  </i>
   <i type="logical" name="LSCAAWARE"> F  </i>
   <i type="logical" name="LSCALU"> F  </i>
   <i type="logical" name="LASYNC"> F  </i>
   <i type="logical" name="LORBITALREAL"> F  </i>
  </separator>
  <separator name="miscellaneous" >
   <i type="int" name="IDIOT">     3</i>
   <i type="logical" name="LMUSIC"> F  </i>
   <v name="POMASS">     69.72300000     74.92200000</v>
   <v name="DARWINR">      0.00000000      0.00000000</v>
   <v name="DARWINV">      1.00000000      1.00000000</v>
   <i type="logical" name="LCORR"> T  </i>
  </separator>
  <i type="logical" name="GGA_COMPAT"> T  </i>
  <i type="logical" name="LBERRY"> F  </i>
  <i type="int" name="ICORELEVEL">     0</i>
  <i type="logical" name="LDAU"> F  </i>
  <i type="int" name="I_CONSTRAINED_M">     0</i>
  <separator name="electronic exchange-correlation" >
   <i type="string" name="GGA">--</i>
   <i type="int" name="VOSKOWN">     0</i>
   <i type="logical" name="LHFCALC"> F  </i>
   <i type="string" name="PRECFOCK"></i>
   <i type="logical" name="LSYMGRAD"> F  </i>
   <i type="logical" name="LHFONE"> F  </i>
   <i type="logical" name="LRHFCALC"> F  </i>
   <i type="logical" name="LTHOMAS"> F  </i>
   <i type="logical" name="LMODELHF"> F  </i>
   <i name="ENCUT4O">     -1.00000000</i>
   <i type="int" name="EXXOEP">     0</i>
   <i type="int" name="FOURORBIT">     0</i>
   <i name="AEXX">      0.00000000</i>
   <i name="HFALPHA">      0.00000000</i>
   <i name="MCALPHA">      0.00000000</i>
   <i name="ALDAX">      1.00000000</i>
   <i name="AGGAX">      1.00000000</i>
   <i name="ALDAC">      1.00000000</i>
   <i name="AGGAC">      1.00000000</i>
   <i type="int" name="NKREDX">     1</i>
   <i type="int" name="NKREDY">     1</i>
   <i type="int" name="NKREDZ">     1</i>
   <i type="logical" name="SHIFTRED"> F  </i>
   <i type="logical" name="ODDONLY"> F  </i>
   <i type="logical" name="EVENONLY"> F  </i>
   <i type="int" name="LMAXFOCK">     0</i>
   <i type="int" name="NMAXFOCKAE">     0</i>
   <i type="logical" name="LFOCKAEDFT"> F  </i>
   <i name="HFSCREEN">      0.00000000</i>
   <i name="HFSCREENC">      0.00000000</i>
   <i type="int" name="NBANDSGWLOW">     0</i>
  </separator>
  <separator name="vdW DFT" >
   <i type="logical" name="LUSE_VDW"> F  </i>
   <i name="Zab_VDW">     -0.84910000</i>
   <i name="PARAM1">      0.12340000</i>
   <i name="PARAM2">      1.00000000</i>
   <i name="PARAM3">      0.00000000</i>
  </separator>
  <separator name="model GW" >
   <i type="int" name="MODEL_GW">     0</i>
   <i name="MODEL_EPS0">     13.52715938</i>
   <i name="MODEL_ALPHA">      1.00000000</i>
  </separator>
  <separator name="linear response parameters" >
   <i type="logical" name="LEPSILON"> F  </i>
   <i type="logical" name="LRPA"> F  </i>
   <i type="logical" name="LNABLA"> F  </i>
   <i type="logical" name="LVEL"> F  </i>
   <i type="int" name="KINTER">     0</i>
   <i name="CSHIFT">      0.10000000</i>
   <i name="OMEGAMAX">     -1.00000000</i>
   <i name="DEG_THRESHOLD">      0.00200000</i>
  </separator>
  <separator name="orbital magnetization" >
   <i type="logical" name="NUCIND"> F  </i>
   <v name="MAGPOS">      0.00000000      0.00000000      0.00000000</v>
   <i type="logical" name="LNICSALL"> T  </i>
   <i type="logical" name="ORBITALMAG"> F  </i>
   <i type="logical" name="LMAGBLOCH"> F  </i>
   <i type="logical" name="LCHIMAG"> F  </i>
   <i type="logical" name="LGAUGE"> T  </i>
   <i type="int" name="MAGATOM">     0</i>
   <v name="MAGDIPOL">      0.00000000      0.00000000      0.00000000</v>
   <v name="AVECCONST">      0.00000000      0.00000000      0.00000000</v>
  </separator>
  <separator name="response functions" >
   <i type="logical" name="LADDER"> F  </i>
   <i type="logical" name="LFXC"> F  </i>
   <i type="logical" name="LHARTREE"> T  </i>
   <i type="int" name="IBSE">     0</i>
   <i type="logical" name="LTCTE"> F  </i>
   <i type="logical" name="LTETE"> F  </i>
   <i type="logical" name="LTRIPLET"> F  </i>
   <i type="logical" name="LFXCEPS"> F  </i>
   <i type="logical" name="LFXHEG"> F  </i>
   <i type="logical" name="L2ORDER"> F  </i>
   <i type="logical" name="LUSEW"> F  </i>
   <i name="ENCUTGW">     -2.00000000</i>
   <i name="ENCUTGWSOFT">     -2.00000000</i>
   <i name="ENCUTLF">     -1.00000000</i>
   <i type="int" name="LMAXMP2">    -1</i>
   <i name="SCISSOR">      0.00000000</i>
   <i type="int" name="NOMEGA">     0</i>
   <i type="int" name="NOMEGAR">     0</i>
   <i type="int" name="NBANDSGW">    -1</i>
   <i type="int" name="NBANDSO">    -1</i>
   <i type="int" name="NBANDSV">    -1</i>
   <i type="int" name="NELM">     1</i>
   <i type="int" name="DIM">     3</i>
   <i type="int" name="ANTIRES">     0</i>
   <i name="OMEGAMAX">    -30.00000000</i>
   <i name="OMEGAMIN">    -30.00000000</i>
   <i name="OMEGATL">   -200.00000000</i>
   <i type="int" name="OMEGAGRID">     0</i>
   <i name="CSHIFT">     -0.10000000</i>
   <i type="logical" name="SELFENERGY"> F  </i>
   <i type="logical" name="LSPECTRAL"> F  </i>
   <i type="logical" name="ODDONLYGW"> F  </i>
   <i type="logical" name="EVENONLYGW"> F  </i>
   <i type="int" name="NKREDLFX">     1</i>
   <i type="int" name="NKREDLFY">     1</i>
   <i type="int" name="NKREDLFZ">     1</i>
   <i type="int" name="MAXMEM">  1800</i>
   <i type="int" name="TELESCOPE">     0</i>
   <i type="int" name="TAUPAR">     1</i>
  </separator>
  <separator name="External order field" >
   <i name="OFIELD_KAPPA">      0.00000000</i>
   <v name="OFIELD_K">      0.00000000      0.00000000      0.00000000</v>
   <i name="OFIELD_Q6_NEAR">      0.00000000</i>
   <i name="OFIELD_Q6_FAR">      0.00000000</i>
   <i name="OFIELD_A">      0.00000000</i>
  </separator>
 </parameters>
 <atominfo>
  <atoms>       2 </atoms>
  <types>       2 </types>
  <array name="atoms" >
   <dimension dim="1">ion</dimension>
   <field type="string">element</field>
   <field type="int">atomtype</field>
   <set>
    <rc><c>Ga</c><c>   1</c></rc>
    <rc><c>As</c><c>   2</c></rc>
   </set>
  </array>
  <array name="atomtypes" >
   <dimension dim="1">type</dimension>
   <field type="int">atomspertype</field>
   <field type="string">element</field>
   <field>mass</field>
   <field>valence</field>
   <field type="string">pseudopotential</field>
   <set>
    <rc><c>   1</c><c>Ga</c><c>     69.72300000</c><c>     13.00000000</c><c>  PAW Ga                                </c></rc>
    <rc><c>   1</c><c>As</c><c>     74.92200000</c><c>      5.00000000</c><c>  PAW As                                </c></rc>
   </set>
  </array>
 </atominfo>
 <structure name="initialpos" >
  <crystal>
   <varray name="basis" >
    <v>       2.82500000       2.82500000       0.00000000 </v>
    <v>       0.00000000       2.82500000       2.82500000 </v>
    <v>       2.82500000       0.00000000       2.82500000 </v>
   </varray>
   <i name="volume">     45.09053125 </i>
   <varray name="rec_basis" >
    <v>       0.17699115       0.17699115      -0.17699115 </v>
    <v>      -0.17699115       0.17699115       0.17699115 </v>
    <v>       0.17699115      -0.17699115       0.17699115 </v>
   </varray>
  </crystal>
  <varray name="positions" >
   <v>       0.00000000       0.00000000       0.00000000 </v>
   <v>       0.25000000       0.25000000       0.25000000 </v>
  </varray>
 </structure>
 <calculation>
  <scstep>
   <time name="dav">   44.69   44.92</time>
   <time name="total">   44.91   45.14</time>
   <energy>
    <i name="alphaZ">     72.97670546 </i>
    <i name="ewald">  -1266.30826995 </i>
    <i name="hartreedc">   -719.91429371 </i>
    <i name="XCdc">     52.27267908 </i>
    <i name="pawpsdc">   1555.72240197 </i>
    <i name="pawaedc">  -1892.24867362 </i>
    <i name="eentropy">     -0.00961732 </i>
    <i name="bandstr">    -60.94273158 </i>
    <i name="atom">   2326.13011118 </i>
    <i name="e_fr_energy">     67.67831152 </i>
    <i name="e_wo_entrp">     67.68792884 </i>
    <i name="e_0_energy">     67.68312018 </i>
   </energy>
  </scstep>
  <scstep>
   <time name="dav">   45.47   45.58</time>
   <time name="total">   45.63   45.74</time>
   <energy>
    <i name="e_fr_energy">     -0.59366821 </i>
    <i name="e_wo_entrp">     -0.58390564 </i>
    <i name="e_0_energy">     -0.58878692 </i>
   </energy>
  </scstep>
  <scstep>
   <time name="dav">   53.71   53.85</time>
   <time name="total">   53.87   54.01</time>
   <energy>
    <i name="e_fr_energy">     -5.87562745 </i>
    <i name="e_wo_entrp">     -5.86672646 </i>
    <i name="e_0_energy">     -5.87117695 </i>
   </energy>
  </scstep>
  <scstep>
   <time name="dav">   45.76   45.89</time>
   <time name="total">   45.89   46.02</time>
   <energy>
    <i name="e_fr_energy">     -5.94926256 </i>
    <i name="e_wo_entrp">     -5.94052972 </i>
    <i name="e_0_energy">     -5.94489614 </i>
   </energy>
  </scstep>
  <scstep>
   <time name="dav">   52.83   52.96</time>
   <time name="total">   52.92   53.05</time>
   <energy>
    <i name="e_fr_energy">     -5.94995981 </i>
    <i name="e_wo_entrp">     -5.94122670 </i>
    <i name="e_0_energy">     -5.94559325 </i>
   </energy>
  </scstep>
  <scstep>
   <time name="dav">   28.84   28.93</time>
   <time name="total">   28.92   29.01</time>
   <energy>
    <i name="alphaZ">     72.97670546 </i>
    <i name="ewald">  -1266.30826995 </i>
    <i name="hartreedc">   -719.91429371 </i>
    <i name="XCdc">     52.27267908 </i>
    <i name="pawpsdc">   1555.72240197 </i>
    <i name="pawaedc">  -1892.24867362 </i>
    <i name="eentropy">     -0.00873320 </i>
    <i name="bandstr">   -134.57189679 </i>
    <i name="atom">   2326.13011118 </i>
    <i name="e_fr_energy">     -5.94996957 </i>
    <i name="e_wo_entrp">     -5.94123638 </i>
    <i name="e_0_energy">     -5.94560298 </i>
   </energy>
  </scstep>
  <structure>
   <crystal>
    <varray name="basis" >
     <v>       2.82500000       2.82500000       0.00000000 </v>
     <v>       0.00000000       2.82500000       2.82500000 </v>
     <v>       2.82500000       0.00000000       2.82500000 </v>
    </varray>
    <i name="volume">     45.09053125 </i>
    <varray name="rec_basis" >
     <v>       0.17699115       0.17699115      -0.17699115 </v>
     <v>      -0.17699115       0.17699115       0.17699115 </v>
     <v>       0.17699115      -0.17699115       0.17699115 </v>
    </varray>
   </crystal>
   <varray name="positions" >
    <v>       0.00000000       0.00000000       0.00000000 </v>
    <v>       0.25000000       0.25000000       0.25000000 </v>
   </varray>
  </structure>
  <varray name="forces" >
   <v>       0.00000000       0.00000000       0.00000000 </v>
   <v>      -0.00000000      -0.00000000      -0.00000000 </v>
  </varray>
  <varray name="stress" >
   <v>     174.00019037      -0.00000000       0.00000000 </v>
   <v>       0.00000000     174.00019037       0.00000000 </v>
   <v>       0.00000000      -0.00000000     174.00019037 </v>
  </varray>
  <energy>
   <i name="e_fr_energy">     -5.94996957 </i>
   <i name="e_wo_entrp">     -5.94560298 </i>
   <i name="e_0_energy">     -0.00873320 </i>
  </energy>
  <time name="totalsc">  271.56  272.26</time>
  <eigenvalues>
   <array>
    <dimension dim="1">band</dimension>
    <dimension dim="2">kpoint</dimension>
    <dimension dim="3">spin</dimension>
    <field>eigene</field>
    <field>occ</field>
    <set>
     <set comment="spin 1">
      <set comment="kpoint 1">
       <r>  -12.0296    1.0000 </r>
       <r>  -11.9313    1.0000 </r>
       <r>  -11.9313    1.0000 </r>
       <r>  -11.8663    1.0000 </r>
       <r>  -11.8663    1.0000 </r>
       <r>   -8.0607    1.0000 </r>
       <r>   -3.7551    1.0000 </r>
       <r>    1.7964    1.0000 </r>
       <r>    1.7964    1.0000 </r>
       <r>    3.8171    0.0000 </r>
       <r>    7.5307    0.0000 </r>
       <r>    7.5307    0.0000 </r>
       <r>   10.5127    0.0000 </r>
      </set>
      <set comment="kpoint 2">
       <r>  -12.0291    1.0000 </r>
       <r>  -11.9314    1.0000 </r>
       <r>  -11.9314    1.0000 </r>
       <r>  -11.8664    1.0000 </r>
       <r>  -11.8664    1.0000 </r>
       <r>   -8.0814    1.0000 </r>
       <r>   -3.7182    1.0000 </r>
       <r>    1.8019    1.0000 </r>
       <r>    1.8019    1.0000 </r>
       <r>    3.8227    0.0000 </r>
       <r>    7.5338    0.0000 </r>
       <r>    7.5338    0.0000 </r>
       <r>   10.5160    0.0000 </r>
      </set>
      <set comment="kpoint 3">
       <r>  -12.0279    1.0000 </r>
       <r>  -11.9317    1.0000 </r>
       <r>  -11.9317    1.0000 </r>
       <r>  -11.8668    1.0000 </r>
       <r>  -11.8668    1.0000 </r>
       <r>   -8.1412    1.0000 </r>
       <r>   -3.6098    1.0000 </r>
       <r>    1.8184    1.0000 </r>
       <r>    1.8184    1.0000 </r>
       <r>    3.8396    0.0000 </r>
       <r>    7.5425    0.0000 </r>
       <r>    7.5425    0.0000 </r>
       <r>   10.5230    0.0000 </r>
      </set>
      <set comment="kpoint 4">
       <r>  -12.0256    1.0000 </r>
       <r>  -11.9323    1.0000 </r>
       <r>  -11.9323    1.0000 </r>
       <r>  -11.8670    1.0000 </r>
       <r>  -11.8670    1.0000 </r>
       <r>   -8.2342    1.0000 </r>
       <r>   -3.4360    1.0000 </r>
       <r>    1.8459    1.0000 </r>
       <r>    1.8459    1.0000 </r>
       <r>    3.8676    0.0000 </r>
       <r>    7.5556    0.0000 </r>
       <r>    7.5556    0.0000 </r>
       <r>   10.5237    0.0000 </r>
      </set>
      <set comment="kpoint 5">
       <r>  -12.0224    1.0000 </r>
       <r>  -11.9329    1.0000 </r>
       <r>  -11.9329    1.0000 </r>
       <r>  -11.8674    1.0000 </r>
       <r>  -11.8674    1.0000 </r>
       <r>   -8.3522    1.0000 </r>
       <r>   -3.2052    1.0000 </r>
       <r>    1.8839    1.0000 </r>
       <r>    1.8839    1.0000 </r>
       <r>    3.9064    0.0000 </r>
       <r>    7.5704    0.0000 </r>
       <r>    7.5704    0.0000 </r>
       <r>   10.4941    0.0000 </r>
      </set>
      <set comment="kpoint 6">
       <r>  -12.0188    1.0000 </r>
       <r>  -11.9338    1.0000 </r>
       <r>  -11.9338    1.0000 </r>
       <r>  -11.8681    1.0000 </r>
       <r>  -11.8681    1.0000 </r>
       <r>   -8.4872    1.0000 </r>
       <r>   -2.9258    1.0000 </r>
       <r>    1.9323    1.0000 </r>
       <r>    1.9323    1.0000 </r>
       <r>    3.9556    0.0000 </r>
       <r>    7.5835    0.0000 </r>
       <r>    7.5835    0.0000 </r>
       <r>   10.3870    0.0000 </r>
      </set>
      <set comment="kpoint 7">
       <r>  -12.0142    1.0000 </r>
       <r>  -11.9349    1.0000 </r>
       <r>  -11.9349    1.0000 </r>
       <r>  -11.8686    1.0000 </r>
       <r>  -11.8686    1.0000 </r>
       <r>   -8.6318    1.0000 </r>
       <r>   -2.6056    1.0000 </r>
       <r>    1.9906    1.0000 </r>
       <r>    1.9906    1.0000 </r>
       <r>    4.0144    0.0000 </r>
       <r>    7.5904    0.0000 </r>
       <r>    7.5904    0.0000 </r>
       <r>   10.1553    0.0000 </r>
      </set>
      <set comment="kpoint 8">
       <r>  -12.0089    1.0000 </r>
       <r>  -11.9360    1.0000 </r>
       <r>  -11.9360    1.0000 </r>
       <r>  -11.8690    1.0000 </r>
       <r>  -11.8690    1.0000 </r>
       <r>   -8.7801    1.0000 </r>
       <r>   -2.2513    1.0000 </r>
       <r>    2.0582    1.0000 </r>
       <r>    2.0582    1.0000 </r>
       <r>    4.0817    0.0000 </r>
       <r>    7.5857    0.0000 </r>
       <r>    7.5857    0.0000 </r>
       <r>    9.8130    0.0000 </r>
      </set>
      <set comment="kpoint 9">
       <r>  -12.0027    1.0000 </r>
       <r>  -11.9374    1.0000 </r>
       <r>  -11.9374    1.0000 </r>
       <r>  -11.8694    1.0000 </r>
       <r>  -11.8694    1.0000 </r>
       <r>   -8.9272    1.0000 </r>
       <r>   -1.8684    1.0000 </r>
       <r>    2.1342    1.0000 </r>
       <r>    2.1342    1.0000 </r>
       <r>    4.1558    0.0000 </r>
       <r>    7.5641    0.0000 </r>
       <r>    7.5641    0.0000 </r>
       <r>    9.4121    0.0000 </r>
      </set>
      <set comment="kpoint 10">
       <r>  -11.9964    1.0000 </r>
       <r>  -11.9389    1.0000 </r>
       <r>  -11.9389    1.0000 </r>
       <r>  -11.8696    1.0000 </r>
       <r>  -11.8696    1.0000 </r>
       <r>   -9.0694    1.0000 </r>
       <r>   -1.4613    1.0000 </r>
       <r>    2.2176    1.0000 </r>
       <r>    2.2176    1.0000 </r>
       <r>    4.2341    0.0000 </r>
       <r>    7.5209    0.0000 </r>
       <r>    7.5209    0.0000 </r>
       <r>    8.9901    0.0000 </r>
      </set>
      <set comment="kpoint 11">
       <r>  -11.9900    1.0000 </r>
       <r>  -11.9407    1.0000 </r>
       <r>  -11.9407    1.0000 </r>
       <r>  -11.8698    1.0000 </r>
       <r>  -11.8698    1.0000 </r>
       <r>   -9.2041    1.0000 </r>
       <r>   -1.0342    1.0000 </r>
       <r>    2.3071    1.0000 </r>
       <r>    2.3071    1.0000 </r>
       <r>    4.3125    0.0000 </r>
       <r>    7.4534    0.0000 </r>
       <r>    7.4534    0.0000 </r>
       <r>    8.5670    0.0000 </r>
      </set>
      <set comment="kpoint 12">
       <r>  -11.9835    1.0000 </r>
       <r>  -11.9423    1.0000 </r>
       <r>  -11.9423    1.0000 </r>
       <r>  -11.8700    1.0000 </r>
       <r>  -11.8700    1.0000 </r>
       <r>   -9.3289    1.0000 </r>
       <r>   -0.5906    1.0000 </r>
       <r>    2.4011    1.0000 </r>
       <r>    2.4011    1.0000 </r>
       <r>    4.3846    0.0000 </r>
       <r>    7.3625    0.0000 </r>
       <r>    7.3625    0.0000 </r>
       <r>    8.1555    0.0000 </r>
      </set>
      <set comment="kpoint 13">
       <r>  -11.9770    1.0000 </r>
       <r>  -11.9440    1.0000 </r>
       <r>  -11.9440    1.0000 </r>
       <r>  -11.8701    1.0000 </r>
       <r>  -11.8701    1.0000 </r>
       <r>   -9.4422    1.0000 </r>
       <r>   -0.1337    1.0000 </r>
       <r>    2.4973    1.0000 </r>
       <r>    2.4973    1.0000 </r>
       <r>    4.4406    0.0000 </r>
       <r>    7.2521    0.0000 </r>
       <r>    7.2521    0.0000 </r>
       <r>    7.7673    0.0000 </r>
      </set>
      <set comment="kpoint 14">
       <r>  -11.9714    1.0000 </r>
       <r>  -11.9459    1.0000 </r>
       <r>  -11.9459    1.0000 </r>
       <r>  -11.8703    1.0000 </r>
       <r>  -11.8703    1.0000 </r>
       <r>   -9.5428    1.0000 </r>
       <r>    0.3329    1.0000 </r>
       <r>    2.5930    1.0000 </r>
       <r>    2.5930    1.0000 </r>
       <r>    4.4655    0.0000 </r>
       <r>    7.1291    0.0000 </r>
       <r>    7.1291    0.0000 </r>
       <r>    7.4157    0.0000 </r>
      </set>
      <set comment="kpoint 15">
       <r>  -11.9658    1.0000 </r>
       <r>  -11.9474    1.0000 </r>
       <r>  -11.9474    1.0000 </r>
       <r>  -11.8703    1.0000 </r>
       <r>  -11.8703    1.0000 </r>
       <r>   -9.6294    1.0000 </r>
       <r>    0.8058    1.0000 </r>
       <r>    2.6851    0.9998 </r>
       <r>    2.6851    0.9998 </r>
       <r>    4.4393    0.0000 </r>
       <r>    7.0025    0.0000 </r>
       <r>    7.0025    0.0000 </r>
       <r>    7.1180    0.0000 </r>
      </set>
      <set comment="kpoint 16">
       <r>  -11.9608    1.0000 </r>
       <r>  -11.9487    1.0000 </r>
       <r>  -11.9487    1.0000 </r>
       <r>  -11.8702    1.0000 </r>
       <r>  -11.8702    1.0000 </r>
       <r>   -9.7014    1.0000 </r>
       <r>    1.2808    1.0000 </r>
       <r>    2.7695    0.9985 </r>
       <r>    2.7695    0.9985 </r>
       <r>    4.3396    0.0000 </r>
       <r>    6.8816    0.0000 </r>
       <r>    6.8816    0.0000 </r>
       <r>    6.8914    0.0000 </r>
      </set>
      <set comment="kpoint 17">
       <r>  -11.9567    1.0000 </r>
       <r>  -11.9498    1.0000 </r>
       <r>  -11.9498    1.0000 </r>
       <r>  -11.8702    1.0000 </r>
       <r>  -11.8702    1.0000 </r>
       <r>   -9.7580    1.0000 </r>
       <r>    1.7529    1.0000 </r>
       <r>    2.8421    0.9928 </r>
       <r>    2.8421    0.9928 </r>
       <r>    4.1525    0.0000 </r>
       <r>    6.7433    0.0000 </r>
       <r>    6.7756    0.0000 </r>
       <r>    6.7756    0.0000 </r>
      </set>
      <set comment="kpoint 18">
       <r>  -11.9536    1.0000 </r>
       <r>  -11.9508    1.0000 </r>
       <r>  -11.9508    1.0000 </r>
       <r>  -11.8703    1.0000 </r>
       <r>  -11.8703    1.0000 </r>
       <r>   -9.7988    1.0000 </r>
       <r>    2.2152    1.0000 </r>
       <r>    2.8981    0.9799 </r>
       <r>    2.8981    0.9799 </r>
       <r>    3.8821    0.0000 </r>
       <r>    6.6639    0.0000 </r>
       <r>    6.6928    0.0000 </r>
       <r>    6.6928    0.0000 </r>
      </set>
      <set comment="kpoint 19">
       <r>  -11.9522    1.0000 </r>
       <r>  -11.9514    1.0000 </r>
       <r>  -11.9514    1.0000 </r>
       <r>  -11.8704    1.0000 </r>
       <r>  -11.8704    1.0000 </r>
       <r>   -9.8234    1.0000 </r>
       <r>    2.6529    0.9999 </r>
       <r>    2.9337    0.9641 </r>
       <r>    2.9337    0.9641 </r>
       <r>    3.5522    0.0050 </r>
       <r>    6.6304    0.0000 </r>
       <r>    6.6401    0.0000 </r>
       <r>    6.6401    0.0000 </r>
      </set>
      <set comment="kpoint 20">
       <r>  -11.9516    1.0000 </r>
       <r>  -11.9516    1.0000 </r>
       <r>  -11.9515    1.0000 </r>
       <r>  -11.8704    1.0000 </r>
       <r>  -11.8704    1.0000 </r>
       <r>   -9.8316    1.0000 </r>
       <r>    2.9459    0.9568 </r>
       <r>    2.9459    0.9568 </r>
       <r>    2.9459    0.9568 </r>
       <r>    3.2938    0.2281 </r>
       <r>    6.6221    0.0000 </r>
       <r>    6.6221    0.0000 </r>
       <r>    6.6221    0.0000 </r>
      </set>
      <set comment="kpoint 21">
       <r>  -11.9516    1.0000 </r>
       <r>  -11.9516    1.0000 </r>
       <r>  -11.9515    1.0000 </r>
       <r>  -11.8704    1.0000 </r>
       <r>  -11.8704    1.0000 </r>
       <r>   -9.8316    1.0000 </r>
       <r>    2.9459    0.9568 </r>
       <r>    2.9459    0.9568 </r>
       <r>    2.9459    0.9568 </r>
       <r>    3.2938    0.2281 </r>
       <r>    6.6221    0.0000 </r>
       <r>    6.6221    0.0000 </r>
       <r>    6.6221    0.0000 </r>
      </set>
      <set comment="kpoint 22">
       <r>  -11.9526    1.0000 </r>
       <r>  -11.9512    1.0000 </r>
       <r>  -11.9512    1.0000 </r>
       <r>  -11.8705    1.0000 </r>
       <r>  -11.8703    1.0000 </r>
       <r>   -9.8207    1.0000 </r>
       <r>    2.6152    1.0000 </r>
       <r>    2.9080    0.9763 </r>
       <r>    2.9080    0.9763 </r>
       <r>    3.6229    0.0011 </r>
       <r>    6.5782    0.0000 </r>
       <r>    6.6733    0.0000 </r>
       <r>    6.6733    0.0000 </r>
      </set>
      <set comment="kpoint 23">
       <r>  -11.9555    1.0000 </r>
       <r>  -11.9499    1.0000 </r>
       <r>  -11.9498    1.0000 </r>
       <r>  -11.8705    1.0000 </r>
       <r>  -11.8700    1.0000 </r>
       <r>   -9.7878    1.0000 </r>
       <r>    2.1580    1.0000 </r>
       <r>    2.8008    0.9969 </r>
       <r>    2.8008    0.9969 </r>
       <r>    4.0735    0.0000 </r>
       <r>    6.4567    0.0000 </r>
       <r>    6.8205    0.0000 </r>
       <r>    6.8205    0.0000 </r>
      </set>
      <set comment="kpoint 24">
       <r>  -11.9603    1.0000 </r>
       <r>  -11.9484    1.0000 </r>
       <r>  -11.9484    1.0000 </r>
       <r>  -11.8712    1.0000 </r>
       <r>  -11.8696    1.0000 </r>
       <r>   -9.7335    1.0000 </r>
       <r>    1.6941    1.0000 </r>
       <r>    2.6397    0.9999 </r>
       <r>    2.6397    0.9999 </r>
       <r>    4.5193    0.0000 </r>
       <r>    6.2821    0.0000 </r>
       <r>    7.0477    0.0000 </r>
       <r>    7.0478    0.0000 </r>
      </set>
      <set comment="kpoint 25">
       <r>  -11.9665    1.0000 </r>
       <r>  -11.9461    1.0000 </r>
       <r>  -11.9461    1.0000 </r>
       <r>  -11.8721    1.0000 </r>
       <r>  -11.8687    1.0000 </r>
       <r>   -9.6580    1.0000 </r>
       <r>    1.2321    1.0000 </r>
       <r>    2.4427    1.0000 </r>
       <r>    2.4427    1.0000 </r>
       <r>    4.9374    0.0000 </r>
       <r>    6.0841    0.0000 </r>
       <r>    7.3371    0.0000 </r>
       <r>    7.3371    0.0000 </r>
      </set>
      <set comment="kpoint 26">
       <r>  -11.9740    1.0000 </r>
       <r>  -11.9436    1.0000 </r>
       <r>  -11.9435    1.0000 </r>
       <r>  -11.8735    1.0000 </r>
       <r>  -11.8681    1.0000 </r>
       <r>   -9.5621    1.0000 </r>
       <r>    0.7743    1.0000 </r>
       <r>    2.2251    1.0000 </r>
       <r>    2.2251    1.0000 </r>
       <r>    5.2843    0.0000 </r>
       <r>    5.9080    0.0000 </r>
       <r>    7.6726    0.0000 </r>
       <r>    7.6726    0.0000 </r>
      </set>
      <set comment="kpoint 27">
       <r>  -11.9825    1.0000 </r>
       <r>  -11.9405    1.0000 </r>
       <r>  -11.9405    1.0000 </r>
       <r>  -11.8750    1.0000 </r>
       <r>  -11.8673    1.0000 </r>
       <r>   -9.4465    1.0000 </r>
       <r>    0.3219    1.0000 </r>
       <r>    1.9988    1.0000 </r>
       <r>    1.9988    1.0000 </r>
       <r>    5.4082    0.0000 </r>
       <r>    5.8952    0.0000 </r>
       <r>    8.0420    0.0000 </r>
       <r>    8.0420    0.0000 </r>
      </set>
      <set comment="kpoint 28">
       <r>  -11.9914    1.0000 </r>
       <r>  -11.9369    1.0000 </r>
       <r>  -11.9368    1.0000 </r>
       <r>  -11.8765    1.0000 </r>
       <r>  -11.8664    1.0000 </r>
       <r>   -9.3121    1.0000 </r>
       <r>   -0.1242    1.0000 </r>
       <r>    1.7723    1.0000 </r>
       <r>    1.7723    1.0000 </r>
       <r>    5.2767    0.0000 </r>
       <r>    6.0557    0.0000 </r>
       <r>    8.4365    0.0000 </r>
       <r>    8.4365    0.0000 </r>
      </set>
      <set comment="kpoint 29">
       <r>  -12.0005    1.0000 </r>
       <r>  -11.9332    1.0000 </r>
       <r>  -11.9332    1.0000 </r>
       <r>  -11.8785    1.0000 </r>
       <r>  -11.8654    1.0000 </r>
       <r>   -9.1601    1.0000 </r>
       <r>   -0.5631    1.0000 </r>
       <r>    1.5517    1.0000 </r>
       <r>    1.5517    1.0000 </r>
       <r>    5.0925    0.0000 </r>
       <r>    6.1622    0.0000 </r>
       <r>    8.8492    0.0000 </r>
       <r>    8.8493    0.0000 </r>
      </set>
      <set comment="kpoint 30">
       <r>  -12.0093    1.0000 </r>
       <r>  -11.9292    1.0000 </r>
       <r>  -11.9292    1.0000 </r>
       <r>  -11.8803    1.0000 </r>
       <r>  -11.8642    1.0000 </r>
       <r>   -8.9918    1.0000 </r>
       <r>   -0.9937    1.0000 </r>
       <r>    1.3414    1.0000 </r>
       <r>    1.3414    1.0000 </r>
       <r>    4.9114    0.0000 </r>
       <r>    6.1525    0.0000 </r>
       <r>    9.2756    0.0000 </r>
       <r>    9.2757    0.0000 </r>
      </set>
      <set comment="kpoint 31">
       <r>  -12.0180    1.0000 </r>
       <r>  -11.9251    1.0000 </r>
       <r>  -11.9251    1.0000 </r>
       <r>  -11.8829    1.0000 </r>
       <r>  -11.8631    1.0000 </r>
       <r>   -8.8089    1.0000 </r>
       <r>   -1.4145    1.0000 </r>
       <r>    1.1448    1.0000 </r>
       <r>    1.1448    1.0000 </r>
       <r>    4.7458    0.0000 </r>
       <r>    6.0374    0.0000 </r>
       <r>    9.7119    0.0000 </r>
       <r>    9.7119    0.0000 </r>
      </set>
      <set comment="kpoint 32">
       <r>  -12.0264    1.0000 </r>
       <r>  -11.9212    1.0000 </r>
       <r>  -11.9212    1.0000 </r>
       <r>  -11.8852    1.0000 </r>
       <r>  -11.8621    1.0000 </r>
       <r>   -8.6136    1.0000 </r>
       <r>   -1.8235    1.0000 </r>
       <r>    0.9641    1.0000 </r>
       <r>    0.9641    1.0000 </r>
       <r>    4.6007    0.0000 </r>
       <r>    5.8529    0.0000 </r>
       <r>   10.1549    0.0000 </r>
       <r>   10.1681    0.0000 </r>
      </set>
      <set comment="kpoint 33">
       <r>  -12.0341    1.0000 </r>
       <r>  -11.9173    1.0000 </r>
       <r>  -11.9173    1.0000 </r>
       <r>  -11.8870    1.0000 </r>
       <r>  -11.8612    1.0000 </r>
       <r>   -8.4089    1.0000 </r>
       <r>   -2.2175    1.0000 </r>
       <r>    0.8012    1.0000 </r>
       <r>    0.8013    1.0000 </r>
       <r>    4.4786    0.0000 </r>
       <r>    5.6341    0.0000 </r>
       <r>   10.6016    0.0000 </r>
       <r>   10.6021    0.0000 </r>
      </set>
      <set comment="kpoint 34">
       <r>  -12.0410    1.0000 </r>
       <r>  -11.9136    1.0000 </r>
       <r>  -11.9136    1.0000 </r>
       <r>  -11.8890    1.0000 </r>
       <r>  -11.8603    1.0000 </r>
       <r>   -8.1987    1.0000 </r>
       <r>   -2.5926    1.0000 </r>
       <r>    0.6577    1.0000 </r>
       <r>    0.6577    1.0000 </r>
       <r>    4.3812    0.0000 </r>
       <r>    5.4062    0.0000 </r>
       <r>   11.0485    0.0000 </r>
       <r>   11.0583    0.0000 </r>
      </set>
      <set comment="kpoint 35">
       <r>  -12.0471    1.0000 </r>
       <r>  -11.9106    1.0000 </r>
       <r>  -11.9105    1.0000 </r>
       <r>  -11.8910    1.0000 </r>
       <r>  -11.8595    1.0000 </r>
       <r>   -7.9887    1.0000 </r>
       <r>   -2.9429    1.0000 </r>
       <r>    0.5346    1.0000 </r>
       <r>    0.5346    1.0000 </r>
       <r>    4.3094    0.0000 </r>
       <r>    5.1856    0.0000 </r>
       <r>   11.4905    0.0000 </r>
       <r>   11.5201    0.0000 </r>
      </set>
      <set comment="kpoint 36">
       <r>  -12.0522    1.0000 </r>
       <r>  -11.9078    1.0000 </r>
       <r>  -11.9078    1.0000 </r>
       <r>  -11.8929    1.0000 </r>
       <r>  -11.8588    1.0000 </r>
       <r>   -7.7866    1.0000 </r>
       <r>   -3.2603    1.0000 </r>
       <r>    0.4328    1.0000 </r>
       <r>    0.4328    1.0000 </r>
       <r>    4.2638    0.0000 </r>
       <r>    4.9826    0.0000 </r>
       <r>   11.9193    0.0000 </r>
       <r>   11.9322    0.0000 </r>
      </set>
      <set comment="kpoint 37">
       <r>  -12.0557    1.0000 </r>
       <r>  -11.9051    1.0000 </r>
       <r>  -11.9051    1.0000 </r>
       <r>  -11.8941    1.0000 </r>
       <r>  -11.8581    1.0000 </r>
       <r>   -7.6033    1.0000 </r>
       <r>   -3.5336    1.0000 </r>
       <r>    0.3530    1.0000 </r>
       <r>    0.3530    1.0000 </r>
       <r>    4.2444    0.0000 </r>
       <r>    4.8038    0.0000 </r>
       <r>   12.3203    0.0000 </r>
       <r>   12.3460    0.0000 </r>
      </set>
      <set comment="kpoint 38">
       <r>  -12.0586    1.0000 </r>
       <r>  -11.9035    1.0000 </r>
       <r>  -11.9035    1.0000 </r>
       <r>  -11.8952    1.0000 </r>
       <r>  -11.8577    1.0000 </r>
       <r>   -7.4533    1.0000 </r>
       <r>   -3.7482    1.0000 </r>
       <r>    0.2956    1.0000 </r>
       <r>    0.2956    1.0000 </r>
       <r>    4.2493    0.0000 </r>
       <r>    4.6549    0.0000 </r>
       <r>   12.6666    0.0000 </r>
       <r>   13.0591    0.0000 </r>
      </set>
      <set comment="kpoint 39">
       <r>  -12.0604    1.0000 </r>
       <r>  -11.9023    1.0000 </r>
       <r>  -11.9023    1.0000 </r>
       <r>  -11.8958    1.0000 </r>
       <r>  -11.8573    1.0000 </r>
       <r>   -7.3533    1.0000 </r>
       <r>   -3.8871    1.0000 </r>
       <r>    0.2610    1.0000 </r>
       <r>    0.2611    1.0000 </r>
       <r>    4.2719    0.0000 </r>
       <r>    4.5451    0.0000 </r>
       <r>   12.9140    0.0000 </r>
       <r>   12.9240    0.0000 </r>
      </set>
      <set comment="kpoint 40">
       <r>  -12.0610    1.0000 </r>
       <r>  -11.9020    1.0000 </r>
       <r>  -11.9020    1.0000 </r>
       <r>  -11.8960    1.0000 </r>
       <r>  -11.8572    1.0000 </r>
       <r>   -7.3179    1.0000 </r>
       <r>   -3.9354    1.0000 </r>
       <r>    0.2495    1.0000 </r>
       <r>    0.2495    1.0000 </r>
       <r>    4.2884    0.0000 </r>
       <r>    4.4995    0.0000 </r>
       <r>   13.0062    0.0000 </r>
       <r>   13.4505    0.0000 </r>
      </set>
      <set comment="kpoint 41">
       <r>  -12.0610    1.0000 </r>
       <r>  -11.9020    1.0000 </r>
       <r>  -11.9020    1.0000 </r>
       <r>  -11.8960    1.0000 </r>
       <r>  -11.8572    1.0000 </r>
       <r>   -7.3179    1.0000 </r>
       <r>   -3.9354    1.0000 </r>
       <r>    0.2495    1.0000 </r>
       <r>    0.2495    1.0000 </r>
       <r>    4.2884    0.0000 </r>
       <r>    4.4995    0.0000 </r>
       <r>   13.0062    0.0000 </r>
       <r>   13.0097    0.0000 </r>
      </set>
      <set comment="kpoint 42">
       <r>  -12.0608    1.0000 </r>
       <r>  -11.9023    1.0000 </r>
       <r>  -11.9022    1.0000 </r>
       <r>  -11.8957    1.0000 </r>
       <r>  -11.8573    1.0000 </r>
       <r>   -7.3193    1.0000 </r>
       <r>   -3.9299    1.0000 </r>
       <r>    0.2337    1.0000 </r>
       <r>    0.2369    1.0000 </r>
       <r>    4.3187    0.0000 </r>
       <r>    4.5349    0.0000 </r>
       <r>   12.9243    0.0000 </r>
       <r>   12.9457    0.0000 </r>
      </set>
      <set comment="kpoint 43">
       <r>  -12.0602    1.0000 </r>
       <r>  -11.9032    1.0000 </r>
       <r>  -11.9027    1.0000 </r>
       <r>  -11.8949    1.0000 </r>
       <r>  -11.8576    1.0000 </r>
       <r>   -7.3232    1.0000 </r>
       <r>   -3.9135    1.0000 </r>
       <r>    0.1876    1.0000 </r>
       <r>    0.2014    1.0000 </r>
       <r>    4.4091    0.0000 </r>
       <r>    4.6382    0.0000 </r>
       <r>   12.6588    0.0000 </r>
       <r>   12.8004    0.0000 </r>
      </set>
      <set comment="kpoint 44">
       <r>  -12.0594    1.0000 </r>
       <r>  -11.9046    1.0000 </r>
       <r>  -11.9034    1.0000 </r>
       <r>  -11.8938    1.0000 </r>
       <r>  -11.8581    1.0000 </r>
       <r>   -7.3295    1.0000 </r>
       <r>   -3.8876    1.0000 </r>
       <r>    0.1148    1.0000 </r>
       <r>    0.1494    1.0000 </r>
       <r>    4.5569    0.0000 </r>
       <r>    4.8023    0.0000 </r>
       <r>   12.2442    0.0000 </r>
       <r>   12.5984    0.0000 </r>
      </set>
      <set comment="kpoint 45">
       <r>  -12.0580    1.0000 </r>
       <r>  -11.9065    1.0000 </r>
       <r>  -11.9041    1.0000 </r>
       <r>  -11.8924    1.0000 </r>
       <r>  -11.8587    1.0000 </r>
       <r>   -7.3377    1.0000 </r>
       <r>   -3.8538    1.0000 </r>
       <r>    0.0208    1.0000 </r>
       <r>    0.0892    1.0000 </r>
       <r>    4.7575    0.0000 </r>
       <r>    5.0186    0.0000 </r>
       <r>   11.7387    0.0000 </r>
       <r>   12.3586    0.0000 </r>
      </set>
      <set comment="kpoint 46">
       <r>  -12.0566    1.0000 </r>
       <r>  -11.9087    1.0000 </r>
       <r>  -11.9048    1.0000 </r>
       <r>  -11.8910    1.0000 </r>
       <r>  -11.8596    1.0000 </r>
       <r>   -7.3472    1.0000 </r>
       <r>   -3.8145    1.0000 </r>
       <r>   -0.0880    1.0000 </r>
       <r>    0.0291    1.0000 </r>
       <r>    5.0050    0.0000 </r>
       <r>    5.2783    0.0000 </r>
       <r>   11.1848    0.0000 </r>
       <r>   12.0894    0.0000 </r>
      </set>
      <set comment="kpoint 47">
       <r>  -12.0548    1.0000 </r>
       <r>  -11.9111    1.0000 </r>
       <r>  -11.9055    1.0000 </r>
       <r>  -11.8893    1.0000 </r>
       <r>  -11.8605    1.0000 </r>
       <r>   -7.3574    1.0000 </r>
       <r>   -3.7728    1.0000 </r>
       <r>   -0.2053    1.0000 </r>
       <r>   -0.0228    1.0000 </r>
       <r>    5.2934    0.0000 </r>
       <r>    5.5733    0.0000 </r>
       <r>   10.6089    0.0000 </r>
       <r>   11.7976    0.0000 </r>
      </set>
      <set comment="kpoint 48">
       <r>  -12.0528    1.0000 </r>
       <r>  -11.9134    1.0000 </r>
       <r>  -11.9061    1.0000 </r>
       <r>  -11.8876    1.0000 </r>
       <r>  -11.8614    1.0000 </r>
       <r>   -7.3678    1.0000 </r>
       <r>   -3.7316    1.0000 </r>
       <r>   -0.3255    1.0000 </r>
       <r>   -0.0598    1.0000 </r>
       <r>    5.6165    0.0000 </r>
       <r>    5.8963    0.0000 </r>
       <r>   10.0276    0.0000 </r>
       <r>   11.4905    0.0000 </r>
      </set>
      <set comment="kpoint 49">
       <r>  -12.0509    1.0000 </r>
       <r>  -11.9158    1.0000 </r>
       <r>  -11.9067    1.0000 </r>
       <r>  -11.8859    1.0000 </r>
       <r>  -11.8626    1.0000 </r>
       <r>   -7.3776    1.0000 </r>
       <r>   -3.6941    1.0000 </r>
       <r>   -0.4440    1.0000 </r>
       <r>   -0.0766    1.0000 </r>
       <r>    5.9685    0.0000 </r>
       <r>    6.2398    0.0000 </r>
       <r>    9.4535    0.0000 </r>
       <r>   11.1750    0.0000 </r>
      </set>
      <set comment="kpoint 50">
       <r>  -12.0491    1.0000 </r>
       <r>  -11.9181    1.0000 </r>
       <r>  -11.9075    1.0000 </r>
       <r>  -11.8842    1.0000 </r>
       <r>  -11.8638    1.0000 </r>
       <r>   -7.3865    1.0000 </r>
       <r>   -3.6630    1.0000 </r>
       <r>   -0.5569    1.0000 </r>
       <r>   -0.0692    1.0000 </r>
       <r>    6.3418    0.0000 </r>
       <r>    6.5942    0.0000 </r>
       <r>    8.9005    0.0000 </r>
       <r>   10.8571    0.0000 </r>
      </set>
      <set comment="kpoint 51">
       <r>  -12.0476    1.0000 </r>
       <r>  -11.9200    1.0000 </r>
       <r>  -11.9081    1.0000 </r>
       <r>  -11.8827    1.0000 </r>
       <r>  -11.8648    1.0000 </r>
       <r>   -7.3938    1.0000 </r>
       <r>   -3.6403    1.0000 </r>
       <r>   -0.6612    1.0000 </r>
       <r>   -0.0355    1.0000 </r>
       <r>    6.7178    0.0000 </r>
       <r>    6.9454    0.0000 </r>
       <r>    8.3967    0.0000 </r>
       <r>   10.5449    0.0000 </r>
      </set>
      <set comment="kpoint 52">
       <r>  -12.0465    1.0000 </r>
       <r>  -11.9213    1.0000 </r>
       <r>  -11.9086    1.0000 </r>
       <r>  -11.8815    1.0000 </r>
       <r>  -11.8657    1.0000 </r>
       <r>   -7.3992    1.0000 </r>
       <r>   -3.6272    1.0000 </r>
       <r>   -0.7546    1.0000 </r>
       <r>    0.0245    1.0000 </r>
       <r>    6.9934    0.0000 </r>
       <r>    7.2901    0.0000 </r>
       <r>    8.0405    0.0000 </r>
       <r>   10.2480    0.0000 </r>
      </set>
      <set comment="kpoint 53">
       <r>  -12.0457    1.0000 </r>
       <r>  -11.9221    1.0000 </r>
       <r>  -11.9090    1.0000 </r>
       <r>  -11.8806    1.0000 </r>
       <r>  -11.8661    1.0000 </r>
       <r>   -7.4023    1.0000 </r>
       <r>   -3.6236    1.0000 </r>
       <r>   -0.8353    1.0000 </r>
       <r>    0.1086    1.0000 </r>
       <r>    6.8846    0.0000 </r>
       <r>    7.6815    0.0000 </r>
       <r>    8.0471    0.0000 </r>
       <r>    9.9830    0.0000 </r>
      </set>
      <set comment="kpoint 54">
       <r>  -12.0454    1.0000 </r>
       <r>  -11.9223    1.0000 </r>
       <r>  -11.9095    1.0000 </r>
       <r>  -11.8802    1.0000 </r>
       <r>  -11.8665    1.0000 </r>
       <r>   -7.4030    1.0000 </r>
       <r>   -3.6287    1.0000 </r>
       <r>   -0.9016    1.0000 </r>
       <r>    0.2123    1.0000 </r>
       <r>    6.5122    0.0000 </r>
       <r>    8.0794    0.0000 </r>
       <r>    8.3026    0.0000 </r>
       <r>    9.7848    0.0000 </r>
      </set>
      <set comment="kpoint 55">
       <r>  -12.0455    1.0000 </r>
       <r>  -11.9218    1.0000 </r>
       <r>  -11.9098    1.0000 </r>
       <r>  -11.8803    1.0000 </r>
       <r>  -11.8663    1.0000 </r>
       <r>   -7.4012    1.0000 </r>
       <r>   -3.6412    1.0000 </r>
       <r>   -0.9526    1.0000 </r>
       <r>    0.3286    1.0000 </r>
       <r>    6.0979    0.0000 </r>
       <r>    8.3170    0.0000 </r>
       <r>    8.6841    0.0000 </r>
       <r>    9.7213    0.0000 </r>
      </set>
      <set comment="kpoint 56">
       <r>  -12.0459    1.0000 </r>
       <r>  -11.9208    1.0000 </r>
       <r>  -11.9099    1.0000 </r>
       <r>  -11.8808    1.0000 </r>
       <r>  -11.8660    1.0000 </r>
       <r>   -7.3967    1.0000 </r>
       <r>   -3.6590    1.0000 </r>
       <r>   -0.9874    1.0000 </r>
       <r>    0.4478    1.0000 </r>
       <r>    5.7055    0.0000 </r>
       <r>    8.3194    0.0000 </r>
       <r>    9.1475    0.0000 </r>
       <r>    9.8464    0.0000 </r>
      </set>
      <set comment="kpoint 57">
       <r>  -12.0468    1.0000 </r>
       <r>  -11.9197    1.0000 </r>
       <r>  -11.9100    1.0000 </r>
       <r>  -11.8817    1.0000 </r>
       <r>  -11.8655    1.0000 </r>
       <r>   -7.3895    1.0000 </r>
       <r>   -3.6803    1.0000 </r>
       <r>   -1.0054    1.0000 </r>
       <r>    0.5572    1.0000 </r>
       <r>    5.3611    0.0000 </r>
       <r>    8.1736    0.0000 </r>
       <r>    9.6335    0.0000 </r>
       <r>   10.1018    0.0000 </r>
      </set>
      <set comment="kpoint 58">
       <r>  -12.0478    1.0000 </r>
       <r>  -11.9182    1.0000 </r>
       <r>  -11.9099    1.0000 </r>
       <r>  -11.8827    1.0000 </r>
       <r>  -11.8648    1.0000 </r>
       <r>   -7.3799    1.0000 </r>
       <r>   -3.7032    1.0000 </r>
       <r>   -1.0062    1.0000 </r>
       <r>    0.6414    1.0000 </r>
       <r>    5.0839    0.0000 </r>
       <r>    7.9638    0.0000 </r>
       <r>   10.1225    0.0000 </r>
       <r>   10.3910    0.0000 </r>
      </set>
      <set comment="kpoint 59">
       <r>  -12.0488    1.0000 </r>
       <r>  -11.9169    1.0000 </r>
       <r>  -11.9096    1.0000 </r>
       <r>  -11.8837    1.0000 </r>
       <r>  -11.8640    1.0000 </r>
       <r>   -7.3681    1.0000 </r>
       <r>   -3.7261    1.0000 </r>
       <r>   -0.9897    1.0000 </r>
       <r>    0.6840    1.0000 </r>
       <r>    4.8917    0.0000 </r>
       <r>    7.7323    0.0000 </r>
       <r>   10.5702    0.0000 </r>
       <r>   10.6617    0.0000 </r>
      </set>
      <set comment="kpoint 60">
       <r>  -12.0496    1.0000 </r>
       <r>  -11.9157    1.0000 </r>
       <r>  -11.9088    1.0000 </r>
       <r>  -11.8846    1.0000 </r>
       <r>  -11.8633    1.0000 </r>
       <r>   -7.3544    1.0000 </r>
       <r>   -3.7476    1.0000 </r>
       <r>   -0.9559    1.0000 </r>
       <r>    0.6715    1.0000 </r>
       <r>    4.7985    0.0000 </r>
       <r>    7.4968    0.0000 </r>
       <r>   10.7781    0.0000 </r>
       <r>   10.9421    0.0000 </r>
      </set>
      <set comment="kpoint 61">
       <r>  -12.0496    1.0000 </r>
       <r>  -11.9157    1.0000 </r>
       <r>  -11.9088    1.0000 </r>
       <r>  -11.8846    1.0000 </r>
       <r>  -11.8633    1.0000 </r>
       <r>   -7.3544    1.0000 </r>
       <r>   -3.7476    1.0000 </r>
       <r>   -0.9559    1.0000 </r>
       <r>    0.6715    1.0000 </r>
       <r>    4.7985    0.0000 </r>
       <r>    7.4968    0.0000 </r>
       <r>   10.7786    0.0000 </r>
       <r>   10.9416    0.0000 </r>
      </set>
      <set comment="kpoint 62">
       <r>  -12.0469    1.0000 </r>
       <r>  -11.9184    1.0000 </r>
       <r>  -11.9114    1.0000 </r>
       <r>  -11.8820    1.0000 </r>
       <r>  -11.8650    1.0000 </r>
       <r>   -7.4113    1.0000 </r>
       <r>   -3.6774    1.0000 </r>
       <r>   -1.0481    1.0000 </r>
       <r>    0.8074    1.0000 </r>
       <r>    4.9272    0.0000 </r>
       <r>    8.1738    0.0000 </r>
       <r>   10.5064    0.0000 </r>
       <r>   10.5161    0.0000 </r>
      </set>
      <set comment="kpoint 63">
       <r>  -12.0438    1.0000 </r>
       <r>  -11.9210    1.0000 </r>
       <r>  -11.9138    1.0000 </r>
       <r>  -11.8793    1.0000 </r>
       <r>  -11.8668    1.0000 </r>
       <r>   -7.4978    1.0000 </r>
       <r>   -3.5843    1.0000 </r>
       <r>   -1.0692    1.0000 </r>
       <r>    0.9580    1.0000 </r>
       <r>    5.0651    0.0000 </r>
       <r>    8.6955    0.0000 </r>
       <r>   10.1045    0.0000 </r>
       <r>   10.3772    0.0000 </r>
      </set>
      <set comment="kpoint 64">
       <r>  -12.0403    1.0000 </r>
       <r>  -11.9229    1.0000 </r>
       <r>  -11.9164    1.0000 </r>
       <r>  -11.8764    1.0000 </r>
       <r>  -11.8680    1.0000 </r>
       <r>   -7.6155    1.0000 </r>
       <r>   -3.4600    1.0000 </r>
       <r>   -1.0218    1.0000 </r>
       <r>    1.1211    1.0000 </r>
       <r>    5.2065    0.0000 </r>
       <r>    8.8790    0.0000 </r>
       <r>    9.7102    0.0000 </r>
       <r>    9.9982    0.0000 </r>
      </set>
      <set comment="kpoint 65">
       <r>  -12.0368    1.0000 </r>
       <r>  -11.9248    1.0000 </r>
       <r>  -11.9192    1.0000 </r>
       <r>  -11.8741    1.0000 </r>
       <r>  -11.8695    1.0000 </r>
       <r>   -7.7623    1.0000 </r>
       <r>   -3.2981    1.0000 </r>
       <r>   -0.9123    1.0000 </r>
       <r>    1.2938    1.0000 </r>
       <r>    5.3433    0.0000 </r>
       <r>    8.8035    0.0000 </r>
       <r>    9.3359    0.0000 </r>
       <r>    9.5639    0.0000 </r>
      </set>
      <set comment="kpoint 66">
       <r>  -12.0328    1.0000 </r>
       <r>  -11.9263    1.0000 </r>
       <r>  -11.9221    1.0000 </r>
       <r>  -11.8722    1.0000 </r>
       <r>  -11.8707    1.0000 </r>
       <r>   -7.9333    1.0000 </r>
       <r>   -3.0946    1.0000 </r>
       <r>   -0.7485    1.0000 </r>
       <r>    1.4731    1.0000 </r>
       <r>    5.4650    0.0000 </r>
       <r>    8.6563    0.0000 </r>
       <r>    8.9838    0.0000 </r>
       <r>    9.1524    0.0000 </r>
      </set>
      <set comment="kpoint 67">
       <r>  -12.0282    1.0000 </r>
       <r>  -11.9276    1.0000 </r>
       <r>  -11.9250    1.0000 </r>
       <r>  -11.8716    1.0000 </r>
       <r>  -11.8706    1.0000 </r>
       <r>   -8.1216    1.0000 </r>
       <r>   -2.8483    1.0000 </r>
       <r>   -0.5383    1.0000 </r>
       <r>    1.6554    1.0000 </r>
       <r>    5.5588    0.0000 </r>
       <r>    8.5148    0.0000 </r>
       <r>    8.6552    0.0000 </r>
       <r>    8.7767    0.0000 </r>
      </set>
      <set comment="kpoint 68">
       <r>  -12.0231    1.0000 </r>
       <r>  -11.9289    1.0000 </r>
       <r>  -11.9280    1.0000 </r>
       <r>  -11.8724    1.0000 </r>
       <r>  -11.8694    1.0000 </r>
       <r>   -8.3200    1.0000 </r>
       <r>   -2.5601    1.0000 </r>
       <r>   -0.2887    1.0000 </r>
       <r>    1.8368    1.0000 </r>
       <r>    5.6125    0.0000 </r>
       <r>    8.3342    0.0000 </r>
       <r>    8.3509    0.0000 </r>
       <r>    8.5160    0.0000 </r>
      </set>
      <set comment="kpoint 69">
       <r>  -12.0174    1.0000 </r>
       <r>  -11.9312    1.0000 </r>
       <r>  -11.9304    1.0000 </r>
       <r>  -11.8730    1.0000 </r>
       <r>  -11.8686    1.0000 </r>
       <r>   -8.5215    1.0000 </r>
       <r>   -2.2321    1.0000 </r>
       <r>   -0.0062    1.0000 </r>
       <r>    2.0133    1.0000 </r>
       <r>    5.6182    0.0000 </r>
       <r>    8.0361    0.0000 </r>
       <r>    8.0715    0.0000 </r>
       <r>    8.4578    0.0000 </r>
      </set>
      <set comment="kpoint 70">
       <r>  -12.0107    1.0000 </r>
       <r>  -11.9341    1.0000 </r>
       <r>  -11.9320    1.0000 </r>
       <r>  -11.8731    1.0000 </r>
       <r>  -11.8682    1.0000 </r>
       <r>   -8.7203    1.0000 </r>
       <r>   -1.8668    1.0000 </r>
       <r>    0.3033    1.0000 </r>
       <r>    2.1807    1.0000 </r>
       <r>    5.5761    0.0000 </r>
       <r>    7.7413    0.0000 </r>
       <r>    7.8173    0.0000 </r>
       <r>    8.4709    0.0000 </r>
      </set>
      <set comment="kpoint 71">
       <r>  -12.0035    1.0000 </r>
       <r>  -11.9368    1.0000 </r>
       <r>  -11.9338    1.0000 </r>
       <r>  -11.8730    1.0000 </r>
       <r>  -11.8681    1.0000 </r>
       <r>   -8.9114    1.0000 </r>
       <r>   -1.4668    1.0000 </r>
       <r>    0.6336    1.0000 </r>
       <r>    2.3354    1.0000 </r>
       <r>    5.4933    0.0000 </r>
       <r>    7.4743    0.0000 </r>
       <r>    7.5881    0.0000 </r>
       <r>    8.5007    0.0000 </r>
      </set>
      <set comment="kpoint 72">
       <r>  -11.9962    1.0000 </r>
       <r>  -11.9395    1.0000 </r>
       <r>  -11.9361    1.0000 </r>
       <r>  -11.8729    1.0000 </r>
       <r>  -11.8683    1.0000 </r>
       <r>   -9.0909    1.0000 </r>
       <r>   -1.0349    1.0000 </r>
       <r>    0.9782    1.0000 </r>
       <r>    2.4741    1.0000 </r>
       <r>    5.3793    0.0000 </r>
       <r>    7.2398    0.0000 </r>
       <r>    7.3839    0.0000 </r>
       <r>    8.4956    0.0000 </r>
      </set>
      <set comment="kpoint 73">
       <r>  -11.9883    1.0000 </r>
       <r>  -11.9420    1.0000 </r>
       <r>  -11.9384    1.0000 </r>
       <r>  -11.8725    1.0000 </r>
       <r>  -11.8685    1.0000 </r>
       <r>   -9.2555    1.0000 </r>
       <r>   -0.5738    1.0000 </r>
       <r>    1.3292    1.0000 </r>
       <r>    2.5946    1.0000 </r>
       <r>    5.2414    0.0000 </r>
       <r>    7.0404    0.0000 </r>
       <r>    7.2045    0.0000 </r>
       <r>    8.4001    0.0000 </r>
      </set>
      <set comment="kpoint 74">
       <r>  -11.9804    1.0000 </r>
       <r>  -11.9442    1.0000 </r>
       <r>  -11.9410    1.0000 </r>
       <r>  -11.8720    1.0000 </r>
       <r>  -11.8687    1.0000 </r>
       <r>   -9.4027    1.0000 </r>
       <r>   -0.0866    1.0000 </r>
       <r>    1.6774    1.0000 </r>
       <r>    2.6960    0.9998 </r>
       <r>    5.0818    0.0000 </r>
       <r>    6.8784    0.0000 </r>
       <r>    7.0495    0.0000 </r>
       <r>    8.1809    0.0000 </r>
      </set>
      <set comment="kpoint 75">
       <r>  -11.9728    1.0000 </r>
       <r>  -11.9466    1.0000 </r>
       <r>  -11.9435    1.0000 </r>
       <r>  -11.8715    1.0000 </r>
       <r>  -11.8692    1.0000 </r>
       <r>   -9.5305    1.0000 </r>
       <r>    0.4232    1.0000 </r>
       <r>    2.0110    1.0000 </r>
       <r>    2.7781    0.9981 </r>
       <r>    4.8960    0.0000 </r>
       <r>    6.7559    0.0000 </r>
       <r>    6.9186    0.0000 </r>
       <r>    7.8559    0.0000 </r>
      </set>
      <set comment="kpoint 76">
       <r>  -11.9657    1.0000 </r>
       <r>  -11.9483    1.0000 </r>
       <r>  -11.9461    1.0000 </r>
       <r>  -11.8710    1.0000 </r>
       <r>  -11.8695    1.0000 </r>
       <r>   -9.6372    1.0000 </r>
       <r>    0.9514    1.0000 </r>
       <r>    2.3161    1.0000 </r>
       <r>    2.8420    0.9928 </r>
       <r>    4.6722    0.0000 </r>
       <r>    6.6738    0.0000 </r>
       <r>    6.8117    0.0000 </r>
       <r>    7.4838    0.0000 </r>
      </set>
      <set comment="kpoint 77">
       <r>  -11.9598    1.0000 </r>
       <r>  -11.9496    1.0000 </r>
       <r>  -11.9483    1.0000 </r>
       <r>  -11.8706    1.0000 </r>
       <r>  -11.8700    1.0000 </r>
       <r>   -9.7215    1.0000 </r>
       <r>    1.4919    1.0000 </r>
       <r>    2.5767    1.0000 </r>
       <r>    2.8892    0.9828 </r>
       <r>    4.3935    0.0000 </r>
       <r>    6.6297    0.0000 </r>
       <r>    6.7287    0.0000 </r>
       <r>    7.1319    0.0000 </r>
      </set>
      <set comment="kpoint 78">
       <r>  -11.9551    1.0000 </r>
       <r>  -11.9507    1.0000 </r>
       <r>  -11.9498    1.0000 </r>
       <r>  -11.8704    1.0000 </r>
       <r>  -11.8701    1.0000 </r>
       <r>   -9.7824    1.0000 </r>
       <r>    2.0360    1.0000 </r>
       <r>    2.7769    0.9982 </r>
       <r>    2.9213    0.9705 </r>
       <r>    4.0461    0.0000 </r>
       <r>    6.6160    0.0000 </r>
       <r>    6.6695    0.0000 </r>
       <r>    6.8538    0.0000 </r>
      </set>
      <set comment="kpoint 79">
       <r>  -11.9525    1.0000 </r>
       <r>  -11.9514    1.0000 </r>
       <r>  -11.9512    1.0000 </r>
       <r>  -11.8705    1.0000 </r>
       <r>  -11.8704    1.0000 </r>
       <r>   -9.8193    1.0000 </r>
       <r>    2.5662    1.0000 </r>
       <r>    2.9029    0.9782 </r>
       <r>    2.9399    0.9606 </r>
       <r>    3.6345    0.0008 </r>
       <r>    6.6187    0.0000 </r>
       <r>    6.6339    0.0000 </r>
       <r>    6.6803    0.0000 </r>
      </set>
      <set comment="kpoint 80">
       <r>  -11.9516    1.0000 </r>
       <r>  -11.9516    1.0000 </r>
       <r>  -11.9515    1.0000 </r>
       <r>  -11.8704    1.0000 </r>
       <r>  -11.8704    1.0000 </r>
       <r>   -9.8316    1.0000 </r>
       <r>    2.9459    0.9568 </r>
       <r>    2.9459    0.9568 </r>
       <r>    2.9459    0.9568 </r>
       <r>    3.2938    0.2281 </r>
       <r>    6.6221    0.0000 </r>
       <r>    6.6221    0.0000 </r>
       <r>    6.6221    0.0000 </r>
      </set>
     </set>
    </set>
   </array>
  </eigenvalues>
  <separator name="orbital magnetization" >
   <v name="MAGDIPOLOUT">      0.00000000      0.00000000      0.00000000</v>
  </separator>
  <dielectricfunction>
   <imag>
    <array>
     <dimension dim="1">gridpoints</dimension>
     <field>energy</field>
     <field>xx</field>
     <field>yy</field>
     <field>zz</field>
     <field>xy</field>
     <field>yz</field>
     <field>zx</field>
     <set>
      <r>     0.0000     0.0000     0.0000     0.0000     0.0000     0.0000     0.0000 </r>
      <r>     0.0306    61.7538    61.7538    61.7538    -0.0000    -0.0000    -0.0000 </r>
      <r>     0.0613   124.8850   124.8850   124.8850    -0.0000    -0.0000    -0.0000 </r>
      <r>     0.0919   190.3845   190.3845   190.3845    -0.0000    -0.0000    -0.0000 </r>
      <r>     0.1226   258.5169   258.5169   258.5169    -0.0000    -0.0000    -0.0000 </r>
      <r>     0.1532   328.5735   328.5735   328.5735    -0.0000    -0.0000    -0.0000 </r>
      <r>     0.1839   398.7735   398.7735   398.7735    -0.0000    -0.0000    -0.0000 </r>
      <r>     0.2145   466.3474   466.3474   466.3474    -0.0000    -0.0000    -0.0000 </r>
      <r>     0.2452   527.8240   527.8240   527.8240    -0.0000    -0.0000    -0.0000 </r>
      <r>     0.2758   579.4928   579.4928   579.4928    -0.0000    -0.0000    -0.0000 </r>
      <r>     0.3064   617.9721   617.9721   617.9721    -0.0000    -0.0000    -0.0000 </r>
      <r>     0.3371   640.7737   640.7737   640.7737    -0.0000    -0.0000    -0.0000 </r>
      <r>     0.3677   646.7453   646.7453   646.7453    -0.0000    -0.0000    -0.0000 </r>
      <r>     0.3984   636.2790   636.2790   636.2790    -0.0000    -0.0000    -0.0000 </r>
      <r>     0.4290   611.2513   611.2513   611.2513    -0.0000    -0.0000    -0.0000 </r>
      <r>     0.4597   574.6972   574.6972   574.6972    -0.0000    -0.0000    -0.0000 </r>
      <r>     0.4903   530.3067   530.3067   530.3067    -0.0000    -0.0000    -0.0000 </r>
      <r>     0.5210   481.8606   481.8606   481.8606    -0.0000    -0.0000    -0.0000 </r>
      <r>     0.5516   432.7292   432.7292   432.7292    -0.0000     0.0000    -0.0000 </r>
      <r>     0.5822   385.5266   385.5266   385.5266    -0.0000     0.0000    -0.0000 </r>
      <r>     0.6129   341.9640   341.9640   341.9640    -0.0000     0.0000    -0.0000 </r>
      <r>     0.6435   302.8905   302.8905   302.8905    -0.0000    -0.0000    -0.0000 </r>
      <r>     0.6742   268.4650   268.4650   268.4650    -0.0000    -0.0000    -0.0000 </r>
      <r>     0.7048   238.3973   238.3973   238.3973    -0.0000    -0.0000    -0.0000 </r>
      <r>     0.7355   212.1797   212.1797   212.1797    -0.0000    -0.0000    -0.0000 </r>
      <r>     0.7661   189.2693   189.2693   189.2693    -0.0000    -0.0000    -0.0000 </r>
      <r>     0.7968   169.1976   169.1976   169.1976    -0.0000    -0.0000    -0.0000 </r>
      <r>     0.8274   151.6087   151.6087   151.6087    -0.0000    -0.0000    -0.0000 </r>
      <r>     0.8580   136.2493   136.2493   136.2493    -0.0000    -0.0000    -0.0000 </r>
      <r>     0.8887   122.9310   122.9310   122.9310    -0.0000    -0.0000    -0.0000 </r>
      <r>     0.9193   111.4912   111.4912   111.4912    -0.0000    -0.0000    -0.0000 </r>
      <r>     0.9500   101.7641   101.7641   101.7641    -0.0000    -0.0000    -0.0000 </r>
      <r>     0.9806    93.5692    93.5692    93.5692    -0.0000    -0.0000    -0.0000 </r>
      <r>     1.0113    86.7127    86.7127    86.7127    -0.0000    -0.0000    -0.0000 </r>
      <r>     1.0419    80.9978    80.9978    80.9978    -0.0000    -0.0000    -0.0000 </r>
      <r>     1.0726    76.2356    76.2356    76.2356    -0.0000    -0.0000    -0.0000 </r>
      <r>     1.1032    72.2530    72.2530    72.2530    -0.0000    -0.0000    -0.0000 </r>
      <r>     1.1338    68.8956    68.8956    68.8956    -0.0000    -0.0000    -0.0000 </r>
      <r>     1.1645    66.0279    66.0279    66.0279    -0.0000    -0.0000    -0.0000 </r>
      <r>     1.1951    63.5322    63.5322    63.5322     0.0000    -0.0000    -0.0000 </r>
      <r>     1.2258    61.3090    61.3090    61.3090     0.0000    -0.0000    -0.0000 </r>
      <r>     1.2564    59.2795    59.2795    59.2795     0.0000    -0.0000    -0.0000 </r>
      <r>     1.2871    57.3894    57.3894    57.3894     0.0000    -0.0000    -0.0000 </r>
      <r>     1.3177    55.6123    55.6123    55.6123     0.0000    -0.0000    -0.0000 </r>
      <r>     1.3484    53.9500    53.9500    53.9500     0.0000    -0.0000    -0.0000 </r>
      <r>     1.3790    52.4300    52.4300    52.4300     0.0000    -0.0000    -0.0000 </r>
      <r>     1.4096    51.0998    51.0998    51.0998     0.0000    -0.0000    -0.0000 </r>
      <r>     1.4403    50.0198    50.0198    50.0198     0.0000    -0.0000    -0.0000 </r>
      <r>     1.4709    49.2573    49.2573    49.2573     0.0000    -0.0000    -0.0000 </r>
      <r>     1.5016    48.8828    48.8828    48.8828     0.0000    -0.0000    -0.0000 </r>
      <r>     1.5322    48.9689    48.9689    48.9689     0.0000    -0.0000    -0.0000 </r>
      <r>     1.5629    49.5906    49.5906    49.5906     0.0000    -0.0000     0.0000 </r>
      <r>     1.5935    50.8255    50.8255    50.8255     0.0000    -0.0000     0.0000 </r>
      <r>     1.6242    52.7510    52.7510    52.7510    -0.0000    -0.0000     0.0000 </r>
      <r>     1.6548    55.4366    55.4366    55.4366    -0.0000    -0.0000     0.0000 </r>
      <r>     1.6854    58.9315    58.9315    58.9315    -0.0000    -0.0000     0.0000 </r>
      <r>     1.7161    63.2466    63.2466    63.2466    -0.0000    -0.0000     0.0000 </r>
      <r>     1.7467    68.3346    68.3346    68.3346     0.0000     0.0000     0.0000 </r>
      <r>     1.7774    74.0702    74.0702    74.0702     0.0000     0.0000     0.0000 </r>
      <r>     1.8080    80.2363    80.2363    80.2363     0.0000     0.0000     0.0000 </r>
      <r>     1.8387    86.5203    86.5203    86.5203     0.0000    -0.0000     0.0000 </r>
      <r>     1.8693    92.5244    92.5244    92.5244     0.0000    -0.0000     0.0000 </r>
      <r>     1.9000    97.7956    97.7956    97.7956     0.0000    -0.0000     0.0000 </r>
      <r>     1.9306   101.8701   101.8701   101.8701     0.0000    -0.0000     0.0000 </r>
      <r>     1.9612   104.3311   104.3311   104.3311     0.0000    -0.0000     0.0000 </r>
      <r>     1.9919   104.8679   104.8679   104.8679     0.0000    -0.0000     0.0000 </r>
      <r>     2.0225   103.3255   103.3255   103.3255     0.0000    -0.0000     0.0000 </r>
      <r>     2.0532    99.7330    99.7330    99.7330     0.0000    -0.0000     0.0000 </r>
      <r>     2.0838    94.3053    94.3053    94.3053     0.0000    -0.0000     0.0000 </r>
      <r>     2.1145    87.4126    87.4126    87.4126     0.0000     0.0000     0.0000 </r>
      <r>     2.1451    79.5287    79.5287    79.5287     0.0000     0.0000     0.0000 </r>
      <r>     2.1758    71.1648    71.1648    71.1648     0.0000     0.0000     0.0000 </r>
      <r>     2.2064    62.8050    62.8050    62.8050     0.0000     0.0000     0.0000 </r>
      <r>     2.2370    54.8543    54.8543    54.8543     0.0000     0.0000     0.0000 </r>
      <r>     2.2677    47.6057    47.6057    47.6057     0.0000     0.0000     0.0000 </r>
      <r>     2.2983    41.2310    41.2310    41.2310     0.0000     0.0000     0.0000 </r>
      <r>     2.3290    35.7908    35.7908    35.7908     0.0000     0.0000     0.0000 </r>
      <r>     2.3596    31.2572    31.2572    31.2572     0.0000     0.0000     0.0000 </r>
      <r>     2.3903    27.5429    27.5429    27.5429     0.0000    -0.0000     0.0000 </r>
      <r>     2.4209    24.5298    24.5298    24.5298     0.0000    -0.0000     0.0000 </r>
      <r>     2.4516    22.0918    22.0918    22.0918    -0.0000    -0.0000     0.0000 </r>
      <r>     2.4822    20.1111    20.1111    20.1111    -0.0000    -0.0000    -0.0000 </r>
      <r>     2.5128    18.4873    18.4873    18.4873    -0.0000    -0.0000    -0.0000 </r>
      <r>     2.5435    17.1402    17.1402    17.1402    -0.0000    -0.0000    -0.0000 </r>
      <r>     2.5741    16.0096    16.0096    16.0096    -0.0000    -0.0000    -0.0000 </r>
      <r>     2.6048    15.0523    15.0523    15.0523    -0.0000     0.0000    -0.0000 </r>
      <r>     2.6354    14.2387    14.2387    14.2387     0.0000     0.0000    -0.0000 </r>
      <r>     2.6661    13.5490    13.5490    13.5490     0.0000     0.0000    -0.0000 </r>
      <r>     2.6967    12.9703    12.9703    12.9703     0.0000     0.0000    -0.0000 </r>
      <r>     2.7274    12.4941    12.4941    12.4941     0.0000     0.0000     0.0000 </r>
      <r>     2.7580    12.1133    12.1133    12.1133     0.0000     0.0000     0.0000 </r>
      <r>     2.7886    11.8214    11.8214    11.8214     0.0000     0.0000     0.0000 </r>
      <r>     2.8193    11.6111    11.6111    11.6111     0.0000     0.0000    -0.0000 </r>
      <r>     2.8499    11.4745    11.4745    11.4745     0.0000     0.0000    -0.0000 </r>
      <r>     2.8806    11.4031    11.4031    11.4031     0.0000     0.0000    -0.0000 </r>
      <r>     2.9112    11.3890    11.3890    11.3890     0.0000     0.0000    -0.0000 </r>
      <r>     2.9419    11.4259    11.4259    11.4259    -0.0000     0.0000    -0.0000 </r>
      <r>     2.9725    11.5105    11.5105    11.5105    -0.0000     0.0000    -0.0000 </r>
      <r>     3.0032    11.6434    11.6434    11.6434    -0.0000     0.0000    -0.0000 </r>
      <r>     3.0338    11.8302    11.8302    11.8302     0.0000     0.0000    -0.0000 </r>
      <r>     3.0644    12.0819    12.0819    12.0819     0.0000    -0.0000    -0.0000 </r>
      <r>     3.0951    12.4156    12.4156    12.4156     0.0000    -0.0000     0.0000 </r>
      <r>     3.1257    12.8548    12.8548    12.8548     0.0000    -0.0000     0.0000 </r>
      <r>     3.1564    13.4294    13.4294    13.4294     0.0000    -0.0000     0.0000 </r>
      <r>     3.1870    14.1754    14.1754    14.1754     0.0000    -0.0000     0.0000 </r>
      <r>     3.2177    15.1334    15.1334    15.1334     0.0000    -0.0000     0.0000 </r>
      <r>     3.2483    16.3471    16.3471    16.3471     0.0000    -0.0000     0.0000 </r>
      <r>     3.2790    17.8606    17.8606    17.8606     0.0000    -0.0000     0.0000 </r>
      <r>     3.3096    19.7146    19.7146    19.7146     0.0000    -0.0000     0.0000 </r>
      <r>     3.3402    21.9417    21.9417    21.9417     0.0000    -0.0000     0.0000 </r>
      <r>     3.3709    24.5606    24.5606    24.5606     0.0000    -0.0000     0.0000 </r>
      <r>     3.4015    27.5691    27.5691    27.5691     0.0000    -0.0000     0.0000 </r>
      <r>     3.4322    30.9376    30.9376    30.9376     0.0000    -0.0000     0.0000 </r>
      <r>     3.4628    34.6024    34.6024    34.6024     0.0000    -0.0000     0.0000 </r>
      <r>     3.4935    38.4635    38.4635    38.4635     0.0000    -0.0000    -0.0000 </r>
      <r>     3.5241    42.3850    42.3850    42.3850    -0.0000    -0.0000    -0.0000 </r>
      <r>     3.5548    46.2038    46.2038    46.2038    -0.0000    -0.0000    -0.0000 </r>
      <r>     3.5854    49.7430    49.7430    49.7430    -0.0000    -0.0000    -0.0000 </r>
      <r>     3.6160    52.8312    52.8312    52.8312     0.0000    -0.0000    -0.0000 </r>
      <r>     3.6467    55.3237    55.3237    55.3237     0.0000    -0.0000    -0.0000 </r>
      <r>     3.6773    57.1222    57.1222    57.1222     0.0000    -0.0000    -0.0000 </r>
      <r>     3.7080    58.1873    58.1873    58.1873     0.0000    -0.0000    -0.0000 </r>
      <r>     3.7386    58.5432    58.5432    58.5432     0.0000    -0.0000    -0.0000 </r>
      <r>     3.7693    58.2711    58.2711    58.2711     0.0000    -0.0000    -0.0000 </r>
      <r>     3.7999    57.4935    57.4935    57.4935     0.0000    -0.0000    -0.0000 </r>
      <r>     3.8306    56.3537    56.3537    56.3537     0.0000    -0.0000    -0.0000 </r>
      <r>     3.8612    54.9927    54.9927    54.9927     0.0000    -0.0000    -0.0000 </r>
      <r>     3.8918    53.5307    53.5307    53.5307     0.0000    -0.0000    -0.0000 </r>
      <r>     3.9225    52.0540    52.0540    52.0540     0.0000    -0.0000    -0.0000 </r>
      <r>     3.9531    50.6109    50.6109    50.6109     0.0000    -0.0000    -0.0000 </r>
      <r>     3.9838    49.2144    49.2144    49.2144     0.0000    -0.0000    -0.0000 </r>
      <r>     4.0144    47.8515    47.8515    47.8515     0.0000    -0.0000    -0.0000 </r>
      <r>     4.0451    46.4943    46.4943    46.4943     0.0000    -0.0000    -0.0000 </r>
      <r>     4.0757    45.1122    45.1122    45.1122     0.0000    -0.0000    -0.0000 </r>
      <r>     4.1064    43.6810    43.6810    43.6810     0.0000    -0.0000    -0.0000 </r>
      <r>     4.1370    42.1883    42.1883    42.1883     0.0000    -0.0000    -0.0000 </r>
[...]
        <r>  0.0000  0.1271  0.0230 </r>
        <r>  0.0000  0.4059  0.0061 </r>
       </set>
       <set comment="band 10">
        <r>  0.1634  0.0898  0.0126 </r>
        <r>  0.0876  0.1390  0.0277 </r>
       </set>
       <set comment="band 11">
        <r>  0.0422  0.1327  0.0276 </r>
        <r>  0.0347  0.1451  0.0551 </r>
       </set>
       <set comment="band 12">
        <r>  0.0000  0.2400  0.0194 </r>
        <r>  0.0000  0.1044  0.0634 </r>
       </set>
       <set comment="band 13">
        <r>  0.0229  0.0813  0.0243 </r>
        <r>  0.0258  0.1821  0.0353 </r>
       </set>
      </set>
      <set comment="kpoint 70">
       <set comment="band 1">
        <r>  0.0008  0.0005  0.9487 </r>
        <r>  0.0187  0.0012  0.0002 </r>
       </set>
       <set comment="band 2">
        <r>  0.0000  0.0001  0.9765 </r>
        <r>  0.0000  0.0033  0.0005 </r>
       </set>
       <set comment="band 3">
        <r>  0.0000  0.0001  0.9766 </r>
        <r>  0.0000  0.0028  0.0006 </r>
       </set>
       <set comment="band 4">
        <r>  0.0000  0.0000  0.9811 </r>
        <r>  0.0000  0.0001  0.0004 </r>
       </set>
       <set comment="band 5">
        <r>  0.0000  0.0000  0.9816 </r>
        <r>  0.0001  0.0000  0.0003 </r>
       </set>
       <set comment="band 6">
        <r>  0.1053  0.0139  0.0292 </r>
        <r>  0.4500  0.0075  0.0005 </r>
       </set>
       <set comment="band 7">
        <r>  0.2139  0.0426  0.0155 </r>
        <r>  0.1251  0.1745  0.0056 </r>
       </set>
       <set comment="band 8">
        <r>  0.0228  0.1226  0.0130 </r>
        <r>  0.0035  0.2882  0.0074 </r>
       </set>
       <set comment="band 9">
        <r>  0.0000  0.1221  0.0253 </r>
        <r>  0.0000  0.4168  0.0063 </r>
       </set>
       <set comment="band 10">
        <r>  0.1744  0.0886  0.0101 </r>
        <r>  0.0978  0.1514  0.0239 </r>
       </set>
       <set comment="band 11">
        <r>  0.0365  0.1414  0.0275 </r>
        <r>  0.0385  0.1357  0.0523 </r>
       </set>
       <set comment="band 12">
        <r>  0.0000  0.2490  0.0176 </r>
        <r>  0.0000  0.0943  0.0639 </r>
       </set>
       <set comment="band 13">
        <r>  0.0203  0.0903  0.0239 </r>
        <r>  0.0185  0.1761  0.0419 </r>
       </set>
      </set>
      <set comment="kpoint 71">
       <set comment="band 1">
        <r>  0.0008  0.0004  0.9511 </r>
        <r>  0.0168  0.0015  0.0002 </r>
       </set>
       <set comment="band 2">
        <r>  0.0000  0.0001  0.9761 </r>
        <r>  0.0000  0.0035  0.0005 </r>
       </set>
       <set comment="band 3">
        <r>  0.0000  0.0001  0.9763 </r>
        <r>  0.0000  0.0030  0.0006 </r>
       </set>
       <set comment="band 4">
        <r>  0.0000  0.0000  0.9811 </r>
        <r>  0.0000  0.0001  0.0004 </r>
       </set>
       <set comment="band 5">
        <r>  0.0000  0.0000  0.9816 </r>
        <r>  0.0001  0.0000  0.0003 </r>
       </set>
       <set comment="band 6">
        <r>  0.1125  0.0115  0.0258 </r>
        <r>  0.4417  0.0069  0.0004 </r>
       </set>
       <set comment="band 7">
        <r>  0.2011  0.0453  0.0172 </r>
        <r>  0.1329  0.1809  0.0056 </r>
       </set>
       <set comment="band 8">
        <r>  0.0211  0.1232  0.0148 </r>
        <r>  0.0030  0.2996  0.0081 </r>
       </set>
       <set comment="band 9">
        <r>  0.0000  0.1165  0.0277 </r>
        <r>  0.0000  0.4277  0.0064 </r>
       </set>
       <set comment="band 10">
        <r>  0.1824  0.0861  0.0084 </r>
        <r>  0.1081  0.1606  0.0205 </r>
       </set>
       <set comment="band 11">
        <r>  0.0348  0.1477  0.0261 </r>
        <r>  0.0382  0.1296  0.0515 </r>
       </set>
       <set comment="band 12">
        <r>  0.0000  0.2578  0.0157 </r>
        <r>  0.0000  0.0847  0.0646 </r>
       </set>
       <set comment="band 13">
        <r>  0.0168  0.1088  0.0236 </r>
        <r>  0.0157  0.1741  0.0462 </r>
       </set>
      </set>
      <set comment="kpoint 72">
       <set comment="band 1">
        <r>  0.0008  0.0004  0.9538 </r>
        <r>  0.0146  0.0018  0.0003 </r>
       </set>
       <set comment="band 2">
        <r>  0.0000  0.0001  0.9758 </r>
        <r>  0.0000  0.0036  0.0005 </r>
       </set>
       <set comment="band 3">
        <r>  0.0000  0.0001  0.9761 </r>
        <r>  0.0000  0.0032  0.0005 </r>
       </set>
       <set comment="band 4">
        <r>  0.0000  0.0000  0.9811 </r>
        <r>  0.0000  0.0001  0.0004 </r>
       </set>
       <set comment="band 5">
        <r>  0.0000  0.0000  0.9816 </r>
        <r>  0.0001  0.0000  0.0003 </r>
       </set>
       <set comment="band 6">
        <r>  0.1187  0.0092  0.0222 </r>
        <r>  0.4355  0.0061  0.0003 </r>
       </set>
       <set comment="band 7">
        <r>  0.1898  0.0474  0.0188 </r>
        <r>  0.1388  0.1883  0.0056 </r>
       </set>
       <set comment="band 8">
        <r>  0.0184  0.1231  0.0171 </r>
        <r>  0.0024  0.3138  0.0088 </r>
       </set>
       <set comment="band 9">
        <r>  0.0000  0.1105  0.0302 </r>
        <r>  0.0000  0.4381  0.0064 </r>
       </set>
       <set comment="band 10">
        <r>  0.1878  0.0825  0.0072 </r>
        <r>  0.1187  0.1667  0.0175 </r>
       </set>
       <set comment="band 11">
        <r>  0.0342  0.1548  0.0242 </r>
        <r>  0.0362  0.1237  0.0516 </r>
       </set>
       <set comment="band 12">
        <r>  0.0000  0.2661  0.0139 </r>
        <r>  0.0000  0.0757  0.0654 </r>
       </set>
       <set comment="band 13">
        <r>  0.0146  0.1349  0.0224 </r>
        <r>  0.0152  0.1771  0.0495 </r>
       </set>
      </set>
      <set comment="kpoint 73">
       <set comment="band 1">
        <r>  0.0008  0.0003  0.9568 </r>
        <r>  0.0123  0.0022  0.0003 </r>
       </set>
       <set comment="band 2">
        <r>  0.0000  0.0001  0.9755 </r>
        <r>  0.0000  0.0037  0.0005 </r>
       </set>
       <set comment="band 3">
        <r>  0.0000  0.0001  0.9758 </r>
        <r>  0.0000  0.0034  0.0005 </r>
       </set>
       <set comment="band 4">
        <r>  0.0000  0.0000  0.9812 </r>
        <r>  0.0000  0.0001  0.0004 </r>
       </set>
       <set comment="band 5">
        <r>  0.0000  0.0000  0.9816 </r>
        <r>  0.0000  0.0000  0.0003 </r>
       </set>
       <set comment="band 6">
        <r>  0.1240  0.0071  0.0186 </r>
        <r>  0.4310  0.0051  0.0002 </r>
       </set>
       <set comment="band 7">
        <r>  0.1799  0.0490  0.0203 </r>
        <r>  0.1432  0.1966  0.0056 </r>
       </set>
       <set comment="band 8">
        <r>  0.0150  0.1218  0.0198 </r>
        <r>  0.0018  0.3312  0.0092 </r>
       </set>
       <set comment="band 9">
        <r>  0.0000  0.1041  0.0326 </r>
        <r>  0.0000  0.4476  0.0064 </r>
       </set>
       <set comment="band 10">
        <r>  0.1917  0.0779  0.0067 </r>
        <r>  0.1301  0.1712  0.0147 </r>
       </set>
       <set comment="band 11">
        <r>  0.0337  0.1637  0.0221 </r>
        <r>  0.0330  0.1167  0.0523 </r>
       </set>
       <set comment="band 12">
        <r>  0.0000  0.2735  0.0121 </r>
        <r>  0.0000  0.0676  0.0664 </r>
       </set>
       <set comment="band 13">
        <r>  0.0135  0.1660  0.0205 </r>
        <r>  0.0157  0.1795  0.0524 </r>
       </set>
      </set>
      <set comment="kpoint 74">
       <set comment="band 1">
        <r>  0.0007  0.0002  0.9601 </r>
        <r>  0.0099  0.0026  0.0003 </r>
       </set>
       <set comment="band 2">
        <r>  0.0000  0.0001  0.9752 </r>
        <r>  0.0000  0.0038  0.0004 </r>
       </set>
       <set comment="band 3">
        <r>  0.0000  0.0001  0.9755 </r>
        <r>  0.0000  0.0036  0.0005 </r>
       </set>
       <set comment="band 4">
        <r>  0.0000  0.0000  0.9813 </r>
        <r>  0.0000  0.0000  0.0004 </r>
       </set>
       <set comment="band 5">
        <r>  0.0000  0.0000  0.9816 </r>
        <r>  0.0000  0.0000  0.0004 </r>
       </set>
       <set comment="band 6">
        <r>  0.1284  0.0053  0.0148 </r>
        <r>  0.4279  0.0040  0.0002 </r>
       </set>
       <set comment="band 7">
        <r>  0.1712  0.0501  0.0216 </r>
        <r>  0.1461  0.2060  0.0057 </r>
       </set>
       <set comment="band 8">
        <r>  0.0112  0.1189  0.0230 </r>
        <r>  0.0012  0.3520  0.0094 </r>
       </set>
       <set comment="band 9">
        <r>  0.0000  0.0978  0.0349 </r>
        <r>  0.0000  0.4558  0.0063 </r>
       </set>
       <set comment="band 10">
        <r>  0.1946  0.0719  0.0067 </r>
        <r>  0.1429  0.1756  0.0119 </r>
       </set>
       <set comment="band 11">
        <r>  0.0326  0.1758  0.0197 </r>
        <r>  0.0287  0.1079  0.0538 </r>
       </set>
       <set comment="band 12">
        <r>  0.0000  0.2799  0.0105 </r>
        <r>  0.0000  0.0604  0.0673 </r>
       </set>
       <set comment="band 13">
        <r>  0.0123  0.1970  0.0186 </r>
        <r>  0.0158  0.1730  0.0556 </r>
       </set>
      </set>
      <set comment="kpoint 75">
       <set comment="band 1">
        <r>  0.0006  0.0002  0.9635 </r>
        <r>  0.0074  0.0030  0.0003 </r>
       </set>
       <set comment="band 2">
        <r>  0.0000  0.0001  0.9749 </r>
        <r>  0.0000  0.0039  0.0004 </r>
       </set>
       <set comment="band 3">
        <r>  0.0000  0.0001  0.9752 </r>
        <r>  0.0000  0.0037  0.0005 </r>
       </set>
       <set comment="band 4">
        <r>  0.0000  0.0000  0.9813 </r>
        <r>  0.0000  0.0000  0.0004 </r>
       </set>
       <set comment="band 5">
        <r>  0.0000  0.0000  0.9816 </r>
        <r>  0.0000  0.0000  0.0004 </r>
       </set>
       <set comment="band 6">
        <r>  0.1322  0.0037  0.0111 </r>
        <r>  0.4261  0.0030  0.0001 </r>
       </set>
       <set comment="band 7">
        <r>  0.1633  0.0507  0.0228 </r>
        <r>  0.1478  0.2166  0.0057 </r>
       </set>
       <set comment="band 8">
        <r>  0.0073  0.1138  0.0267 </r>
        <r>  0.0008  0.3762  0.0092 </r>
       </set>
       <set comment="band 9">
        <r>  0.0000  0.0919  0.0369 </r>
        <r>  0.0000  0.4627  0.0062 </r>
       </set>
       <set comment="band 10">
        <r>  0.1973  0.0640  0.0074 </r>
        <r>  0.1572  0.1813  0.0090 </r>
       </set>
       <set comment="band 11">
        <r>  0.0302  0.1921  0.0171 </r>
        <r>  0.0235  0.0967  0.0559 </r>
       </set>
       <set comment="band 12">
        <r>  0.0000  0.2853  0.0092 </r>
        <r>  0.0000  0.0544  0.0683 </r>
       </set>
       <set comment="band 13">
        <r>  0.0099  0.2240  0.0168 </r>
        <r>  0.0136  0.1541  0.0593 </r>
       </set>
      </set>
      <set comment="kpoint 76">
       <set comment="band 1">
        <r>  0.0004  0.0001  0.9668 </r>
        <r>  0.0051  0.0033  0.0004 </r>
       </set>
       <set comment="band 2">
        <r>  0.0000  0.0001  0.9747 </r>
        <r>  0.0000  0.0040  0.0004 </r>
       </set>
       <set comment="band 3">
        <r>  0.0000  0.0001  0.9749 </r>
        <r>  0.0000  0.0039  0.0004 </r>
       </set>
       <set comment="band 4">
        <r>  0.0000  0.0000  0.9814 </r>
        <r>  0.0000  0.0000  0.0004 </r>
       </set>
       <set comment="band 5">
        <r>  0.0000  0.0000  0.9816 </r>
        <r>  0.0000  0.0000  0.0004 </r>
       </set>
       <set comment="band 6">
        <r>  0.1352  0.0024  0.0076 </r>
        <r>  0.4251  0.0020  0.0001 </r>
       </set>
       <set comment="band 7">
        <r>  0.1561  0.0506  0.0239 </r>
        <r>  0.1481  0.2291  0.0056 </r>
       </set>
       <set comment="band 8">
        <r>  0.0040  0.1062  0.0308 </r>
        <r>  0.0004  0.4029  0.0087 </r>
       </set>
       <set comment="band 9">
        <r>  0.0000  0.0866  0.0388 </r>
        <r>  0.0000  0.4681  0.0061 </r>
       </set>
       <set comment="band 10">
        <r>  0.2002  0.0540  0.0088 </r>
        <r>  0.1728  0.1887  0.0061 </r>
       </set>
       <set comment="band 11">
        <r>  0.0259  0.2134  0.0142 </r>
        <r>  0.0175  0.0833  0.0589 </r>
       </set>
       <set comment="band 12">
        <r>  0.0000  0.2895  0.0080 </r>
        <r>  0.0000  0.0495  0.0692 </r>
       </set>
       <set comment="band 13">
        <r>  0.0064  0.2474  0.0147 </r>
        <r>  0.0094  0.1258  0.0633 </r>
       </set>
      </set>
      <set comment="kpoint 77">
       <set comment="band 1">
        <r>  0.0003  0.0001  0.9698 </r>
        <r>  0.0030  0.0037  0.0004 </r>
       </set>
       <set comment="band 2">
        <r>  0.0000  0.0001  0.9745 </r>
        <r>  0.0000  0.0040  0.0004 </r>
       </set>
       <set comment="band 3">
        <r>  0.0000  0.0001  0.9747 </r>
        <r>  0.0000  0.0040  0.0004 </r>
       </set>
       <set comment="band 4">
        <r>  0.0000  0.0000  0.9815 </r>
        <r>  0.0000  0.0000  0.0004 </r>
       </set>
       <set comment="band 5">
        <r>  0.0000  0.0000  0.9816 </r>
        <r>  0.0000  0.0000  0.0004 </r>
       </set>
       <set comment="band 6">
        <r>  0.1375  0.0014  0.0046 </r>
        <r>  0.4247  0.0012  0.0000 </r>
       </set>
       <set comment="band 7">
        <r>  0.1486  0.0502  0.0249 </r>
        <r>  0.1464  0.2444  0.0054 </r>
       </set>
       <set comment="band 8">
        <r>  0.0016  0.0967  0.0350 </r>
        <r>  0.0001  0.4300  0.0079 </r>
       </set>
       <set comment="band 9">
        <r>  0.0000  0.0822  0.0402 </r>
        <r>  0.0000  0.4721  0.0060 </r>
       </set>
       <set comment="band 10">
        <r>  0.2035  0.0432  0.0109 </r>
        <r>  0.1886  0.1952  0.0035 </r>
       </set>
       <set comment="band 11">
        <r>  0.0191  0.2391  0.0113 </r>
        <r>  0.0114  0.0685  0.0626 </r>
       </set>
       <set comment="band 12">
        <r>  0.0000  0.2927  0.0071 </r>
        <r>  0.0000  0.0457  0.0699 </r>
       </set>
       <set comment="band 13">
        <r>  0.0029  0.2679  0.0120 </r>
        <r>  0.0045  0.0940  0.0668 </r>
       </set>
      </set>
      <set comment="kpoint 78">
       <set comment="band 1">
        <r>  0.0001  0.0001  0.9722 </r>
        <r>  0.0014  0.0039  0.0004 </r>
       </set>
       <set comment="band 2">
        <r>  0.0000  0.0001  0.9744 </r>
        <r>  0.0000  0.0041  0.0004 </r>
       </set>
       <set comment="band 3">
        <r>  0.0000  0.0001  0.9745 </r>
        <r>  0.0000  0.0040  0.0004 </r>
       </set>
       <set comment="band 4">
        <r>  0.0000  0.0000  0.9815 </r>
        <r>  0.0000  0.0000  0.0005 </r>
       </set>
       <set comment="band 5">
        <r>  0.0000  0.0000  0.9816 </r>
        <r>  0.0000  0.0000  0.0004 </r>
       </set>
       <set comment="band 6">
        <r>  0.1392  0.0006  0.0021 </r>
        <r>  0.4246  0.0005  0.0000 </r>
       </set>
       <set comment="band 7">
        <r>  0.1383  0.0500  0.0262 </r>
        <r>  0.1400  0.2660  0.0051 </r>
       </set>
       <set comment="band 8">
        <r>  0.0004  0.0869  0.0387 </r>
        <r>  0.0000  0.4541  0.0069 </r>
       </set>
       <set comment="band 9">
        <r>  0.0000  0.0790  0.0413 </r>
        <r>  0.0000  0.4749  0.0060 </r>
       </set>
       <set comment="band 10">
        <r>  0.2096  0.0338  0.0128 </r>
        <r>  0.2052  0.1933  0.0019 </r>
       </set>
       <set comment="band 11">
        <r>  0.0107  0.2662  0.0086 </r>
        <r>  0.0057  0.0546  0.0665 </r>
       </set>
       <set comment="band 12">
        <r>  0.0000  0.2949  0.0064 </r>
        <r>  0.0000  0.0430  0.0705 </r>
       </set>
       <set comment="band 13">
        <r>  0.0007  0.2839  0.0090 </r>
        <r>  0.0012  0.0659  0.0694 </r>
       </set>
      </set>
      <set comment="kpoint 79">
       <set comment="band 1">
        <r>  0.0000  0.0001  0.9737 </r>
        <r>  0.0004  0.0041  0.0004 </r>
       </set>
       <set comment="band 2">
        <r>  0.0000  0.0001  0.9743 </r>
        <r>  0.0000  0.0041  0.0004 </r>
       </set>
       <set comment="band 3">
        <r>  0.0000  0.0001  0.9743 </r>
        <r>  0.0000  0.0041  0.0004 </r>
       </set>
       <set comment="band 4">
        <r>  0.0000  0.0000  0.9815 </r>
        <r>  0.0000  0.0000  0.0005 </r>
       </set>
       <set comment="band 5">
        <r>  0.0000  0.0000  0.9816 </r>
        <r>  0.0000  0.0000  0.0005 </r>
       </set>
       <set comment="band 6">
        <r>  0.1402  0.0001  0.0005 </r>
        <r>  0.4247  0.0001  0.0000 </r>
       </set>
       <set comment="band 7">
        <r>  0.1130  0.0532  0.0290 </r>
        <r>  0.1161  0.3101  0.0047 </r>
       </set>
       <set comment="band 8">
        <r>  0.0000  0.0792  0.0413 </r>
        <r>  0.0000  0.4709  0.0062 </r>
       </set>
       <set comment="band 9">
        <r>  0.0000  0.0770  0.0420 </r>
        <r>  0.0000  0.4764  0.0059 </r>
       </set>
       <set comment="band 10">
        <r>  0.2313  0.0249  0.0124 </r>
        <r>  0.2344  0.1623  0.0014 </r>
       </set>
       <set comment="band 11">
        <r>  0.0031  0.2879  0.0066 </r>
        <r>  0.0015  0.0446  0.0697 </r>
       </set>
       <set comment="band 12">
        <r>  0.0000  0.2961  0.0061 </r>
        <r>  0.0000  0.0415  0.0708 </r>
       </set>
       <set comment="band 13">
        <r>  0.0001  0.2935  0.0068 </r>
        <r>  0.0001  0.0473  0.0706 </r>
       </set>
      </set>
      <set comment="kpoint 80">
       <set comment="band 1">
        <r>  0.0000  0.0001  0.9743 </r>
        <r>  0.0000  0.0041  0.0004 </r>
       </set>
       <set comment="band 2">
        <r>  0.0000  0.0001  0.9743 </r>
        <r>  0.0000  0.0041  0.0004 </r>
       </set>
       <set comment="band 3">
        <r>  0.0000  0.0001  0.9743 </r>
        <r>  0.0000  0.0041  0.0004 </r>
       </set>
       <set comment="band 4">
        <r>  0.0000  0.0000  0.9816 </r>
        <r>  0.0000  0.0000  0.0005 </r>
       </set>
       <set comment="band 5">
        <r>  0.0000  0.0000  0.9816 </r>
        <r>  0.0000  0.0000  0.0005 </r>
       </set>
       <set comment="band 6">
        <r>  0.1405  0.0000  0.0000 </r>
        <r>  0.4247  0.0000  0.0000 </r>
       </set>
       <set comment="band 7">
        <r>  0.0000  0.0763  0.0422 </r>
        <r>  0.0000  0.4769  0.0059 </r>
       </set>
       <set comment="band 8">
        <r>  0.0000  0.0763  0.0422 </r>
        <r>  0.0000  0.4769  0.0059 </r>
       </set>
       <set comment="band 9">
        <r>  0.0000  0.0763  0.0422 </r>
        <r>  0.0000  0.4769  0.0059 </r>
       </set>
       <set comment="band 10">
        <r>  0.3429  0.0000  0.0000 </r>
        <r>  0.3520  0.0000  0.0000 </r>
       </set>
       <set comment="band 11">
        <r>  0.0000  0.2966  0.0059 </r>
        <r>  0.0000  0.0409  0.0709 </r>
       </set>
       <set comment="band 12">
        <r>  0.0000  0.2966  0.0059 </r>
        <r>  0.0000  0.0409  0.0709 </r>
       </set>
       <set comment="band 13">
        <r>  0.0000  0.2966  0.0059 </r>
        <r>  0.0000  0.0409  0.0709 </r>
       </set>
      </set>
     </set>
    </set>
   </array>
  </projected>
 </calculation>
 <structure name="finalpos" >
  <crystal>
   <varray name="basis" >
    <v>       2.82500000       2.82500000       0.00000000 </v>
    <v>       0.00000000       2.82500000       2.82500000 </v>
    <v>       2.82500000       0.00000000       2.82500000 </v>
   </varray>
   <i name="volume">     45.09053125 </i>
   <varray name="rec_basis" >
    <v>       0.17699115       0.17699115      -0.17699115 </v>
    <v>      -0.17699115       0.17699115       0.17699115 </v>
    <v>       0.17699115      -0.17699115       0.17699115 </v>
   </varray>
  </crystal>
  <varray name="positions" >
   <v>       0.00000000       0.00000000       0.00000000 </v>
   <v>       0.25000000       0.25000000       0.25000000 </v>
  </varray>
 </structure>
</modeling>
