 vasp.5.3.5 31Mar14 (build Dec 14 2018 19:18:10) complex                        
 vasp.5.3.5 31Mar14 (build Dec 14 2018 19:18:10) complex                        
 vasp.5.3.5 31Mar14 (build Dec 14 2018 19:18:10) complex                        
 vasp.5.3.5 31Mar14 (build Dec 14 2018 19:18:10) complex                        
 vasp.5.3.5 31Mar14 (build Dec 14 2018 19:18:10) complex                        
 vasp.5.3.5 31Mar14 (build Dec 14 2018 19:18:10) complex                        
 vasp.5.3.5 31Mar14 (build Dec 14 2018 19:18:10) complex                        
 vasp.5.3.5 31Mar14 (build Dec 14 2018 19:18:10) complex                        
 vasp.5.3.5 31Mar14 (build Dec 14 2018 19:18:10) complex                        
 vasp.5.3.5 31Mar14 (build Dec 14 2018 19:18:10) complex                        
 vasp.5.3.5 31Mar14 (build Dec 14 2018 19:18:10) complex                        
 vasp.5.3.5 31Mar14 (build Dec 14 2018 19:18:10) complex                        
 vasp.5.3.5 31Mar14 (build Dec 14 2018 19:18:10) complex                        
 vasp.5.3.5 31Mar14 (build Dec 14 2018 19:18:10) complex                        
 vasp.5.3.5 31Mar14 (build Dec 14 2018 19:18:10) complex                        
 vasp.5.3.5 31Mar14 (build Dec 14 2018 19:18:10) complex                        
 vasp.5.3.5 31Mar14 (build Dec 14 2018 19:18:10) complex                        
 vasp.5.3.5 31Mar14 (build Dec 14 2018 19:18:10) complex                        
 vasp.5.3.5 31Mar14 (build Dec 14 2018 19:18:10) complex                        
 vasp.5.3.5 31Mar14 (build Dec 14 2018 19:18:10) complex                        
 vasp.5.3.5 31Mar14 (build Dec 14 2018 19:18:10) complex                        
 vasp.5.3.5 31Mar14 (build Dec 14 2018 19:18:10) complex                        
 vasp.5.3.5 31Mar14 (build Dec 14 2018 19:18:10) complex                        
 vasp.5.3.5 31Mar14 (build Dec 14 2018 19:18:10) complex                        
 vasp.5.3.5 31Mar14 (build Dec 14 2018 19:18:10) complex                        
 vasp.5.3.5 31Mar14 (build Dec 14 2018 19:18:10) complex                        
 vasp.5.3.5 31Mar14 (build Dec 14 2018 19:18:10) complex                        
 vasp.5.3.5 31Mar14 (build Dec 14 2018 19:18:10) complex                        
 vasp.5.3.5 31Mar14 (build Dec 14 2018 19:18:10) complex                        
 vasp.5.3.5 31Mar14 (build Dec 14 2018 19:18:10) complex                        
 vasp.5.3.5 31Mar14 (build Dec 14 2018 19:18:10) complex                        
 vasp.5.3.5 31Mar14 (build Dec 14 2018 19:18:10) complex                        
 vasp.5.3.5 31Mar14 (build Dec 14 2018 19:18:10) complex                        
 vasp.5.3.5 31Mar14 (build Dec 14 2018 19:18:10) complex                        
 vasp.5.3.5 31Mar14 (build Dec 14 2018 19:18:10) complex                        
 vasp.5.3.5 31Mar14 (build Dec 14 2018 19:18:10) complex                        
 vasp.5.3.5 31Mar14 (build Dec 14 2018 19:18:10) complex                        
 vasp.5.3.5 31Mar14 (build Dec 14 2018 19:18:10) complex                        
 vasp.5.3.5 31Mar14 (build Dec 14 2018 19:18:10) complex                        
 vasp.5.3.5 31Mar14 (build Dec 14 2018 19:18:10) complex                        
  
  
  
  
  
  
  
  
  
  
  
  
  
  
  
  
  
  
  
  
  
  
  
  
  
  
  
  
  
  
  
  
  
  
  
  
  
  
  
  
 POSCAR found type information on POSCAR  Ga As
 POSCAR found type information on POSCAR  Ga As
 POSCAR found type information on POSCAR  Ga As
 POSCAR found type information on POSCAR  Ga As
 POSCAR found type information on POSCAR  Ga As
 POSCAR found type information on POSCAR  Ga As
 POSCAR found type information on POSCAR  Ga As
 POSCAR found type information on POSCAR  Ga As
 POSCAR found type information on POSCAR  Ga As
 POSCAR found type information on POSCAR  Ga As
 POSCAR found type information on POSCAR  Ga As
 POSCAR found type information on POSCAR  Ga As
 POSCAR found type information on POSCAR  Ga As
 POSCAR found type information on POSCAR  Ga As
 POSCAR found type information on POSCAR  Ga As
 POSCAR found type information on POSCAR  Ga As
 POSCAR found type information on POSCAR  Ga As
 POSCAR found type information on POSCAR  Ga As
 POSCAR found type information on POSCAR  Ga As
 POSCAR found type information on POSCAR  Ga As
 POSCAR found type information on POSCAR  Ga As
 POSCAR found type information on POSCAR  Ga As
 POSCAR found type information on POSCAR  Ga As
 POSCAR found type information on POSCAR  Ga As
 POSCAR found type information on POSCAR  Ga As
 POSCAR found type information on POSCAR  Ga As
 POSCAR found type information on POSCAR  Ga As
 POSCAR found type information on POSCAR  Ga As
 POSCAR found type information on POSCAR  Ga As
 POSCAR found type information on POSCAR  Ga As
 POSCAR found type information on POSCAR  Ga As
 POSCAR found type information on POSCAR  Ga As
 POSCAR found type information on POSCAR  Ga As
 POSCAR found type information on POSCAR  Ga As
 POSCAR found type information on POSCAR  Ga As
 POSCAR found type information on POSCAR  Ga As
 POSCAR found type information on POSCAR  Ga As
 POSCAR found type information on POSCAR  Ga As
 POSCAR found type information on POSCAR  Ga As
 POSCAR found type information on POSCAR  Ga As
 POSCAR found :  2 types and       2 ions
 POSCAR found :  2 types and       2 ions
 POSCAR found :  2 types and       2 ions
 POSCAR found :  2 types and       2 ions
 POSCAR found :  2 types and       2 ions
 POSCAR found :  2 types and       2 ions
 POSCAR found :  2 types and       2 ions
 POSCAR found :  2 types and       2 ions
 POSCAR found :  2 types and       2 ions
 POSCAR found :  2 types and       2 ions
 POSCAR found :  2 types and       2 ions
 POSCAR found :  2 types and       2 ions
 POSCAR found :  2 types and       2 ions
 POSCAR found :  2 types and       2 ions
 POSCAR found :  2 types and       2 ions
 POSCAR found :  2 types and       2 ions
 POSCAR found :  2 types and       2 ions
 POSCAR found :  2 types and       2 ions
 POSCAR found :  2 types and       2 ions
 POSCAR found :  2 types and       2 ions
 POSCAR found :  2 types and       2 ions
 POSCAR found :  2 types and       2 ions
 POSCAR found :  2 types and       2 ions
 POSCAR found :  2 types and       2 ions
 POSCAR found :  2 types and       2 ions
 POSCAR found :  2 types and       2 ions
 POSCAR found :  2 types and       2 ions
 POSCAR found :  2 types and       2 ions
 POSCAR found :  2 types and       2 ions
 POSCAR found :  2 types and       2 ions
 POSCAR found :  2 types and       2 ions
 POSCAR found :  2 types and       2 ions
 POSCAR found :  2 types and       2 ions
 POSCAR found :  2 types and       2 ions
 POSCAR found :  2 types and       2 ions
 POSCAR found :  2 types and       2 ions
 POSCAR found :  2 types and       2 ions
 POSCAR found :  2 types and       2 ions
 POSCAR found :  2 types and       2 ions
 POSCAR found :  2 types and       2 ions
 LDA part: xc-table for Ceperly-Alder, standard interpolation
 LDA part: xc-table for Ceperly-Alder, standard interpolation
 LDA part: xc-table for Ceperly-Alder, standard interpolation
 LDA part: xc-table for Ceperly-Alder, standard interpolation
 LDA part: xc-table for Ceperly-Alder, standard interpolation
 LDA part: xc-table for Ceperly-Alder, standard interpolation
 LDA part: xc-table for Ceperly-Alder, standard interpolation
 LDA part: xc-table for Ceperly-Alder, standard interpolation
 LDA part: xc-table for Ceperly-Alder, standard interpolation
 LDA part: xc-table for Ceperly-Alder, standard interpolation
 LDA part: xc-table for Ceperly-Alder, standard interpolation
 LDA part: xc-table for Ceperly-Alder, standard interpolation
 LDA part: xc-table for Ceperly-Alder, standard interpolation
 LDA part: xc-table for Ceperly-Alder, standard interpolation
 LDA part: xc-table for Ceperly-Alder, standard interpolation
 LDA part: xc-table for Ceperly-Alder, standard interpolation
 LDA part: xc-table for Ceperly-Alder, standard interpolation
 LDA part: xc-table for Ceperly-Alder, standard interpolation
 LDA part: xc-table for Ceperly-Alder, standard interpolation
 LDA part: xc-table for Ceperly-Alder, standard interpolation
 LDA part: xc-table for Ceperly-Alder, standard interpolation
 LDA part: xc-table for Ceperly-Alder, standard interpolation
 LDA part: xc-table for Ceperly-Alder, standard interpolation
 LDA part: xc-table for Ceperly-Alder, standard interpolation
 LDA part: xc-table for Ceperly-Alder, standard interpolation
 LDA part: xc-table for Ceperly-Alder, standard interpolation
 LDA part: xc-table for Ceperly-Alder, standard interpolation
 LDA part: xc-table for Ceperly-Alder, standard interpolation
 LDA part: xc-table for Ceperly-Alder, standard interpolation
 LDA part: xc-table for Ceperly-Alder, standard interpolation
 LDA part: xc-table for Ceperly-Alder, standard interpolation
 LDA part: xc-table for Ceperly-Alder, standard interpolation
 LDA part: xc-table for Ceperly-Alder, standard interpolation
 LDA part: xc-table for Ceperly-Alder, standard interpolation
 LDA part: xc-table for Ceperly-Alder, standard interpolation
 LDA part: xc-table for Ceperly-Alder, standard interpolation
 LDA part: xc-table for Ceperly-Alder, standard interpolation
 LDA part: xc-table for Ceperly-Alder, standard interpolation
 LDA part: xc-table for Ceperly-Alder, standard interpolation
 LDA part: xc-table for Ceperly-Alder, standard interpolation
 POSCAR, INCAR and KPOINTS ok, starting setup
 WARNING: small aliasing (wrap around) errors must be expected
 FFT: planning ...
 WAVECAR not read
 reading imaginary part of occupancies ...
 charge-density read from file: GaAs                                    
 POSCAR, INCAR and KPOINTS ok, starting setup
 WARNING: small aliasing (wrap around) errors must be expected
 FFT: planning ...
 WARNING: random wavefunctions but no delay for mixing, default for NELMDL
 WAVECAR not read
 reading imaginary part of occupancies ...
 charge-density read from file: GaAs                                    
 POSCAR, INCAR and KPOINTS ok, starting setup
 WARNING: small aliasing (wrap around) errors must be expected
 FFT: planning ...
 WAVECAR not read
 reading imaginary part of occupancies ...
 charge-density read from file: GaAs                                    
 WARNING: random wavefunctions but no delay for mixing, default for NELMDL
 POSCAR, INCAR and KPOINTS ok, starting setup
 POSCAR, INCAR and KPOINTS ok, starting setup
 POSCAR, INCAR and KPOINTS ok, starting setup
 POSCAR, INCAR and KPOINTS ok, starting setup
 POSCAR, INCAR and KPOINTS ok, starting setup
 POSCAR, INCAR and KPOINTS ok, starting setup
 POSCAR, INCAR and KPOINTS ok, starting setup
 POSCAR, INCAR and KPOINTS ok, starting setup
 POSCAR, INCAR and KPOINTS ok, starting setup
 POSCAR, INCAR and KPOINTS ok, starting setup
 POSCAR, INCAR and KPOINTS ok, starting setup
 WARNING: small aliasing (wrap around) errors must be expected
 FFT: planning ...
 POSCAR, INCAR and KPOINTS ok, starting setup
 WAVECAR not read
 WARNING: small aliasing (wrap around) errors must be expected
 FFT: planning ...
 WARNING: small aliasing (wrap around) errors must be expected
 FFT: planning ...
 POSCAR, INCAR and KPOINTS ok, starting setup
 POSCAR, INCAR and KPOINTS ok, starting setup
 WARNING: small aliasing (wrap around) errors must be expected
 WARNING: small aliasing (wrap around) errors must be expected
 WARNING: small aliasing (wrap around) errors must be expected
 WARNING: small aliasing (wrap around) errors must be expected
 WARNING: small aliasing (wrap around) errors must be expected
 WARNING: small aliasing (wrap around) errors must be expected
 WARNING: small aliasing (wrap around) errors must be expected
 FFT: planning ...
 WARNING: small aliasing (wrap around) errors must be expected
 WARNING: small aliasing (wrap around) errors must be expected
 WAVECAR not read
 WAVECAR not read
 FFT: planning ...
 FFT: planning ...
 FFT: planning ...
 FFT: planning ...
 FFT: planning ...
 FFT: planning ...
 FFT: planning ...
 FFT: planning ...
 POSCAR, INCAR and KPOINTS ok, starting setup
 POSCAR, INCAR and KPOINTS ok, starting setup
 reading imaginary part of occupancies ...
 charge-density read from file: GaAs                                    
 WAVECAR not read
 WAVECAR not read
 WAVECAR not read
 WAVECAR not read
 WAVECAR not read
 WAVECAR not read
 WAVECAR not read
 WAVECAR not read
 WAVECAR not read
 POSCAR, INCAR and KPOINTS ok, starting setup
 POSCAR, INCAR and KPOINTS ok, starting setup
 POSCAR, INCAR and KPOINTS ok, starting setup
 POSCAR, INCAR and KPOINTS ok, starting setup
 POSCAR, INCAR and KPOINTS ok, starting setup
 WARNING: small aliasing (wrap around) errors must be expected
 WARNING: small aliasing (wrap around) errors must be expected
 POSCAR, INCAR and KPOINTS ok, starting setup
 FFT: planning ...
 FFT: planning ...
 POSCAR, INCAR and KPOINTS ok, starting setup
 POSCAR, INCAR and KPOINTS ok, starting setup
 POSCAR, INCAR and KPOINTS ok, starting setup
 POSCAR, INCAR and KPOINTS ok, starting setup
 POSCAR, INCAR and KPOINTS ok, starting setup
 POSCAR, INCAR and KPOINTS ok, starting setup
 POSCAR, INCAR and KPOINTS ok, starting setup
 POSCAR, INCAR and KPOINTS ok, starting setup
 WARNING: small aliasing (wrap around) errors must be expected
 WARNING: small aliasing (wrap around) errors must be expected
 FFT: planning ...
 FFT: planning ...
 POSCAR, INCAR and KPOINTS ok, starting setup
 POSCAR, INCAR and KPOINTS ok, starting setup
 POSCAR, INCAR and KPOINTS ok, starting setup
 POSCAR, INCAR and KPOINTS ok, starting setup
 POSCAR, INCAR and KPOINTS ok, starting setup
 POSCAR, INCAR and KPOINTS ok, starting setup
 POSCAR, INCAR and KPOINTS ok, starting setup
 WAVECAR not read
 WAVECAR not read
 reading imaginary part of occupancies ...
 charge-density read from file: GaAs                                    
 reading imaginary part of occupancies ...
 charge-density read from file: GaAs                                    
 WARNING: small aliasing (wrap around) errors must be expected
 WAVECAR not read
 FFT: planning ...
 WAVECAR not read
 WARNING: small aliasing (wrap around) errors must be expected
 WARNING: small aliasing (wrap around) errors must be expected
 WARNING: small aliasing (wrap around) errors must be expected
 FFT: planning ...
 FFT: planning ...
 FFT: planning ...
 WARNING: small aliasing (wrap around) errors must be expected
 FFT: planning ...
 WARNING: small aliasing (wrap around) errors must be expected
 FFT: planning ...
 WARNING: small aliasing (wrap around) errors must be expected
 FFT: planning ...
 reading imaginary part of occupancies ...
 charge-density read from file: GaAs                                    
 WARNING: small aliasing (wrap around) errors must be expected
 WARNING: small aliasing (wrap around) errors must be expected
 FFT: planning ...
 WARNING: small aliasing (wrap around) errors must be expected
 WARNING: small aliasing (wrap around) errors must be expected
 FFT: planning ...
 reading imaginary part of occupancies ...
 WARNING: small aliasing (wrap around) errors must be expected
 charge-density read from file: GaAs                                    
 WARNING: small aliasing (wrap around) errors must be expected
 FFT: planning ...
 WAVECAR not read
 WARNING: small aliasing (wrap around) errors must be expected
 FFT: planning ...
 FFT: planning ...
 WAVECAR not read
 WAVECAR not read
 FFT: planning ...
 FFT: planning ...
 WAVECAR not read
 reading imaginary part of occupancies ...
 charge-density read from file: GaAs                                    
 reading imaginary part of occupancies ...
 charge-density read from file: GaAs                                    
 reading imaginary part of occupancies ...
 reading imaginary part of occupancies ...
 reading imaginary part of occupancies ...
 reading imaginary part of occupancies ...
 charge-density read from file: GaAs                                    
 charge-density read from file: GaAs                                    
 charge-density read from file: GaAs                                    
 charge-density read from file: GaAs                                    
 reading imaginary part of occupancies ...
 charge-density read from file: GaAs                                    
 WARNING: small aliasing (wrap around) errors must be expected
 WARNING: small aliasing (wrap around) errors must be expected
 WARNING: small aliasing (wrap around) errors must be expected
 WARNING: small aliasing (wrap around) errors must be expected
 WARNING: small aliasing (wrap around) errors must be expected
 WARNING: small aliasing (wrap around) errors must be expected
 WAVECAR not read
 FFT: planning ...
 WARNING: small aliasing (wrap around) errors must be expected
 FFT: planning ...
 WAVECAR not read
 FFT: planning ...
 FFT: planning ...
 FFT: planning ...
 FFT: planning ...
 FFT: planning ...
 WAVECAR not read
 WAVECAR not read
 WAVECAR not read
 WAVECAR not read
 WAVECAR not read
 WAVECAR not read
 WAVECAR not read
 WAVECAR not read
 reading imaginary part of occupancies ...
 reading imaginary part of occupancies ...
 charge-density read from file: GaAs                                    
 charge-density read from file: GaAs                                    
 WAVECAR not read
 WAVECAR not read
 WAVECAR not read
 WAVECAR not read
 WAVECAR not read
 WAVECAR not read
 WAVECAR not read
 reading imaginary part of occupancies ...
 charge-density read from file: GaAs                                    
 reading imaginary part of occupancies ...
 charge-density read from file: GaAs                                    
 WARNING: random wavefunctions but no delay for mixing, default for NELMDL
 reading imaginary part of occupancies ...
 charge-density read from file: GaAs                                    
 reading imaginary part of occupancies ...
 charge-density read from file: GaAs                                    
 reading imaginary part of occupancies ...
 reading imaginary part of occupancies ...
 charge-density read from file: GaAs                                    
 charge-density read from file: GaAs                                    
 reading imaginary part of occupancies ...
 charge-density read from file: GaAs                                    
 reading imaginary part of occupancies ...
 charge-density read from file: GaAs                                    
 reading imaginary part of occupancies ...
 charge-density read from file: GaAs                                    
 reading imaginary part of occupancies ...
 charge-density read from file: GaAs                                    
 reading imaginary part of occupancies ...
 charge-density read from file: GaAs                                    
 reading imaginary part of occupancies ...
 charge-density read from file: GaAs                                    
 reading imaginary part of occupancies ...
 charge-density read from file: GaAs                                    
 reading imaginary part of occupancies ...
 charge-density read from file: GaAs                                    
 reading imaginary part of occupancies ...
 reading imaginary part of occupancies ...
 charge-density read from file: GaAs                                    
 charge-density read from file: GaAs                                    
 WARNING: random wavefunctions but no delay for mixing, default for NELMDL
 WARNING: random wavefunctions but no delay for mixing, default for NELMDL
 reading imaginary part of occupancies ...
 charge-density read from file: GaAs                                    
 reading imaginary part of occupancies ...
 reading imaginary part of occupancies ...
 charge-density read from file: GaAs                                    
 charge-density read from file: GaAs                                    
 reading imaginary part of occupancies ...
 reading imaginary part of occupancies ...
 charge-density read from file: GaAs                                    
 reading imaginary part of occupancies ...
 charge-density read from file: GaAs                                    
 reading imaginary part of occupancies ...
 charge-density read from file: GaAs                                    
 charge-density read from file: GaAs                                    
 WARNING: random wavefunctions but no delay for mixing, default for NELMDL
 WARNING: random wavefunctions but no delay for mixing, default for NELMDL
 WARNING: random wavefunctions but no delay for mixing, default for NELMDL
 WARNING: random wavefunctions but no delay for mixing, default for NELMDL
 WARNING: random wavefunctions but no delay for mixing, default for NELMDL
 WARNING: random wavefunctions but no delay for mixing, default for NELMDL
 WARNING: random wavefunctions but no delay for mixing, default for NELMDL
 WARNING: random wavefunctions but no delay for mixing, default for NELMDL
 WARNING: random wavefunctions but no delay for mixing, default for NELMDL
 WARNING: random wavefunctions but no delay for mixing, default for NELMDL
 WARNING: random wavefunctions but no delay for mixing, default for NELMDL
 WARNING: random wavefunctions but no delay for mixing, default for NELMDL
 WARNING: random wavefunctions but no delay for mixing, default for NELMDL
 WARNING: random wavefunctions but no delay for mixing, default for NELMDL
 WARNING: random wavefunctions but no delay for mixing, default for NELMDL
 WARNING: random wavefunctions but no delay for mixing, default for NELMDL
 WARNING: random wavefunctions but no delay for mixing, default for NELMDL
 WARNING: random wavefunctions but no delay for mixing, default for NELMDL
 WARNING: random wavefunctions but no delay for mixing, default for NELMDL
 WARNING: random wavefunctions but no delay for mixing, default for NELMDL
 WARNING: random wavefunctions but no delay for mixing, default for NELMDL
 WARNING: random wavefunctions but no delay for mixing, default for NELMDL
 WARNING: random wavefunctions but no delay for mixing, default for NELMDL
 WARNING: random wavefunctions but no delay for mixing, default for NELMDL
 WARNING: random wavefunctions but no delay for mixing, default for NELMDL
 WARNING: random wavefunctions but no delay for mixing, default for NELMDL
 WARNING: random wavefunctions but no delay for mixing, default for NELMDL
 WARNING: random wavefunctions but no delay for mixing, default for NELMDL
 WARNING: random wavefunctions but no delay for mixing, default for NELMDL
 WARNING: random wavefunctions but no delay for mixing, default for NELMDL
 entering main loop
       N       E                     dE             d eps       ncg     rms          rms(c)
 entering main loop
       N       E                     dE             d eps       ncg     rms          rms(c)
 entering main loop
       N       E                     dE             d eps       ncg     rms          rms(c)
 entering main loop
 entering main loop
 entering main loop
 entering main loop
 entering main loop
 entering main loop
 entering main loop
 entering main loop
 entering main loop
 entering main loop
 entering main loop
       N       E                     dE             d eps       ncg     rms          rms(c)
 entering main loop
 entering main loop
 entering main loop
 entering main loop
 entering main loop
 entering main loop
 entering main loop
 entering main loop
 entering main loop
       N       E                     dE             d eps       ncg     rms          rms(c)
       N       E                     dE             d eps       ncg     rms          rms(c)
       N       E                     dE             d eps       ncg     rms          rms(c)
       N       E                     dE             d eps       ncg     rms          rms(c)
       N       E                     dE             d eps       ncg     rms          rms(c)
       N       E                     dE             d eps       ncg     rms          rms(c)
       N       E                     dE             d eps       ncg     rms          rms(c)
       N       E                     dE             d eps       ncg     rms          rms(c)
       N       E                     dE             d eps       ncg     rms          rms(c)
       N       E                     dE             d eps       ncg     rms          rms(c)
       N       E                     dE             d eps       ncg     rms          rms(c)
       N       E                     dE             d eps       ncg     rms          rms(c)
       N       E                     dE             d eps       ncg     rms          rms(c)
       N       E                     dE             d eps       ncg     rms          rms(c)
       N       E                     dE             d eps       ncg     rms          rms(c)
       N       E                     dE             d eps       ncg     rms          rms(c)
       N       E                     dE             d eps       ncg     rms          rms(c)
       N       E                     dE             d eps       ncg     rms          rms(c)
       N       E                     dE             d eps       ncg     rms          rms(c)
 entering main loop
       N       E                     dE             d eps       ncg     rms          rms(c)
 entering main loop
 entering main loop
       N       E                     dE             d eps       ncg     rms          rms(c)
       N       E                     dE             d eps       ncg     rms          rms(c)
 entering main loop
 entering main loop
 entering main loop
 entering main loop
       N       E                     dE             d eps       ncg     rms          rms(c)
       N       E                     dE             d eps       ncg     rms          rms(c)
       N       E                     dE             d eps       ncg     rms          rms(c)
       N       E                     dE             d eps       ncg     rms          rms(c)
 entering main loop
 entering main loop
 entering main loop
       N       E                     dE             d eps       ncg     rms          rms(c)
 entering main loop
       N       E                     dE             d eps       ncg     rms          rms(c)
 entering main loop
 entering main loop
 entering main loop
 entering main loop
 entering main loop
 entering main loop
       N       E                     dE             d eps       ncg     rms          rms(c)
       N       E                     dE             d eps       ncg     rms          rms(c)
       N       E                     dE             d eps       ncg     rms          rms(c)
       N       E                     dE             d eps       ncg     rms          rms(c)
       N       E                     dE             d eps       ncg     rms          rms(c)
       N       E                     dE             d eps       ncg     rms          rms(c)
       N       E                     dE             d eps       ncg     rms          rms(c)
       N       E                     dE             d eps       ncg     rms          rms(c)
DAV:   1     0.676783115152E+02    0.67678E+02   -0.67823E+03  2105   0.158E+03
DAV:   1     0.676783115152E+02    0.67678E+02   -0.67823E+03  2105   0.158E+03
DAV:   1     0.676783115152E+02    0.67678E+02   -0.67823E+03  2105   0.158E+03
DAV:   1     0.676783115152E+02    0.67678E+02   -0.67823E+03  2105   0.158E+03
DAV:   1     0.676783115152E+02    0.67678E+02   -0.67823E+03  2105   0.158E+03
DAV:   1     0.676783115152E+02    0.67678E+02   -0.67823E+03  2105   0.158E+03
DAV:   1     0.676783115152E+02    0.67678E+02   -0.67823E+03  2105   0.158E+03
DAV:   1     0.676783115152E+02    0.67678E+02   -0.67823E+03  2105   0.158E+03
DAV:   1     0.676783115152E+02    0.67678E+02   -0.67823E+03  2105   0.158E+03
DAV:   1     0.676783115152E+02    0.67678E+02   -0.67823E+03  2105   0.158E+03
DAV:   1     0.676783115152E+02    0.67678E+02   -0.67823E+03  2105   0.158E+03
DAV:   1     0.676783115152E+02    0.67678E+02   -0.67823E+03  2105   0.158E+03
DAV:   1     0.676783115152E+02    0.67678E+02   -0.67823E+03  2105   0.158E+03
DAV:   1     0.676783115152E+02    0.67678E+02   -0.67823E+03  2105   0.158E+03
DAV:   1     0.676783115152E+02    0.67678E+02   -0.67823E+03  2105   0.158E+03
DAV:   1     0.676783115152E+02    0.67678E+02   -0.67823E+03  2105   0.158E+03
DAV:   1     0.676783115152E+02    0.67678E+02   -0.67823E+03  2105   0.158E+03
DAV:   1     0.676783115152E+02    0.67678E+02   -0.67823E+03  2105   0.158E+03
DAV:   1     0.676783115152E+02    0.67678E+02   -0.67823E+03  2105   0.158E+03
DAV:   1     0.676783115152E+02    0.67678E+02   -0.67823E+03  2105   0.158E+03
DAV:   1     0.676783115152E+02    0.67678E+02   -0.67823E+03  2105   0.158E+03
DAV:   1     0.676783115152E+02    0.67678E+02   -0.67823E+03  2105   0.158E+03
DAV:   1     0.676783115152E+02    0.67678E+02   -0.67823E+03  2105   0.158E+03
DAV:   1     0.676783115152E+02    0.67678E+02   -0.67823E+03  2105   0.158E+03
DAV:   1     0.676783115152E+02    0.67678E+02   -0.67823E+03  2105   0.158E+03
DAV:   1     0.676783115152E+02    0.67678E+02   -0.67823E+03  2105   0.158E+03
DAV:   1     0.676783115152E+02    0.67678E+02   -0.67823E+03  2105   0.158E+03
DAV:   1     0.676783115152E+02    0.67678E+02   -0.67823E+03  2105   0.158E+03
DAV:   1     0.676783115152E+02    0.67678E+02   -0.67823E+03  2105   0.158E+03
DAV:   1     0.676783115152E+02    0.67678E+02   -0.67823E+03  2105   0.158E+03
DAV:   1     0.676783115152E+02    0.67678E+02   -0.67823E+03  2105   0.158E+03
DAV:   1     0.676783115152E+02    0.67678E+02   -0.67823E+03  2105   0.158E+03
DAV:   1     0.676783115152E+02    0.67678E+02   -0.67823E+03  2105   0.158E+03
DAV:   1     0.676783115152E+02    0.67678E+02   -0.67823E+03  2105   0.158E+03
DAV:   1     0.676783115152E+02    0.67678E+02   -0.67823E+03  2105   0.158E+03
DAV:   1     0.676783115152E+02    0.67678E+02   -0.67823E+03  2105   0.158E+03
DAV:   1     0.676783115152E+02    0.67678E+02   -0.67823E+03  2105   0.158E+03
DAV:   1     0.676783115152E+02    0.67678E+02   -0.67823E+03  2105   0.158E+03
DAV:   1     0.676783115152E+02    0.67678E+02   -0.67823E+03  2105   0.158E+03
DAV:   1     0.676783115152E+02    0.67678E+02   -0.67823E+03  2105   0.158E+03
DAV:   2    -0.593668205321E+00   -0.68272E+02   -0.65966E+02  2220   0.265E+02
DAV:   2    -0.593668205321E+00   -0.68272E+02   -0.65966E+02  2220   0.265E+02
DAV:   2    -0.593668205321E+00   -0.68272E+02   -0.65966E+02  2220   0.265E+02
DAV:   2    -0.593668205321E+00   -0.68272E+02   -0.65966E+02  2220   0.265E+02
DAV:   2    -0.593668205321E+00   -0.68272E+02   -0.65966E+02  2220   0.265E+02
DAV:   2    -0.593668205321E+00   -0.68272E+02   -0.65966E+02  2220   0.265E+02
DAV:   2    -0.593668205321E+00   -0.68272E+02   -0.65966E+02  2220   0.265E+02
DAV:   2    -0.593668205321E+00   -0.68272E+02   -0.65966E+02  2220   0.265E+02
DAV:   2    -0.593668205321E+00   -0.68272E+02   -0.65966E+02  2220   0.265E+02
DAV:   2    -0.593668205321E+00   -0.68272E+02   -0.65966E+02  2220   0.265E+02
DAV:   2    -0.593668205321E+00   -0.68272E+02   -0.65966E+02  2220   0.265E+02
DAV:   2    -0.593668205321E+00   -0.68272E+02   -0.65966E+02  2220   0.265E+02
DAV:   2    -0.593668205321E+00   -0.68272E+02   -0.65966E+02  2220   0.265E+02
DAV:   2    -0.593668205321E+00   -0.68272E+02   -0.65966E+02  2220   0.265E+02
DAV:   2    -0.593668205321E+00   -0.68272E+02   -0.65966E+02  2220   0.265E+02
DAV:   2    -0.593668205321E+00   -0.68272E+02   -0.65966E+02  2220   0.265E+02
DAV:   2    -0.593668205321E+00   -0.68272E+02   -0.65966E+02  2220   0.265E+02
DAV:   2    -0.593668205321E+00   -0.68272E+02   -0.65966E+02  2220   0.265E+02
DAV:   2    -0.593668205321E+00   -0.68272E+02   -0.65966E+02  2220   0.265E+02
DAV:   2    -0.593668205321E+00   -0.68272E+02   -0.65966E+02  2220   0.265E+02
DAV:   2    -0.593668205321E+00   -0.68272E+02   -0.65966E+02  2220   0.265E+02
DAV:   2    -0.593668205321E+00   -0.68272E+02   -0.65966E+02  2220   0.265E+02
DAV:   2    -0.593668205321E+00   -0.68272E+02   -0.65966E+02  2220   0.265E+02
DAV:   2    -0.593668205321E+00   -0.68272E+02   -0.65966E+02  2220   0.265E+02
DAV:   2    -0.593668205321E+00   -0.68272E+02   -0.65966E+02  2220   0.265E+02
DAV:   2    -0.593668205321E+00   -0.68272E+02   -0.65966E+02  2220   0.265E+02
DAV:   2    -0.593668205321E+00   -0.68272E+02   -0.65966E+02  2220   0.265E+02
DAV:   2    -0.593668205321E+00   -0.68272E+02   -0.65966E+02  2220   0.265E+02
DAV:   2    -0.593668205321E+00   -0.68272E+02   -0.65966E+02  2220   0.265E+02
DAV:   2    -0.593668205321E+00   -0.68272E+02   -0.65966E+02  2220   0.265E+02
DAV:   2    -0.593668205321E+00   -0.68272E+02   -0.65966E+02  2220   0.265E+02
DAV:   2    -0.593668205321E+00   -0.68272E+02   -0.65966E+02  2220   0.265E+02
DAV:   2    -0.593668205321E+00   -0.68272E+02   -0.65966E+02  2220   0.265E+02
DAV:   2    -0.593668205321E+00   -0.68272E+02   -0.65966E+02  2220   0.265E+02
DAV:   2    -0.593668205321E+00   -0.68272E+02   -0.65966E+02  2220   0.265E+02
DAV:   2    -0.593668205321E+00   -0.68272E+02   -0.65966E+02  2220   0.265E+02
DAV:   2    -0.593668205321E+00   -0.68272E+02   -0.65966E+02  2220   0.265E+02
DAV:   2    -0.593668205321E+00   -0.68272E+02   -0.65966E+02  2220   0.265E+02
DAV:   2    -0.593668205321E+00   -0.68272E+02   -0.65966E+02  2220   0.265E+02
DAV:   2    -0.593668205321E+00   -0.68272E+02   -0.65966E+02  2220   0.265E+02
DAV:   3    -0.587562744806E+01   -0.52820E+01   -0.51879E+01  2635   0.688E+01
DAV:   3    -0.587562744806E+01   -0.52820E+01   -0.51879E+01  2635   0.688E+01
DAV:   3    -0.587562744806E+01   -0.52820E+01   -0.51879E+01  2635   0.688E+01
DAV:   3    -0.587562744806E+01   -0.52820E+01   -0.51879E+01  2635   0.688E+01
DAV:   3    -0.587562744806E+01   -0.52820E+01   -0.51879E+01  2635   0.688E+01
DAV:   3    -0.587562744806E+01   -0.52820E+01   -0.51879E+01  2635   0.688E+01
DAV:   3    -0.587562744806E+01   -0.52820E+01   -0.51879E+01  2635   0.688E+01
DAV:   3    -0.587562744806E+01   -0.52820E+01   -0.51879E+01  2635   0.688E+01
DAV:   3    -0.587562744806E+01   -0.52820E+01   -0.51879E+01  2635   0.688E+01
DAV:   3    -0.587562744806E+01   -0.52820E+01   -0.51879E+01  2635   0.688E+01
DAV:   3    -0.587562744806E+01   -0.52820E+01   -0.51879E+01  2635   0.688E+01
DAV:   3    -0.587562744806E+01   -0.52820E+01   -0.51879E+01  2635   0.688E+01
DAV:   3    -0.587562744806E+01   -0.52820E+01   -0.51879E+01  2635   0.688E+01
DAV:   3    -0.587562744806E+01   -0.52820E+01   -0.51879E+01  2635   0.688E+01
DAV:   3    -0.587562744806E+01   -0.52820E+01   -0.51879E+01  2635   0.688E+01
DAV:   3    -0.587562744806E+01   -0.52820E+01   -0.51879E+01  2635   0.688E+01
DAV:   3    -0.587562744806E+01   -0.52820E+01   -0.51879E+01  2635   0.688E+01
DAV:   3    -0.587562744806E+01   -0.52820E+01   -0.51879E+01  2635   0.688E+01
DAV:   3    -0.587562744806E+01   -0.52820E+01   -0.51879E+01  2635   0.688E+01
DAV:   3    -0.587562744806E+01   -0.52820E+01   -0.51879E+01  2635   0.688E+01
DAV:   3    -0.587562744806E+01   -0.52820E+01   -0.51879E+01  2635   0.688E+01
DAV:   3    -0.587562744806E+01   -0.52820E+01   -0.51879E+01  2635   0.688E+01
DAV:   3    -0.587562744806E+01   -0.52820E+01   -0.51879E+01  2635   0.688E+01
DAV:   3    -0.587562744806E+01   -0.52820E+01   -0.51879E+01  2635   0.688E+01
DAV:   3    -0.587562744806E+01   -0.52820E+01   -0.51879E+01  2635   0.688E+01
DAV:   3    -0.587562744806E+01   -0.52820E+01   -0.51879E+01  2635   0.688E+01
DAV:   3    -0.587562744806E+01   -0.52820E+01   -0.51879E+01  2635   0.688E+01
DAV:   3    -0.587562744806E+01   -0.52820E+01   -0.51879E+01  2635   0.688E+01
DAV:   3    -0.587562744806E+01   -0.52820E+01   -0.51879E+01  2635   0.688E+01
DAV:   3    -0.587562744806E+01   -0.52820E+01   -0.51879E+01  2635   0.688E+01
DAV:   3    -0.587562744806E+01   -0.52820E+01   -0.51879E+01  2635   0.688E+01
DAV:   3    -0.587562744806E+01   -0.52820E+01   -0.51879E+01  2635   0.688E+01
DAV:   3    -0.587562744806E+01   -0.52820E+01   -0.51879E+01  2635   0.688E+01
DAV:   3    -0.587562744806E+01   -0.52820E+01   -0.51879E+01  2635   0.688E+01
DAV:   3    -0.587562744806E+01   -0.52820E+01   -0.51879E+01  2635   0.688E+01
DAV:   3    -0.587562744806E+01   -0.52820E+01   -0.51879E+01  2635   0.688E+01
DAV:   3    -0.587562744806E+01   -0.52820E+01   -0.51879E+01  2635   0.688E+01
DAV:   3    -0.587562744806E+01   -0.52820E+01   -0.51879E+01  2635   0.688E+01
DAV:   3    -0.587562744806E+01   -0.52820E+01   -0.51879E+01  2635   0.688E+01
DAV:   3    -0.587562744806E+01   -0.52820E+01   -0.51879E+01  2635   0.688E+01
DAV:   4    -0.594926256464E+01   -0.73635E-01   -0.73611E-01  2280   0.912E+00
DAV:   4    -0.594926256464E+01   -0.73635E-01   -0.73611E-01  2280   0.912E+00
DAV:   4    -0.594926256464E+01   -0.73635E-01   -0.73611E-01  2280   0.912E+00
DAV:   4    -0.594926256464E+01   -0.73635E-01   -0.73611E-01  2280   0.912E+00
DAV:   4    -0.594926256464E+01   -0.73635E-01   -0.73611E-01  2280   0.912E+00
DAV:   4    -0.594926256464E+01   -0.73635E-01   -0.73611E-01  2280   0.912E+00
DAV:   4    -0.594926256464E+01   -0.73635E-01   -0.73611E-01  2280   0.912E+00
DAV:   4    -0.594926256464E+01   -0.73635E-01   -0.73611E-01  2280   0.912E+00
DAV:   4    -0.594926256464E+01   -0.73635E-01   -0.73611E-01  2280   0.912E+00
DAV:   4    -0.594926256464E+01   -0.73635E-01   -0.73611E-01  2280   0.912E+00
DAV:   4    -0.594926256464E+01   -0.73635E-01   -0.73611E-01  2280   0.912E+00
DAV:   4    -0.594926256464E+01   -0.73635E-01   -0.73611E-01  2280   0.912E+00
DAV:   4    -0.594926256464E+01   -0.73635E-01   -0.73611E-01  2280   0.912E+00
DAV:   4    -0.594926256464E+01   -0.73635E-01   -0.73611E-01  2280   0.912E+00
DAV:   4    -0.594926256464E+01   -0.73635E-01   -0.73611E-01  2280   0.912E+00
DAV:   4    -0.594926256464E+01   -0.73635E-01   -0.73611E-01  2280   0.912E+00
DAV:   4    -0.594926256464E+01   -0.73635E-01   -0.73611E-01  2280   0.912E+00
DAV:   4    -0.594926256464E+01   -0.73635E-01   -0.73611E-01  2280   0.912E+00
DAV:   4    -0.594926256464E+01   -0.73635E-01   -0.73611E-01  2280   0.912E+00
DAV:   4    -0.594926256464E+01   -0.73635E-01   -0.73611E-01  2280   0.912E+00
DAV:   4    -0.594926256464E+01   -0.73635E-01   -0.73611E-01  2280   0.912E+00
DAV:   4    -0.594926256464E+01   -0.73635E-01   -0.73611E-01  2280   0.912E+00
DAV:   4    -0.594926256464E+01   -0.73635E-01   -0.73611E-01  2280   0.912E+00
DAV:   4    -0.594926256464E+01   -0.73635E-01   -0.73611E-01  2280   0.912E+00
DAV:   4    -0.594926256464E+01   -0.73635E-01   -0.73611E-01  2280   0.912E+00
DAV:   4    -0.594926256464E+01   -0.73635E-01   -0.73611E-01  2280   0.912E+00
DAV:   4    -0.594926256464E+01   -0.73635E-01   -0.73611E-01  2280   0.912E+00
DAV:   4    -0.594926256464E+01   -0.73635E-01   -0.73611E-01  2280   0.912E+00
DAV:   4    -0.594926256464E+01   -0.73635E-01   -0.73611E-01  2280   0.912E+00
DAV:   4    -0.594926256464E+01   -0.73635E-01   -0.73611E-01  2280   0.912E+00
DAV:   4    -0.594926256464E+01   -0.73635E-01   -0.73611E-01  2280   0.912E+00
DAV:   4    -0.594926256464E+01   -0.73635E-01   -0.73611E-01  2280   0.912E+00
DAV:   4    -0.594926256464E+01   -0.73635E-01   -0.73611E-01  2280   0.912E+00
DAV:   4    -0.594926256464E+01   -0.73635E-01   -0.73611E-01  2280   0.912E+00
DAV:   4    -0.594926256464E+01   -0.73635E-01   -0.73611E-01  2280   0.912E+00
DAV:   4    -0.594926256464E+01   -0.73635E-01   -0.73611E-01  2280   0.912E+00
DAV:   4    -0.594926256464E+01   -0.73635E-01   -0.73611E-01  2280   0.912E+00
DAV:   4    -0.594926256464E+01   -0.73635E-01   -0.73611E-01  2280   0.912E+00
DAV:   4    -0.594926256464E+01   -0.73635E-01   -0.73611E-01  2280   0.912E+00
DAV:   4    -0.594926256464E+01   -0.73635E-01   -0.73611E-01  2280   0.912E+00
DAV:   5    -0.594995981213E+01   -0.69725E-03   -0.69723E-03  2500   0.856E-01
DAV:   5    -0.594995981213E+01   -0.69725E-03   -0.69723E-03  2500   0.856E-01
DAV:   5    -0.594995981213E+01   -0.69725E-03   -0.69723E-03  2500   0.856E-01
DAV:   5    -0.594995981213E+01   -0.69725E-03   -0.69723E-03  2500   0.856E-01
DAV:   5    -0.594995981213E+01   -0.69725E-03   -0.69723E-03  2500   0.856E-01
DAV:   5    -0.594995981213E+01   -0.69725E-03   -0.69723E-03  2500   0.856E-01
DAV:   5    -0.594995981213E+01   -0.69725E-03   -0.69723E-03  2500   0.856E-01
DAV:   5    -0.594995981213E+01   -0.69725E-03   -0.69723E-03  2500   0.856E-01
DAV:   5    -0.594995981213E+01   -0.69725E-03   -0.69723E-03  2500   0.856E-01
DAV:   5    -0.594995981213E+01   -0.69725E-03   -0.69723E-03  2500   0.856E-01
DAV:   5    -0.594995981213E+01   -0.69725E-03   -0.69723E-03  2500   0.856E-01
DAV:   5    -0.594995981213E+01   -0.69725E-03   -0.69723E-03  2500   0.856E-01
DAV:   5    -0.594995981213E+01   -0.69725E-03   -0.69723E-03  2500   0.856E-01
DAV:   5    -0.594995981213E+01   -0.69725E-03   -0.69723E-03  2500   0.856E-01
DAV:   5    -0.594995981213E+01   -0.69725E-03   -0.69723E-03  2500   0.856E-01
DAV:   5    -0.594995981213E+01   -0.69725E-03   -0.69723E-03  2500   0.856E-01
DAV:   5    -0.594995981213E+01   -0.69725E-03   -0.69723E-03  2500   0.856E-01
DAV:   5    -0.594995981213E+01   -0.69725E-03   -0.69723E-03  2500   0.856E-01
DAV:   5    -0.594995981213E+01   -0.69725E-03   -0.69723E-03  2500   0.856E-01
DAV:   5    -0.594995981213E+01   -0.69725E-03   -0.69723E-03  2500   0.856E-01
DAV:   5    -0.594995981213E+01   -0.69725E-03   -0.69723E-03  2500   0.856E-01
DAV:   5    -0.594995981213E+01   -0.69725E-03   -0.69723E-03  2500   0.856E-01
DAV:   5    -0.594995981213E+01   -0.69725E-03   -0.69723E-03  2500   0.856E-01
DAV:   5    -0.594995981213E+01   -0.69725E-03   -0.69723E-03  2500   0.856E-01
DAV:   5    -0.594995981213E+01   -0.69725E-03   -0.69723E-03  2500   0.856E-01
DAV:   5    -0.594995981213E+01   -0.69725E-03   -0.69723E-03  2500   0.856E-01
DAV:   5    -0.594995981213E+01   -0.69725E-03   -0.69723E-03  2500   0.856E-01
DAV:   5    -0.594995981213E+01   -0.69725E-03   -0.69723E-03  2500   0.856E-01
DAV:   5    -0.594995981213E+01   -0.69725E-03   -0.69723E-03  2500   0.856E-01
DAV:   5    -0.594995981213E+01   -0.69725E-03   -0.69723E-03  2500   0.856E-01
DAV:   5    -0.594995981213E+01   -0.69725E-03   -0.69723E-03  2500   0.856E-01
DAV:   5    -0.594995981213E+01   -0.69725E-03   -0.69723E-03  2500   0.856E-01
DAV:   5    -0.594995981213E+01   -0.69725E-03   -0.69723E-03  2500   0.856E-01
DAV:   5    -0.594995981213E+01   -0.69725E-03   -0.69723E-03  2500   0.856E-01
DAV:   5    -0.594995981213E+01   -0.69725E-03   -0.69723E-03  2500   0.856E-01
DAV:   5    -0.594995981213E+01   -0.69725E-03   -0.69723E-03  2500   0.856E-01
DAV:   5    -0.594995981213E+01   -0.69725E-03   -0.69723E-03  2500   0.856E-01
DAV:   5    -0.594995981213E+01   -0.69725E-03   -0.69723E-03  2500   0.856E-01
DAV:   5    -0.594995981213E+01   -0.69725E-03   -0.69723E-03  2500   0.856E-01
DAV:   5    -0.594995981213E+01   -0.69725E-03   -0.69723E-03  2500   0.856E-01
DAV:   6    -0.594996957391E+01   -0.97618E-05   -0.97613E-05  1786   0.970E-02
DAV:   6    -0.594996957391E+01   -0.97618E-05   -0.97613E-05  1786   0.970E-02
DAV:   6    -0.594996957391E+01   -0.97618E-05   -0.97613E-05  1786   0.970E-02
DAV:   6    -0.594996957391E+01   -0.97618E-05   -0.97613E-05  1786   0.970E-02
DAV:   6    -0.594996957391E+01   -0.97618E-05   -0.97613E-05  1786   0.970E-02
DAV:   6    -0.594996957391E+01   -0.97618E-05   -0.97613E-05  1786   0.970E-02
DAV:   6    -0.594996957391E+01   -0.97618E-05   -0.97613E-05  1786   0.970E-02
   1 F= -.59499696E+01 E0= -.59456030E+01  d E =-.873320E-02
 writing wavefunctions
 optical routines
 imaginary and real dielectric function
 recalculating local potential from charge density
 direction            1
   1 F= -.59499696E+01 E0= -.59456030E+01  d E =-.873320E-02
 writing wavefunctions
DAV:   6    -0.594996957391E+01   -0.97618E-05   -0.97613E-05  1786   0.970E-02
DAV:   6    -0.594996957391E+01   -0.97618E-05   -0.97613E-05  1786   0.970E-02
 optical routines
 imaginary and real dielectric function
 recalculating local potential from charge density
 direction            1
   1 F= -.59499696E+01 E0= -.59456030E+01  d E =-.873320E-02
 writing wavefunctions
 optical routines
 imaginary and real dielectric function
 recalculating local potential from charge density
 direction            1
   1 F= -.59499696E+01 E0= -.59456030E+01  d E =-.873320E-02
 writing wavefunctions
   1 F= -.59499696E+01 E0= -.59456030E+01  d E =-.873320E-02
 writing wavefunctions
   1 F= -.59499696E+01 E0= -.59456030E+01  d E =-.873320E-02
 writing wavefunctions
 optical routines
 imaginary and real dielectric function
 recalculating local potential from charge density
 direction            1
 optical routines
 imaginary and real dielectric function
 recalculating local potential from charge density
 direction            1
 optical routines
 imaginary and real dielectric function
 recalculating local potential from charge density
 direction            1
DAV:   6    -0.594996957391E+01   -0.97618E-05   -0.97613E-05  1786   0.970E-02
DAV:   6    -0.594996957391E+01   -0.97618E-05   -0.97613E-05  1786   0.970E-02
   1 F= -.59499696E+01 E0= -.59456030E+01  d E =-.873320E-02
 writing wavefunctions
DAV:   6    -0.594996957391E+01   -0.97618E-05   -0.97613E-05  1786   0.970E-02
 optical routines
 imaginary and real dielectric function
 recalculating local potential from charge density
 direction            1
DAV:   6    -0.594996957391E+01   -0.97618E-05   -0.97613E-05  1786   0.970E-02
   1 F= -.59499696E+01 E0= -.59456030E+01  d E =-.873320E-02
 writing wavefunctions
   1 F= -.59499696E+01 E0= -.59456030E+01  d E =-.873320E-02
 writing wavefunctions
 optical routines
 imaginary and real dielectric function
 recalculating local potential from charge density
DAV:   6    -0.594996957391E+01   -0.97618E-05   -0.97613E-05  1786   0.970E-02
 direction            1
 optical routines
 imaginary and real dielectric function
 recalculating local potential from charge density
DAV:   6    -0.594996957391E+01   -0.97618E-05   -0.97613E-05  1786   0.970E-02
DAV:   6    -0.594996957391E+01   -0.97618E-05   -0.97613E-05  1786   0.970E-02
 direction            1
DAV:   6    -0.594996957391E+01   -0.97618E-05   -0.97613E-05  1786   0.970E-02
DAV:   6    -0.594996957391E+01   -0.97618E-05   -0.97613E-05  1786   0.970E-02
DAV:   6    -0.594996957391E+01   -0.97618E-05   -0.97613E-05  1786   0.970E-02
   1 F= -.59499696E+01 E0= -.59456030E+01  d E =-.873320E-02
 writing wavefunctions
DAV:   6    -0.594996957391E+01   -0.97618E-05   -0.97613E-05  1786   0.970E-02
 optical routines
 imaginary and real dielectric function
 recalculating local potential from charge density
 direction            1
   1 F= -.59499696E+01 E0= -.59456030E+01  d E =-.873320E-02
DAV:   6    -0.594996957391E+01   -0.97618E-05   -0.97613E-05  1786   0.970E-02
 writing wavefunctions
 optical routines
 imaginary and real dielectric function
DAV:   6    -0.594996957391E+01   -0.97618E-05   -0.97613E-05  1786   0.970E-02
 recalculating local potential from charge density
DAV:   6    -0.594996957391E+01   -0.97618E-05   -0.97613E-05  1786   0.970E-02
 direction            1
   1 F= -.59499696E+01 E0= -.59456030E+01  d E =-.873320E-02
 writing wavefunctions
   1 F= -.59499696E+01 E0= -.59456030E+01  d E =-.873320E-02
 writing wavefunctions
 optical routines
 imaginary and real dielectric function
 recalculating local potential from charge density
 optical routines
 imaginary and real dielectric function
 recalculating local potential from charge density
 direction            1
 direction            2
 direction            1
   1 F= -.59499696E+01 E0= -.59456030E+01  d E =-.873320E-02
 writing wavefunctions
 optical routines
 imaginary and real dielectric function
   1 F= -.59499696E+01 E0= -.59456030E+01  d E =-.873320E-02
 writing wavefunctions
   1 F= -.59499696E+01 E0= -.59456030E+01  d E =-.873320E-02
 direction            2
 writing wavefunctions
 recalculating local potential from charge density
 direction            1
 optical routines
 imaginary and real dielectric function
 recalculating local potential from charge density
 optical routines
 imaginary and real dielectric function
 recalculating local potential from charge density
 direction            1
 direction            1
DAV:   6    -0.594996957391E+01   -0.97618E-05   -0.97613E-05  1786   0.970E-02
   1 F= -.59499696E+01 E0= -.59456030E+01  d E =-.873320E-02
 writing wavefunctions
   1 F= -.59499696E+01 E0= -.59456030E+01  d E =-.873320E-02
 writing wavefunctions
DAV:   6    -0.594996957391E+01   -0.97618E-05   -0.97613E-05  1786   0.970E-02
DAV:   6    -0.594996957391E+01   -0.97618E-05   -0.97613E-05  1786   0.970E-02
DAV:   6    -0.594996957391E+01   -0.97618E-05   -0.97613E-05  1786   0.970E-02
 optical routines
 imaginary and real dielectric function
 optical routines
 imaginary and real dielectric function
 recalculating local potential from charge density
 recalculating local potential from charge density
 direction            1
 direction            1
 direction            2
   1 F= -.59499696E+01 E0= -.59456030E+01  d E =-.873320E-02
 writing wavefunctions
   1 F= -.59499696E+01 E0= -.59456030E+01  d E =-.873320E-02
 writing wavefunctions
 direction            2
 direction            2
 direction            2
 optical routines
 imaginary and real dielectric function
 optical routines
 imaginary and real dielectric function
 recalculating local potential from charge density
 recalculating local potential from charge density
 direction            2
 direction            1
 direction            1
   1 F= -.59499696E+01 E0= -.59456030E+01  d E =-.873320E-02
 writing wavefunctions
   1 F= -.59499696E+01 E0= -.59456030E+01  d E =-.873320E-02
   1 F= -.59499696E+01 E0= -.59456030E+01  d E =-.873320E-02
 writing wavefunctions
 writing wavefunctions
 optical routines
 imaginary and real dielectric function
 recalculating local potential from charge density
 direction            1
DAV:   6    -0.594996957391E+01   -0.97618E-05   -0.97613E-05  1786   0.970E-02
 optical routines
 imaginary and real dielectric function
 optical routines
 imaginary and real dielectric function
 recalculating local potential from charge density
 recalculating local potential from charge density
 direction            1
 direction            1
DAV:   6    -0.594996957391E+01   -0.97618E-05   -0.97613E-05  1786   0.970E-02
DAV:   6    -0.594996957391E+01   -0.97618E-05   -0.97613E-05  1786   0.970E-02
 direction            2
   1 F= -.59499696E+01 E0= -.59456030E+01  d E =-.873320E-02
 writing wavefunctions
   1 F= -.59499696E+01 E0= -.59456030E+01  d E =-.873320E-02
 writing wavefunctions
 optical routines
 imaginary and real dielectric function
 recalculating local potential from charge density
 direction            2
 direction            1
 optical routines
 imaginary and real dielectric function
 recalculating local potential from charge density
   1 F= -.59499696E+01 E0= -.59456030E+01  d E =-.873320E-02
 direction            1
 writing wavefunctions
   1 F= -.59499696E+01 E0= -.59456030E+01  d E =-.873320E-02
 writing wavefunctions
 optical routines
 imaginary and real dielectric function
 recalculating local potential from charge density
 optical routines
 imaginary and real dielectric function
 recalculating local potential from charge density
 direction            1
 direction            1
   1 F= -.59499696E+01 E0= -.59456030E+01  d E =-.873320E-02
 writing wavefunctions
 direction            2
 optical routines
 imaginary and real dielectric function
 recalculating local potential from charge density
 direction            1
 direction            2
   1 F= -.59499696E+01 E0= -.59456030E+01  d E =-.873320E-02
 writing wavefunctions
   1 F= -.59499696E+01 E0= -.59456030E+01  d E =-.873320E-02
 writing wavefunctions
DAV:   6    -0.594996957391E+01   -0.97618E-05   -0.97613E-05  1786   0.970E-02
DAV:   6    -0.594996957391E+01   -0.97618E-05   -0.97613E-05  1786   0.970E-02
 optical routines
 imaginary and real dielectric function
 recalculating local potential from charge density
 optical routines
 imaginary and real dielectric function
 recalculating local potential from charge density
 direction            2
 direction            2
 direction            1
 direction            1
 direction            2
 direction            3
 direction            2
 direction            2
DAV:   6    -0.594996957391E+01   -0.97618E-05   -0.97613E-05  1786   0.970E-02
 direction            2
 direction            2
 direction            3
 direction            2
 direction            2
 direction            2
 direction            2
 direction            3
 direction            3
 direction            3
 direction            3
 direction            2
   1 F= -.59499696E+01 E0= -.59456030E+01  d E =-.873320E-02
 writing wavefunctions
DAV:   6    -0.594996957391E+01   -0.97618E-05   -0.97613E-05  1786   0.970E-02
   1 F= -.59499696E+01 E0= -.59456030E+01  d E =-.873320E-02
 writing wavefunctions
 direction            3
 optical routines
 imaginary and real dielectric function
 optical routines
 imaginary and real dielectric function
 recalculating local potential from charge density
 recalculating local potential from charge density
 direction            1
 direction            1
   1 F= -.59499696E+01 E0= -.59456030E+01  d E =-.873320E-02
 writing wavefunctions
 optical routines
 imaginary and real dielectric function
 recalculating local potential from charge density
 direction            1
 direction            2
 direction            2
 direction            3
 direction            2
 direction            2
DAV:   6    -0.594996957391E+01   -0.97618E-05   -0.97613E-05  1786   0.970E-02
 direction            3
DAV:   6    -0.594996957391E+01   -0.97618E-05   -0.97613E-05  1786   0.970E-02
   1 F= -.59499696E+01 E0= -.59456030E+01  d E =-.873320E-02
 writing wavefunctions
 optical routines
 imaginary and real dielectric function
 recalculating local potential from charge density
 direction            2
 direction            1
 direction            2
 direction            3
 direction            2
 direction            3
 direction            3
 direction            3
DAV:   6    -0.594996957391E+01   -0.97618E-05   -0.97613E-05  1786   0.970E-02
   1 F= -.59499696E+01 E0= -.59456030E+01  d E =-.873320E-02
 writing wavefunctions
DAV:   6    -0.594996957391E+01   -0.97618E-05   -0.97613E-05  1786   0.970E-02
 direction            3
 optical routines
 imaginary and real dielectric function
 recalculating local potential from charge density
DAV:   6    -0.594996957391E+01   -0.97618E-05   -0.97613E-05  1786   0.970E-02
 direction            1
 direction            3
 direction            3
 direction            3
 direction            3
   1 F= -.59499696E+01 E0= -.59456030E+01  d E =-.873320E-02
 direction            3
 writing wavefunctions
 direction            3
 optical routines
 imaginary and real dielectric function
 recalculating local potential from charge density
 direction            1
 direction            3
 direction            3
 direction            2
 direction            2
   1 F= -.59499696E+01 E0= -.59456030E+01  d E =-.873320E-02
 writing wavefunctions
 direction            3
 direction            2
 optical routines
 imaginary and real dielectric function
 recalculating local potential from charge density
 direction            1
 direction            3
   1 F= -.59499696E+01 E0= -.59456030E+01  d E =-.873320E-02
 writing wavefunctions
   1 F= -.59499696E+01 E0= -.59456030E+01  d E =-.873320E-02
 writing wavefunctions
 optical routines
 imaginary and real dielectric function
 recalculating local potential from charge density
 direction            1
DAV:   6    -0.594996957391E+01   -0.97618E-05   -0.97613E-05  1786   0.970E-02
 direction            3
 direction            3
 optical routines
 imaginary and real dielectric function
 recalculating local potential from charge density
 direction            1
 direction            2
 direction            3
 direction            3
 direction            3
   1 F= -.59499696E+01 E0= -.59456030E+01  d E =-.873320E-02
 writing wavefunctions
 direction            3
 optical routines
 imaginary and real dielectric function
 recalculating local potential from charge density
 direction            1
 direction            2
 direction            2
 direction            2
 direction            3
 direction            3
 direction            2
 direction            3
 direction            2
 direction            3
 direction            2
 direction            3
 direction            3
 direction            3
 direction            3
 direction            3
 direction            3
