unknown system                          
   2.76000000000000     
    -0.500000    0.500000    0.500000
     0.500000   -0.500000    0.500000
     0.500000    0.500000   -0.500000
   W 
     1
Direct
  0.000000  0.000000  0.000000
 
   20   20   20
 0.10601610394E+02 0.10208806412E+02 0.93320431927E+01 0.85719933063E+01 0.82518528584E+01
 0.81824610239E+01 0.79630516797E+01 0.74276757606E+01 0.67683265406E+01 0.62935607457E+01
 0.61455801723E+01 0.62935607457E+01 0.67683265406E+01 0.74276757606E+01 0.79630516797E+01
 0.81824610239E+01 0.82518528584E+01 0.85719933063E+01 0.93320431927E+01 0.10208806412E+02
 0.10208806412E+02 0.10070911733E+02 0.93430197158E+01 0.85529162330E+01 0.81326703754E+01
 0.80454197004E+01 0.79244311537E+01 0.75080602823E+01 0.68840622070E+01 0.63473451151E+01
 0.61043799165E+01 0.61516101285E+01 0.65043534339E+01 0.71072355971E+01 0.76991801938E+01
 0.80208609155E+01 0.80989414622E+01 0.82709971213E+01 0.88338537124E+01 0.96544576231E+01
 0.93320431927E+01 0.93430197158E+01 0.88147566659E+01 0.81178972362E+01 0.76789578970E+01
 0.75809891595E+01 0.75493143107E+01 0.72911618747E+01 0.67916296295E+01 0.62820656958E+01
 0.59882310420E+01 0.59570449775E+01 0.61795145626E+01 0.66640302614E+01 0.72466977822E+01
 0.76708536006E+01 0.78362859895E+01 0.79337056158E+01 0.82547277481E+01 0.88338537124E+01
 0.85719933063E+01 0.85529162330E+01 0.81178972362E+01 0.74995115421E+01 0.70535649126E+01
 0.69241135723E+01 0.69390837846E+01 0.68276143850E+01 0.64988736688E+01 0.60945789833E+01
 0.58131314296E+01 0.57349177174E+01 0.58641704818E+01 0.62131959154E+01 0.67265145179E+01
 0.72222923967E+01 0.75438570786E+01 0.77215933189E+01 0.79337056158E+01 0.82709971213E+01
 0.82518528584E+01 0.81326703754E+01 0.76789578970E+01 0.70535649126E+01 0.65438057773E+01
 0.63183817598E+01 0.62965786549E+01 0.62621509028E+01 0.60853559700E+01 0.58187946709E+01
 0.56008820724E+01 0.55124978217E+01 0.55873255981E+01 0.58283827055E+01 0.62317770168E+01
 0.67259997772E+01 0.71852804751E+01 0.75438570786E+01 0.78362859895E+01 0.80989414622E+01
 0.81824610239E+01 0.80454197004E+01 0.75809891595E+01 0.69241135723E+01 0.63183817598E+01
 0.59465763015E+01 0.58066833014E+01 0.57549379286E+01 0.56610072716E+01 0.55115032970E+01
 0.53757026393E+01 0.53086789513E+01 0.53529779760E+01 0.55291321777E+01 0.58223323485E+01
 0.62358815634E+01 0.67259997772E+01 0.72222923967E+01 0.76708536006E+01 0.80208609155E+01
 0.79630516797E+01 0.79244311537E+01 0.75493143107E+01 0.69390837846E+01 0.62965786549E+01
 0.58066833014E+01 0.55288592177E+01 0.53961555463E+01 0.53095698188E+01 0.52255412444E+01
 0.51581844151E+01 0.51285971077E+01 0.51677391879E+01 0.52970352228E+01 0.55170357657E+01
 0.58223323485E+01 0.62317770168E+01 0.67265145179E+01 0.72466977822E+01 0.76991801938E+01
 0.74276757606E+01 0.75080602823E+01 0.72911618747E+01 0.68276143850E+01 0.62621509028E+01
 0.57549379286E+01 0.53961555463E+01 0.51819437375E+01 0.50606771928E+01 0.49924071793E+01
 0.49631080073E+01 0.49709861082E+01 0.50246938558E+01 0.51306269391E+01 0.52970352228E+01
 0.55291321777E+01 0.58283827055E+01 0.62131959154E+01 0.66640302614E+01 0.71072355971E+01
 0.67683265406E+01 0.68840622070E+01 0.67916296295E+01 0.64988736688E+01 0.60853559700E+01
 0.56610072716E+01 0.53095698188E+01 0.50606771928E+01 0.49049738518E+01 0.48244527172E+01
 0.48047944742E+01 0.48383054649E+01 0.49147950099E+01 0.50246938558E+01 0.51677391879E+01
 0.53529779760E+01 0.55873255981E+01 0.58641704818E+01 0.61795145626E+01 0.65043534339E+01
 0.62935607457E+01 0.63473451151E+01 0.62820656958E+01 0.60945789833E+01 0.58187946709E+01
 0.55115032970E+01 0.52255412444E+01 0.49924071793E+01 0.48244527172E+01 0.47258373417E+01
 0.46999086942E+01 0.47421566760E+01 0.48383054649E+01 0.49709861082E+01 0.51285971077E+01
 0.53086789513E+01 0.55124978217E+01 0.57349177174E+01 0.59570449775E+01 0.61516101285E+01
 0.61455801723E+01 0.61043799165E+01 0.59882310420E+01 0.58131314296E+01 0.56008820724E+01
 0.53757026393E+01 0.51581844151E+01 0.49631080073E+01 0.48047944742E+01 0.46999086942E+01
 0.46629788720E+01 0.46999086942E+01 0.48047944742E+01 0.49631080073E+01 0.51581844151E+01
 0.53757026393E+01 0.56008820724E+01 0.58131314296E+01 0.59882310420E+01 0.61043799165E+01
 0.62935607457E+01 0.61516101285E+01 0.59570449775E+01 0.57349177174E+01 0.55124978217E+01
 0.53086789513E+01 0.51285971077E+01 0.49709861082E+01 0.48383054649E+01 0.47421566760E+01
 0.46999086942E+01 0.47258373417E+01 0.48244527172E+01 0.49924071793E+01 0.52255412444E+01
 0.55115032970E+01 0.58187946709E+01 0.60945789833E+01 0.62820656958E+01 0.63473451151E+01
 0.67683265406E+01 0.65043534339E+01 0.61795145626E+01 0.58641704818E+01 0.55873255981E+01
 0.53529779760E+01 0.51677391879E+01 0.50246938558E+01 0.49147950099E+01 0.48383054649E+01
 0.48047944742E+01 0.48244527172E+01 0.49049738518E+01 0.50606771928E+01 0.53095698188E+01
 0.56610072716E+01 0.60853559700E+01 0.64988736688E+01 0.67916296295E+01 0.68840622070E+01
 0.74276757606E+01 0.71072355971E+01 0.66640302614E+01 0.62131959154E+01 0.58283827055E+01
 0.55291321777E+01 0.52970352228E+01 0.51306269391E+01 0.50246938558E+01 0.49709861082E+01
 0.49631080073E+01 0.49924071793E+01 0.50606771928E+01 0.51819437375E+01 0.53961555463E+01
 0.57549379286E+01 0.62621509028E+01 0.68276143850E+01 0.72911618747E+01 0.75080602823E+01
 0.79630516797E+01 0.76991801938E+01 0.72466977822E+01 0.67265145179E+01 0.62317770168E+01
 0.58223323485E+01 0.55170357657E+01 0.52970352228E+01 0.51677391879E+01 0.51285971077E+01
 0.51581844151E+01 0.52255412444E+01 0.53095698188E+01 0.53961555463E+01 0.55288592177E+01
 0.58066833014E+01 0.62965786549E+01 0.69390837846E+01 0.75493143107E+01 0.79244311537E+01
 0.81824610239E+01 0.80208609155E+01 0.76708536006E+01 0.72222923967E+01 0.67259997772E+01
 0.62358815634E+01 0.58223323485E+01 0.55291321777E+01 0.53529779760E+01 0.53086789513E+01
 0.53757026393E+01 0.55115032970E+01 0.56610072716E+01 0.57549379286E+01 0.58066833014E+01
 0.59465763015E+01 0.63183817598E+01 0.69241135723E+01 0.75809891595E+01 0.80454197004E+01
 0.82518528584E+01 0.80989414622E+01 0.78362859895E+01 0.75438570786E+01 0.71852804751E+01
 0.67259997772E+01 0.62317770168E+01 0.58283827055E+01 0.55873255981E+01 0.55124978217E+01
 0.56008820724E+01 0.58187946709E+01 0.60853559700E+01 0.62621509028E+01 0.62965786549E+01
 0.63183817598E+01 0.65438057773E+01 0.70535649126E+01 0.76789578970E+01 0.81326703754E+01
 0.85719933063E+01 0.82709971213E+01 0.79337056158E+01 0.77215933189E+01 0.75438570786E+01
 0.72222923967E+01 0.67265145179E+01 0.62131959154E+01 0.58641704818E+01 0.57349177174E+01
 0.58131314296E+01 0.60945789833E+01 0.64988736688E+01 0.68276143850E+01 0.69390837846E+01
 0.69241135723E+01 0.70535649126E+01 0.74995115421E+01 0.81178972362E+01 0.85529162330E+01
 0.93320431927E+01 0.88338537124E+01 0.82547277481E+01 0.79337056158E+01 0.78362859895E+01
 0.76708536006E+01 0.72466977822E+01 0.66640302614E+01 0.61795145626E+01 0.59570449775E+01
 0.59882310420E+01 0.62820656958E+01 0.67916296295E+01 0.72911618747E+01 0.75493143107E+01
 0.75809891595E+01 0.76789578970E+01 0.81178972362E+01 0.88147566659E+01 0.93430197158E+01
 0.10208806412E+02 0.96544576231E+01 0.88338537124E+01 0.82709971213E+01 0.80989414622E+01
 0.80208609155E+01 0.76991801938E+01 0.71072355971E+01 0.65043534339E+01 0.61516101285E+01
 0.61043799165E+01 0.63473451151E+01 0.68840622070E+01 0.75080602823E+01 0.79244311537E+01
 0.80454197004E+01 0.81326703754E+01 0.85529162330E+01 0.93430197158E+01 0.10070911733E+02
 0.10208806412E+02 0.10070911733E+02 0.93430197158E+01 0.85529162330E+01 0.81326703754E+01
 0.80454197004E+01 0.79244311537E+01 0.75080602823E+01 0.68840622070E+01 0.63473451151E+01
 0.61043799165E+01 0.61516101285E+01 0.65043534339E+01 0.71072355971E+01 0.76991801938E+01
 0.80208609155E+01 0.80989414622E+01 0.82709971213E+01 0.88338537124E+01 0.96544576231E+01
 0.10070911733E+02 0.10207482018E+02 0.96529969064E+01 0.88331759043E+01 0.82705110582E+01
 0.80982033112E+01 0.80206284488E+01 0.76997623226E+01 0.71075984501E+01 0.65039524361E+01
 0.61513710961E+01 0.61048406395E+01 0.63476064105E+01 0.68836211024E+01 0.75078926339E+01
 0.79251881679E+01 0.80462951223E+01 0.81330686995E+01 0.85534549520E+01 0.93438563426E+01
 0.93430197158E+01 0.96529969064E+01 0.93430195612E+01 0.86569943697E+01 0.80764601691E+01
 0.78483395709E+01 0.77990687898E+01 0.75938917687E+01 0.71102212333E+01 0.65290401457E+01
 0.61174063925E+01 0.59885030754E+01 0.61174064194E+01 0.65290401643E+01 0.71102212113E+01
 0.75938917183E+01 0.77990687704E+01 0.78483396477E+01 0.80764603539E+01 0.86569945952E+01
 0.85529162330E+01 0.88331759043E+01 0.86569943697E+01 0.81182213232E+01 0.75834322530E+01
 0.73282346755E+01 0.72913509782E+01 0.71958567555E+01 0.68673033312E+01 0.63932164751E+01
 0.59974756466E+01 0.58207020773E+01 0.58668622178E+01 0.61455657223E+01 0.66291661137E+01
 0.71380184296E+01 0.74671309643E+01 0.75971865650E+01 0.77335257762E+01 0.80765429376E+01
 0.81326703754E+01 0.82705110582E+01 0.80764601691E+01 0.75834322530E+01 0.70535648878E+01
 0.67417171302E+01 0.66657000279E+01 0.66279588500E+01 0.64443085658E+01 0.61191615714E+01
 0.58033059774E+01 0.56263931175E+01 0.56227636098E+01 0.58041831872E+01 0.61673495905E+01
 0.66433460626E+01 0.70802944179E+01 0.73810073741E+01 0.75976867313E+01 0.78486211467E+01
 0.80454197004E+01 0.80982033112E+01 0.78483395709E+01 0.73282346755E+01 0.67417171302E+01
 0.63188105296E+01 0.61328108459E+01 0.60688360600E+01 0.59664182801E+01 0.57741564315E+01
 0.55642713003E+01 0.54263893638E+01 0.54025575639E+01 0.55267119861E+01 0.57854773048E+01
 0.61736955436E+01 0.66347030236E+01 0.70805136703E+01 0.74674128241E+01 0.77987717469E+01
 0.79244311537E+01 0.80206284488E+01 0.77990687898E+01 0.72913509782E+01 0.66657000279E+01
 0.61328108459E+01 0.58066832925E+01 0.56501598486E+01 0.55502336865E+01 0.54352740177E+01
 0.53163939382E+01 0.52336690205E+01 0.52179764359E+01 0.53041841759E+01 0.54967947241E+01
 0.57828947469E+01 0.61735198365E+01 0.66431856834E+01 0.71376829875E+01 0.75931655776E+01
 0.75080602823E+01 0.76997623226E+01 0.75938917687E+01 0.71958567555E+01 0.66279588500E+01
 0.60688360600E+01 0.56501598486E+01 0.53959293787E+01 0.52505668688E+01 0.51548431588E+01
 0.50892381463E+01 0.50553128427E+01 0.50657831487E+01 0.51375219815E+01 0.52803773475E+01
 0.54965676801E+01 0.57851567233E+01 0.61671036466E+01 0.66289637614E+01 0.71100835551E+01
 0.68840622070E+01 0.71075984501E+01 0.71102212333E+01 0.68673033312E+01 0.64443085658E+01
 0.59664182801E+01 0.55502336865E+01 0.52505668688E+01 0.50606771924E+01 0.49515384125E+01
 0.49016915472E+01 0.48985373067E+01 0.49390078541E+01 0.50186295444E+01 0.51374564445E+01
 0.53040672837E+01 0.55267046882E+01 0.58043908091E+01 0.61459274112E+01 0.65294634816E+01
 0.63473451151E+01 0.65039524361E+01 0.65290401457E+01 0.63932164751E+01 0.61191615714E+01
 0.57741564315E+01 0.54352740177E+01 0.51548431588E+01 0.49515384125E+01 0.48244984281E+01
 0.47675332836E+01 0.47758882954E+01 0.48384464612E+01 0.49390237404E+01 0.50658385121E+01
 0.52181092388E+01 0.54028029332E+01 0.56230654358E+01 0.58670638484E+01 0.61173776221E+01
 0.61043799165E+01 0.61513710961E+01 0.61174063925E+01 0.59974756466E+01 0.58033059774E+01
 0.55642713003E+01 0.53163939382E+01 0.50892381463E+01 0.49016915472E+01 0.47675332836E+01
 0.46999087089E+01 0.47045921539E+01 0.47758684167E+01 0.48985651473E+01 0.50553947194E+01
 0.52337434713E+01 0.54263777549E+01 0.56262214452E+01 0.58203303230E+01 0.59879965288E+01
 0.61516101285E+01 0.61048406395E+01 0.59885030754E+01 0.58207020773E+01 0.56263931175E+01
 0.54263893638E+01 0.52336690205E+01 0.50553128427E+01 0.48985373067E+01 0.47758882954E+01
 0.47045921539E+01 0.46998565818E+01 0.47674792472E+01 0.49016791000E+01 0.50892168620E+01
 0.53162737998E+01 0.55640327002E+01 0.58030202773E+01 0.59972575125E+01 0.61173776221E+01
 0.65043534339E+01 0.63476064105E+01 0.61174064194E+01 0.58668622178E+01 0.56227636098E+01
 0.54025575639E+01 0.52179764359E+01 0.50657831487E+01 0.49390078541E+01 0.48384464612E+01
 0.47758684167E+01 0.47674792472E+01 0.48244527444E+01 0.49515384366E+01 0.51548562197E+01
 0.54352625470E+01 0.57741763551E+01 0.61193200129E+01 0.63935449996E+01 0.65294634816E+01
 0.71072355971E+01 0.68836211024E+01 0.65290401643E+01 0.61455657223E+01 0.58041831872E+01
 0.55267119861E+01 0.53041841759E+01 0.51375219815E+01 0.50186295444E+01 0.49390237404E+01
 0.48985651473E+01 0.49016791000E+01 0.49515384366E+01 0.50607881567E+01 0.52507670256E+01
 0.55504313609E+01 0.59666072220E+01 0.64445084629E+01 0.68674076056E+01 0.71100835551E+01
 0.76991801938E+01 0.75078926339E+01 0.71102212113E+01 0.66291661137E+01 0.61673495905E+01
 0.57854773048E+01 0.54967947241E+01 0.52803773475E+01 0.51374564445E+01 0.50658385121E+01
 0.50553947194E+01 0.50892168620E+01 0.51548562197E+01 0.52507670256E+01 0.53961555746E+01
 0.56501598883E+01 0.60686053159E+01 0.66275884074E+01 0.71952963146E+01 0.75931655776E+01
 0.80208609155E+01 0.79251881679E+01 0.75938917183E+01 0.71380184296E+01 0.66433460626E+01
 0.61736955436E+01 0.57828947469E+01 0.54965676801E+01 0.53040672837E+01 0.52181092388E+01
 0.52337434713E+01 0.53162737998E+01 0.54352625470E+01 0.55504313609E+01 0.56501598883E+01
 0.58062232851E+01 0.61321664538E+01 0.66651598234E+01 0.72908844598E+01 0.77987717469E+01
 0.80989414622E+01 0.80462951223E+01 0.77990687704E+01 0.74671309643E+01 0.70802944179E+01
 0.66347030236E+01 0.61735198365E+01 0.57851567233E+01 0.55267046882E+01 0.54028029332E+01
 0.54263777549E+01 0.55640327002E+01 0.57741763551E+01 0.59666072220E+01 0.60686053159E+01
 0.61321664538E+01 0.63183817817E+01 0.67417171639E+01 0.73283588447E+01 0.78486211467E+01
 0.82709971213E+01 0.81330686995E+01 0.78483396477E+01 0.75971865650E+01 0.73810073741E+01
 0.70805136703E+01 0.66431856834E+01 0.61671036466E+01 0.58043908091E+01 0.56230654358E+01
 0.56262214452E+01 0.58030202773E+01 0.61193200129E+01 0.64445084629E+01 0.66275884074E+01
 0.66651598234E+01 0.67417171639E+01 0.70538814437E+01 0.75835106949E+01 0.80765429376E+01
 0.88338537124E+01 0.85534549520E+01 0.80764603539E+01 0.77335257762E+01 0.75976867313E+01
 0.74674128241E+01 0.71376829875E+01 0.66289637614E+01 0.61459274112E+01 0.58670638484E+01
 0.58203303230E+01 0.59972575125E+01 0.63935449996E+01 0.68674076056E+01 0.71952963146E+01
 0.72908844598E+01 0.73283588447E+01 0.75835106949E+01 0.81178973337E+01 0.86569945952E+01
 0.96544576231E+01 0.93438563426E+01 0.86569945952E+01 0.80765429376E+01 0.78486211467E+01
 0.77987717469E+01 0.75931655776E+01 0.71100835551E+01 0.65294634816E+01 0.61173776221E+01
 0.59879965288E+01 0.61173776221E+01 0.65294634816E+01 0.71100835551E+01 0.75931655776E+01
 0.77987717469E+01 0.78486211467E+01 0.80765429376E+01 0.86569945952E+01 0.93438563426E+01
 0.93320431927E+01 0.93430197158E+01 0.88147566659E+01 0.81178972362E+01 0.76789578970E+01
 0.75809891595E+01 0.75493143107E+01 0.72911618747E+01 0.67916296295E+01 0.62820656958E+01
 0.59882310420E+01 0.59570449775E+01 0.61795145626E+01 0.66640302614E+01 0.72466977822E+01
 0.76708536006E+01 0.78362859895E+01 0.79337056158E+01 0.82547277481E+01 0.88338537124E+01
 0.93430197158E+01 0.96529969064E+01 0.93430195612E+01 0.86569943697E+01 0.80764601691E+01
 0.78483395709E+01 0.77990687898E+01 0.75938917687E+01 0.71102212333E+01 0.65290401457E+01
 0.61174063925E+01 0.59885030754E+01 0.61174064194E+01 0.65290401643E+01 0.71102212113E+01
 0.75938917183E+01 0.77990687704E+01 0.78483396477E+01 0.80764603539E+01 0.86569945952E+01
 0.88147566659E+01 0.93430195612E+01 0.93320429098E+01 0.88338534001E+01 0.82547275162E+01
 0.79337055176E+01 0.78362859983E+01 0.76708536427E+01 0.72466977973E+01 0.66640302410E+01
 0.61795145412E+01 0.59570449882E+01 0.59882310803E+01 0.62820657234E+01 0.67916296126E+01
 0.72911618229E+01 0.75493142750E+01 0.75809891911E+01 0.76789579956E+01 0.81178973337E+01
 0.81178972362E+01 0.86569943697E+01 0.88338534001E+01 0.85534546473E+01 0.80764601463E+01
 0.77335256965E+01 0.75976867402E+01 0.74674128504E+01 0.71376829833E+01 0.66289637288E+01
 0.61459273879E+01 0.58670638648E+01 0.58203303704E+01 0.59972575507E+01 0.63935449935E+01
 0.68674075594E+01 0.71952962682E+01 0.72908844518E+01 0.73283588699E+01 0.75835106949E+01
 0.76789578970E+01 0.80764601691E+01 0.82547275162E+01 0.80764601463E+01 0.76789578702E+01
 0.73283588352E+01 0.71499617565E+01 0.70349259118E+01 0.68038636726E+01 0.64177981761E+01
 0.60077969149E+01 0.57294093161E+01 0.56342962402E+01 0.57294093403E+01 0.60077969443E+01
 0.64177981884E+01 0.68038636594E+01 0.70349258866E+01 0.71499617422E+01 0.73283588447E+01
 0.75809891595E+01 0.78483395709E+01 0.79337055176E+01 0.77335256965E+01 0.73283588352E+01
 0.69246588019E+01 0.66657000657E+01 0.65182593007E+01 0.63487347272E+01 0.60858060028E+01
 0.57869076051E+01 0.55586846744E+01 0.54523451495E+01 0.54972655355E+01 0.56877823714E+01
 0.60075295948E+01 0.63975448972E+01 0.67548081830E+01 0.70349259043E+01 0.72908844598E+01
 0.75493143107E+01 0.77990687898E+01 0.78362859983E+01 0.75976867402E+01 0.71499617565E+01
 0.66657000657E+01 0.62965786784E+01 0.60686052996E+01 0.59020605671E+01 0.57210113427E+01
 0.55274053823E+01 0.53720629284E+01 0.52867326883E+01 0.53054791014E+01 0.54417167153E+01
 0.56754109782E+01 0.60046171616E+01 0.63975449178E+01 0.68038636998E+01 0.71952963146E+01
 0.72911618747E+01 0.75938917687E+01 0.76708536427E+01 0.74674128504E+01 0.70349259118E+01
 0.65182593007E+01 0.60686052996E+01 0.57545746337E+01 0.55502337100E+01 0.53987300418E+01
 0.52749975892E+01 0.51857084630E+01 0.51389878703E+01 0.51571697378E+01 0.52538057684E+01
 0.54293422773E+01 0.56754109873E+01 0.60075296162E+01 0.64177982233E+01 0.68674076056E+01
 0.67916296295E+01 0.71102212333E+01 0.72466977973E+01 0.71376829833E+01 0.68038636726E+01
 0.63487347272E+01 0.59020605671E+01 0.55502337100E+01 0.53095698433E+01 0.51548562253E+01
 0.50611366481E+01 0.50136032386E+01 0.50068850100E+01 0.50431542111E+01 0.51233591665E+01
 0.52538057731E+01 0.54417167181E+01 0.56877823704E+01 0.60077969431E+01 0.63935449996E+01
 0.62820656958E+01 0.65290401457E+01 0.66640302410E+01 0.66289637288E+01 0.64177981761E+01
 0.60858060028E+01 0.57210113427E+01 0.53987300418E+01 0.51548562253E+01 0.49924384065E+01
 0.49016915832E+01 0.48712500039E+01 0.48932440866E+01 0.49545698421E+01 0.50431542193E+01
 0.51571697440E+01 0.53054790934E+01 0.54972655084E+01 0.57294093010E+01 0.59972575125E+01
 0.59882310420E+01 0.61174063925E+01 0.61795145412E+01 0.61459273879E+01 0.60077969149E+01
 0.57869076051E+01 0.55274053823E+01 0.52749975892E+01 0.50611366481E+01 0.49016915832E+01
 0.48047945181E+01 0.47758684414E+01 0.48102714439E+01 0.48932440966E+01 0.50068850248E+01
 0.51389878779E+01 0.52867326776E+01 0.54523451175E+01 0.56342961941E+01 0.58203303230E+01
 0.59570449775E+01 0.59885030754E+01 0.59570449882E+01 0.58670638648E+01 0.57294093161E+01
 0.55586846744E+01 0.53720629284E+01 0.51857084630E+01 0.50136032386E+01 0.48712500039E+01
 0.47758684414E+01 0.47421139020E+01 0.47758684490E+01 0.48712500174E+01 0.50136032532E+01
 0.51857084740E+01 0.53720629314E+01 0.55586846671E+01 0.57294093010E+01 0.58670638484E+01
 0.61795145626E+01 0.61174064194E+01 0.59882310803E+01 0.58203303704E+01 0.56342962402E+01
 0.54523451495E+01 0.52867326883E+01 0.51389878703E+01 0.50068850100E+01 0.48932440866E+01
 0.48102714439E+01 0.47758684490E+01 0.48047945283E+01 0.49016915922E+01 0.50611366592E+01
 0.52749976067E+01 0.55274054075E+01 0.57869076350E+01 0.60077969431E+01 0.61459274112E+01
 0.66640302614E+01 0.65290401643E+01 0.62820657234E+01 0.59972575507E+01 0.57294093403E+01
 0.54972655355E+01 0.53054791014E+01 0.51571697378E+01 0.50431542111E+01 0.49545698421E+01
 0.48932440966E+01 0.48712500174E+01 0.49016915922E+01 0.49924384122E+01 0.51548562357E+01
 0.53987300665E+01 0.57210113853E+01 0.60858060548E+01 0.64177982233E+01 0.66289637614E+01
 0.72466977822E+01 0.71102212113E+01 0.67916296126E+01 0.63935449935E+01 0.60077969443E+01
 0.56877823714E+01 0.54417167153E+01 0.52538057684E+01 0.51233591665E+01 0.50431542193E+01
 0.50068850248E+01 0.50136032532E+01 0.50611366592E+01 0.51548562357E+01 0.53095698603E+01
 0.55502337414E+01 0.59020606095E+01 0.63487347690E+01 0.68038636998E+01 0.71376829875E+01
 0.76708536006E+01 0.75938917183E+01 0.72911618229E+01 0.68674075594E+01 0.64177981884E+01
 0.60075295948E+01 0.56754109782E+01 0.54293422773E+01 0.52538057731E+01 0.51571697440E+01
 0.51389878779E+01 0.51857084740E+01 0.52749976067E+01 0.53987300665E+01 0.55502337414E+01
 0.57545746652E+01 0.60686053235E+01 0.65182593115E+01 0.70349259043E+01 0.74674128241E+01
 0.78362859895E+01 0.77990687704E+01 0.75493142750E+01 0.71952962682E+01 0.68038636594E+01
 0.63975448972E+01 0.60046171616E+01 0.56754109873E+01 0.54417167181E+01 0.53054790934E+01
 0.52867326776E+01 0.53720629314E+01 0.55274054075E+01 0.57210113853E+01 0.59020606095E+01
 0.60686053235E+01 0.62965786801E+01 0.66657000527E+01 0.71499617422E+01 0.75976867313E+01
 0.79337056158E+01 0.78483396477E+01 0.75809891911E+01 0.72908844518E+01 0.70349258866E+01
 0.67548081830E+01 0.63975449178E+01 0.60075296162E+01 0.56877823704E+01 0.54972655084E+01
 0.54523451175E+01 0.55586846671E+01 0.57869076350E+01 0.60858060548E+01 0.63487347690E+01
 0.65182593115E+01 0.66657000527E+01 0.69246587965E+01 0.73283588699E+01 0.77335257762E+01
 0.82547277481E+01 0.80764603539E+01 0.76789579956E+01 0.73283588699E+01 0.71499617422E+01
 0.70349259043E+01 0.68038636998E+01 0.64177982233E+01 0.60077969431E+01 0.57294093010E+01
 0.56342961941E+01 0.57294093010E+01 0.60077969431E+01 0.64177982233E+01 0.68038636998E+01
 0.70349259043E+01 0.71499617422E+01 0.73283588699E+01 0.76789579956E+01 0.80764603539E+01
 0.88338537124E+01 0.86569945952E+01 0.81178973337E+01 0.75835106949E+01 0.73283588447E+01
 0.72908844598E+01 0.71952963146E+01 0.68674076056E+01 0.63935449996E+01 0.59972575125E+01
 0.58203303230E+01 0.58670638484E+01 0.61459274112E+01 0.66289637614E+01 0.71376829875E+01
 0.74674128241E+01 0.75976867313E+01 0.77335257762E+01 0.80764603539E+01 0.85534549520E+01
 0.85719933063E+01 0.85529162330E+01 0.81178972362E+01 0.74995115421E+01 0.70535649126E+01
 0.69241135723E+01 0.69390837846E+01 0.68276143850E+01 0.64988736688E+01 0.60945789833E+01
 0.58131314296E+01 0.57349177174E+01 0.58641704818E+01 0.62131959154E+01 0.67265145179E+01
 0.72222923967E+01 0.75438570786E+01 0.77215933189E+01 0.79337056158E+01 0.82709971213E+01
 0.85529162330E+01 0.88331759043E+01 0.86569943697E+01 0.81182213232E+01 0.75834322530E+01
 0.73282346755E+01 0.72913509782E+01 0.71958567555E+01 0.68673033312E+01 0.63932164751E+01
 0.59974756466E+01 0.58207020773E+01 0.58668622178E+01 0.61455657223E+01 0.66291661137E+01
 0.71380184296E+01 0.74671309643E+01 0.75971865650E+01 0.77335257762E+01 0.80765429376E+01
 0.81178972362E+01 0.86569943697E+01 0.88338534001E+01 0.85534546473E+01 0.80764601463E+01
 0.77335256965E+01 0.75976867402E+01 0.74674128504E+01 0.71376829833E+01 0.66289637288E+01
 0.61459273879E+01 0.58670638648E+01 0.58203303704E+01 0.59972575507E+01 0.63935449935E+01
 0.68674075594E+01 0.71952962682E+01 0.72908844518E+01 0.73283588699E+01 0.75835106949E+01
 0.74995115421E+01 0.81182213232E+01 0.85534546473E+01 0.85719673628E+01 0.82705110374E+01
 0.79336458487E+01 0.77219887380E+01 0.75438954805E+01 0.72219373660E+01 0.67265271367E+01
 0.62135723841E+01 0.58641461355E+01 0.57345148035E+01 0.58131226575E+01 0.60949235701E+01
 0.64987732915E+01 0.68271210942E+01 0.69390741459E+01 0.69246587965E+01 0.70538814437E+01
 0.70535649126E+01 0.75834322530E+01 0.80764601463E+01 0.82705110374E+01 0.81326703875E+01
 0.78486212051E+01 0.75976868203E+01 0.73810074570E+01 0.70802944608E+01 0.66433460549E+01
 0.61673495523E+01 0.58041831504E+01 0.56227635964E+01 0.56263931276E+01 0.58033059947E+01
 0.61191615822E+01 0.64443085699E+01 0.66279588597E+01 0.66657000527E+01 0.67417171639E+01
 0.69241135723E+01 0.73282346755E+01 0.77335256965E+01 0.79336458487E+01 0.78486212051E+01
 0.75816918879E+01 0.72913510916E+01 0.70348120325E+01 0.67546301656E+01 0.63976691258E+01
 0.60075647109E+01 0.56874928824E+01 0.54971159682E+01 0.54525839537E+01 0.55588347344E+01
 0.57867092410E+01 0.60857194736E+01 0.63489688712E+01 0.65182593115E+01 0.66651598234E+01
 0.69390837846E+01 0.72913509782E+01 0.75976867402E+01 0.77219887380E+01 0.75976868203E+01
 0.72913510916E+01 0.69390838722E+01 0.66275884371E+01 0.63487347533E+01 0.60615438984E+01
 0.57708067377E+01 0.55275371508E+01 0.53660162500E+01 0.53052708777E+01 0.53660162190E+01
 0.55275371167E+01 0.57708067296E+01 0.60615439183E+01 0.63487347690E+01 0.66275884074E+01
 0.68276143850E+01 0.71958567555E+01 0.74674128504E+01 0.75438954805E+01 0.73810074570E+01
 0.70348120325E+01 0.66275884371E+01 0.62617284611E+01 0.59664183207E+01 0.57209638549E+01
 0.55111003537E+01 0.53469747850E+01 0.52343838515E+01 0.51865119079E+01 0.52206184236E+01
 0.53367939111E+01 0.55194117613E+01 0.57709279061E+01 0.60858060548E+01 0.64445084629E+01
 0.64988736688E+01 0.68673033312E+01 0.71376829833E+01 0.72219373660E+01 0.70802944608E+01
 0.67546301656E+01 0.63487347533E+01 0.59664183207E+01 0.56610073104E+01 0.54352625736E+01
 0.52749976240E+01 0.51691950514E+01 0.51060867599E+01 0.50885502192E+01 0.51189589285E+01
 0.52002648297E+01 0.53369707154E+01 0.55277891463E+01 0.57869076350E+01 0.61193200129E+01
 0.60945789833E+01 0.63932164751E+01 0.66289637288E+01 0.67265271367E+01 0.66433460549E+01
 0.63976691258E+01 0.60615438984E+01 0.57209638549E+01 0.54352625736E+01 0.52255560848E+01
 0.50892382067E+01 0.50136520540E+01 0.49880896787E+01 0.50038452582E+01 0.50490773930E+01
 0.51190096766E+01 0.52207135702E+01 0.53660332597E+01 0.55586846671E+01 0.58030202773E+01
 0.58131314296E+01 0.59974756466E+01 0.61459273879E+01 0.62135723841E+01 0.61673495523E+01
 0.60075647109E+01 0.57708067377E+01 0.55111003537E+01 0.52749976240E+01 0.50892382067E+01
 0.49631080629E+01 0.48985651757E+01 0.48932440992E+01 0.49343103413E+01 0.50038198140E+01
 0.50884953787E+01 0.51864029573E+01 0.53050793625E+01 0.54523451175E+01 0.56262214452E+01
 0.57349177174E+01 0.58207020773E+01 0.58670638648E+01 0.58641461355E+01 0.58041831504E+01
 0.56874928824E+01 0.55275371508E+01 0.53469747850E+01 0.51691950514E+01 0.50136520540E+01
 0.48985651757E+01 0.48383091388E+01 0.48384464970E+01 0.48932259804E+01 0.49880260690E+01
 0.51059927389E+01 0.52343156036E+01 0.53660332597E+01 0.54972655084E+01 0.56230654358E+01
 0.58641704818E+01 0.58668622178E+01 0.58203303704E+01 0.57345148035E+01 0.56227635964E+01
 0.54971159682E+01 0.53660162500E+01 0.52343838515E+01 0.51060867599E+01 0.49880896787E+01
 0.48932440992E+01 0.48384464970E+01 0.48383055148E+01 0.48985373468E+01 0.50136032485E+01
 0.51691950314E+01 0.53471013582E+01 0.55277891463E+01 0.56877823704E+01 0.58043908091E+01
 0.62131959154E+01 0.61455657223E+01 0.59972575507E+01 0.58131226575E+01 0.56263931276E+01
 0.54525839537E+01 0.53052708777E+01 0.51865119079E+01 0.50885502192E+01 0.50038452582E+01
 0.49343103413E+01 0.48932259804E+01 0.48985373468E+01 0.49630715405E+01 0.50892168695E+01
 0.52750473385E+01 0.55112342703E+01 0.57709279061E+01 0.60075296162E+01 0.61671036466E+01
 0.67265145179E+01 0.66291661137E+01 0.63935449935E+01 0.60949235701E+01 0.58033059947E+01
 0.55588347344E+01 0.53660162190E+01 0.52206184236E+01 0.51189589285E+01 0.50490773930E+01
 0.50038198140E+01 0.49880260690E+01 0.50136032485E+01 0.50892168695E+01 0.52255412699E+01
 0.54352740532E+01 0.57210113730E+01 0.60615439183E+01 0.63975449178E+01 0.66431856834E+01
 0.72222923967E+01 0.71380184296E+01 0.68674075594E+01 0.64987732915E+01 0.61191615822E+01
 0.57867092410E+01 0.55275371167E+01 0.53367939111E+01 0.52002648297E+01 0.51190096766E+01
 0.50884953787E+01 0.51059927389E+01 0.51691950314E+01 0.52750473385E+01 0.54352740532E+01
 0.56610600029E+01 0.59666072178E+01 0.63489688712E+01 0.67548081830E+01 0.70805136703E+01
 0.75438570786E+01 0.74671309643E+01 0.71952962682E+01 0.68271210942E+01 0.64443085699E+01
 0.60857194736E+01 0.57708067296E+01 0.55194117613E+01 0.53369707154E+01 0.52207135702E+01
 0.51864029573E+01 0.52343156036E+01 0.53471013582E+01 0.55112342703E+01 0.57210113730E+01
 0.59666072178E+01 0.62621509145E+01 0.66279588597E+01 0.70349258866E+01 0.73810073741E+01
 0.77215933189E+01 0.75971865650E+01 0.72908844518E+01 0.69390741459E+01 0.66279588597E+01
 0.63489688712E+01 0.60615439183E+01 0.57709279061E+01 0.55277891463E+01 0.53660332597E+01
 0.53050793625E+01 0.53660332597E+01 0.55277891463E+01 0.57709279061E+01 0.60615439183E+01
 0.63489688712E+01 0.66279588597E+01 0.69390741459E+01 0.72908844518E+01 0.75971865650E+01
 0.79337056158E+01 0.77335257762E+01 0.73283588699E+01 0.69246587965E+01 0.66657000527E+01
 0.65182593115E+01 0.63487347690E+01 0.60858060548E+01 0.57869076350E+01 0.55586846671E+01
 0.54523451175E+01 0.54972655084E+01 0.56877823704E+01 0.60075296162E+01 0.63975449178E+01
 0.67548081830E+01 0.70349258866E+01 0.72908844518E+01 0.75809891911E+01 0.78483396477E+01
 0.82709971213E+01 0.80765429376E+01 0.75835106949E+01 0.70538814437E+01 0.67417171639E+01
 0.66651598234E+01 0.66275884074E+01 0.64445084629E+01 0.61193200129E+01 0.58030202773E+01
 0.56262214452E+01 0.56230654358E+01 0.58043908091E+01 0.61671036466E+01 0.66431856834E+01
 0.70805136703E+01 0.73810073741E+01 0.75971865650E+01 0.78483396477E+01 0.81330686995E+01
 0.82518528584E+01 0.81326703754E+01 0.76789578970E+01 0.70535649126E+01 0.65438057773E+01
 0.63183817598E+01 0.62965786549E+01 0.62621509028E+01 0.60853559700E+01 0.58187946709E+01
 0.56008820724E+01 0.55124978217E+01 0.55873255981E+01 0.58283827055E+01 0.62317770168E+01
 0.67259997772E+01 0.71852804751E+01 0.75438570786E+01 0.78362859895E+01 0.80989414622E+01
 0.81326703754E+01 0.82705110582E+01 0.80764601691E+01 0.75834322530E+01 0.70535648878E+01
 0.67417171302E+01 0.66657000279E+01 0.66279588500E+01 0.64443085658E+01 0.61191615714E+01