 vasp.5.3.5 31Mar14 (build Aug 31 2014 21:42:44) complex                        
  
 executed on             LinuxIFC date 2020.11.02  12:28:38
 running on   16 total cores
 distrk:  each k-point on   16 cores,    1 groups
 distr:  one band on NCORES_PER_BAND=   1 cores,   16 groups


--------------------------------------------------------------------------------------------------------


 INCAR:
 POTCAR:    PAW W                                 

 ----------------------------------------------------------------------------- 
|                                                                             |
|           W    W    AA    RRRRR   N    N  II  N    N   GGGG   !!!           |
|           W    W   A  A   R    R  NN   N  II  NN   N  G    G  !!!           |
|           W    W  A    A  R    R  N N  N  II  N N  N  G       !!!           |
|           W WW W  AAAAAA  RRRRR   N  N N  II  N  N N  G  GGG   !            |
|           WW  WW  A    A  R   R   N   NN  II  N   NN  G    G                |
|           W    W  A    A  R    R  N    N  II  N    N   GGGG   !!!           |
|                                                                             |
|      For optimal performance we recommend to set                            |
|        NCORE= 4 - approx SQRT( number of cores)                             |
|      NCORE specifies how many cores store one orbital (NPAR=cpu/NCORE).     |
|      This setting can  greatly improve the performance of VASP for DFT.     |
|      The default, NPAR=number of cores might be grossly inefficient         |
|      on modern multi-core architectures or massively parallel machines.     |
|      Do your own testing !!!!                                               |
|      Unfortunately you need to use the default for GW and RPA calculations. |
|      (for HF NCORE is supported but not extensively tested yet)             |
|                                                                             |
 ----------------------------------------------------------------------------- 

 POTCAR:    PAW W                                 
   VRHFIN =W: 5p6s5d                                                            
   LEXCH  = CA                                                                  
   EATOM  =   206.5370 eV,   15.1800 Ry                                         
                                                                                
   TITEL  = PAW W                                                               
   LULTRA =        F    use ultrasoft PP ?                                      
   IUNSCR =        1    unscreen: 0-lin 1-nonlin 2-no                           
   RPACOR =    2.330    partial core radius                                     
   POMASS =  183.850; ZVAL   =    6.000    mass and valenz                      
   RCORE  =    2.750    outmost cutoff radius                                   
   RWIGS  =    2.750; RWIGS  =    1.455    wigner-seitz radius (au A)           
   ENMAX  =  223.126; ENMIN  =  167.344 eV                                      
   RCLOC  =    2.147    cutoff for local pot                                    
   LCOR   =        T    correct aug charges                                     
   LPAW   =        T    paw PP                                                  
   EAUG   =  373.438                                                            
   DEXC   =    -.048                                                            
   RMAX   =    3.087    core radius for proj-oper                               
   RAUG   =    1.300    factor for augmentation sphere                          
   RDEP   =    2.886    radius for radial grids                                 
   QCUT   =   -4.050; QGAM   =    8.099    optimization parameters              
                                                                                
   Description                                                                  
     l     E      TYP  RCUT    TYP  RCUT                                        
     2   .000     23  2.500                                                     
     2   .000     23  2.500                                                     
     0   .000     23  2.500                                                     
     0   .000     23  2.500                                                     
     1   .200     23  2.750                                                     
     1  2.000     23  2.750                                                     
     3   .000      7   .000                                                     
  local pseudopotential read in
  partial core-charges read in
  atomic valenz-charges read in
  non local Contribution for L=           2  read in
    real space projection operators read in
  non local Contribution for L=           2  read in
    real space projection operators read in
  non local Contribution for L=           0  read in
    real space projection operators read in
  non local Contribution for L=           0  read in
    real space projection operators read in
  non local Contribution for L=           1  read in
    real space projection operators read in
  non local Contribution for L=           1  read in
    real space projection operators read in
    PAW grid and wavefunctions read in
 
   number of l-projection  operators is LMAX  =           6
   number of lm-projection operators is LMMAX =          18
 
  PAW W                                 :
 energy of atom  1       EATOM= -206.5370
 kinetic energy error for atom=    0.0168 (will be added to EATOM!!)
 
 
 POSCAR: BCC W Bulk                              
  positions in direct lattice
  No initial velocities read in
 exchange correlation table for  LEXCH =        2
   RHO(1)=    0.500       N(1)  =     2000
   RHO(2)=  100.500       N(2)  =     4000
 


--------------------------------------------------------------------------------------------------------


 ion  position               nearest neighbor table
   1  0.000  0.000  0.000-
 
  LATTYP: Found a body centered cubic cell.
 ALAT       =     2.7600000000
  
  Lattice vectors:
  
 A1 = (  -1.3800000000,   1.3800000000,   1.3800000000)
 A2 = (   1.3800000000,  -1.3800000000,   1.3800000000)
 A3 = (   1.3800000000,   1.3800000000,  -1.3800000000)


Analysis of symmetry for initial positions (statically):
=====================================================================
 Subroutine PRICEL returns:
 Original cell was already a primitive cell.
 

 Routine SETGRP: Setting up the symmetry group for a 
 body centered cubic supercell.


 Subroutine GETGRP returns: Found 48 space group operations
 (whereof 48 operations were pure point group operations)
 out of a pool of 48 trial point group operations.


The static configuration has the point symmetry O_h .


Analysis of symmetry for dynamics (positions and initial velocities):
=====================================================================
 Subroutine PRICEL returns:
 Original cell was already a primitive cell.
 

 Routine SETGRP: Setting up the symmetry group for a 
 body centered cubic supercell.


 Subroutine GETGRP returns: Found 48 space group operations
 (whereof 48 operations were pure point group operations)
 out of a pool of 48 trial point group operations.


The dynamic configuration has the point symmetry O_h .
 
 
 KPOINTS: 10 x10x10                               

Automatic generation of k-mesh.
Space group operators:
 irot       det(A)        alpha          n_x          n_y          n_z        tau_x        tau_y        tau_z
    1     1.000000     0.000001     1.000000     0.000000     0.000000     0.000000     0.000000     0.000000
    2    -1.000000     0.000001     1.000000     0.000000     0.000000     0.000000     0.000000     0.000000
    3     1.000000   120.000000    -0.577350    -0.577350    -0.577350     0.000000     0.000000     0.000000
    4    -1.000000   120.000000    -0.577350    -0.577350    -0.577350     0.000000     0.000000     0.000000
    5     1.000000   120.000000     0.577350     0.577350     0.577350     0.000000     0.000000     0.000000
    6    -1.000000   120.000000     0.577350     0.577350     0.577350     0.000000     0.000000     0.000000
    7     1.000000    90.000000     0.000000     0.000000    -1.000000     0.000000     0.000000     0.000000
    8    -1.000000    90.000000     0.000000     0.000000    -1.000000     0.000000     0.000000     0.000000
    9     1.000000   180.000000     0.000000     0.707107     0.707107     0.000000     0.000000     0.000000
   10    -1.000000   180.000000     0.000000     0.707107     0.707107     0.000000     0.000000     0.000000
   11     1.000000    90.000000     0.000000     1.000000     0.000000     0.000000     0.000000     0.000000
   12    -1.000000    90.000000     0.000000     1.000000     0.000000     0.000000     0.000000     0.000000
   13     1.000000   180.000000     0.000000     0.000000     1.000000     0.000000     0.000000     0.000000
   14    -1.000000   180.000000     0.000000     0.000000     1.000000     0.000000     0.000000     0.000000
   15     1.000000   120.000000    -0.577350     0.577350     0.577350     0.000000     0.000000     0.000000
   16    -1.000000   120.000000    -0.577350     0.577350     0.577350     0.000000     0.000000     0.000000
   17     1.000000   120.000000    -0.577350     0.577350    -0.577350     0.000000     0.000000     0.000000
   18    -1.000000   120.000000    -0.577350     0.577350    -0.577350     0.000000     0.000000     0.000000
   19     1.000000    90.000000     0.000000     0.000000     1.000000     0.000000     0.000000     0.000000
   20    -1.000000    90.000000     0.000000     0.000000     1.000000     0.000000     0.000000     0.000000
   21     1.000000    90.000000    -1.000000     0.000000     0.000000     0.000000     0.000000     0.000000
   22    -1.000000    90.000000    -1.000000     0.000000     0.000000     0.000000     0.000000     0.000000
   23     1.000000   180.000000     0.707107     0.000000     0.707107     0.000000     0.000000     0.000000
   24    -1.000000   180.000000     0.707107     0.000000     0.707107     0.000000     0.000000     0.000000
   25     1.000000   120.000000     0.577350    -0.577350     0.577350     0.000000     0.000000     0.000000
   26    -1.000000   120.000000     0.577350    -0.577350     0.577350     0.000000     0.000000     0.000000
   27     1.000000   120.000000    -0.577350    -0.577350     0.577350     0.000000     0.000000     0.000000
   28    -1.000000   120.000000    -0.577350    -0.577350     0.577350     0.000000     0.000000     0.000000
   29     1.000000   180.000000     1.000000     0.000000     0.000000     0.000000     0.000000     0.000000
   30    -1.000000   180.000000     1.000000     0.000000     0.000000     0.000000     0.000000     0.000000
   31     1.000000    90.000000     0.000000    -1.000000     0.000000     0.000000     0.000000     0.000000
   32    -1.000000    90.000000     0.000000    -1.000000     0.000000     0.000000     0.000000     0.000000
   33     1.000000   180.000000     0.707107     0.707107     0.000000     0.000000     0.000000     0.000000
   34    -1.000000   180.000000     0.707107     0.707107     0.000000     0.000000     0.000000     0.000000
   35     1.000000    90.000000     1.000000     0.000000     0.000000     0.000000     0.000000     0.000000
   36    -1.000000    90.000000     1.000000     0.000000     0.000000     0.000000     0.000000     0.000000
   37     1.000000   120.000000     0.577350    -0.577350    -0.577350     0.000000     0.000000     0.000000
   38    -1.000000   120.000000     0.577350    -0.577350    -0.577350     0.000000     0.000000     0.000000
   39     1.000000   180.000000     0.000000     1.000000     0.000000     0.000000     0.000000     0.000000
   40    -1.000000   180.000000     0.000000     1.000000     0.000000     0.000000     0.000000     0.000000
   41     1.000000   120.000000     0.577350     0.577350    -0.577350     0.000000     0.000000     0.000000
   42    -1.000000   120.000000     0.577350     0.577350    -0.577350     0.000000     0.000000     0.000000
   43     1.000000   180.000000     0.000000    -0.707107     0.707107     0.000000     0.000000     0.000000
   44    -1.000000   180.000000     0.000000    -0.707107     0.707107     0.000000     0.000000     0.000000
   45     1.000000   180.000000     0.707107    -0.707107     0.000000     0.000000     0.000000     0.000000
   46    -1.000000   180.000000     0.707107    -0.707107     0.000000     0.000000     0.000000     0.000000
   47     1.000000   180.000000     0.707107     0.000000    -0.707107     0.000000     0.000000     0.000000
   48    -1.000000   180.000000     0.707107     0.000000    -0.707107     0.000000     0.000000     0.000000
 
 Subroutine IBZKPT returns following result:
 ===========================================
 
 Found     56 irreducible k-points:
 
 Following reciprocal coordinates:
            Coordinates               Weight
  0.000000  0.000000  0.000000      1.000000
  0.090909  0.000000  0.000000     12.000000
  0.181818  0.000000  0.000000     12.000000
  0.272727  0.000000  0.000000     12.000000
  0.363636  0.000000  0.000000     12.000000
  0.454545  0.000000  0.000000     12.000000
  0.090909  0.090909  0.000000     24.000000
  0.181818  0.090909  0.000000     48.000000
  0.272727  0.090909  0.000000     48.000000
  0.363636  0.090909  0.000000     48.000000
  0.454545  0.090909  0.000000     24.000000
  0.181818  0.181818  0.000000     24.000000
  0.272727  0.181818  0.000000     48.000000
  0.363636  0.181818  0.000000     48.000000
  0.272727  0.272727  0.000000     24.000000
  0.363636  0.272727  0.000000     24.000000
  0.090909  0.090909  0.090909      8.000000
  0.181818  0.090909  0.090909     24.000000
  0.272727  0.090909  0.090909     24.000000
  0.363636  0.090909  0.090909     24.000000
 -0.090909  0.090909  0.090909      6.000000
  0.181818  0.181818  0.090909     24.000000
  0.272727  0.181818  0.090909     48.000000
  0.363636  0.181818  0.090909     24.000000
 -0.181818  0.181818  0.090909     24.000000
  0.272727  0.272727  0.090909     24.000000
 -0.272727  0.272727  0.090909     24.000000
 -0.181818  0.272727  0.090909     24.000000
 -0.363636  0.363636  0.090909     24.000000
 -0.272727  0.363636  0.090909     48.000000
 -0.454545  0.454545  0.090909     24.000000
 -0.363636  0.454545  0.090909     48.000000
 -0.272727  0.454545  0.090909     24.000000
 -0.454545 -0.454545  0.090909     24.000000
 -0.363636 -0.454545  0.090909     48.000000
 -0.363636 -0.363636  0.090909      8.000000
  0.181818  0.181818  0.181818      8.000000
  0.272727  0.181818  0.181818     24.000000
 -0.181818  0.181818  0.181818      6.000000
  0.272727  0.272727  0.181818      8.000000
 -0.272727  0.272727  0.181818     24.000000
 -0.363636  0.363636  0.181818     24.000000
 -0.272727  0.363636  0.181818     24.000000
 -0.454545  0.454545  0.181818     24.000000
 -0.363636  0.454545  0.181818     48.000000
 -0.454545 -0.454545  0.181818     24.000000
 -0.363636 -0.454545  0.181818     24.000000
 -0.272727  0.272727  0.272727      6.000000
 -0.363636  0.363636  0.272727     24.000000
 -0.454545  0.454545  0.272727     24.000000
 -0.363636  0.454545  0.272727     24.000000
 -0.454545 -0.454545  0.272727     24.000000
 -0.363636  0.363636  0.363636      6.000000
 -0.454545  0.454545  0.363636     24.000000
 -0.454545 -0.454545  0.363636      8.000000
 -0.454545  0.454545  0.454545      6.000000
 
 Following cartesian coordinates:
            Coordinates               Weight
  0.000000  0.000000  0.000000      1.000000
  0.000000  0.090909  0.090909     12.000000
  0.000000  0.181818  0.181818     12.000000
  0.000000  0.272727  0.272727     12.000000
  0.000000  0.363636  0.363636     12.000000
  0.000000  0.454545  0.454545     12.000000
  0.090909  0.090909  0.181818     24.000000
  0.090909  0.181818  0.272727     48.000000
  0.090909  0.272727  0.363636     48.000000
  0.090909  0.363636  0.454545     48.000000
  0.090909  0.454545  0.545455     24.000000
  0.181818  0.181818  0.363636     24.000000
  0.181818  0.272727  0.454545     48.000000
  0.181818  0.363636  0.545455     48.000000
  0.272727  0.272727  0.545455     24.000000
  0.272727  0.363636  0.636364     24.000000
  0.181818  0.181818  0.181818      8.000000
  0.181818  0.272727  0.272727     24.000000
  0.181818  0.363636  0.363636     24.000000
  0.181818  0.454545  0.454545     24.000000
  0.181818  0.000000  0.000000      6.000000
  0.272727  0.272727  0.363636     24.000000
  0.272727  0.363636  0.454545     48.000000
  0.272727  0.454545  0.545455     24.000000
  0.272727 -0.090909  0.000000     24.000000
  0.363636  0.363636  0.545455     24.000000
  0.363636 -0.181818  0.000000     24.000000
  0.363636 -0.090909  0.090909     24.000000
  0.454545 -0.272727  0.000000     24.000000
  0.454545 -0.181818  0.090909     48.000000
  0.545455 -0.363636  0.000000     24.000000
  0.545455 -0.272727  0.090909     48.000000
  0.545455 -0.181818  0.181818     24.000000
 -0.363636 -0.363636 -0.909091     24.000000
 -0.363636 -0.272727 -0.818182     48.000000
 -0.272727 -0.272727 -0.727273      8.000000
  0.363636  0.363636  0.363636      8.000000
  0.363636  0.454545  0.454545     24.000000
  0.363636  0.000000  0.000000      6.000000
  0.454545  0.454545  0.545455      8.000000
  0.454545 -0.090909  0.000000     24.000000
  0.545455 -0.181818  0.000000     24.000000
  0.545455 -0.090909  0.090909     24.000000
  0.636364 -0.272727  0.000000     24.000000
  0.636364 -0.181818  0.090909     48.000000
 -0.272727 -0.272727 -0.909091     24.000000
 -0.272727 -0.181818 -0.818182     24.000000
  0.545455  0.000000  0.000000      6.000000
  0.636364 -0.090909  0.000000     24.000000
  0.727273 -0.181818  0.000000     24.000000
  0.727273 -0.090909  0.090909     24.000000
 -0.181818 -0.181818 -0.909091     24.000000
  0.727273  0.000000  0.000000      6.000000
  0.818182 -0.090909  0.000000     24.000000
 -0.090909 -0.090909 -0.909091      8.000000
  0.909091  0.000000  0.000000      6.000000
 
 TETIRR: Found   1471 inequivalent tetrahedra from     7986


--------------------------------------------------------------------------------------------------------




 Dimension of arrays:
   k-points           NKPTS =     56   k-points in BZ     NKDIM =     56   number of bands    NBANDS=     16
   number of dos      NEDOS =    301   number of ions     NIONS =      1
   non local maximal  LDIM  =      6   non local SUM 2l+1 LMDIM =     18
   total plane-waves  NPLWV =   1000
   max r-space proj   IRMAX =      1   max aug-charges    IRDMAX=   5629
   dimension x,y,z NGX =    10 NGY =   10 NGZ =   10
   dimension x,y,z NGXF=    20 NGYF=   20 NGZF=   20
   support grid    NGXF=    20 NGYF=   20 NGZF=   20
   ions per type =               1
 NGX,Y,Z   is equivalent  to a cutoff of   6.96,  6.96,  6.96 a.u.
 NGXF,Y,Z  is equivalent  to a cutoff of  13.91, 13.91, 13.91 a.u.


 I would recommend the setting:
   dimension x,y,z NGX =    10 NGY =   10 NGZ =   10
 SYSTEM =  unknown system                          
 POSCAR =  BCC W Bulk                              

 Startparameter for this run:
   NWRITE =      2    write-flag & timer
   PREC   = normal    normal or accurate (medium, high low for compatibility)
   ISTART =      0    job   : 0-new  1-cont  2-samecut
   ICHARG =      2    charge: 1-file 2-atom 10-const
   ISPIN  =      1    spin polarized calculation?
   LNONCOLLINEAR =      F non collinear calculations
   LSORBIT =      F    spin-orbit coupling
   INIWAV =      1    electr: 0-lowe 1-rand  2-diag
   LASPH  =      F    aspherical Exc in radial PAW
   METAGGA=      F    non-selfconsistent MetaGGA calc.

 Electronic Relaxation 1
   ENCUT  =  300.0 eV  22.05 Ry    4.70 a.u.   3.38  3.38  3.38*2*pi/ulx,y,z
   ENINI  =  300.0     initial cutoff
   ENAUG  =  373.4 eV  augmentation charge cutoff
   NELM   =     60;   NELMIN=  2; NELMDL= -5     # of ELM steps 
   EDIFF  = 0.1E-05   stopping-criterion for ELM
   LREAL  =      F    real-space projection
   NLSPLINE    = F    spline interpolate recip. space projectors
   LCOMPAT=      F    compatible to vasp.4.4
   GGA_COMPAT  = T    GGA compatible to vasp.4.4-vasp.4.6
   LMAXPAW     = -100 max onsite density
   LMAXMIX     =    2 max onsite mixed and CHGCAR
   VOSKOWN=      0    Vosko Wilk Nusair interpolation
   ROPT   =    0.00000
 Ionic relaxation
   EDIFFG = 0.1E-04   stopping-criterion for IOM
   NSW    =      0    number of steps for IOM
   NBLOCK =      1;   KBLOCK =      1    inner block; outer block 
   IBRION =     -1    ionic relax: 0-MD 1-quasi-New 2-CG
   NFREE  =      0    steps in history (QN), initial steepest desc. (CG)
   ISIF   =      2    stress and relaxation
   IWAVPR =     10    prediction:  0-non 1-charg 2-wave 3-comb
   ISYM   =      2    0-nonsym 1-usesym 2-fastsym
   LCORR  =      T    Harris-Foulkes like correction to forces

   POTIM  = 0.5000    time-step for ionic-motion
   TEIN   =    0.0    initial temperature
   TEBEG  =    0.0;   TEEND  =   0.0 temperature during run
   SMASS  =  -3.00    Nose mass-parameter (am)
   estimated Nose-frequenzy (Omega)   =  0.10E-29 period in steps =****** mass=  -0.131E-27a.u.
   SCALEE = 1.0000    scale energy and forces
   NPACO  =    256;   APACO  = 16.0  distance and # of slots for P.C.
   PSTRESS=    0.0 pullay stress

  Mass of Ions in am
   POMASS = 183.85
  Ionic Valenz
   ZVAL   =   6.00
  Atomic Wigner-Seitz radii
   RWIGS  =  -1.00
  virtual crystal weights 
   VCA    =   1.00
   NELECT =       6.0000    total number of electrons
   NUPDOWN=      -1.0000    fix difference up-down

 DOS related values:
   EMIN   =  10.00;   EMAX   =-10.00  energy-range for DOS
   EFERMI =   0.00
   ISMEAR =    -5;   SIGMA  =   0.20  broadening in eV -4-tet -1-fermi 0-gaus

 Electronic relaxation 2 (details)
   IALGO  =     38    algorithm
   LDIAG  =      T    sub-space diagonalisation (order eigenvalues)
   LSUBROT=      F    optimize rotation matrix (better conditioning)
   TURBO    =      0    0=normal 1=particle mesh
   IRESTART =      0    0=no restart 2=restart with 2 vectors
   NREBOOT  =      0    no. of reboots
   NMIN     =      0    reboot dimension
   EREF     =   0.00    reference energy to select bands
   IMIX   =      4    mixing-type and parameters
     AMIX     =   0.40;   BMIX     =  1.00
     AMIX_MAG =   1.60;   BMIX_MAG =  1.00
     AMIN     =   0.10
     WC   =   100.;   INIMIX=   1;  MIXPRE=   1;  MAXMIX= -45

 Intra band minimization:
   WEIMIN = 0.0000     energy-eigenvalue tresh-hold
   EBREAK =  0.16E-07  absolut break condition
   DEPER  =   0.30     relativ break condition  

   TIME   =   0.40     timestep for ELM

  volume/ion in A,a.u.               =      10.51        70.94
  Fermi-wavevector in a.u.,A,eV,Ry     =   1.357978  2.566207 25.090573  1.844105
  Thomas-Fermi vector in A             =   2.484851
 
 Write flags
   LWAVE  =      T    write WAVECAR
   LCHARG =      T    write CHGCAR
   LVTOT  =      F    write LOCPOT, total local potential
   LVHAR  =      F    write LOCPOT, Hartree potential only
   LELF   =      F    write electronic localiz. function (ELF)
   LORBIT =      0    0 simple, 1 ext, 2 COOP (PROOUT)


 Dipole corrections
   LMONO  =      F    monopole corrections only (constant potential shift)
   LDIPOL =      F    correct potential (dipole corrections)
   IDIPOL =      0    1-x, 2-y, 3-z, 4-all directions 
   EPSILON=  1.0000000 bulk dielectric constant

 Exchange correlation treatment:
   GGA     =    --    GGA type
   LEXCH   =     2    internal setting for exchange type
   VOSKOWN=      0    Vosko Wilk Nusair interpolation
   LHFCALC =     F    Hartree Fock is set to
   LHFONE  =     F    Hartree Fock one center treatment
   AEXX    =    0.0000 exact exchange contribution

 Linear response parameters
   LEPSILON=     F    determine dielectric tensor
   LRPA    =     F    only Hartree local field effects (RPA)
   LNABLA  =     F    use nabla operator in PAW spheres
   LVEL    =     F    velocity operator in full k-point grid
   LINTERFAST=   F  fast interpolation
   KINTER  =     0    interpolate to denser k-point grid
   CSHIFT  =0.1000    complex shift for real part using Kramers Kronig
   OMEGAMAX=  -1.0    maximum frequency
   DEG_THRESHOLD= 0.2000000E-02 threshold for treating states as degnerate
   RTIME   =    0.100 relaxation time in fs

 Orbital magnetization related:
   ORBITALMAG=     F  switch on orbital magnetization
   LCHIMAG   =     F  perturbation theory with respect to B field
   DQ        =  0.001000  dq finite difference perturbation B field



--------------------------------------------------------------------------------------------------------


 Static calculation
 charge density and potential will be updated during run
 non-spin polarized calculation
 Variant of blocked Davidson
 Davidson routine will perform the subspace rotation
 perform sub-space diagonalisation
    after iterative eigenvector-optimisation
 modified Broyden-mixing scheme, WC =      100.0
 initial mixing is a Kerker type mixing with AMIX =  0.4000 and BMIX =      1.0000
 Hartree-type preconditioning will be used
 using additional bands           13
 reciprocal scheme for non local part
 use partial core corrections
 calculate Harris-corrections to forces 
   (improved forces if not selfconsistent)
 use of overlap-Matrix (Vanderbilt PP)
 Fermi weights with tetrahedron method with Bloechl corrections


--------------------------------------------------------------------------------------------------------


  energy-cutoff  :      300.00
  volume of cell :       10.51
      direct lattice vectors                 reciprocal lattice vectors
    -1.380000000  1.380000000  1.380000000     0.000000000  0.362318841  0.362318841
     1.380000000 -1.380000000  1.380000000     0.362318841  0.000000000  0.362318841
     1.380000000  1.380000000 -1.380000000     0.362318841  0.362318841  0.000000000

  length of vectors
     2.390230114  2.390230114  2.390230114     0.512396218  0.512396218  0.512396218


 
 k-points in units of 2pi/SCALE and weight: 10 x10x10                               
   0.00000000  0.00000000  0.00000000       0.001
   0.00000000  0.09090909  0.09090909       0.009
   0.00000000  0.18181818  0.18181818       0.009
   0.00000000  0.27272727  0.27272727       0.009
   0.00000000  0.36363636  0.36363636       0.009
   0.00000000  0.45454545  0.45454545       0.009
   0.09090909  0.09090909  0.18181818       0.018
   0.09090909  0.18181818  0.27272727       0.036
   0.09090909  0.27272727  0.36363636       0.036
   0.09090909  0.36363636  0.45454545       0.036
   0.09090909  0.45454545  0.54545455       0.018
   0.18181818  0.18181818  0.36363636       0.018
   0.18181818  0.27272727  0.45454545       0.036
   0.18181818  0.36363636  0.54545455       0.036
   0.27272727  0.27272727  0.54545455       0.018
   0.27272727  0.36363636  0.63636364       0.018
   0.18181818  0.18181818  0.18181818       0.006
   0.18181818  0.27272727  0.27272727       0.018
   0.18181818  0.36363636  0.36363636       0.018
   0.18181818  0.45454545  0.45454545       0.018
   0.18181818  0.00000000  0.00000000       0.005
   0.27272727  0.27272727  0.36363636       0.018
   0.27272727  0.36363636  0.45454545       0.036
   0.27272727  0.45454545  0.54545455       0.018
   0.27272727 -0.09090909  0.00000000       0.018
   0.36363636  0.36363636  0.54545455       0.018
   0.36363636 -0.18181818  0.00000000       0.018
   0.36363636 -0.09090909  0.09090909       0.018
   0.45454545 -0.27272727  0.00000000       0.018
   0.45454545 -0.18181818  0.09090909       0.036
   0.54545455 -0.36363636  0.00000000       0.018
   0.54545455 -0.27272727  0.09090909       0.036
   0.54545455 -0.18181818  0.18181818       0.018
  -0.36363636 -0.36363636 -0.90909091       0.018
  -0.36363636 -0.27272727 -0.81818182       0.036
  -0.27272727 -0.27272727 -0.72727273       0.006
   0.36363636  0.36363636  0.36363636       0.006
   0.36363636  0.45454545  0.45454545       0.018
   0.36363636  0.00000000  0.00000000       0.005
   0.45454545  0.45454545  0.54545455       0.006
   0.45454545 -0.09090909  0.00000000       0.018
   0.54545455 -0.18181818  0.00000000       0.018
   0.54545455 -0.09090909  0.09090909       0.018
   0.63636364 -0.27272727  0.00000000       0.018
   0.63636364 -0.18181818  0.09090909       0.036
  -0.27272727 -0.27272727 -0.90909091       0.018
  -0.27272727 -0.18181818 -0.81818182       0.018
   0.54545455  0.00000000  0.00000000       0.005
   0.63636364 -0.09090909  0.00000000       0.018
   0.72727273 -0.18181818  0.00000000       0.018
   0.72727273 -0.09090909  0.09090909       0.018
  -0.18181818 -0.18181818 -0.90909091       0.018
   0.72727273  0.00000000  0.00000000       0.005
   0.81818182 -0.09090909  0.00000000       0.018
  -0.09090909 -0.09090909 -0.90909091       0.006
   0.90909091  0.00000000  0.00000000       0.005
 
 k-points in reciprocal lattice and weights: 10 x10x10                               
   0.00000000  0.00000000  0.00000000       0.001
   0.09090909  0.00000000  0.00000000       0.009
   0.18181818  0.00000000  0.00000000       0.009
   0.27272727  0.00000000  0.00000000       0.009
   0.36363636  0.00000000  0.00000000       0.009
   0.45454545  0.00000000  0.00000000       0.009
   0.09090909  0.09090909  0.00000000       0.018
   0.18181818  0.09090909  0.00000000       0.036
   0.27272727  0.09090909  0.00000000       0.036
   0.36363636  0.09090909  0.00000000       0.036
   0.45454545  0.09090909  0.00000000       0.018
   0.18181818  0.18181818  0.00000000       0.018
   0.27272727  0.18181818  0.00000000       0.036
   0.36363636  0.18181818  0.00000000       0.036
   0.27272727  0.27272727  0.00000000       0.018
   0.36363636  0.27272727  0.00000000       0.018
   0.09090909  0.09090909  0.09090909       0.006
   0.18181818  0.09090909  0.09090909       0.018
   0.27272727  0.09090909  0.09090909       0.018
   0.36363636  0.09090909  0.09090909       0.018
  -0.09090909  0.09090909  0.09090909       0.005
   0.18181818  0.18181818  0.09090909       0.018
   0.27272727  0.18181818  0.09090909       0.036
   0.36363636  0.18181818  0.09090909       0.018
  -0.18181818  0.18181818  0.09090909       0.018
   0.27272727  0.27272727  0.09090909       0.018
  -0.27272727  0.27272727  0.09090909       0.018
  -0.18181818  0.27272727  0.09090909       0.018
  -0.36363636  0.36363636  0.09090909       0.018
  -0.27272727  0.36363636  0.09090909       0.036
  -0.45454545  0.45454545  0.09090909       0.018
  -0.36363636  0.45454545  0.09090909       0.036
  -0.27272727  0.45454545  0.09090909       0.018
  -0.45454545 -0.45454545  0.09090909       0.018
  -0.36363636 -0.45454545  0.09090909       0.036
  -0.36363636 -0.36363636  0.09090909       0.006
   0.18181818  0.18181818  0.18181818       0.006
   0.27272727  0.18181818  0.18181818       0.018
  -0.18181818  0.18181818  0.18181818       0.005
   0.27272727  0.27272727  0.18181818       0.006
  -0.27272727  0.27272727  0.18181818       0.018
  -0.36363636  0.36363636  0.18181818       0.018
  -0.27272727  0.36363636  0.18181818       0.018
  -0.45454545  0.45454545  0.18181818       0.018
  -0.36363636  0.45454545  0.18181818       0.036
  -0.45454545 -0.45454545  0.18181818       0.018
  -0.36363636 -0.45454545  0.18181818       0.018
  -0.27272727  0.27272727  0.27272727       0.005
  -0.36363636  0.36363636  0.27272727       0.018
  -0.45454545  0.45454545  0.27272727       0.018
  -0.36363636  0.45454545  0.27272727       0.018
  -0.45454545 -0.45454545  0.27272727       0.018
  -0.36363636  0.36363636  0.36363636       0.005
  -0.45454545  0.45454545  0.36363636       0.018
  -0.45454545 -0.45454545  0.36363636       0.006
  -0.45454545  0.45454545  0.45454545       0.005
 
 position of ions in fractional coordinates (direct lattice) 
   0.00000000  0.00000000  0.00000000
 
 position of ions in cartesian coordinates  (Angst):
   0.00000000  0.00000000  0.00000000
 


--------------------------------------------------------------------------------------------------------


 k-point  1 :   0.0000 0.0000 0.0000  plane waves:     135
 k-point  2 :   0.0909 0.0000 0.0000  plane waves:     135
 k-point  3 :   0.1818 0.0000 0.0000  plane waves:     129
 k-point  4 :   0.2727 0.0000 0.0000  plane waves:     122
 k-point  5 :   0.3636 0.0000 0.0000  plane waves:     126
 k-point  6 :   0.4545 0.0000 0.0000  plane waves:     118
 k-point  7 :   0.0909 0.0909 0.0000  plane waves:     128
 k-point  8 :   0.1818 0.0909 0.0000  plane waves:     124
 k-point  9 :   0.2727 0.0909 0.0000  plane waves:     124
 k-point 10 :   0.3636 0.0909 0.0000  plane waves:     121
 k-point 11 :   0.4545 0.0909 0.0000  plane waves:     122
 k-point 12 :   0.1818 0.1818 0.0000  plane waves:     123
 k-point 13 :   0.2727 0.1818 0.0000  plane waves:     123
 k-point 14 :   0.3636 0.1818 0.0000  plane waves:     128
 k-point 15 :   0.2727 0.2727 0.0000  plane waves:     128
 k-point 16 :   0.3636 0.2727 0.0000  plane waves:     128
 k-point 17 :   0.0909 0.0909 0.0909  plane waves:     126
 k-point 18 :   0.1818 0.0909 0.0909  plane waves:     127
 k-point 19 :   0.2727 0.0909 0.0909  plane waves:     126
 k-point 20 :   0.3636 0.0909 0.0909  plane waves:     126
 k-point 21 :  -0.0909 0.0909 0.0909  plane waves:     136
 k-point 22 :   0.1818 0.1818 0.0909  plane waves:     127
 k-point 23 :   0.2727 0.1818 0.0909  plane waves:     127
 k-point 24 :   0.3636 0.1818 0.0909  plane waves:     127
 k-point 25 :  -0.1818 0.1818 0.0909  plane waves:     124
 k-point 26 :   0.2727 0.2727 0.0909  plane waves:     125
 k-point 27 :  -0.2727 0.2727 0.0909  plane waves:     122
 k-point 28 :  -0.1818 0.2727 0.0909  plane waves:     121
 k-point 29 :  -0.3636 0.3636 0.0909  plane waves:     126
 k-point 30 :  -0.2727 0.3636 0.0909  plane waves:     126
 k-point 31 :  -0.4545 0.4545 0.0909  plane waves:     125
 k-point 32 :  -0.3636 0.4545 0.0909  plane waves:     124
 k-point 33 :  -0.2727 0.4545 0.0909  plane waves:     125
 k-point 34 :  -0.4545-0.4545 0.0909  plane waves:     126
 k-point 35 :  -0.3636-0.4545 0.0909  plane waves:     123
 k-point 36 :  -0.3636-0.3636 0.0909  plane waves:     119
 k-point 37 :   0.1818 0.1818 0.1818  plane waves:     125
 k-point 38 :   0.2727 0.1818 0.1818  plane waves:     131
 k-point 39 :  -0.1818 0.1818 0.1818  plane waves:     120
 k-point 40 :   0.2727 0.2727 0.1818  plane waves:     134
 k-point 41 :  -0.2727 0.2727 0.1818  plane waves:     121
 k-point 42 :  -0.3636 0.3636 0.1818  plane waves:     122
 k-point 43 :  -0.2727 0.3636 0.1818  plane waves:     119
 k-point 44 :  -0.4545 0.4545 0.1818  plane waves:     125
 k-point 45 :  -0.3636 0.4545 0.1818  plane waves:     123
 k-point 46 :  -0.4545-0.4545 0.1818  plane waves:     125
 k-point 47 :  -0.3636-0.4545 0.1818  plane waves:     119
 k-point 48 :  -0.2727 0.2727 0.2727  plane waves:     120
 k-point 49 :  -0.3636 0.3636 0.2727  plane waves:     121
 k-point 50 :  -0.4545 0.4545 0.2727  plane waves:     122
 k-point 51 :  -0.3636 0.4545 0.2727  plane waves:     123
 k-point 52 :  -0.4545-0.4545 0.2727  plane waves:     119
 k-point 53 :  -0.3636 0.3636 0.3636  plane waves:     120
 k-point 54 :  -0.4545 0.4545 0.3636  plane waves:     116
 k-point 55 :  -0.4545-0.4545 0.3636  plane waves:     116
 k-point 56 :  -0.4545 0.4545 0.4545  plane waves:     116

 maximum and minimum number of plane-waves per node :       136      116

 maximum number of plane-waves:       136
 maximum index in each direction: 
   IXMAX=    3   IYMAX=    3   IZMAX=    3
   IXMIN=   -3   IYMIN=   -3   IZMIN=   -3

 WARNING: aliasing errors must be expected set NGX to  14 to avoid them
 WARNING: aliasing errors must be expected set NGY to  14 to avoid them
 WARNING: aliasing errors must be expected set NGZ to  14 to avoid them
 aliasing errors are usually negligible using standard VASP settings
 and one can safely disregard these warnings

 serial   3D FFT for wavefunctions
 parallel 3D FFT for charge:
    minimum data exchange during FFTs selected (reduces bandwidth)


 total amount of memory used by VASP on root node    31486. kBytes
========================================================================

   base      :      30000. kBytes
   nonl-proj :       1163. kBytes
   fftplans  :         55. kBytes
   grid      :         96. kBytes
   one-center:         15. kBytes
   wavefun   :        157. kBytes
 
     INWAV:  cpu time    0.00: real time    0.00
 Broyden mixing: mesh for mixing (old mesh)
   NGX =  7   NGY =  7   NGZ =  7
  (NGX  = 20   NGY  = 20   NGZ  = 20)
  gives a total of    343 points

 initial charge density was supplied:
 charge density of overlapping atoms calculated
 number of electron       6.0000000 magnetization 
 keeping initial charge density in first step


--------------------------------------------------------------------------------------------------------


 Maximum index for augmentation-charges          616 (set IRDMAX)


--------------------------------------------------------------------------------------------------------


 First call to EWALD:  gamma=   0.809
 Maximum number of real-space cells 3x 3x 3
 Maximum number of reciprocal cells 3x 3x 3

 FEWALD executed in parallel
    FEWALD:  cpu time    0.00: real time    0.00


----------------------------------------- Iteration    1(   1)  ---------------------------------------


    POTLOK:  cpu time    0.00: real time    0.00
    SETDIJ:  cpu time    0.00: real time    0.00
     EDDAV:  cpu time    0.34: real time    0.34
 BZINTS: Fermi energy: 14.046329;  6.000000 electrons
         Band energy:  51.080038;  BLOECHL correction: -0.150054
       DOS:  cpu time    0.04: real time    0.04
    --------------------------------------------
      LOOP:  cpu time    0.39: real time    0.39

 eigenvalue-minimisations  :  2416
 total energy-change (2. order) :-0.8979039E+01  (-0.2432826E+03)
 number of electron       6.0000000 magnetization 
 augmentation part        6.0000000 magnetization 

 Free energy of the ion-electron system (eV)
  ---------------------------------------------------
  alpha Z        PSCENC =        66.40147416
  Ewald energy   TEWEN  =      -341.76643772
  -Hartree energ DENC   =        -2.24148473
  -exchange      EXHF   =         0.00000000
  -V(xc)+E(xc)   XCENC  =       -46.69906065
  PAW double counting   =       183.53490256     -125.80866524
  entropy T*S    EENTRO =         0.00000000
  eigenvalues    EBANDS =        51.08003778
  atomic energy  EATOM  =       206.52019513
  ---------------------------------------------------
  free energy    TOTEN  =        -8.97903870 eV

  energy without entropy =       -8.97903870  energy(sigma->0) =       -8.97903870


--------------------------------------------------------------------------------------------------------




----------------------------------------- Iteration    1(   2)  ---------------------------------------


     EDDAV:  cpu time    0.30: real time    0.30
 BZINTS: Fermi energy: 13.414652;  6.000000 electrons
         Band energy:  48.177768;  BLOECHL correction: -0.141970
       DOS:  cpu time    0.04: real time    0.04
    --------------------------------------------
      LOOP:  cpu time    0.34: real time    0.34

 eigenvalue-minimisations  :  2160
 total energy-change (2. order) :-0.2902270E+01  (-0.2878510E+01)
 number of electron       6.0000000 magnetization 
 augmentation part        6.0000000 magnetization 

 Free energy of the ion-electron system (eV)
  ---------------------------------------------------
  alpha Z        PSCENC =        66.40147416
  Ewald energy   TEWEN  =      -341.76643772
  -Hartree energ DENC   =        -2.24148473
  -exchange      EXHF   =         0.00000000
  -V(xc)+E(xc)   XCENC  =       -46.69906065
  PAW double counting   =       183.53490256     -125.80866524
  entropy T*S    EENTRO =         0.00000000
  eigenvalues    EBANDS =        48.17776777
  atomic energy  EATOM  =       206.52019513
  ---------------------------------------------------
  free energy    TOTEN  =       -11.88130871 eV

  energy without entropy =      -11.88130871  energy(sigma->0) =      -11.88130871


--------------------------------------------------------------------------------------------------------




----------------------------------------- Iteration    1(   3)  ---------------------------------------


     EDDAV:  cpu time    0.41: real time    0.42
 BZINTS: Fermi energy: 13.414182;  6.000000 electrons
         Band energy:  48.175723;  BLOECHL correction: -0.141966
       DOS:  cpu time    0.04: real time    0.04
    --------------------------------------------
      LOOP:  cpu time    0.46: real time    0.46

 eigenvalue-minimisations  :  2592
 total energy-change (2. order) :-0.2044463E-02  (-0.2038633E-02)
 number of electron       6.0000000 magnetization 
 augmentation part        6.0000000 magnetization 

 Free energy of the ion-electron system (eV)
  ---------------------------------------------------
  alpha Z        PSCENC =        66.40147416
  Ewald energy   TEWEN  =      -341.76643772
  -Hartree energ DENC   =        -2.24148473
  -exchange      EXHF   =         0.00000000
  -V(xc)+E(xc)   XCENC  =       -46.69906065
  PAW double counting   =       183.53490256     -125.80866524
  entropy T*S    EENTRO =         0.00000000
  eigenvalues    EBANDS =        48.17572331
  atomic energy  EATOM  =       206.52019513
  ---------------------------------------------------
  free energy    TOTEN  =       -11.88335318 eV

  energy without entropy =      -11.88335318  energy(sigma->0) =      -11.88335318


--------------------------------------------------------------------------------------------------------




----------------------------------------- Iteration    1(   4)  ---------------------------------------


     EDDAV:  cpu time    0.29: real time    0.29
 BZINTS: Fermi energy: 13.414182;  6.000000 electrons
         Band energy:  48.175723;  BLOECHL correction: -0.141966
       DOS:  cpu time    0.04: real time    0.04
    --------------------------------------------
      LOOP:  cpu time    0.34: real time    0.34

 eigenvalue-minimisations  :  2128
 total energy-change (2. order) :-0.1188073E-07  (-0.1192872E-07)
 number of electron       6.0000000 magnetization 
 augmentation part        6.0000000 magnetization 

 Free energy of the ion-electron system (eV)
  ---------------------------------------------------
  alpha Z        PSCENC =        66.40147416
  Ewald energy   TEWEN  =      -341.76643772
  -Hartree energ DENC   =        -2.24148473
  -exchange      EXHF   =         0.00000000
  -V(xc)+E(xc)   XCENC  =       -46.69906065
  PAW double counting   =       183.53490256     -125.80866524
  entropy T*S    EENTRO =         0.00000000
  eigenvalues    EBANDS =        48.17572329
  atomic energy  EATOM  =       206.52019513
  ---------------------------------------------------
  free energy    TOTEN  =       -11.88335319 eV

  energy without entropy =      -11.88335319  energy(sigma->0) =      -11.88335319


--------------------------------------------------------------------------------------------------------




----------------------------------------- Iteration    1(   5)  ---------------------------------------


     EDDAV:  cpu time    0.40: real time    0.40
 BZINTS: Fermi energy: 13.414182;  6.000000 electrons
         Band energy:  48.175723;  BLOECHL correction: -0.141966
       DOS:  cpu time    0.04: real time    0.04
    CHARGE:  cpu time    0.00: real time    0.00
    MIXING:  cpu time    0.00: real time    0.00
    --------------------------------------------
      LOOP:  cpu time    0.45: real time    0.45

 eigenvalue-minimisations  :  2560
 total energy-change (2. order) : 0.9240466E-09  (-0.5698615E-12)
 number of electron       6.0000012 magnetization 
 augmentation part        0.7453347 magnetization 

 Broyden mixing:
  rms(total) = 0.30022E+00    rms(broyden)= 0.30021E+00
  rms(prec ) = 0.12282E+01
  weight for this iteration     100.00

 Free energy of the ion-electron system (eV)
  ---------------------------------------------------
  alpha Z        PSCENC =        66.40147416
  Ewald energy   TEWEN  =      -341.76643772
  -Hartree energ DENC   =        -2.24148473
  -exchange      EXHF   =         0.00000000
  -V(xc)+E(xc)   XCENC  =       -46.69906065
  PAW double counting   =       183.53490256     -125.80866524
  entropy T*S    EENTRO =         0.00000000
  eigenvalues    EBANDS =        48.17572329
  atomic energy  EATOM  =       206.52019513
  ---------------------------------------------------
  free energy    TOTEN  =       -11.88335319 eV

  energy without entropy =      -11.88335319  energy(sigma->0) =      -11.88335319


--------------------------------------------------------------------------------------------------------




----------------------------------------- Iteration    1(   6)  ---------------------------------------


    POTLOK:  cpu time    0.00: real time    0.00
    SETDIJ:  cpu time    0.00: real time    0.00
     EDDAV:  cpu time    0.37: real time    0.38
 BZINTS: Fermi energy: 13.506673;  6.000000 electrons
         Band energy:  48.928926;  BLOECHL correction: -0.149192
       DOS:  cpu time    0.04: real time    0.04
    CHARGE:  cpu time    0.00: real time    0.00
    MIXING:  cpu time    0.00: real time    0.00
    --------------------------------------------
      LOOP:  cpu time    0.42: real time    0.42

 eigenvalue-minimisations  :  2512
 total energy-change (2. order) : 0.4536104E+00  (-0.7215478E-02)
 number of electron       6.0000012 magnetization 
 augmentation part        0.7605133 magnetization 

 Broyden mixing:
  rms(total) = 0.17016E+00    rms(broyden)= 0.17016E+00
  rms(prec ) = 0.69109E+00
  weight for this iteration     100.00

 eigenvalues of (default mixing * dielectric matrix)
  average eigenvalue GAMMA=   2.3061
  2.3061

 Free energy of the ion-electron system (eV)
  ---------------------------------------------------
  alpha Z        PSCENC =        66.40147416
  Ewald energy   TEWEN  =      -341.76643772
  -Hartree energ DENC   =        -1.46480395
  -exchange      EXHF   =         0.00000000
  -V(xc)+E(xc)   XCENC  =       -46.54307121
  PAW double counting   =       248.94010953     -192.44613479
  entropy T*S    EENTRO =         0.00000000
  eigenvalues    EBANDS =        48.92892602
  atomic energy  EATOM  =       206.52019513
  ---------------------------------------------------
  free energy    TOTEN  =       -11.42974283 eV

  energy without entropy =      -11.42974283  energy(sigma->0) =      -11.42974283


--------------------------------------------------------------------------------------------------------




----------------------------------------- Iteration    1(   7)  ---------------------------------------


    POTLOK:  cpu time    0.00: real time    0.00
    SETDIJ:  cpu time    0.00: real time    0.00
     EDDAV:  cpu time    0.36: real time    0.36
 BZINTS: Fermi energy: 13.626179;  6.000000 electrons
         Band energy:  49.895305;  BLOECHL correction: -0.160639
       DOS:  cpu time    0.04: real time    0.04
    CHARGE:  cpu time    0.00: real time    0.00
    MIXING:  cpu time    0.00: real time    0.00
    --------------------------------------------
      LOOP:  cpu time    0.40: real time    0.41

 eigenvalue-minimisations  :  2432
 total energy-change (2. order) : 0.2266291E+00  (-0.1303519E-01)
 number of electron       6.0000012 magnetization 
 augmentation part        0.7815930 magnetization 

 Broyden mixing:
  rms(total) = 0.84031E-02    rms(broyden)= 0.83729E-02
  rms(prec ) = 0.22278E-01
  weight for this iteration     100.00

 eigenvalues of (default mixing * dielectric matrix)
  average eigenvalue GAMMA=   2.8673
  2.3602  3.3744

 Free energy of the ion-electron system (eV)
  ---------------------------------------------------
  alpha Z        PSCENC =        66.40147416
  Ewald energy   TEWEN  =      -341.76643772
  -Hartree energ DENC   =        -0.72674051
  -exchange      EXHF   =         0.00000000
  -V(xc)+E(xc)   XCENC  =       -46.30012795
  PAW double counting   =       365.45757435     -310.68435662
  entropy T*S    EENTRO =         0.00000000
  eigenvalues    EBANDS =        49.89530540
  atomic energy  EATOM  =       206.52019513
  ---------------------------------------------------
  free energy    TOTEN  =       -11.20311375 eV

  energy without entropy =      -11.20311375  energy(sigma->0) =      -11.20311375


--------------------------------------------------------------------------------------------------------




----------------------------------------- Iteration    1(   8)  ---------------------------------------


    POTLOK:  cpu time    0.00: real time    0.00
    SETDIJ:  cpu time    0.00: real time    0.00
     EDDAV:  cpu time    0.27: real time    0.27
 BZINTS: Fermi energy: 13.632657;  6.000000 electrons
         Band energy:  49.928266;  BLOECHL correction: -0.161167
       DOS:  cpu time    0.04: real time    0.04
    CHARGE:  cpu time    0.00: real time    0.00
    MIXING:  cpu time    0.00: real time    0.00
    --------------------------------------------
      LOOP:  cpu time    0.32: real time    0.33

 eigenvalue-minimisations  :  2048
 total energy-change (2. order) :-0.4765125E-03  (-0.5230842E-04)
 number of electron       6.0000012 magnetization 
 augmentation part        0.7826054 magnetization 

 Broyden mixing:
  rms(total) = 0.30643E-02    rms(broyden)= 0.30617E-02
  rms(prec ) = 0.71354E-02
  weight for this iteration     100.00

 eigenvalues of (default mixing * dielectric matrix)
  average eigenvalue GAMMA=   1.9455
  0.9477  2.4445  2.4445

 Free energy of the ion-electron system (eV)
  ---------------------------------------------------
  alpha Z        PSCENC =        66.40147416
  Ewald energy   TEWEN  =      -341.76643772
  -Hartree energ DENC   =        -0.74202877
  -exchange      EXHF   =         0.00000000
  -V(xc)+E(xc)   XCENC  =       -46.30360000
  PAW double counting   =       373.94069016     -319.18214947
  entropy T*S    EENTRO =         0.00000000
  eigenvalues    EBANDS =        49.92826624
  atomic energy  EATOM  =       206.52019513
  ---------------------------------------------------
  free energy    TOTEN  =       -11.20359026 eV

  energy without entropy =      -11.20359026  energy(sigma->0) =      -11.20359026


--------------------------------------------------------------------------------------------------------




----------------------------------------- Iteration    1(   9)  ---------------------------------------


    POTLOK:  cpu time    0.00: real time    0.00
    SETDIJ:  cpu time    0.00: real time    0.00
     EDDAV:  cpu time    0.40: real time    0.40
 BZINTS: Fermi energy: 13.636421;  6.000000 electrons
         Band energy:  49.949935;  BLOECHL correction: -0.161501
       DOS:  cpu time    0.04: real time    0.04
    CHARGE:  cpu time    0.00: real time    0.00
    MIXING:  cpu time    0.00: real time    0.00
    --------------------------------------------
      LOOP:  cpu time    0.44: real time    0.44

 eigenvalue-minimisations  :  2672
 total energy-change (2. order) :-0.2474592E-03  (-0.1604286E-04)
 number of electron       6.0000012 magnetization 
 augmentation part        0.7832740 magnetization 

 Broyden mixing:
  rms(total) = 0.49592E-03    rms(broyden)= 0.49544E-03
  rms(prec ) = 0.12723E-02
  weight for this iteration     100.00

 eigenvalues of (default mixing * dielectric matrix)
  average eigenvalue GAMMA=   2.1193
  0.9934  2.5464  2.5464  2.3910

 Free energy of the ion-electron system (eV)
  ---------------------------------------------------
  alpha Z        PSCENC =        66.40147416
  Ewald energy   TEWEN  =      -341.76643772
  -Hartree energ DENC   =        -0.74574689
  -exchange      EXHF   =         0.00000000
  -V(xc)+E(xc)   XCENC  =       -46.30355320
  PAW double counting   =       379.34340730     -324.60311199
  entropy T*S    EENTRO =         0.00000000
  eigenvalues    EBANDS =        49.94993548
  atomic energy  EATOM  =       206.52019513
  ---------------------------------------------------
  free energy    TOTEN  =       -11.20383772 eV

  energy without entropy =      -11.20383772  energy(sigma->0) =      -11.20383772


--------------------------------------------------------------------------------------------------------




----------------------------------------- Iteration    1(  10)  ---------------------------------------


    POTLOK:  cpu time    0.00: real time    0.00
    SETDIJ:  cpu time    0.00: real time    0.00
     EDDAV:  cpu time    0.27: real time    0.27
 BZINTS: Fermi energy: 13.636237;  6.000000 electrons
         Band energy:  49.949083;  BLOECHL correction: -0.161542
       DOS:  cpu time    0.04: real time    0.04
    CHARGE:  cpu time    0.00: real time    0.00
    MIXING:  cpu time    0.00: real time    0.00
    --------------------------------------------
      LOOP:  cpu time    0.32: real time    0.32

 eigenvalue-minimisations  :  2032
 total energy-change (2. order) :-0.3482619E-04  (-0.1985366E-06)
 number of electron       6.0000012 magnetization 
 augmentation part        0.7833627 magnetization 

 Broyden mixing:
  rms(total) = 0.16951E-04    rms(broyden)= 0.16457E-04
  rms(prec ) = 0.21001E-04
  weight for this iteration     100.00

 eigenvalues of (default mixing * dielectric matrix)
  average eigenvalue GAMMA=   1.8895
  2.5273  2.5273  2.3849  1.0040  1.0040

 Free energy of the ion-electron system (eV)
  ---------------------------------------------------
  alpha Z        PSCENC =        66.40147416
  Ewald energy   TEWEN  =      -341.76643772
  -Hartree energ DENC   =        -0.74643331
  -exchange      EXHF   =         0.00000000
  -V(xc)+E(xc)   XCENC  =       -46.30371155
  PAW double counting   =       380.15466024     -325.41270238
  entropy T*S    EENTRO =         0.00000000
  eigenvalues    EBANDS =        49.94908289
  atomic energy  EATOM  =       206.52019513
  ---------------------------------------------------
  free energy    TOTEN  =       -11.20387255 eV

  energy without entropy =      -11.20387255  energy(sigma->0) =      -11.20387255


--------------------------------------------------------------------------------------------------------




----------------------------------------- Iteration    1(  11)  ---------------------------------------


    POTLOK:  cpu time    0.00: real time    0.00
    SETDIJ:  cpu time    0.00: real time    0.00
     EDDAV:  cpu time    0.11: real time    0.11
 BZINTS: Fermi energy: 13.636257;  6.000000 electrons
         Band energy:  49.949164;  BLOECHL correction: -0.161540
       DOS:  cpu time    0.04: real time    0.04
    CHARGE:  cpu time    0.01: real time    0.00
    MIXING:  cpu time    0.00: real time    0.00
    --------------------------------------------
      LOOP:  cpu time    0.16: real time    0.17

 eigenvalue-minimisations  :   928
 total energy-change (2. order) : 0.1361763E-05  (-0.1007626E-08)
 number of electron       6.0000012 magnetization 
 augmentation part        0.7833582 magnetization 

 Broyden mixing:
  rms(total) = 0.84278E-05    rms(broyden)= 0.83831E-05
  rms(prec ) = 0.13708E-04
  weight for this iteration     100.00

 eigenvalues of (default mixing * dielectric matrix)
  average eigenvalue GAMMA=   1.9496
  0.9948  0.9864  2.5892  2.4538  2.4538  2.2194

 Free energy of the ion-electron system (eV)
  ---------------------------------------------------
  alpha Z        PSCENC =        66.40147416
  Ewald energy   TEWEN  =      -341.76643772
  -Hartree energ DENC   =        -0.74642575
  -exchange      EXHF   =         0.00000000
  -V(xc)+E(xc)   XCENC  =       -46.30371099
  PAW double counting   =       380.13140869     -325.38953854
  entropy T*S    EENTRO =         0.00000000
  eigenvalues    EBANDS =        49.94916382
  atomic energy  EATOM  =       206.52019513
  ---------------------------------------------------
  free energy    TOTEN  =       -11.20387118 eV

  energy without entropy =      -11.20387118  energy(sigma->0) =      -11.20387118


--------------------------------------------------------------------------------------------------------




----------------------------------------- Iteration    1(  12)  ---------------------------------------


    POTLOK:  cpu time    0.00: real time    0.00
    SETDIJ:  cpu time    0.00: real time    0.00
     EDDAV:  cpu time    0.11: real time    0.11
 BZINTS: Fermi energy: 13.636288;  6.000000 electrons
         Band energy:  49.949314;  BLOECHL correction: -0.161539
       DOS:  cpu time    0.04: real time    0.04
    --------------------------------------------
      LOOP:  cpu time    0.15: real time    0.16

 eigenvalue-minimisations  :   896
 total energy-change (2. order) : 0.8778777E-06  (-0.2449837E-09)
 number of electron       6.0000012 magnetization 
 augmentation part        0.7833582 magnetization 

 Free energy of the ion-electron system (eV)
  ---------------------------------------------------
  alpha Z        PSCENC =        66.40147416
  Ewald energy   TEWEN  =      -341.76643772
  -Hartree energ DENC   =        -0.74640335
  -exchange      EXHF   =         0.00000000
  -V(xc)+E(xc)   XCENC  =       -46.30370209
  PAW double counting   =       380.11844328     -325.37675422
  entropy T*S    EENTRO =         0.00000000
  eigenvalues    EBANDS =        49.94931450
  atomic energy  EATOM  =       206.52019513
  ---------------------------------------------------
  free energy    TOTEN  =       -11.20387031 eV

  energy without entropy =      -11.20387031  energy(sigma->0) =      -11.20387031


--------------------------------------------------------------------------------------------------------




 average (electrostatic) potential at core
  the test charge radii are     1.1823
  (the norm of the test charge is              1.0000)
       1 -31.6812
 
 
 
 E-fermi :  13.6363     XC(G=0): -15.4229     alpha+bet :-22.1909


 k-point     1 :       0.0000    0.0000    0.0000
  band No.  band energies     occupation 
      1       1.8653      2.00000
      2      10.9814      2.00000
      3      10.9814      2.00000
      4      10.9814      2.00000
      5      16.4006      0.00000
      6      16.4006      0.00000
      7      29.7071      0.00000
      8      29.7071      0.00000
      9      29.7071      0.00000
     10      45.6629      0.00000
     11      48.3404      0.00000
     12      48.3405      0.00000
     13      48.3405      0.00000
     14      48.9720      0.00000
     15      48.9720      0.00000
     16      56.1639      0.00000

 k-point     2 :       0.0909    0.0000    0.0000
  band No.  band energies     occupation 
      1       2.5172      2.00000
      2      10.5466      2.00000
      3      10.8798      2.00000
      4      11.6642      2.04172
      5      15.6980     -0.02298
      6      16.3875      0.00000
      7      30.3460      0.00000
      8      30.7731      0.00000
      9      31.6496      0.00000
     10      45.2698      0.00000
     11      45.5695      0.00000
     12      47.2606      0.00000
     13      48.3512      0.00000
     14      48.5030      0.00000
     15      48.6096      0.00000
     16      55.4912      0.00000

 k-point     3 :       0.1818    0.0000    0.0000
  band No.  band energies     occupation 
      1       4.0276      2.00000
      2       9.5248      2.00000
      3      10.5215      2.00000
      4      13.6400      0.95323
      5      15.1637     -0.01709
      6      16.4702      0.00000
      7      31.6523      0.00000
      8      33.6819      0.00000
      9      35.6576      0.00000
     10      41.1472      0.00000
     11      43.8818      0.00000
     12      45.9689      0.00000
     13      48.3495      0.00000
     14      48.4868      0.00000
     15      48.6712      0.00000
     16      55.2044      0.00000

 k-point     4 :       0.2727    0.0000    0.0000
  band No.  band energies     occupation 
      1       4.8243      2.00000
      2       8.4071      2.00000
      3      11.2102      2.00330
      4      15.8143     -0.07942
      5      16.6899     -0.00229
      6      16.8503      0.00000
      7      31.2234      0.00000
      8      36.5543      0.00000
      9      37.9170      0.00000
     10      40.6603      0.00000
     11      44.6895      0.00000
     12      46.2285      0.00000
     13      47.9045      0.00000
     14      48.4839      0.00000
     15      48.7205      0.00000
     16      50.7119      0.00000

 k-point     5 :       0.3636    0.0000    0.0000
  band No.  band energies     occupation 
      1       4.3140      2.00000
      2       7.5274      2.00000
      3      13.6576      1.53832
      4      16.9309      0.00000
      5      17.5667      0.00000
      6      20.3854      0.00000
      7      28.7704      0.00000
      8      34.3497      0.00000
      9      43.0554      0.00000
     10      43.3063      0.00000
     11      44.2226      0.00000
     12      45.4008      0.00000
     13      46.4907      0.00000
     14      48.4849      0.00000
     15      49.0056      0.00000
     16      49.1188      0.00000

 k-point     6 :       0.4545    0.0000    0.0000
  band No.  band energies     occupation 
      1       3.7862      2.00000
      2       7.0549      2.00000
      3      16.1202     -0.27372
      4      17.3515      0.00000
      5      18.2902      0.00000
      6      23.6078      0.00000
      7      26.8480      0.00000
      8      33.1973      0.00000
      9      38.7547      0.00000
     10      42.1050      0.00000
     11      45.8159      0.00000
     12      48.3684      0.00000
     13      48.4161      0.00000
     14      48.9302      0.00000
     15      49.2051      0.00000
     16      49.6438      0.00000

 k-point     7 :       0.0909    0.0909    0.0000
  band No.  band energies     occupation 
      1       3.6524      2.00000
      2      10.0378      2.00000
      3      10.2472      2.00000
      4      13.1653      1.60567
      5      14.8765     -0.02806
      6      16.6935      0.00000
      7      31.1187      0.00000
      8      33.2191      0.00000
      9      34.3023      0.00000
     10      41.5232      0.00000
     11      45.5658      0.00000
     12      46.4144      0.00000
     13      48.3223      0.00000
     14      48.5372      0.00000
     15      48.6017      0.00000
     16      51.7180      0.00000

 k-point     8 :       0.1818    0.0909    0.0000
  band No.  band energies     occupation 
      1       5.0862      2.00000
      2       9.0112      2.00000
      3       9.9316      2.00000
      4      14.7438     -0.05582
      5      15.9281     -0.01889
      6      17.2513      0.00000
      7      32.3155      0.00000
      8      34.8982      0.00000
      9      37.2782      0.00000
     10      40.5967      0.00000
     11      44.6531      0.00000
     12      46.2156      0.00000
     13      47.9710      0.00000
     14      48.5235      0.00000
     15      48.7045      0.00000
     16      50.1176      0.00000

 k-point     9 :       0.2727    0.0909    0.0000
  band No.  band energies     occupation 
      1       5.1435      2.00000
      2       8.0473      2.00000
      3      11.4495      2.03729
      4      15.6886     -0.02592
      5      17.8574     -0.00016
      6      19.4697      0.00000
      7      30.5044      0.00000
      8      35.3362      0.00000
      9      38.9783      0.00000
     10      43.3397      0.00000
     11      44.3234      0.00000
     12      45.9970      0.00000
     13      48.1486      0.00000
     14      48.5497      0.00000
     15      48.5992      0.00000
     16      49.1727      0.00000

 k-point    10 :       0.3636    0.0909    0.0000
  band No.  band energies     occupation 
      1       4.4914      2.00000
      2       7.4272      2.00000
      3      13.8249      1.23926
      4      16.7456     -0.00023
      5      18.6225      0.00000
      6      23.0348      0.00000
      7      28.4899      0.00000
      8      33.2840      0.00000
      9      39.4950      0.00000
     10      42.9968      0.00000
     11      45.0749      0.00000
     12      45.7640      0.00000
     13      48.4529      0.00000
     14      48.9373      0.00000
     15      49.1228      0.00000
     16      49.8914      0.00000

 k-point    11 :       0.4545    0.0909    0.0000
  band No.  band energies     occupation 
      1       4.2001      2.00000
      2       7.2136      2.00000
      3      15.2454      0.04504
      4      16.5315     -0.00046
      5      19.4436      0.00000
      6      24.8795      0.00000
      7      27.6437      0.00000
      8      32.1336      0.00000
      9      38.1322      0.00000
     10      41.6392      0.00000
     11      45.7539      0.00000
     12      47.9783      0.00000
     13      48.6460      0.00000
     14      48.9490      0.00000
     15      49.1844      0.00000
     16      50.9006      0.00000

 k-point    12 :       0.1818    0.1818    0.0000
  band No.  band energies     occupation 
      1       6.0598      2.00000
      2       8.5187      2.00000
      3       9.7374      2.00017
      4      14.8145     -0.03175
      5      18.1523     -0.00039
      6      19.4489      0.00000
      7      32.1404      0.00000
      8      34.3825      0.00000
      9      38.6673      0.00000
     10      41.8771      0.00000
     11      44.2387      0.00000
     12      46.1201      0.00000
     13      48.4694      0.00000
     14      48.5157      0.00000
     15      49.0485      0.00000
     16      50.5784      0.00000

 k-point    13 :       0.2727    0.1818    0.0000
  band No.  band energies     occupation 
      1       5.8451      2.00000
      2       8.0406      2.00000
      3      11.2707      2.02573
      4      15.7023     -0.00425
      5      18.5812      0.00000
      6      23.3190      0.00000
      7      30.5598      0.00000
      8      34.4104      0.00000
      9      38.0154      0.00000
     10      40.0173      0.00000
     11      45.4653      0.00000
     12      46.4019      0.00000
     13      48.5210      0.00000
     14      48.6762      0.00000
     15      49.0838      0.00000
     16      51.9977      0.00000

 k-point    14 :       0.3636    0.1818    0.0000
  band No.  band energies     occupation 
      1       5.4054      2.00000
      2       7.8464      2.00000
      3      12.7125      1.93917
      4      16.3246     -0.00019
      5      19.2644      0.00000
      6      26.4092      0.00000
      7      29.5533      0.00000
      8      31.5541      0.00000
      9      37.4355      0.00000
     10      42.0826      0.00000
     11      44.7905      0.00000
     12      45.8407      0.00000
     13      48.5576      0.00000
     14      48.8647      0.00000
     15      49.1206      0.00000
     16      51.1524      0.00000

 k-point    15 :       0.2727    0.2727    0.0000
  band No.  band energies     occupation 
      1       6.1825      2.00000
      2       8.4799      2.00000
      3      11.1701      2.00404
      4      16.4709      0.00000
      5      18.5981      0.00000
      6      27.1703      0.00000
      7      29.4591      0.00000
      8      34.1483      0.00000
      9      35.4587      0.00000
     10      41.1021      0.00000
     11      44.3180      0.00000
     12      45.9319      0.00000
     13      48.6041      0.00000
     14      48.7464      0.00000
     15      49.0944      0.00000
     16      51.9290      0.00000

 k-point    16 :       0.3636    0.2727    0.0000
  band No.  band energies     occupation 
      1       6.1911      2.00000
      2       8.9070      2.00000
      3      10.9381      2.00944
      4      17.1243      0.00000
      5      18.7049      0.00000
      6      27.7371      0.00000
      7      29.7236      0.00000
      8      32.4657      0.00000
      9      36.9266      0.00000
     10      41.8223      0.00000
     11      42.6143      0.00000
     12      45.7639      0.00000
     13      48.6169      0.00000
     14      48.9155      0.00000
     15      49.0339      0.00000
     16      52.2436      0.00000

 k-point    17 :       0.0909    0.0909    0.0909
  band No.  band energies     occupation 
      1       5.0461      2.00000
      2       9.1401      2.00000
      3       9.1401      2.00000
      4      16.0125     -0.21297
      5      16.0399     -0.00145
      6      16.0399      0.00000
      7      31.6561      0.00000
      8      35.6624      0.00000
      9      35.6624      0.00000
     10      43.6933      0.00000
     11      43.6933      0.00000
     12      44.4712      0.00000
     13      47.0682      0.00000
     14      48.5407      0.00000
     15      48.5407      0.00000
     16      49.0238      0.00000

 k-point    18 :       0.1818    0.0909    0.0909
  band No.  band energies     occupation 
      1       6.2201      2.00000
      2       8.2081      2.00000
      3       9.2767      2.00022
      4      16.1897     -0.00607
      5      17.0192      0.00000
      6      19.6287      0.00000
      7      32.5338      0.00000
      8      35.1987      0.00000
      9      35.8751      0.00000
     10      41.2494      0.00000
     11      45.8051      0.00000
     12      46.1410      0.00000
     13      47.5875      0.00000
     14      48.5374      0.00000
     15      48.5727      0.00000
     16      49.0891      0.00000

 k-point    19 :       0.2727    0.0909    0.0909
  band No.  band energies     occupation 
      1       5.7249      2.00000
      2       7.5743      2.00000
      3      11.8315      2.06353
      4      16.8797      0.00000
      5      17.8385      0.00000
      6      23.3257      0.00000
      7      30.2006      0.00000
      8      33.5127      0.00000
      9      38.3527      0.00000
     10      38.6495      0.00000
     11      45.7069      0.00000
     12      46.7802      0.00000
     13      48.4800      0.00000
     14      48.6938      0.00000
     15      49.1439      0.00000
     16      50.3275      0.00000

 k-point    20 :       0.3636    0.0909    0.0909
  band No.  band energies     occupation 
      1       5.2039      2.00000
      2       7.2576      2.00000
      3      14.4516      0.74283
      4      17.3176      0.00000
      5      18.4333      0.00000
      6      25.8538      0.00000
      7      28.4104      0.00000
      8      30.8134      0.00000
      9      37.6059      0.00000
     10      43.6050      0.00000
     11      43.8359      0.00000
     12      45.7141      0.00000
     13      48.4933      0.00000
     14      48.8397      0.00000
     15      49.1784      0.00000
     16      50.0480      0.00000

 k-point    21 :      -0.0909    0.0909    0.0909
  band No.  band energies     occupation 
      1       3.1535      2.00000
      2      10.9134      2.00000
      3      10.9134      2.00000
      4      11.5698      2.06548
      5      14.1662      0.02274
      6      17.2346      0.00000
      7      31.8075      0.00000
      8      31.8075      0.00000
      9      32.6041      0.00000
     10      40.9735      0.00000
     11      45.6916      0.00000
     12      48.3604      0.00000
     13      48.3605      0.00000
     14      48.5326      0.00000
     15      50.0750      0.00000
     16      56.1284      0.00000

 k-point    22 :       0.1818    0.1818    0.0909
  band No.  band energies     occupation 
      1       6.9521      2.00000
      2       8.1575      2.00000
      3       9.4965      2.00267
      4      16.7338      0.00000
      5      17.8961      0.00000
      6      23.6075      0.00000
      7      32.3405      0.00000
      8      34.0112      0.00000
      9      36.0274      0.00000
     10      36.6103      0.00000
     11      45.6995      0.00000
     12      47.0135      0.00000
     13      48.5239      0.00000
     14      48.5808      0.00000
     15      49.1332      0.00000
     16      51.7916      0.00000

 k-point    23 :       0.2727    0.1818    0.0909
  band No.  band energies     occupation 
      1       6.6056      2.00000
      2       8.0169      2.00000
      3      11.6709      2.03790
      4      17.3629      0.00000
      5      18.4777      0.00000
      6      26.7631      0.00000
      7      29.9802      0.00000
      8      31.5542      0.00000
      9      35.0320      0.00000
     10      39.7306      0.00000
     11      45.2293      0.00000
     12      46.1797      0.00000
     13      48.5410      0.00000
     14      48.6634      0.00000
     15      49.1349      0.00000
     16      51.3874      0.00000

 k-point    24 :       0.3636    0.1818    0.0909
  band No.  band energies     occupation 
      1       6.4244      2.00000
      2       7.9495      2.00000
      3      12.9257      1.92838
      4      17.6610      0.00000
      5      18.6995      0.00000
      6      28.1090      0.00000
      7      28.1572      0.00000
      8      30.3267      0.00000
      9      35.7915      0.00000
     10      43.3068      0.00000
     11      43.9666      0.00000
     12      45.7638      0.00000
     13      47.6587      0.00000
     14      48.5794      0.00000
     15      48.7640      0.00000
     16      49.2099      0.00000

 k-point    25 :      -0.1818    0.1818    0.0909
  band No.  band energies     occupation 
      1       4.6459      2.00000
      2      10.1394      2.00000
      3      10.5683      2.00000
      4      13.1273      1.67235
      5      13.3511      0.43385
      6      17.9226      0.00000
      7      33.1597      0.00000
      8      34.6351      0.00000
      9      35.9878      0.00000
     10      37.5710      0.00000
     11      45.6065      0.00000
     12      48.0107      0.00000
     13      48.3526      0.00000
     14      48.5879      0.00000
     15      49.3055      0.00000
     16      54.9492      0.00000

 k-point    26 :       0.2727    0.2727    0.0909
  band No.  band energies     occupation 
      1       6.7924      2.00000
      2       9.4417      2.00000
      3      11.1691      2.00383
      4      17.9664      0.00000
      5      18.5644      0.00000
      6      27.1441      0.00000
      7      29.4441      0.00000
      8      31.9851      0.00000
      9      34.0764      0.00000
     10      41.6810      0.00000
     11      44.0866      0.00000
     12      45.8313      0.00000
     13      48.6041      0.00000
     14      48.7018      0.00000
     15      48.9087      0.00000
     16      50.8759      0.00000

 k-point    27 :      -0.2727    0.2727    0.0909
  band No.  band energies     occupation 
      1       5.4729      2.00000
      2       9.0749      2.00000
      3      10.3851      2.00182
      4      14.1622      0.23834
      5      16.4057     -0.02235
      6      18.5013      0.00000
      7      31.4470      0.00000
      8      36.5371      0.00000
      9      38.7111      0.00000
     10      40.9877      0.00000
     11      45.3761      0.00000
     12      47.5864      0.00000
     13      47.8222      0.00000
     14      48.6030      0.00000
     15      48.9695      0.00000
     16      50.5105      0.00000

 k-point    28 :      -0.1818    0.2727    0.0909
  band No.  band energies     occupation 
      1       5.9688      2.00000
      2       9.3317      2.00000
      3      10.3698      2.00000
      4      12.7479      1.72387
      5      15.5186     -0.05265
      6      18.8416      0.00000
      7      32.4410      0.00000
      8      35.6175      0.00000
      9      39.3961      0.00000
     10      39.4802      0.00000
     11      45.4601      0.00000
     12      47.8113      0.00000
     13      48.2353      0.00000
     14      48.6305      0.00000
     15      50.1887      0.00000
     16      50.6010      0.00000

 k-point    29 :      -0.3636    0.3636    0.0909
  band No.  band energies     occupation 
      1       4.8914      2.00000
      2       8.2235      2.00000
      3      11.6605      2.04822
      4      15.7300     -0.05104
      5      19.3686      0.00000
      6      20.1326      0.00000
      7      29.6502      0.00000
      8      35.2924      0.00000
      9      41.8939      0.00000
     10      43.0401      0.00000
     11      44.8914      0.00000
     12      45.6694      0.00000
     13      48.0963      0.00000
     14      48.5446      0.00000
     15      49.0377      0.00000
     16      49.4360      0.00000

 k-point    30 :      -0.2727    0.3636    0.0909
  band No.  band energies     occupation 
      1       6.1299      2.00000
      2       8.5491      2.00000
      3      10.5303      2.00145
      4      14.0332      0.16253
      5      18.2761     -0.00051
      6      20.1117      0.00000
      7      30.7811      0.00000
      8      37.0750      0.00000
      9      40.9835      0.00000
     10      42.2920      0.00000
     11      44.5920      0.00000
     12      46.0772      0.00000
     13      48.4801      0.00000
     14      48.5853      0.00000
     15      49.1217      0.00000
     16      51.8346      0.00000

 k-point    31 :      -0.4545    0.4545    0.0909
  band No.  band energies     occupation 
      1       4.3097      2.00000
      2       7.7629      2.00000
      3      13.2089      1.57599
      4      15.4988     -0.01486
      5      21.2810      0.00000
      6      23.4097      0.00000
      7      29.0909      0.00000
      8      33.2539      0.00000
      9      38.0557      0.00000
     10      41.2946      0.00000
     11      45.7902      0.00000
     12      48.4385      0.00000
     13      48.7885      0.00000
     14      49.1606      0.00000
     15      49.5662      0.00000
     16      51.4264      0.00000

 k-point    32 :      -0.3636    0.4545    0.0909
  band No.  band energies     occupation 
      1       5.3762      2.00000
      2       8.4397      2.00000
      3      11.1008      2.03650
      4      14.8825     -0.01748
      5      19.9810      0.00000
      6      23.6236      0.00000
      7      30.5773      0.00000
      8      34.8200      0.00000
      9      38.6517      0.00000
     10      41.6641      0.00000
     11      45.6904      0.00000
     12      47.0661      0.00000
     13      48.5792      0.00000
     14      49.0263      0.00000
     15      49.0876      0.00000
     16      51.6067      0.00000

 k-point    33 :      -0.2727    0.4545    0.0909
  band No.  band energies     occupation 
      1       6.6740      2.00000
      2       7.6180      2.00000
      3      10.8772      2.00021
      4      14.7721     -0.02486
      5      18.5468      0.00000
      6      24.0598      0.00000
      7      30.9760      0.00000
      8      37.2987      0.00000
      9      37.6942      0.00000
     10      41.1583      0.00000
     11      45.4840      0.00000
     12      46.8281      0.00000
     13      48.6856      0.00000
     14      48.7696      0.00000
     15      49.0934      0.00000
     16      52.3350      0.00000

 k-point    34 :      -0.4545   -0.4545    0.0909
  band No.  band energies     occupation 
      1       5.0410      2.00000
      2       8.3804      2.00000
      3      11.6005      2.05355
      4      14.5792     -0.01132
      5      21.5300      0.00000
      6      25.7886      0.00000
      7      30.4661      0.00000
      8      32.8363      0.00000
      9      37.0777      0.00000
     10      40.6566      0.00000
     11      45.7057      0.00000
     12      48.2244      0.00000
     13      48.8677      0.00000
     14      49.1548      0.00000
     15      49.3961      0.00000
     16      53.8470      0.00000

 k-point    35 :      -0.3636   -0.4545    0.0909
[...]
     13      47.9278      0.00000
     14      48.6977      0.00000
     15      50.0498      0.00000
     16      50.3566      0.00000

 k-point    42 :      -0.3636    0.3636    0.1818
  band No.  band energies     occupation 
      1       6.0582      2.00000
      2       8.9580      2.00000
      3      10.2267      2.00048
      4      13.9004      0.16076
      5      19.5199      0.00000
      6      20.9695      0.00000
      7      31.5168      0.00000
      8      38.4707      0.00000
      9      40.3906      0.00000
     10      41.7090      0.00000
     11      45.6513      0.00000
     12      47.4111      0.00000
     13      48.5843      0.00000
     14      48.9177      0.00000
     15      49.2414      0.00000
     16      50.8585      0.00000

 k-point    43 :      -0.2727    0.3636    0.1818
  band No.  band energies     occupation 
      1       7.0563      2.00000
      2       7.5569      2.00000
      3      11.5261      2.00414
      4      13.4963      0.82054
      5      17.7448     -0.00031
      6      20.8061      0.00000
      7      32.0606      0.00000
      8      40.7068      0.00000
      9      40.8631      0.00000
     10      41.3516      0.00000
     11      45.4994      0.00000
     12      47.3205      0.00000
     13      48.5793      0.00000
     14      48.7169      0.00000
     15      49.2771      0.00000
     16      51.0714      0.00000

 k-point    44 :      -0.4545    0.4545    0.1818
  band No.  band energies     occupation 
      1       5.3010      2.00000
      2       9.6932      2.00000
      3       9.8168      2.01101
      4      13.4515      0.18967
      5      22.9046      0.00000
      6      23.9885      0.00000
      7      31.6248      0.00000
      8      35.3888      0.00000
      9      36.4160      0.00000
     10      40.7652      0.00000
     11      45.7030      0.00000
     12      48.5485      0.00000
     13      48.8889      0.00000
     14      49.1448      0.00000
     15      51.7963      0.00000
     16      53.8331      0.00000

 k-point    45 :      -0.3636    0.4545    0.1818
  band No.  band energies     occupation 
      1       6.0652      2.00000
      2       7.8791      2.00000
      3      10.6790      2.01237
      4      14.5503     -0.03029
      5      19.8485      0.00000
      6      24.4541      0.00000
      7      32.1642      0.00000
      8      37.4650      0.00000
      9      37.7037      0.00000
     10      41.6510      0.00000
     11      45.5849      0.00000
     12      48.3004      0.00000
     13      48.9205      0.00000
     14      49.0869      0.00000
     15      49.8342      0.00000
     16      53.6319      0.00000

 k-point    46 :      -0.4545   -0.4545    0.1818
  band No.  band energies     occupation 
      1       5.6983      2.00000
      2       8.2168      2.00000
      3      10.0657      2.01331
      4      14.6362     -0.01817
      5      21.7075      0.00000
      6      27.4370      0.00000
      7      30.0672      0.00000
      8      34.9374      0.00000
      9      37.9748      0.00000
     10      41.0382      0.00000
     11      45.5837      0.00000
     12      48.1448      0.00000
     13      48.9741      0.00000
     14      49.1432      0.00000
     15      49.7211      0.00000
     16      54.9929      0.00000

 k-point    47 :      -0.3636   -0.4545    0.1818
  band No.  band energies     occupation 
      1       6.3670      2.00000
      2       7.1373      2.00000
      3       9.7187      2.02209
      4      17.1711     -0.00131
      5      19.5203      0.00000
      6      28.5838      0.00000
      7      29.8159      0.00000
      8      34.2925      0.00000
      9      39.9784      0.00000
     10      41.9827      0.00000
     11      45.3457      0.00000
     12      45.7303      0.00000
     13      48.9926      0.00000
     14      49.0563      0.00000
     15      49.1119      0.00000
     16      54.1879      0.00000

 k-point    48 :      -0.2727    0.2727    0.2727
  band No.  band energies     occupation 
      1       6.8651      2.00000
      2       7.8312      2.00000
      3      13.0285      1.96029
      4      13.0285      1.90088
      5      15.9702     -0.00082
      6      19.8339      0.00000
      7      32.6621      0.00000
      8      41.4251      0.00000
      9      41.4251      0.00000
     10      43.2024      0.00000
     11      45.5571      0.00000
     12      47.7214      0.00000
     13      47.7214      0.00000
     14      48.7826      0.00000
     15      49.8529      0.00000
     16      49.8530      0.00000

 k-point    49 :      -0.3636    0.3636    0.2727
  band No.  band energies     occupation 
      1       5.6742      2.00000
      2       7.3005      2.00000
      3      13.2494      1.79174
      4      14.0845      0.03893
      5      18.9011      0.00000
      6      21.2993      0.00000
      7      34.5066      0.00000
      8      38.2063      0.00000
      9      38.7387      0.00000
     10      44.0103      0.00000
     11      45.4722      0.00000
     12      48.7128      0.00000
     13      48.8362      0.00000
     14      48.9852      0.00000
     15      51.3217      0.00000
     16      52.5378      0.00000

 k-point    50 :      -0.4545    0.4545    0.2727
  band No.  band energies     occupation 
      1       5.1014      2.00000
      2       6.7645      2.00000
      3      13.0060      1.75249
      4      14.1500     -0.00281
      5      22.2944      0.00000
      6      25.0291      0.00000
      7      31.6842      0.00000
      8      34.2596      0.00000
      9      39.6007      0.00000
     10      42.8969      0.00000
     11      45.4208      0.00000
     12      48.5714      0.00000
     13      48.9691      0.00000
     14      49.1353      0.00000
     15      50.9388      0.00000
     16      51.6705      0.00000

 k-point    51 :      -0.3636    0.4545    0.2727
  band No.  band energies     occupation 
      1       4.9561      2.00000
      2       6.1552      2.00000
      3      13.2356      1.49217
      4      16.5042     -0.01342
      5      20.0473      0.00000
      6      24.5042      0.00000
      7      32.4953      0.00000
      8      34.9141      0.00000
      9      39.5822      0.00000
     10      44.9674      0.00000
     11      45.2210      0.00000
     12      48.0992      0.00000
     13      49.0388      0.00000
     14      49.0704      0.00000
     15      49.3940      0.00000
     16      51.4638      0.00000

 k-point    52 :      -0.4545   -0.4545    0.2727
  band No.  band energies     occupation 
      1       4.8597      2.00000
      2       5.5405      2.00000
      3      13.0218      1.47121
      4      17.4660     -0.00194
      5      21.2545      0.00000
      6      28.2025      0.00000
      7      29.2075      0.00000
      8      32.1115      0.00000
      9      42.5748      0.00000
     10      43.5966      0.00000
     11      45.0546      0.00000
     12      46.9601      0.00000
     13      48.9760      0.00000
     14      49.0822      0.00000
     15      49.1387      0.00000
     16      50.9343      0.00000

 k-point    53 :      -0.3636    0.3636    0.3636
  band No.  band energies     occupation 
      1       4.4629      2.00000
      2       5.7958      2.00000
      3      16.2624     -0.43678
      4      16.2624     -0.04165
      5      19.1680      0.00000
      6      22.0376      0.00000
      7      34.9882      0.00000
      8      34.9882      0.00000
      9      38.6363      0.00000
     10      45.0780      0.00000
     11      47.0372      0.00000
     12      48.4966      0.00000
     13      48.9986      0.00000
     14      48.9987      0.00000
     15      49.3494      0.00000
     16      49.5875      0.00000

 k-point    54 :      -0.4545    0.4545    0.3636
  band No.  band energies     occupation 
      1       3.9560      2.00000
      2       4.6236      2.00000
      3      16.9691     -0.25506
      4      17.3724      0.00000
      5      21.7882      0.00000
      6      25.1246      0.00000
      7      30.5670      0.00000
      8      31.4734      0.00000
      9      41.4448      0.00000
     10      45.0936      0.00000
     11      46.7005      0.00000
     12      47.3602      0.00000
     13      47.6979      0.00000
     14      49.0560      0.00000
     15      49.1074      0.00000
     16      49.1570      0.00000

 k-point    55 :      -0.4545   -0.4545    0.3636
  band No.  band energies     occupation 
      1       3.8260      2.00000
      2       3.8260      2.00000
      3      17.1430     -0.13746
      4      20.8414      0.00000
      5      20.8414      0.00000
      6      28.2561      0.00000
      7      28.2561      0.00000
      8      28.5487      0.00000
      9      41.0871      0.00000
     10      46.0938      0.00000
     11      46.4659      0.00000
     12      47.1991      0.00000
     13      47.1991      0.00000
     14      49.0981      0.00000
     15      49.1326      0.00000
     16      49.1327      0.00000

 k-point    56 :      -0.4545    0.4545    0.4545
  band No.  band energies     occupation 
      1       3.2358      2.00000
      2       3.4283      2.00000
      3      20.6847     -0.00392
      4      20.6847      0.00000
      5      21.7355      0.00000
      6      25.6791      0.00000
      7      28.2079      0.00000
      8      28.2079      0.00000
      9      39.4141      0.00000
     10      44.7965      0.00000
     11      46.2590      0.00000
     12      48.2370      0.00000
     13      49.0942      0.00000
     14      49.0943      0.00000
     15      49.1478      0.00000
     16      49.2468      0.00000


--------------------------------------------------------------------------------------------------------


 soft charge-density along one line, spin component           1
         0         1         2         3         4         5         6         7         8         9
 total charge-density along one line
 
 pseudopotential strength for first ion, spin component:           1
 -5.662   0.000   0.000   0.000   0.000   0.000   0.000   0.000   0.000   0.000   0.225   0.000   0.000   0.000   0.000   0.000
  0.000   0.000  -5.662   0.000   0.000   0.000   0.000   0.000   0.000   0.000   0.000   0.000   0.225   0.000   0.000   0.000
  0.000   0.000   0.000   0.000  -5.663   0.000   0.000   0.000   0.000   0.000   0.000   0.000   0.000   0.000   0.225   0.000
  0.000   0.000   0.000   0.000   0.000   0.000  -5.662   0.000   0.000   0.000   0.000   0.000   0.000   0.000   0.000   0.000
  0.000   0.000   0.000   0.000   0.000   0.000   0.000   0.000  -5.663   0.000   0.000   0.000   0.000   0.000   0.000   0.000
  0.225   0.000   0.000   0.000   0.000   0.000   0.000   0.000   0.000   0.000   0.092   0.000   0.000   0.000   0.000   0.000
  0.000   0.000   0.225   0.000   0.000   0.000   0.000   0.000   0.000   0.000   0.000   0.000   0.092   0.000   0.000   0.000
  0.000   0.000   0.000   0.000   0.225   0.000   0.000   0.000   0.000   0.000   0.000   0.000   0.000   0.000   0.092   0.000
  0.000   0.000   0.000   0.000   0.000   0.000   0.225   0.000   0.000   0.000   0.000   0.000   0.000   0.000   0.000   0.000
  0.000   0.000   0.000   0.000   0.000   0.000   0.000   0.000   0.225   0.000   0.000   0.000   0.000   0.000   0.000   0.000
  0.000   0.000   0.000   0.000   0.000   0.000   0.000   0.000   0.000   0.000   0.000   0.000   0.000   0.000   0.000   0.000
  0.000   0.000   0.000   0.000   0.000   0.000   0.000   0.000   0.000   0.000   0.000   0.000   0.000   0.000   0.000   0.000
  0.000   0.000   0.000   0.000   0.000   0.000   0.000   0.000   0.000   0.000   0.000   0.000   0.000   0.000   0.000   0.000
  0.000   0.000   0.000   0.000   0.000   0.000   0.000   0.000   0.000   0.000   0.000   0.000   0.000   0.000   0.000   0.000
  0.000   0.000   0.000   0.000   0.000   0.000   0.000   0.000   0.000   0.000   0.000   0.000   0.000   0.000   0.000   0.000
  0.000   0.000   0.000   0.000   0.000   0.000   0.000   0.000   0.000   0.000   0.000   0.000   0.000   0.000   0.000   0.000
  0.000   0.000   0.000   0.000   0.000   0.000   0.000   0.000   0.000   0.000   0.000   0.000   0.000   0.000   0.000   0.000
  0.000   0.000   0.000   0.000   0.000   0.000   0.000   0.000   0.000   0.000   0.000   0.000   0.000   0.000   0.000   0.000
 total augmentation occupancy for first ion, spin component:           1
  1.216   0.000   0.000   0.000   0.000  -1.117   0.000   0.000   0.000   0.000   0.000   0.000   0.000   0.000   0.000   0.000
  0.000   1.216   0.000   0.000   0.000   0.000  -1.117   0.000   0.000   0.000   0.000   0.000   0.000   0.000   0.000   0.000
  0.000   0.000   0.918   0.000   0.000   0.000   0.000  -1.120   0.000   0.000   0.000   0.000   0.000   0.000   0.000   0.000
  0.000   0.000   0.000   1.216   0.000   0.000   0.000   0.000  -1.117   0.000   0.000   0.000   0.000   0.000   0.000   0.000
  0.000   0.000   0.000   0.000   0.918   0.000   0.000   0.000   0.000  -1.120   0.000   0.000   0.000   0.000   0.000   0.000
 -1.117   0.000   0.000   0.000   0.000   1.336   0.000   0.000   0.000   0.000   0.000   0.000   0.000   0.000   0.000   0.000
  0.000  -1.117   0.000   0.000   0.000   0.000   1.336   0.000   0.000   0.000   0.000   0.000   0.000   0.000   0.000   0.000
  0.000   0.000  -1.120   0.000   0.000   0.000   0.000   1.691   0.000   0.000   0.000   0.000   0.000   0.000   0.000   0.000
  0.000   0.000   0.000  -1.117   0.000   0.000   0.000   0.000   1.336   0.000   0.000   0.000   0.000   0.000   0.000   0.000
  0.000   0.000   0.000   0.000  -1.120   0.000   0.000   0.000   0.000   1.691   0.000   0.000   0.000   0.000   0.000   0.000
  0.000   0.000   0.000   0.000   0.000   0.000   0.000   0.000   0.000   0.000   1.974  -0.503   0.000   0.000   0.000   0.000
  0.000   0.000   0.000   0.000   0.000   0.000   0.000   0.000   0.000   0.000  -0.503   0.172   0.000   0.000   0.000   0.000
  0.000   0.000   0.000   0.000   0.000   0.000   0.000   0.000   0.000   0.000   0.000   0.000   0.472   0.000   0.000  -0.017
  0.000   0.000   0.000   0.000   0.000   0.000   0.000   0.000   0.000   0.000   0.000   0.000   0.000   0.472   0.000   0.000
  0.000   0.000   0.000   0.000   0.000   0.000   0.000   0.000   0.000   0.000   0.000   0.000   0.000   0.000   0.472   0.000
  0.000   0.000   0.000   0.000   0.000   0.000   0.000   0.000   0.000   0.000   0.000   0.000  -0.017   0.000   0.000   0.001
  0.000   0.000   0.000   0.000   0.000   0.000   0.000   0.000   0.000   0.000   0.000   0.000   0.000  -0.017   0.000   0.000
  0.000   0.000   0.000   0.000   0.000   0.000   0.000   0.000   0.000   0.000   0.000   0.000   0.000   0.000  -0.017   0.000


------------------------ aborting loop because EDIFF is reached ----------------------------------------


    CHARGE:  cpu time    0.00: real time    0.00
    FORLOC:  cpu time    0.00: real time    0.00
    FORNL :  cpu time    0.00: real time    0.00
    STRESS:  cpu time    0.04: real time    0.04
    FORCOR:  cpu time    0.00: real time    0.00
    FORHAR:  cpu time    0.00: real time    0.00
    MIXING:  cpu time    0.00: real time    0.00
    OFIELD:  cpu time    0.00: real time    0.00

  FORCE on cell =-STRESS in cart. coord.  units (eV):
  Direction    XX          YY          ZZ          XY          YZ          ZX
  --------------------------------------------------------------------------------------
  Alpha Z    66.40147    66.40147    66.40147
  Ewald    -113.92214  -113.92214  -113.92214     0.00000     0.00000     0.00000
  Hartree     0.24880     0.24880     0.24880     0.00000     0.00000     0.00000
  E(xc)     -31.94618   -31.94618   -31.94618     0.00000     0.00000     0.00000
  Local       6.87369     6.87369     6.87369     0.00000     0.00000     0.00000
  n-local    -4.91935    -4.52883    -6.02828     1.79087    -5.36991    -5.95220
  augment     5.23454     5.23454     5.23454     0.00000     0.00000     0.00000
  Kinetic    91.61827    89.54754    89.55652     2.85812     2.81374     0.82716
  Fock        0.00000     0.00000     0.00000     0.00000     0.00000     0.00000
  -------------------------------------------------------------------------------------
  Total      17.97213    17.97213    17.97213     0.00000     0.00000     0.00000
  in kB    2739.13189  2739.13189  2739.13189     0.00000     0.00000     0.00000
  external pressure =     2739.13 kB  Pullay stress =        0.00 kB


 VOLUME and BASIS-vectors are now :
 -----------------------------------------------------------------------------
  energy-cutoff  :      300.00
  volume of cell :       10.51
      direct lattice vectors                 reciprocal lattice vectors
    -1.380000000  1.380000000  1.380000000     0.000000000  0.362318841  0.362318841
     1.380000000 -1.380000000  1.380000000     0.362318841  0.000000000  0.362318841
     1.380000000  1.380000000 -1.380000000     0.362318841  0.362318841  0.000000000

  length of vectors
     2.390230114  2.390230114  2.390230114     0.512396218  0.512396218  0.512396218


 FORCES acting on ions
    electron-ion (+dipol)            ewald-force                    non-local-force                 convergence-correction
 -----------------------------------------------------------------------------------------------
   -.130E-15 0.231E-14 0.126E-14   -.571E-15 -.128E-14 -.531E-16   0.000E+00 -.388E-25 -.129E-25   0.276E-15 0.348E-15 0.627E-15
 -----------------------------------------------------------------------------------------------
   -.130E-15 0.231E-14 0.126E-14   -.571E-15 -.128E-14 -.531E-16   0.000E+00 -.388E-25 -.129E-25   0.276E-15 0.348E-15 0.627E-15
 
 
 POSITION                                       TOTAL-FORCE (eV/Angst)
 -----------------------------------------------------------------------------------
      0.00000      0.00000      0.00000         0.000000      0.000000      0.000000
 -----------------------------------------------------------------------------------
    total drift:                                0.000000      0.000000      0.000000


--------------------------------------------------------------------------------------------------------



  FREE ENERGIE OF THE ION-ELECTRON SYSTEM (eV)
  ---------------------------------------------------
  free  energy   TOTEN  =       -11.20387031 eV

  energy  without entropy=      -11.20387031  energy(sigma->0) =      -11.20387031
 


--------------------------------------------------------------------------------------------------------


    POTLOK:  cpu time    0.00: real time    0.00


--------------------------------------------------------------------------------------------------------


 writing wavefunctions
     LOOP+:  cpu time    4.30: real time    4.37
    4ORBIT:  cpu time    0.00: real time    0.00
 BZINTS: Fermi energy: 13.636288;  6.000000 electrons
         Band energy:  49.949314;  BLOECHL correction: -0.161539

 total amount of memory used by VASP on root node    31486. kBytes
========================================================================

   base      :      30000. kBytes
   nonl-proj :       1163. kBytes
   fftplans  :         55. kBytes
   grid      :         96. kBytes
   one-center:         15. kBytes
   wavefun   :        157. kBytes
 
  
  
 General timing and accounting informations for this job:
 ========================================================
  
                  Total CPU time used (sec):        4.640
                            User time (sec):        4.543
                          System time (sec):        0.097
                         Elapsed time (sec):        6.068
  
                   Maximum memory used (kb):       23124.
                   Average memory used (kb):           0.
  
                          Minor page faults:         9548
                          Major page faults:           14
                 Voluntary context switches:         4766
