GaAs                                    
   5.75000000000000     
    -0.000000    0.500345    0.500345
     0.500345    0.000000    0.500345
     0.500345    0.500345    0.000000
   Ga   As
     1     1
Direct
  0.000000  0.000000  0.000000
  0.250000  0.250000  0.250000
 
   28   28   28
 -2.1552     -1.1181      1.6234      5.1445      8.3917      10.588      11.434      11.101      10.081      8.9828    
  8.1764      7.6251      7.2607      7.0475      6.9763      7.0473      7.2604      7.6249      8.1765      8.9831    
  10.081      11.101      11.434      10.588      8.3917      5.1446      1.6234     -1.1182     -1.1181     0.68646    
  3.7449      7.1779      10.100      11.904      12.416      11.913      10.970      10.169      9.6309      9.2759    
  9.0520      8.9404      8.9403      9.0515      9.2752      9.6304      10.169      10.971      11.914      12.417    
  11.904      10.100      7.1781      3.7455     0.68705     -1.1179      1.6234      3.7449      6.6710      9.6627    
  12.006      13.249      13.377      12.803      12.146      11.727      11.482      11.338      11.256      11.229    
  11.256      11.337      11.481      11.726      12.146      12.804      13.378      13.250      12.005      9.6624    
  6.6711      3.7455      1.6239     0.85006      5.1445      7.1779      9.6627      11.999      13.632      14.307    
  14.206      13.852      13.683      13.678      13.740      13.802      13.837      13.837      13.802      13.739    
  13.675      13.681      13.852      14.207      14.308      13.633      11.999      9.6624      7.1778      5.1445    
  4.0140      4.0139      8.3917      10.100      12.006      13.632      14.623      14.965      15.017      15.214    
  15.580      15.992      16.345      16.574      16.653      16.575      16.345      15.990      15.577      15.212    
  15.017      14.966      14.624      13.633      12.006      10.100      8.3914      7.2461      6.8484      7.2463    
  10.588      11.904      13.249      14.307      14.965      15.432      16.060      16.884      17.765      18.553    
  19.118      19.394      19.395      19.120      18.553      17.762      16.880      16.057      15.431      14.966    
  14.308      13.250      11.904      10.588      9.5987      9.0875      9.0875      9.5987      11.434      12.416    
  13.377      14.206      15.017      16.060      17.350      18.747      20.061      21.036      21.568      21.730    
  21.571      21.039      20.061      18.743      17.345      16.057      15.017      14.207      13.379      12.417    
  11.434      10.630      10.133      9.9702      10.133      10.629      11.101      11.913      12.803      13.852    
  15.214      16.884      18.747      20.593      22.045      22.903      23.264      23.267      22.908      22.049    
  20.593      18.744      16.880      15.212      13.852      12.804      11.913      11.101      10.421      9.9560    
  9.7302      9.7300      9.9557      10.421      10.081      10.970      12.146      13.683      15.580      17.765    
  20.061      22.045      23.345      23.991      24.176      23.995      23.351      22.049      20.061      17.762    
  15.577      13.681      12.146      10.971      10.081      9.4017      8.9250      8.6516      8.5644      8.6514    
  8.9250      9.4020      8.9828      10.169      11.727      13.678      15.992      18.553      21.036      22.903    
  23.991      24.451      24.453      23.995      22.907      21.039      18.553      15.990      13.675      11.727    
  10.170      8.9830      8.1300      7.5545      7.2049      7.0429      7.0428      7.2048      7.5548      8.1304    
  8.1764      9.6309      11.482      13.740      16.345      19.118      21.568      23.264      24.176      24.453    
  24.177      23.267      21.571      19.120      16.345      13.738      11.481      9.6308      8.1769      7.0863    
  6.3208      5.8345      5.5740      5.4931      5.5739      5.8345      6.3210      7.0861      7.6251      9.2759    
  11.338      13.802      16.574      19.394      21.730      23.267      23.995      23.995      23.267      21.731    
  19.395      16.576      13.802      11.337      9.2751      7.6250      6.3560      5.4293      4.8028      4.4276    
  4.2556      4.2556      4.4276      4.8028      5.4291      6.3557      7.2607      9.0520      11.256      13.837    
  16.653      19.395      21.571      22.908      23.351      22.907      21.571      19.395      16.654      13.838    
  11.256      9.0515      7.2603      5.8611      4.8149      4.0790      3.6065      3.3492      3.2684      3.3491    
  3.6065      4.0790      4.8149      5.8612      7.0475      8.9404      11.229      13.837      16.575      19.120    
  21.039      22.049      22.049      21.039      19.120      16.576      13.838      11.229      8.9404      7.0475    
  5.5491      4.4114      3.5904      3.0393      2.7093      2.5572      2.5571      2.7092      3.0394      3.5907    
  4.4115      5.5491      6.9763      8.9403      11.256      13.802      16.345      18.553      20.061      20.593    
  20.061      18.553      16.345      13.802      11.256      8.9404      6.9766      5.3960      4.1796      3.2866    
  2.6688      2.2763      2.0634      1.9965      2.0634      2.2764      2.6689      3.2867      4.1795      5.3958    
  7.0473      9.0515      11.337      13.739      15.990      17.762      18.743      18.744      17.762      15.990    
  13.738      11.337      9.0515      7.0475      5.3960      4.1034      3.1397      2.4584      2.0081      1.7404    
  1.6172      1.6172      1.7404      2.0081      2.4583      3.1396      4.1033      5.3958      7.2604      9.2752    
  11.481      13.675      15.577      16.880      17.345      16.880      15.577      13.675      11.481      9.2751    
  7.2603      5.5491      4.1796      3.1397      2.3900      1.8794      1.5575      1.3826      1.3275      1.3827    
  1.5575      1.8793      2.3899      3.1397      4.1795      5.5492      7.6249      9.6304      11.726      13.681    
  15.212      16.057      16.057      15.212      13.681      11.727      9.6308      7.6250      5.8611      4.4114    
  3.2866      2.4584      1.8794      1.4982      1.2705      1.1647      1.1647      1.2705      1.4982      1.8793    
  2.4584      3.2866      4.4116      5.8613      8.1765      10.169      12.146      13.852      15.017      15.431    
  15.017      13.852      12.146      10.170      8.1769      6.3560      4.8149      3.5904      2.6688      2.0081    
  1.5575      1.2705      1.1121      1.0617      1.1122      1.2705      1.5575      2.0081      2.6689      3.5906    
  4.8151      6.3558      8.9831      10.971      12.804      14.207      14.966      14.966      14.207      12.804    
  10.971      8.9830      7.0863      5.4293      4.0790      3.0393      2.2763      1.7404      1.3826      1.1647    
  1.0617      1.0617      1.1647      1.3827      1.7404      2.2764      3.0393      4.0789      5.4292      7.0862    
  10.081      11.914      13.378      14.308      14.624      14.308      13.379      11.913      10.081      8.1300    
  6.3208      4.8028      3.6065      2.7093      2.0634      1.6172      1.3275      1.1647      1.1122      1.1647    
  1.3275      1.6172      2.0634      2.7092      3.6063      4.8027      6.3209      8.1304      11.101      12.417    
  13.250      13.633      13.633      13.250      12.417      11.101      9.4017      7.5545      5.8345      4.4276    
  3.3492      2.5572      1.9965      1.6172      1.3827      1.2705      1.2705      1.3827      1.6172      1.9965    
  2.5572      3.3492      4.4276      5.8344      7.5546      9.4019      11.434      11.904      12.005      11.999    
  12.006      11.904      11.434      10.421      8.9250      7.2049      5.5740      4.2556      3.2684      2.5571    
  2.0634      1.7404      1.5575      1.4982      1.5575      1.7404      2.0634      2.5572      3.2685      4.2557    
  5.5739      7.2048      8.9248      10.421      10.588      10.100      9.6624      9.6624      10.100      10.588    
  10.630      9.9560      8.6516      7.0429      5.4931      4.2556      3.3491      2.7092      2.2764      2.0081    
  1.8793      1.8793      2.0081      2.2764      2.7092      3.3492      4.2557      5.4932      7.0429      8.6515    
  9.9557      10.629      8.3917      7.1781      6.6711      7.1778      8.3914      9.5987      10.133      9.7302    
  8.5644      7.0428      5.5739      4.4276      3.6065      3.0394      2.6689      2.4583      2.3899      2.4584    
  2.6689      3.0393      3.6063      4.4276      5.5739      7.0429      8.5645      9.7301      10.133      9.5987    
  5.1446      3.7455      3.7455      5.1445      7.2461      9.0875      9.9702      9.7300      8.6514      7.2048    
  5.8345      4.8028      4.0790      3.5907      3.2867      3.1396      3.1397      3.2866      3.5906      4.0789    
  4.8027      5.8344      7.2048      8.6515      9.7301      9.9703      9.0876      7.2462      1.6234     0.68705    
  1.6239      4.0140      6.8484      9.0875      10.133      9.9557      8.9250      7.5548      6.3210      5.4291    
  4.8149      4.4115      4.1795      4.1033      4.1795      4.4116      4.8151      5.4292      6.3209      7.5546    
  8.9248      9.9557      10.133      9.0876      6.8481      4.0134     -1.1182     -1.1179     0.85006      4.0139    
  7.2463      9.5987      10.629      10.421      9.4020      8.1304      7.0861      6.3557      5.8612      5.5491    
  5.3958      5.3958      5.5492      5.8613      6.3558      7.0862      8.1304      9.4019      10.421      10.629    
  9.5987      7.2462      4.0134     0.84937     -1.1181     0.68646      3.7449      7.1779      10.100      11.904    
  12.416      11.913      10.970      10.169      9.6309      9.2759      9.0520      8.9404      8.9403      9.0515    
  9.2752      9.6304      10.169      10.971      11.914      12.417      11.904      10.100      7.1781      3.7455    
 0.68705     -1.1179     0.68646      2.9801      6.1534      9.4187      12.011      13.442      13.678      13.138    
  12.470      12.041      11.791      11.644      11.560      11.532      11.560      11.643      11.790      12.040    
  12.470      13.138      13.678      13.443      12.011      9.4187      6.1539      2.9810     0.68719     -.14841    
  3.7449      6.1534      9.1147      11.940      13.986      14.937      14.965      14.628      14.451      14.450    
  14.521      14.591      14.629      14.629      14.591      14.520      14.448      14.449      14.628      14.966    
  14.938      13.987      11.940      9.1147      6.1537      3.7455      2.4094      2.4091      7.1779      9.4187    
  11.940      14.149      15.583      16.180      16.323      16.546      16.956      17.418      17.812      18.065    
  18.151      18.067      17.814      17.418      16.954      16.544      16.322      16.181      15.584      14.149    
  11.940      9.4186      7.1778      5.6777      5.1562      5.6779      10.100      12.011      13.986      15.583    
  16.606      17.257      17.985      18.936      19.953      20.842      21.410      21.655      21.656      21.413    
  20.843      19.951      18.934      17.983      17.257      16.607      15.584      13.987      12.011      10.100    
  8.6618      7.9127      7.9128      8.6619      11.904      13.442      14.937      16.180      17.257      18.500    
  20.036      21.699      23.153      24.043      24.416      24.504      24.420      24.047      23.155      21.698    
  20.033      18.497      17.257      16.181      14.938      13.443      11.904      10.633      9.8350      9.5693    
  9.8348      10.633      12.416      13.678      14.965      16.323      17.985      20.036      22.323      24.383    
  25.647      26.130      26.213      26.216      26.138      25.653      24.384      22.320      20.032      17.983    
  16.322      14.966      13.678      12.417      11.320      10.546      10.160      10.160      10.546      11.320    
  11.913      13.138      14.628      16.546      18.936      21.699      24.383      26.177      26.896      26.961    
  26.908      26.967      26.904      26.183      24.384      21.697      18.933      16.544      14.628      13.138    
  11.913      10.901      10.147      9.6963      9.5487      9.6960      10.147      10.901      10.970      12.470    
  14.451      16.956      19.953      23.153      25.647      26.896      27.146      27.032      27.034      27.152    
  26.903      25.653      23.155      19.951      16.954      14.450      12.471      10.970      9.8562      9.0530    
  8.5358      8.2859      8.2854      8.5353      9.0535      9.8571      10.169      12.041      14.450      17.418    
  20.842      24.043      26.130      26.961      27.032      26.967      27.033      26.964      26.135      24.047    
  20.843      17.417      14.448      12.041      10.170      8.7732      7.7897      7.1523      6.7982      6.6853    
  6.7980      7.1524      7.7901      8.7733      9.6309      11.791      14.521      17.812      21.410      24.416    
  26.213      26.908      27.034      27.033      26.907      26.213      24.419      21.413      17.813      14.520    
  11.790      9.6306      7.9843      6.7850      5.9704      5.4778      5.2496      5.2497      5.4781      5.9705    
  6.7846      7.9838      9.2759      11.644      14.591      18.065      21.655      24.504      26.216      26.967    
  27.152      26.964      26.213      24.504      21.658      18.068      14.591      11.643      9.2755      7.4441    
  6.0806      5.1205      4.5009      4.1606      4.0529      4.1604      4.5009      5.1208      6.0806      7.4439    
  9.0520      11.560      14.629      18.151      21.656      24.420      26.138      26.904      26.903      26.135    
  24.419      21.658      18.153      14.630      11.560      9.0517      7.0876      5.6036      4.5325      3.8111    
  3.3772      3.1762      3.1759      3.3767      3.8113      4.5330      5.6037      7.0874      8.9404      11.532    
  14.629      18.067      21.413      24.047      25.653      26.183      25.653      24.047      21.413      18.068    
  14.630      11.532      8.9405      6.8793      5.3031      4.1463      3.3438      2.8328      2.5552      2.4680    
  2.5551      2.8328      3.3439      4.1464      5.3031      6.8793      8.9403      11.560      14.591      17.814    
  20.843      23.155      24.384      24.384      23.155      20.843      17.813      14.591      11.560      8.9405    
  6.8101      5.1558      3.9246      3.0528      2.4761      2.1340      1.9771      1.9772      2.1341      2.4761    
  3.0528      3.9246      5.1557      6.8099      9.0515      11.643      14.520      17.418      19.951      21.698    
  22.320      21.697      19.951      17.417      14.520      11.643      9.0517      6.8793      5.1558      3.8520    
  2.9124      2.2733      1.8726      1.6569      1.5894      1.6569      1.8726      2.2732      2.9123      3.8519    
  5.1557      6.8791      9.2752      11.790      14.448      16.954      18.934      20.033      20.032      18.933    
  16.954      14.448      11.790      9.2755      7.0876      5.3031      3.9246      2.9124      2.2074      1.7472    
  1.4759      1.3516      1.3516      1.4760      1.7471      2.2073      2.9123      3.9247      5.3032      7.0875    
  9.6304      12.040      14.449      16.544      17.983      18.497      17.983      16.544      14.450      12.041    
  9.6306      7.4441      5.6036      4.1463      3.0528      2.2733      1.7472      1.4173      1.2385      1.1821    
  1.2385      1.4173      1.7472      2.2732      3.0528      4.1465      5.6040      7.4444      10.169      12.470    
  14.628      16.322      17.257      17.257      16.322      14.628      12.471      10.170      7.9843      6.0806    
  4.5325      3.3438      2.4761      1.8726      1.4759      1.2385      1.1278      1.1278      1.2384      1.4759    
  1.8726      2.4761      3.3439      4.5328      6.0811      7.9844      10.971      13.138      14.966      16.181    
  16.607      16.181      14.966      13.138      10.970      8.7732      6.7850      5.1205      3.8111      2.8328    
  2.1340      1.6569      1.3516      1.1821      1.1278      1.1821      1.3516      1.6569      2.1340      2.8328    
  3.8110      5.1203      6.7849      8.7735      11.914      13.678      14.938      15.584      15.584      14.938    
  13.678      11.913      9.8562      7.7897      5.9704      4.5009      3.3772      2.5552      1.9771      1.5894    
  1.3516      1.2385      1.2384      1.3516      1.5895      1.9772      2.5551      3.3768      4.5004      5.9702    
  7.7900      9.8569      12.417      13.443      13.987      14.149      13.987      13.443      12.417      10.901    
  9.0530      7.1523      5.4778      4.1606      3.1762      2.4680      1.9772      1.6569      1.4760      1.4173    
  1.4759      1.6569      1.9772      2.4680      3.1762      4.1606      5.4778      7.1522      9.0530      10.901    
  11.904      12.011      11.940      11.940      12.011      11.904      11.320      10.147      8.5358      6.7982    
  5.2496      4.0529      3.1759      2.5551      2.1341      1.8726      1.7471      1.7472      1.8726      2.1340    
  2.5551      3.1762      4.0535      5.2499      6.7981      8.5353      10.147      11.320      10.100      9.4187    
  9.1147      9.4186      10.100      10.633      10.546      9.6963      8.2859      6.6853      5.2497      4.1604    
  3.3767      2.8328      2.4761      2.2732      2.2073      2.2732      2.4761      2.8328      3.3768      4.1606    
  5.2499      6.6854      8.2859      9.6961      10.545      10.633      7.1781      6.1539      6.1537      7.1778    
  8.6618      9.8350      10.160      9.5487      8.2854      6.7980      5.4781      4.5009      3.8113      3.3439    
  3.0528      2.9123      2.9123      3.0528      3.3439      3.8110      4.5004      5.4778      6.7981      8.2859    
  9.5491      10.160      9.8350      8.6619      3.7455      2.9810      3.7455      5.6777      7.9127      9.5693    
  10.160      9.6960      8.5353      7.1524      5.9705      5.1208      4.5330      4.1464      3.9246      3.8519    
  3.9247      4.1465      4.5328      5.1203      5.9702      7.1522      8.5353      9.6961      10.160      9.5696    
  7.9130      5.6778     0.68705     0.68719      2.4094      5.1562      7.9128      9.8348      10.546      10.147    
  9.0535      7.7901      6.7846      6.0806      5.6037      5.3031      5.1557      5.1557      5.3032      5.6040    
  6.0811      6.7849      7.7900      9.0530      10.147      10.545      9.8350      7.9130      5.1561      2.4091    
 -1.1179     -.14841      2.4091      5.6779      8.6619      10.633      11.320      10.901      9.8571      8.7733    
  7.9838      7.4439      7.0874      6.8793      6.8099      6.8791      7.0875      7.4444      7.9844      8.7735    
  9.8569      10.901      11.320      10.633      8.6619      5.6778      2.4091     -.14834      1.6234      3.7449    
  6.6710      9.6627      12.006      13.249      13.377      12.803      12.146      11.727      11.482      11.338    
  11.256      11.229      11.256      11.337      11.481      11.726      12.146      12.804      13.378      13.250    
  12.005      9.6624      6.6711      3.7455      1.6239     0.85006      3.7449      6.1534      9.1147      11.940    
  13.986      14.937      14.965      14.628      14.451      14.450      14.521      14.591      14.629      14.629    
  14.591      14.520      14.448      14.449      14.628      14.966      14.938      13.987      11.940      9.1147    
  6.1537      3.7455      2.4094      2.4091      6.6710      9.1147      11.871      14.303      15.910      16.609    
  16.789      17.021      17.446      17.926      18.335      18.597      18.684      18.599      18.338      17.927    
  17.446      17.020      16.788      16.608      15.910      14.303      11.871      9.1146      6.6710      5.0355    
  4.4664      5.0354      9.6627      11.940      14.303      16.237      17.492      18.267      19.054      20.074    
  21.165      22.087      22.629      22.840      22.841      22.632      22.091      21.168      20.074      19.053    
  18.265      17.491      16.237      14.303      11.939      9.6622      7.9463      7.0500      7.0500      7.9465    
  12.006      13.986      15.910      17.492      18.792      20.183      21.890      23.724      25.177      25.904    
  26.089      26.095      26.089      25.906      25.180      23.727      21.891      20.182      18.790      17.492    
  15.910      13.986      12.005      10.362      9.3229      8.9744      9.3230      10.362      13.249      14.937    
  16.609      18.267      20.183      22.539      25.124      27.137      28.006      27.973      27.703      27.702    
  27.972      28.006      27.140      25.128      22.541      20.182      18.265      16.608      14.938      13.250    
  11.758      10.689      10.149      10.149      10.689      11.758      13.377      14.965      16.789      19.054    
  21.890      25.124      27.799      28.968      28.726      27.945      27.556      27.944      28.726      28.971    
  27.803      25.127      21.890      19.053      16.789      14.965      13.377      12.007      10.957      10.313    
  10.099      10.313      10.956      12.007      12.803      14.628      17.021      20.074      23.724      27.137    
  28.968      28.887      27.698      26.661      26.660      27.696      28.888      28.972      27.141      23.725    
  20.073      17.021      14.628      12.803      11.385      10.316      9.6008      9.2462      9.2457      9.6001    
  10.316      11.386      12.146      14.451      17.446      21.165      25.177      28.006      28.726      27.698    
  26.192      25.511      26.189      27.694      28.726      28.009      25.180      21.166      17.446      14.451    
  12.146      10.437      9.2184      8.3977      7.9248      7.7708      7.9248      8.3978      9.2187      10.437    
  11.727      14.450      17.926      22.087      25.904      27.973      27.945      26.661      25.511      25.508    
  26.655      27.939      27.972      25.906      22.090      17.927      14.449      11.727      9.6724      8.1841    
  7.1705      6.5505      6.2585      6.2591      6.5514      7.1704      8.1832      9.6720      11.482      14.521    
  18.335      22.629      26.089      27.703      27.556      26.660      26.189      26.655      27.549      27.699    
  26.089      22.631      18.337      14.521      11.482      9.1579      7.4418      6.2364      5.4540      5.0193    
  4.8804      5.0192      5.4540      6.2363      7.4416      9.1576      11.338      14.591      18.597      22.840    
  26.095      27.702      27.944      27.696      27.694      27.939      27.699      26.095      22.841      18.597    
  14.590      11.338      8.8193      6.9335      5.5781      4.6636      4.1094      3.8502      3.8496      4.1087    
  4.6638      5.5789      6.9336      8.8186      11.256      14.629      18.684      22.841      26.089      27.972    
  28.726      28.888      28.726      27.972      26.089      22.841      18.684      14.629      11.256      8.6052    
  6.5982      5.1319      4.1139      3.4626      3.1064      2.9940      3.1064      3.4626      4.1140      5.1321    
  6.5984      8.6054      11.229      14.629      18.599      22.632      25.906      28.006      28.971      28.972    
  28.009      25.906      22.631      18.597      14.629      11.229      8.4994      6.4028      4.8510      3.7522    
  3.0228      2.5882      2.3883      2.3886      2.5885      3.0226      3.7518      4.8511      6.4032      8.4992    
  11.256      14.591      18.338      22.091      25.180      27.140      27.803      27.141      25.180      22.090    
  18.337      14.590      11.256      8.4994      6.3384      4.7141      3.5448      2.7482      2.2482      1.9790    
  1.8949      1.9791      2.2482      2.7482      3.5448      4.7141      6.3381      8.4990      11.337      14.520    
  17.927      21.168      23.727      25.128      25.127      23.725      21.166      17.927      14.521      11.338    
  8.6052      6.4028      4.7141      3.4772      2.6159      2.0547      1.7256      1.5759      1.5759      1.7257    
  2.0547      2.6159      3.4773      4.7142      6.4028      8.6049      11.481      14.448      17.446      20.074    
  21.891      22.541      21.890      20.073      17.446      14.449      11.482      8.8193      6.5982      4.8510    
  3.5448      2.6159      1.9920      1.6044      1.3968      1.3320      1.3969      1.6044      1.9919      2.6159    
  3.5450      4.8514      6.5984      8.8187      11.726      14.449      17.020      19.053      20.182      20.182    
  19.053      17.021      14.451      11.727      9.1579      6.9335      5.1319      3.7522      2.7482      2.0547    
  1.6044      1.3393      1.2174      1.2173      1.3391      1.6045      2.0548      2.7481      3.7521      5.1322    
  6.9343      9.1585      12.146      14.628      16.788      18.265      18.790      18.265      16.789      14.628    
  12.146      9.6724      7.4418      5.5781      4.1139      3.0228      2.2482      1.7256      1.3968      1.2174    
  1.1606      1.2173      1.3968      1.7257      2.2481      3.0226      4.1139      5.5787      7.4428      9.6731    
  12.804      14.966      16.608      17.491      17.492      16.608      14.965      12.803      10.437      8.1841    
  6.2364      4.6636      3.4626      2.5882      1.9790      1.5759      1.3320      1.2173      1.2173      1.3321    
  1.5759      1.9790      2.5882      3.4625      4.6632      6.2358      8.1841      10.438      13.378      14.938    
  15.910      16.237      15.910      14.938      13.377      11.385      9.2184      7.1705      5.4540      4.1094    
  3.1064      2.3883      1.8949      1.5759      1.3969      1.3391      1.3968      1.5759      1.8951      2.3886    
  3.1063      4.1087      5.4529      7.1698      9.2187      11.386      13.250      13.987      14.303      14.303    
  13.986      13.250      12.007      10.316      8.3977      6.5505      5.0193      3.8502      2.9940      2.3886    
  1.9791      1.7257      1.6044      1.6045      1.7257      1.9790      2.3886      2.9940      3.8504      5.0194    
  6.5505      8.3973      10.315      12.007      12.005      11.940      11.871      11.939      12.005      11.758    
  10.957      9.6008      7.9248      6.2585      4.8804      3.8496      3.1064      2.5885      2.2482      2.0547    
  1.9919      2.0548      2.2481      2.5882      3.1063      3.8504      4.8817      6.2595      7.9248      9.5999    
  10.955      11.757      9.6624      9.1147      9.1146      9.6622      10.362      10.689      10.313      9.2462    
  7.7708      6.2591      5.0192      4.1087      3.4626      3.0226      2.7482      2.6159      2.6159      2.7481    
  3.0226      3.4625      4.1087      5.0194      6.2595      7.7713      9.2465      10.313      10.689      10.362    
  6.6711      6.1537      6.6710      7.9463      9.3229      10.149      10.099      9.2457      7.9248      6.5514    
  5.4540      4.6638      4.1140      3.7518      3.5448      3.4773      3.5450      3.7521      4.1139      4.6632    
  5.4529      6.5505      7.9248      9.2465      10.100      10.150      9.3230      7.9464      3.7455      3.7455    
  5.0355      7.0500      8.9744      10.149      10.313      9.6001      8.3978      7.1704      6.2363      5.5789    
  5.1321      4.8511      4.7141      4.7142      4.8514      5.1322      5.5787      6.2358      7.1698      8.3973    
  9.5999      10.313      10.150      8.9749      7.0502      5.0355      1.6239      2.4094      4.4664      7.0500    
  9.3230      10.689      10.956      10.316      9.2187      8.1832      7.4416      6.9336      6.5984      6.4032    
  6.3381      6.4028      6.5984      6.9343      7.4428      8.1841      9.2187      10.315      10.955      10.689    
  9.3230      7.0502      4.4665      2.4093     0.85006      2.4091      5.0354      7.9465      10.362      11.758    
  12.007      11.386      10.437      9.6720      9.1576      8.8186      8.6054      8.4992      8.4990      8.6049    
  8.8187      9.1585      9.6731      10.438      11.386      12.007      11.757      10.362      7.9464      5.0355    
  2.4093     0.85017      5.1445      7.1779      9.6627      11.999      13.632      14.307      14.206      13.852    
  13.683      13.678      13.740      13.802      13.837      13.837      13.802      13.739      13.675      13.681    
  13.852      14.207      14.308      13.633      11.999      9.6624      7.1778      5.1445      4.0140      4.0139    
  7.1779      9.4187      11.940      14.149      15.583      16.180      16.323      16.546      16.956      17.418    
  17.812      18.065      18.151      18.067      17.814      17.418      16.954      16.544      16.322      16.181    
  15.584      14.149      11.940      9.4186      7.1778      5.6777      5.1562      5.6779      9.6627      11.940    
  14.303      16.237      17.492      18.267      19.054      20.074      21.165      22.087      22.629      22.840    
  22.841      22.632      22.091      21.168      20.074      19.053      18.265      17.491      16.237      14.303    
  11.939      9.6622      7.9463      7.0500      7.0500      7.9465      11.999      14.149      16.237      17.951    
  19.338      20.787      22.555      24.442      25.871      26.518      26.622      26.593      26.623      26.522    