GaAs                                    
   5.75000000000000     
    -0.000000    0.500247    0.500247
     0.500247    0.000000    0.500247
     0.500247    0.500247    0.000000
   Ga   As
     1     1
Direct
  0.000000  0.000000  0.000000
  0.250000  0.250000  0.250000
 
   28   28   28
 -.21485373851E+01 -.11101205092E+01 0.16344636033E+01 0.51585193871E+01 0.84065363190E+01
 0.10600279857E+02 0.11441808172E+02 0.11102613185E+02 0.10078359720E+02 0.89777411876E+01
 0.81705704162E+01 0.76189307913E+01 0.72544339969E+01 0.70412508449E+01 0.69701283818E+01
 0.70410720559E+01 0.72541736464E+01 0.76187600120E+01 0.81706433072E+01 0.89780520259E+01
 0.10078696577E+02 0.11102736069E+02 0.11441703624E+02 0.10600163873E+02 0.84065680046E+01
 0.51586128426E+01 0.16344627480E+01 -.11101903192E+01 -.11101205092E+01 0.69659172121E+00
 0.37580800121E+01 0.71929982261E+01 0.10114866170E+02 0.11914662647E+02 0.12421321702E+02
 0.11911938896E+02 0.10965682068E+02 0.10163359180E+02 0.96243932313E+01 0.92692786652E+01
 0.90455091190E+01 0.89340318672E+01 0.89338781380E+01 0.90450520901E+01 0.92686395155E+01
 0.96239086216E+01 0.10163370708E+02 0.10966182034E+02 0.11912526861E+02 0.12421580086E+02
 0.11914549266E+02 0.10114715040E+02 0.71931669434E+01 0.37586130700E+01 0.69718589548E+00
 -.11098630245E+01 0.16344636033E+01 0.37580800121E+01 0.66860484639E+01 0.96778396104E+01
 0.12018012801E+02 0.13256381342E+02 0.13378358923E+02 0.12799256096E+02 0.12140159554E+02
 0.11720919148E+02 0.11475673761E+02 0.11331185567E+02 0.11249821281E+02 0.11222653408E+02
 0.11249830851E+02 0.11330711710E+02 0.11474569420E+02 0.11719837016E+02 0.12139934310E+02
 0.12799993669E+02 0.13379346871E+02 0.13256850788E+02 0.12017844279E+02 0.96775380092E+01
 0.66861484457E+01 0.37586151330E+01 0.16349686962E+01 0.86032714888E+00 0.51585193871E+01
 0.71929982261E+01 0.96778396104E+01 0.12011835980E+02 0.13640669046E+02 0.14308995908E+02
 0.14202986517E+02 0.13846110236E+02 0.13676102974E+02 0.13671205321E+02 0.13733783452E+02
 0.13797024427E+02 0.13832017998E+02 0.13832365341E+02 0.13797313740E+02 0.13732815906E+02
 0.13669081164E+02 0.13674326996E+02 0.13845955337E+02 0.14204205291E+02 0.14310306063E+02
 0.13641156733E+02 0.12011601375E+02 0.96774870193E+01 0.71928941729E+01 0.51586059835E+01
 0.40271648749E+01 0.40271023450E+01 0.84065363190E+01 0.10114866170E+02 0.12018012801E+02
 0.13640669046E+02 0.14625741676E+02 0.14962263238E+02 0.15011391092E+02 0.15207927430E+02
 0.15573973578E+02 0.15987346330E+02 0.16341588347E+02 0.16571667578E+02 0.16650858954E+02
 0.16572604167E+02 0.16341693280E+02 0.15985368030E+02 0.15570834673E+02 0.15205767860E+02
 0.15011349011E+02 0.14963637905E+02 0.14627120305E+02 0.13641309588E+02 0.12018042922E+02
 0.10114653455E+02 0.84062878595E+01 0.72608384274E+01 0.68629579180E+01 0.72610100411E+01
 0.10600279857E+02 0.11914662647E+02 0.13256381342E+02 0.14308995908E+02 0.14962263238E+02
 0.15426247699E+02 0.16054121593E+02 0.16878644076E+02 0.17761031751E+02 0.18550928199E+02
 0.19118459358E+02 0.19395314245E+02 0.19396415336E+02 0.19120324590E+02 0.18550896125E+02
 0.17758184804E+02 0.16874689168E+02 0.16051525965E+02 0.15426025213E+02 0.14963591979E+02
 0.14310445052E+02 0.13257144308E+02 0.11914809381E+02 0.10600241377E+02 0.96121808525E+01
 0.91013288745E+01 0.91012983341E+01 0.96121619300E+01 0.11441808172E+02 0.12421321702E+02
 0.13378358923E+02 0.14202986517E+02 0.15011391092E+02 0.16054121593E+02 0.17344330258E+02
 0.18743536657E+02 0.20060108586E+02 0.21039226895E+02 0.21574724697E+02 0.21737634411E+02
 0.21577890090E+02 0.21042327379E+02 0.20060001458E+02 0.18740060954E+02 0.17339963167E+02
 0.16051427962E+02 0.15011103649E+02 0.14204080151E+02 0.13379407425E+02 0.12421718202E+02
 0.11441901876E+02 0.10639360421E+02 0.10143925600E+02 0.99811148687E+01 0.10143588525E+02
 0.10639093841E+02 0.11102613185E+02 0.11911938896E+02 0.12799256096E+02 0.13846110236E+02
 0.15207927430E+02 0.16878644076E+02 0.18743536657E+02 0.20593550654E+02 0.22050630723E+02
 0.22913110181E+02 0.23277594181E+02 0.23279965809E+02 0.22918207844E+02 0.22054338691E+02
 0.20593338006E+02 0.18740157750E+02 0.16874763415E+02 0.15205669732E+02 0.13845789613E+02
 0.12799831788E+02 0.11912333820E+02 0.11102625866E+02 0.10425640993E+02 0.99619274918E+01
 0.97368615000E+01 0.97366680243E+01 0.99616203079E+01 0.10425574575E+02 0.10078359720E+02
 0.10965682068E+02 0.12140159554E+02 0.13676102974E+02 0.15573973578E+02 0.17761031751E+02
 0.20060108586E+02 0.22050630723E+02 0.23356866471E+02 0.24007211581E+02 0.24193668318E+02
 0.24011381772E+02 0.23362448245E+02 0.22054216383E+02 0.20060056097E+02 0.17758293897E+02
 0.15570924815E+02 0.13674530382E+02 0.12140116540E+02 0.10966050316E+02 0.10078316758E+02
 0.94010935924E+01 0.89260692820E+01 0.86537872997E+01 0.85669383702E+01 0.86535933987E+01
 0.89260878638E+01 0.94013731443E+01 0.89777411876E+01 0.10163359180E+02 0.11720919148E+02
 0.13671205321E+02 0.15987346330E+02 0.18550928199E+02 0.21039226895E+02 0.22913110181E+02
 0.24007211581E+02 0.24470298621E+02 0.24471856735E+02 0.24011232211E+02 0.22917752980E+02
 0.21042188998E+02 0.18550926742E+02 0.15985200617E+02 0.13669096942E+02 0.11720305314E+02
 0.10163818796E+02 0.89780083966E+01 0.81261967893E+01 0.75519873881E+01 0.72035197618E+01
 0.70420682439E+01 0.70419139521E+01 0.72034063772E+01 0.75522986016E+01 0.81265273940E+01
 0.81705704162E+01 0.96243932313E+01 0.11475673761E+02 0.13733783452E+02 0.16341588347E+02
 0.19118459358E+02 0.21574724697E+02 0.23277594181E+02 0.24193668318E+02 0.24471856735E+02
 0.24194821956E+02 0.23280003974E+02 0.21577737496E+02 0.19120544512E+02 0.16341649335E+02
 0.13732387956E+02 0.11474462636E+02 0.96242857836E+01 0.81710383506E+01 0.70813251517E+01
 0.63167145436E+01 0.58311895097E+01 0.55712471838E+01 0.54905775466E+01 0.55711100522E+01
 0.58312465021E+01 0.63169000701E+01 0.70811593918E+01 0.76189307913E+01 0.92692786652E+01
 0.11331185567E+02 0.13797024427E+02 0.16571667578E+02 0.19395314245E+02 0.21737634411E+02
 0.23279965809E+02 0.24011381772E+02 0.24011232211E+02 0.23280003974E+02 0.21738633770E+02
 0.19397150062E+02 0.16573189609E+02 0.13797248274E+02 0.11330350926E+02 0.92684614383E+01
 0.76187893328E+01 0.63504977720E+01 0.54246759115E+01 0.47988590916E+01 0.44242492245E+01
 0.42525122204E+01 0.42524975150E+01 0.44242463901E+01 0.47988364940E+01 0.54244759223E+01
 0.63502171222E+01 0.72544339969E+01 0.90455091190E+01 0.11249821281E+02 0.13832017998E+02
 0.16650858954E+02 0.19396415336E+02 0.21577890090E+02 0.22918207844E+02 0.23362448245E+02
 0.22917752980E+02 0.21577737496E+02 0.19397150062E+02 0.16652144428E+02 0.13832931024E+02
 0.11249853577E+02 0.90450065062E+01 0.72540279832E+01 0.58554618949E+01 0.48100055239E+01
 0.40747609424E+01 0.36029081397E+01 0.33459757491E+01 0.32652664589E+01 0.33458877960E+01
 0.36028515197E+01 0.40747525623E+01 0.48099908808E+01 0.58555631022E+01 0.70412508449E+01
 0.89340318672E+01 0.11222653408E+02 0.13832365341E+02 0.16572604167E+02 0.19120324590E+02
 0.21042327379E+02 0.22054338691E+02 0.22054216383E+02 0.21042188998E+02 0.19120544512E+02
 0.16573189609E+02 0.13832931024E+02 0.11222897650E+02 0.89340433674E+01 0.70412563938E+01
 0.55434776941E+01 0.44063693509E+01 0.35861366972E+01 0.30356225325E+01 0.27060441318E+01
 0.25541657818E+01 0.25540597191E+01 0.27059033839E+01 0.30357014522E+01 0.35863804940E+01
 0.44065247442E+01 0.55434808405E+01 0.69701283818E+01 0.89338781380E+01 0.11249830851E+02
 0.13797313740E+02 0.16341693280E+02 0.18550896125E+02 0.20060001458E+02 0.20593338006E+02
 0.20060056097E+02 0.18550926742E+02 0.16341649335E+02 0.13797248274E+02 0.11249853577E+02
 0.89340433674E+01 0.69703728188E+01 0.53903335439E+01 0.41746038755E+01 0.32822733321E+01
 0.26650883076E+01 0.22731487982E+01 0.20604982741E+01 0.19937079194E+01 0.20604695499E+01
 0.22731711576E+01 0.26651943581E+01 0.32823753850E+01 0.41745767852E+01 0.53901482463E+01
 0.70410720559E+01 0.90450520901E+01 0.11330711710E+02 0.13732815906E+02 0.15985368030E+02
 0.17758184804E+02 0.18740060954E+02 0.18740157750E+02 0.17758293897E+02 0.15985200617E+02
 0.13732387956E+02 0.11330350926E+02 0.90450065062E+01 0.70412563938E+01 0.53903335439E+01
 0.40984341344E+01 0.31354685189E+01 0.24548067478E+01 0.20049798836E+01 0.17376196957E+01
 0.16145969961E+01 0.16146404717E+01 0.17376800525E+01 0.20049595941E+01 0.24547269058E+01
 0.31354012263E+01 0.40983494260E+01 0.53901560795E+01 0.72541736464E+01 0.92686395155E+01
 0.11474569420E+02 0.13669081164E+02 0.15570834673E+02 0.16874689168E+02 0.17339963167E+02
 0.16874763415E+02 0.15570924815E+02 0.13669096942E+02 0.11474462636E+02 0.92684614383E+01
 0.72540279832E+01 0.55434776941E+01 0.41746038755E+01 0.31354685189E+01 0.23863813118E+01
 0.18763423830E+01 0.15548581228E+01 0.13802459025E+01 0.13252202652E+01 0.13802672565E+01
 0.15548501909E+01 0.18762811486E+01 0.23862982008E+01 0.31354042579E+01 0.41745848721E+01
 0.55435343746E+01 0.76187600120E+01 0.96239086216E+01 0.11719837016E+02 0.13674326996E+02
 0.15205767860E+02 0.16051525965E+02 0.16051427962E+02 0.15205669732E+02 0.13674530382E+02
 0.11720305314E+02 0.96242857836E+01 0.76187893328E+01 0.58554618949E+01 0.44063693509E+01
 0.32822733321E+01 0.24548067478E+01 0.18763423830E+01 0.14955821716E+01 0.12681667715E+01
 0.11625584162E+01 0.11625721129E+01 0.12681880011E+01 0.14955745684E+01 0.18763002563E+01
 0.24547858359E+01 0.32823672125E+01 0.44066061668E+01 0.58556939642E+01 0.81706433072E+01
 0.10163370708E+02 0.12139934310E+02 0.13845955337E+02 0.15011349011E+02 0.15426025213E+02
 0.15011103649E+02 0.13845789613E+02 0.12140116540E+02 0.10163818796E+02 0.81710383506E+01
 0.63504977720E+01 0.48100055239E+01 0.35861366972E+01 0.26650883076E+01 0.20049798836E+01
 0.15548581228E+01 0.12681667715E+01 0.11100347585E+01 0.10596260231E+01 0.11100671081E+01
 0.12681839691E+01 0.15548419260E+01 0.20049869705E+01 0.26651944329E+01 0.35863291927E+01
 0.48101373860E+01 0.63503822636E+01 0.89780520259E+01 0.10966182034E+02 0.12799993669E+02
 0.14204205291E+02 0.14963637905E+02 0.14963591979E+02 0.14204080151E+02 0.12799831788E+02
 0.10966050316E+02 0.89780083966E+01 0.70813251517E+01 0.54246759115E+01 0.40747609424E+01
 0.30356225325E+01 0.22731487982E+01 0.17376196957E+01 0.13802459025E+01 0.11625584162E+01
 0.10596260231E+01 0.10596067227E+01 0.11625310551E+01 0.13802577616E+01 0.17376653716E+01
 0.22731705139E+01 0.30355730430E+01 0.40746491471E+01 0.54245582475E+01 0.70812684133E+01
 0.10078696577E+02 0.11912526861E+02 0.13379346871E+02 0.14310306063E+02 0.14627120305E+02
 0.14310445052E+02 0.13379407425E+02 0.11912333820E+02 0.10078316758E+02 0.81261967893E+01
 0.63167145436E+01 0.47988590916E+01 0.36029081397E+01 0.27060441318E+01 0.20604982741E+01
 0.16145969961E+01 0.13252202652E+01 0.11625721129E+01 0.11100671081E+01 0.11625310551E+01
 0.13252095403E+01 0.16146321370E+01 0.20604872638E+01 0.27058997132E+01 0.36026770903E+01
 0.47987110906E+01 0.63168052887E+01 0.81265259313E+01 0.11102736069E+02 0.12421580086E+02
 0.13256850788E+02 0.13641156733E+02 0.13641309588E+02 0.13257144308E+02 0.12421718202E+02
 0.11102625866E+02 0.94010935924E+01 0.75519873881E+01 0.58311895097E+01 0.44242492245E+01
 0.33459757491E+01 0.25541657818E+01 0.19937079194E+01 0.16146404717E+01 0.13802672565E+01
 0.12681880011E+01 0.12681839691E+01 0.13802577616E+01 0.16146321370E+01 0.19937049022E+01
 0.25541568801E+01 0.33459346863E+01 0.44241747817E+01 0.58311507203E+01 0.75520768144E+01
 0.94012873248E+01 0.11441703624E+02 0.11914549266E+02 0.12017844279E+02 0.12011601375E+02
 0.12018042922E+02 0.11914809381E+02 0.11441901876E+02 0.10425640993E+02 0.89260692820E+01
 0.72035197618E+01 0.55712471838E+01 0.42525122204E+01 0.32652664589E+01 0.25540597191E+01
 0.20604695499E+01 0.17376800525E+01 0.15548501909E+01 0.14955745684E+01 0.15548419260E+01
 0.17376653716E+01 0.20604872638E+01 0.25541568801E+01 0.32654132463E+01 0.42525985457E+01
 0.55711993261E+01 0.72033818706E+01 0.89259284393E+01 0.10425503409E+02 0.10600163873E+02
 0.10114715040E+02 0.96775380092E+01 0.96774870193E+01 0.10114653455E+02 0.10600241377E+02
 0.10639360421E+02 0.99619274918E+01 0.86537872997E+01 0.70420682439E+01 0.54905775466E+01
 0.42524975150E+01 0.33458877960E+01 0.27059033839E+01 0.22731711576E+01 0.20049595941E+01
 0.18762811486E+01 0.18763002563E+01 0.20049869705E+01 0.22731705139E+01 0.27058997132E+01
 0.33459346863E+01 0.42525985457E+01 0.54906714392E+01 0.70420728473E+01 0.86536502687E+01
 0.99616791779E+01 0.10639131132E+02 0.84065680046E+01 0.71931669434E+01 0.66861484457E+01
 0.71928941729E+01 0.84062878595E+01 0.96121808525E+01 0.10143925600E+02 0.97368615000E+01
 0.85669383702E+01 0.70419139521E+01 0.55711100522E+01 0.44242463901E+01 0.36028515197E+01
 0.30357014522E+01 0.26651943581E+01 0.24547269058E+01 0.23862982008E+01 0.24547858359E+01
 0.26651944329E+01 0.30355730430E+01 0.36026770903E+01 0.44241747817E+01 0.55711993261E+01
 0.70420728473E+01 0.85670102148E+01 0.97367815733E+01 0.10143815349E+02 0.96122449661E+01
 0.51586128426E+01 0.37586130700E+01 0.37586151330E+01 0.51586059835E+01 0.72608384274E+01
 0.91013288745E+01 0.99811148687E+01 0.97366680243E+01 0.86535933987E+01 0.72034063772E+01
 0.58312465021E+01 0.47988364940E+01 0.40747525623E+01 0.35863804940E+01 0.32823753850E+01
 0.31354012263E+01 0.31354042579E+01 0.32823672125E+01 0.35863291927E+01 0.40746491471E+01
 0.47987110906E+01 0.58311507203E+01 0.72033818706E+01 0.86536502687E+01 0.97367815733E+01
 0.99812390523E+01 0.91014207373E+01 0.72608808975E+01 0.16344627480E+01 0.69718589548E+00
 0.16349686962E+01 0.40271648749E+01 0.68629579180E+01 0.91012983341E+01 0.10143588525E+02
 0.99616203079E+01 0.89260878638E+01 0.75522986016E+01 0.63169000701E+01 0.54244759223E+01
 0.48099908808E+01 0.44065247442E+01 0.41745767852E+01 0.40983494260E+01 0.41745848721E+01
 0.44066061668E+01 0.48101373860E+01 0.54245582475E+01 0.63168052887E+01 0.75520768144E+01
 0.89259284393E+01 0.99616791779E+01 0.10143815349E+02 0.91014207373E+01 0.68627034802E+01
 0.40265769376E+01 -.11101903192E+01 -.11098630245E+01 0.86032714888E+00 0.40271023450E+01
 0.72610100411E+01 0.96121619300E+01 0.10639093841E+02 0.10425574575E+02 0.94013731443E+01
 0.81265273940E+01 0.70811593918E+01 0.63502171222E+01 0.58555631022E+01 0.55434808405E+01
 0.53901482463E+01 0.53901560795E+01 0.55435343746E+01 0.58556939642E+01 0.63503822636E+01
 0.70812684133E+01 0.81265259313E+01 0.94012873248E+01 0.10425503409E+02 0.10639131132E+02
 0.96122449661E+01 0.72608808975E+01 0.40265769376E+01 0.85963348522E+00 -.11101205092E+01
 0.69659172121E+00 0.37580800121E+01 0.71929982261E+01 0.10114866170E+02 0.11914662647E+02
 0.12421321702E+02 0.11911938896E+02 0.10965682068E+02 0.10163359180E+02 0.96243932313E+01
 0.92692786652E+01 0.90455091190E+01 0.89340318672E+01 0.89338781380E+01 0.90450520901E+01
 0.92686395155E+01 0.96239086216E+01 0.10163370708E+02 0.10966182034E+02 0.11912526861E+02
 0.12421580086E+02 0.11914549266E+02 0.10114715040E+02 0.71931669434E+01 0.37586130700E+01
 0.69718589548E+00 -.11098630245E+01 0.69659172121E+00 0.29925949600E+01 0.61681910759E+01
 0.94340140651E+01 0.12024380068E+02 0.13450028173E+02 0.13678856932E+02 0.13133882938E+02
 0.12464523218E+02 0.12034642897E+02 0.11784381519E+02 0.11637408645E+02 0.11554411881E+02
 0.11526425146E+02 0.11553994873E+02 0.11636423655E+02 0.11783046941E+02 0.12033658171E+02
 0.12464434879E+02 0.13134512569E+02 0.13679524415E+02 0.13450250538E+02 0.12024260530E+02
 0.94340410349E+01 0.61687359219E+01 0.29935285392E+01 0.69733103989E+00 -.13924600917E+00
 0.37580800121E+01 0.61681910759E+01 0.91303415029E+01 0.11953909583E+02 0.13995858274E+02
 0.14940553823E+02 0.14962762932E+02 0.14622723176E+02 0.14444612586E+02 0.14443639761E+02
 0.14514926792E+02 0.14585734268E+02 0.14624613963E+02 0.14624989656E+02 0.14586217237E+02
 0.14514445567E+02 0.14442109640E+02 0.14443066933E+02 0.14622141929E+02 0.14963149331E+02
 0.14941184902E+02 0.13996134866E+02 0.11953837402E+02 0.91303411131E+01 0.61685634884E+01
 0.37586478997E+01 0.24212958989E+01 0.24210195082E+01 0.71929982261E+01 0.94340140651E+01
 0.11953909583E+02 0.14159297608E+02 0.15587880524E+02 0.16178976217E+02 0.16317623442E+02
 0.16540391264E+02 0.16950963731E+02 0.17414101040E+02 0.17809199920E+02 0.18063799284E+02
 0.18149853083E+02 0.18065808921E+02 0.17810782712E+02 0.17413308393E+02 0.16948456916E+02
 0.16538345799E+02 0.16317225788E+02 0.16179631627E+02 0.15588490809E+02 0.14159489038E+02
 0.11953906652E+02 0.94339642528E+01 0.71928608693E+01 0.56920946840E+01 0.51702143901E+01
 0.56922504093E+01 0.10114866170E+02 0.12024380068E+02 0.13995858274E+02 0.15587880524E+02
 0.16604823996E+02 0.17252343582E+02 0.17979902172E+02 0.18931669079E+02 0.19950008022E+02
 0.20841618974E+02 0.21413404263E+02 0.21660319022E+02 0.21661706119E+02 0.21416086630E+02
 0.20842799883E+02 0.19948519366E+02 0.18928867109E+02 0.17977907580E+02 0.17252023593E+02
 0.16605560502E+02 0.15588690220E+02 0.13996266142E+02 0.12024415220E+02 0.10114710226E+02
 0.86765110273E+01 0.79274517970E+01 0.79275314278E+01 0.86766940040E+01 0.11914662647E+02
 0.13450028173E+02 0.14940553823E+02 0.16178976217E+02 0.17252343582E+02 0.18494320715E+02
 0.20031619306E+02 0.21697877712E+02 0.23156932970E+02 0.24052245872E+02 0.24429495350E+02
 0.24518337805E+02 0.24432901232E+02 0.24056139178E+02 0.23158251618E+02 0.21696001842E+02
 0.20028381152E+02 0.18492007733E+02 0.17251911023E+02 0.16179812621E+02 0.14941489619E+02
 0.13450443145E+02 0.11914748324E+02 0.10644953936E+02 0.98480006417E+01 0.95824227757E+01
 0.98477950656E+01 0.10644804618E+02 0.12421321702E+02 0.13678856932E+02 0.14962762932E+02
 0.16317623442E+02 0.17979902172E+02 0.20031619306E+02 0.22322006747E+02 0.24388400504E+02
 0.25660954827E+02 0.26149989682E+02 0.26235490974E+02 0.26238808261E+02 0.26157246786E+02
 0.25666730957E+02 0.24389480242E+02 0.22319348915E+02 0.20028224687E+02 0.17977848213E+02
 0.16317150541E+02 0.14963152736E+02 0.13679424114E+02 0.12421750517E+02 0.11327629924E+02
 0.10554580146E+02 0.10169220618E+02 0.10169177091E+02 0.10554447298E+02 0.11327376861E+02
 0.11911938896E+02 0.13133882938E+02 0.14622723176E+02 0.16540391264E+02 0.18931669079E+02
 0.21697877712E+02 0.24388400504E+02 0.26191649686E+02 0.26918952373E+02 0.26988768815E+02
 0.26938075326E+02 0.26995148750E+02 0.26927640775E+02 0.26197739171E+02 0.24389616163E+02
 0.21695455136E+02 0.18928522991E+02 0.16538621642E+02 0.14622488944E+02 0.13134140935E+02
 0.11911923613E+02 0.10902318613E+02 0.10150988937E+02 0.97011384360E+01 0.95538788262E+01
 0.97008666934E+01 0.10150867780E+02 0.10902465818E+02 0.10965682068E+02 0.12464523218E+02
 0.14444612586E+02 0.16950963731E+02 0.19950008022E+02 0.23156932970E+02 0.25660954827E+02
 0.26918952373E+02 0.27176016372E+02 0.27065169955E+02 0.27067155484E+02 0.27181570153E+02
 0.26926278463E+02 0.25666713230E+02 0.23158400172E+02 0.19947712689E+02 0.16948179849E+02
 0.14443805566E+02 0.12465091803E+02 0.10965689708E+02 0.98532621999E+01 0.90519558199E+01
 0.85361435573E+01 0.82868862035E+01 0.82864184506E+01 0.85355782396E+01 0.90523864123E+01
 0.98541364109E+01 0.10163359180E+02 0.12034642897E+02 0.14443639761E+02 0.17414101040E+02
 0.20841618974E+02 0.24052245872E+02 0.26149989682E+02 0.26988768815E+02 0.27065169955E+02
 0.27001425503E+02 0.27066409354E+02 0.26991996151E+02 0.26154723211E+02 0.24056113565E+02
 0.20842546947E+02 0.17412603146E+02 0.14442066191E+02 0.12034403482E+02 0.10163792772E+02
 0.87682277822E+01 0.77857397952E+01 0.71494006103E+01 0.67961281126E+01 0.66834967114E+01
 0.67959186752E+01 0.71495212942E+01 0.77861640456E+01 0.87682478803E+01 0.96243932313E+01
 0.11784381519E+02 0.14514926792E+02 0.17809199920E+02 0.21413404263E+02 0.24429495350E+02
 0.26235490974E+02 0.26938075326E+02 0.27067155484E+02 0.27066409354E+02 0.26936957887E+02
 0.26235978210E+02 0.24431959774E+02 0.21416079195E+02 0.17810151568E+02 0.14514069289E+02
 0.11783216722E+02 0.96241259772E+01 0.79784975510E+01 0.67800546826E+01 0.59663392379E+01
 0.54744128896E+01 0.52464979901E+01 0.52466537265E+01 0.54747321485E+01 0.59664409266E+01
 0.67796818609E+01 0.79780291192E+01 0.92692786652E+01 0.11637408645E+02 0.14585734268E+02
 0.18063799284E+02 0.21660319022E+02 0.24518337805E+02 0.26238808261E+02 0.26995148750E+02
 0.27181570153E+02 0.26991996151E+02 0.26235978210E+02 0.24518682710E+02 0.21663009925E+02
 0.18065851922E+02 0.14585685070E+02 0.11636401579E+02 0.92688587438E+01 0.74379527047E+01
 0.60752544086E+01 0.51159566576E+01 0.44969904140E+01 0.41571579928E+01 0.40495984464E+01
 0.41569021979E+01 0.44969650682E+01 0.51161783818E+01 0.60752273870E+01 0.74377571528E+01
 0.90455091190E+01 0.11554411881E+02 0.14624613963E+02 0.18149853083E+02 0.21661706119E+02
 0.24432901232E+02 0.26157246786E+02 0.26927640775E+02 0.26926278463E+02 0.26154723211E+02
 0.24431959774E+02 0.21663009925E+02 0.18151589090E+02 0.14625094138E+02 0.11553926133E+02
 0.90452449468E+01 0.70813780987E+01 0.55980417512E+01 0.45277328161E+01 0.38069984021E+01
 0.33735858527E+01 0.31729140016E+01 0.31725865564E+01 0.33731426706E+01 0.38071650038E+01
 0.45282480756E+01 0.55981764574E+01 0.70812301392E+01 0.89340318672E+01 0.11526425146E+02
 0.14624989656E+02 0.18065808921E+02 0.21416086630E+02 0.24056139178E+02 0.25666730957E+02
 0.26197739171E+02 0.25666713230E+02 0.24056113565E+02 0.21416079195E+02 0.18065851922E+02
 0.14625094138E+02 0.11526562774E+02 0.89341430863E+01 0.68731507341E+01 0.52975170942E+01
 0.41414728091E+01 0.33396905294E+01 0.28291888403E+01 0.25519234523E+01 0.24648456444E+01
 0.25518883917E+01 0.28291894224E+01 0.33397735718E+01 0.41415970158E+01 0.52975934072E+01
 0.68731253774E+01 0.89338781380E+01 0.11553994873E+02 0.14586217237E+02 0.17810782712E+02
 0.20842799883E+02 0.23158251618E+02 0.24389480242E+02 0.24389616163E+02 0.23158400172E+02
 0.20842546947E+02 0.17810151568E+02 0.14585685070E+02 0.11553926133E+02 0.89341430863E+01
 0.68039725613E+01 0.51502452981E+01 0.39198064501E+01 0.30487230336E+01 0.24725713287E+01
 0.21308592434E+01 0.19742290080E+01 0.19742963902E+01 0.21309621147E+01 0.24725755043E+01
 0.30486639571E+01 0.39197766724E+01 0.51501749296E+01 0.68037371115E+01 0.90450520901E+01
 0.11636423655E+02 0.14514445567E+02 0.17413308393E+02 0.19948519366E+02 0.21696001842E+02
 0.22319348915E+02 0.21695455136E+02 0.19947712689E+02 0.17412603146E+02 0.14514069289E+02
 0.11636401579E+02 0.90452449468E+01 0.68731507341E+01 0.51502452981E+01 0.38472034231E+01
 0.29083020731E+01 0.22698329860E+01 0.18696041151E+01 0.16542134216E+01 0.15868526390E+01
 0.16542526335E+01 0.18696121616E+01 0.22697902649E+01 0.29082597582E+01 0.38471669648E+01
 0.51501384594E+01 0.68729426528E+01 0.92686395155E+01 0.11783046941E+02 0.14442109640E+02
 0.16948456916E+02 0.18928867109E+02 0.20028381152E+02 0.20028224687E+02 0.18928522991E+02
 0.16948179849E+02 0.14442066191E+02 0.11783216722E+02 0.92688587438E+01 0.70813780987E+01
 0.52975170942E+01 0.39198064501E+01 0.29083020731E+01 0.22039932282E+01 0.17442900383E+01
 0.14733206577E+01 0.13491820474E+01 0.13492504342E+01 0.14734047336E+01 0.17442289554E+01
 0.22038576793E+01 0.29082921509E+01 0.39199481877E+01 0.52976234664E+01 0.70812961749E+01
 0.96239086216E+01 0.12033658171E+02 0.14443066933E+02 0.16538345799E+02 0.17977907580E+02
 0.18492007733E+02 0.17977848213E+02 0.16538621642E+02 0.14443805566E+02 0.12034403482E+02
 0.96241259772E+01 0.74379527047E+01 0.55980417512E+01 0.41414728091E+01 0.30487230336E+01
 0.22698329860E+01 0.17442900383E+01 0.14148380520E+01 0.12362058022E+01 0.11798781527E+01
 0.12361901806E+01 0.14148359000E+01 0.17442907993E+01 0.22698003584E+01 0.30487193515E+01
 0.41416691151E+01 0.55984651874E+01 0.74382721305E+01 0.10163370708E+02 0.12464434879E+02
 0.14622141929E+02 0.16317225788E+02 0.17252023593E+02 0.17251911023E+02 0.16317150541E+02
 0.14622488944E+02 0.12465091803E+02 0.10163792772E+02 0.79784975510E+01 0.60752544086E+01
 0.45277328161E+01 0.33396905294E+01 0.24725713287E+01 0.18696041151E+01 0.14733206577E+01
 0.12362058022E+01 0.11257102901E+01 0.11256609744E+01 0.12361457828E+01 0.14733561620E+01
 0.18696699080E+01 0.24725672309E+01 0.33397277791E+01 0.45280131671E+01 0.60756769741E+01
 0.79786258656E+01 0.10966182034E+02 0.13134512569E+02 0.14963149331E+02 0.16179631627E+02
 0.16605560502E+02 0.16179812621E+02 0.14963152736E+02 0.13134140935E+02 0.10965689708E+02
 0.87682277822E+01 0.67800546826E+01 0.51159566576E+01 0.38069984021E+01 0.28291888403E+01
 0.21308592434E+01 0.16542134216E+01 0.13491820474E+01 0.11798781527E+01 0.11256609744E+01
 0.11798965796E+01 0.13491988881E+01 0.16542266160E+01 0.21308819270E+01 0.28291865337E+01
 0.38068859250E+01 0.51157402694E+01 0.67799431660E+01 0.87684551006E+01 0.11912526861E+02
 0.13679524415E+02 0.14941184902E+02 0.15588490809E+02 0.15588690220E+02 0.14941489619E+02
 0.13679424114E+02 0.11911923613E+02 0.98532621999E+01 0.77857397952E+01 0.59663392379E+01
 0.44969904140E+01 0.33735858527E+01 0.25519234523E+01 0.19742290080E+01 0.15868526390E+01
 0.13492504342E+01 0.12361901806E+01 0.12361457828E+01 0.13491988881E+01 0.15869053713E+01
 0.19743239364E+01 0.25518498293E+01 0.33732231337E+01 0.44964943030E+01 0.59660788965E+01
 0.77860019874E+01 0.98539403123E+01 0.12421580086E+02 0.13450250538E+02 0.13996134866E+02
 0.14159489038E+02 0.13996266142E+02 0.13450443145E+02 0.12421750517E+02 0.10902318613E+02
 0.90519558199E+01 0.71494006103E+01 0.54744128896E+01 0.41571579928E+01 0.31729140016E+01
 0.24648456444E+01 0.19742963902E+01 0.16542526335E+01 0.14734047336E+01 0.14148359000E+01
 0.14733561620E+01 0.16542266160E+01 0.19743239364E+01 0.24648729557E+01 0.31728870532E+01
 0.41570958854E+01 0.54743670093E+01 0.71493785690E+01 0.90519153742E+01 0.10902216081E+02
 0.11914549266E+02 0.12024260530E+02 0.11953837402E+02 0.11953906652E+02 0.12024415220E+02
 0.11914748324E+02 0.11327629924E+02 0.10150988937E+02 0.85361435573E+01 0.67961281126E+01
 0.52464979901E+01 0.40495984464E+01 0.31725865564E+01 0.25518883917E+01 0.21309621147E+01
 0.18696121616E+01 0.17442289554E+01 0.17442907993E+01 0.18696699080E+01 0.21308819270E+01
 0.25518498293E+01 0.31728870532E+01 0.40501744532E+01 0.52468867928E+01 0.67959769524E+01
 0.85355884097E+01 0.10150433808E+02 0.11327289398E+02 0.10114715040E+02 0.94340410349E+01
 0.91303411131E+01 0.94339642528E+01 0.10114710226E+02 0.10644953936E+02 0.10554580146E+02
 0.97011384360E+01 0.82868862035E+01 0.66834967114E+01 0.52466537265E+01 0.41569021979E+01
 0.33731426706E+01 0.28291894224E+01 0.24725755043E+01 0.22697902649E+01 0.22038576793E+01
 0.22698003584E+01 0.24725672309E+01 0.28291865337E+01 0.33732231337E+01 0.41570958854E+01
 0.52468867928E+01 0.66836491491E+01 0.82868726413E+01 0.97009545108E+01 0.10554326250E+02
 0.10644790566E+02 0.71931669434E+01 0.61687359219E+01 0.61685634884E+01 0.71928608693E+01
 0.86765110273E+01 0.98480006417E+01 0.10169220618E+02 0.95538788262E+01 0.82864184506E+01
 0.67959186752E+01 0.54747321485E+01 0.44969650682E+01 0.38071650038E+01 0.33397735718E+01
 0.30486639571E+01 0.29082597582E+01 0.29082921509E+01 0.30487193515E+01 0.33397277791E+01
 0.38068859250E+01 0.44964943030E+01 0.54743670093E+01 0.67959769524E+01 0.82868726413E+01
 0.95543393074E+01 0.10169374753E+02 0.98479699522E+01 0.86766290688E+01 0.37586130700E+01
 0.29935285392E+01 0.37586478997E+01 0.56920946840E+01 0.79274517970E+01 0.95824227757E+01
 0.10169177091E+02 0.97008666934E+01 0.85355782396E+01 0.71495212942E+01 0.59664409266E+01
 0.51161783818E+01 0.45282480756E+01 0.41415970158E+01 0.39197766724E+01 0.38471669648E+01
 0.39199481877E+01 0.41416691151E+01 0.45280131671E+01 0.51157402694E+01 0.59660788965E+01
 0.71493785690E+01 0.85355884097E+01 0.97009545108E+01 0.10169374753E+02 0.95827296401E+01
 0.79277194108E+01 0.56921816855E+01 0.69718589548E+00 0.69733103989E+00 0.24212958989E+01
 0.51702143901E+01 0.79275314278E+01 0.98477950656E+01 0.10554447298E+02 0.10150867780E+02
 0.90523864123E+01 0.77861640456E+01 0.67796818609E+01 0.60752273870E+01 0.55981764574E+01
 0.52975934072E+01 0.51501749296E+01 0.51501384594E+01 0.52976234664E+01 0.55984651874E+01
 0.60756769741E+01 0.67799431660E+01 0.77860019874E+01 0.90519153742E+01 0.10150433808E+02
 0.10554326250E+02 0.98479699522E+01 0.79277194108E+01 0.51701540853E+01 0.24210394912E+01
 -.11098630245E+01 -.13924600917E+00 0.24210195082E+01 0.56922504093E+01 0.86766940040E+01
 0.10644804618E+02 0.11327376861E+02 0.10902465818E+02 0.98541364109E+01 0.87682478803E+01
 0.79780291192E+01 0.74377571528E+01 0.70812301392E+01 0.68731253774E+01 0.68037371115E+01
 0.68729426528E+01 0.70812961749E+01 0.74382721305E+01 0.79786258656E+01 0.87684551006E+01
 0.98539403123E+01 0.10902216081E+02 0.11327289398E+02 0.10644790566E+02 0.86766290688E+01
 0.56921816855E+01 0.24210394912E+01 -.13917958290E+00 0.16344636033E+01 0.37580800121E+01
 0.66860484639E+01 0.96778396104E+01 0.12018012801E+02 0.13256381342E+02 0.13378358923E+02
 0.12799256096E+02 0.12140159554E+02 0.11720919148E+02 0.11475673761E+02 0.11331185567E+02
 0.11249821281E+02 0.11222653408E+02 0.11249830851E+02 0.11330711710E+02 0.11474569420E+02
 0.11719837016E+02 0.12139934310E+02 0.12799993669E+02 0.13379346871E+02 0.13256850788E+02
 0.12017844279E+02 0.96775380092E+01 0.66861484457E+01 0.37586151330E+01 0.16349686962E+01
 0.86032714888E+00 0.37580800121E+01 0.61681910759E+01 0.91303415029E+01 0.11953909583E+02
 0.13995858274E+02 0.14940553823E+02 0.14962762932E+02 0.14622723176E+02 0.14444612586E+02
 0.14443639761E+02 0.14514926792E+02 0.14585734268E+02 0.14624613963E+02 0.14624989656E+02
 0.14586217237E+02 0.14514445567E+02 0.14442109640E+02 0.14443066933E+02 0.14622141929E+02
 0.14963149331E+02 0.14941184902E+02 0.13996134866E+02 0.11953837402E+02 0.91303411131E+01
 0.61685634884E+01 0.37586478997E+01 0.24212958989E+01 0.24210195082E+01 0.66860484639E+01
 0.91303415029E+01 0.11885371658E+02 0.14313962958E+02 0.15914845094E+02 0.16607699229E+02