   2   2   0   0
  0.2376367E+02  0.4065864E-09  0.4065864E-09  0.4065864E-09  0.5000000E-15
  1.000000000000000E-004
  CAR 
 GaAs                                    
     14.09158508    -11.99010926  301      2.38344358      1.00000000
    -11.990  0.0000E+00  0.0000E+00
    -11.903  0.0000E+00  0.0000E+00
    -11.816  0.0000E+00  0.0000E+00
    -11.729  0.0000E+00  0.0000E+00
    -11.642 -0.8378E-33 -0.7284E-34
    -11.555 -0.1018E-29 -0.8860E-31
    -11.468 -0.7722E-27 -0.6722E-28
    -11.382 -0.4019E-24 -0.3500E-25
    -11.295 -0.1436E-21 -0.1252E-22
    -11.208 -0.3520E-19 -0.3073E-20
    -11.121 -0.5751E-17 -0.5031E-18
    -11.034 -0.6616E-15 -0.5802E-16
    -10.947 -0.5219E-13 -0.4595E-14
    -10.860 -0.2822E-11 -0.2499E-12
    -10.773 -0.1045E-09 -0.9334E-11
    -10.686 -0.2645E-08 -0.2393E-09
    -10.599 -0.4567E-07 -0.4210E-08
    -10.512 -0.5350E-06 -0.5072E-07
    -10.425 -0.4213E-05 -0.4170E-06
    -10.338 -0.2187E-04 -0.2319E-05
    -10.251 -0.7128E-04 -0.8516E-05
    -10.164 -0.1227E-03 -0.1918E-04
    -10.077  0.1642E-04 -0.1775E-04
     -9.991  0.6658E-03  0.4013E-04
     -9.904  0.1922E-02  0.2072E-03
     -9.817  0.3447E-02  0.5069E-03
     -9.730  0.4818E-02  0.9258E-03
     -9.643  0.5917E-02  0.1440E-02
     -9.556  0.6850E-02  0.2036E-02
     -9.469  0.7728E-02  0.2708E-02
     -9.382  0.8597E-02  0.3455E-02
     -9.295  0.9480E-02  0.4279E-02
     -9.208  0.1039E-01  0.5183E-02
     -9.121  0.1135E-01  0.6170E-02
     -9.034  0.1239E-01  0.7247E-02
     -8.947  0.1351E-01  0.8422E-02
     -8.860  0.1477E-01  0.9706E-02
     -8.773  0.1628E-01  0.1112E-01
     -8.686  0.1834E-01  0.1272E-01
     -8.599  0.2140E-01  0.1458E-01
     -8.513  0.2537E-01  0.1678E-01
     -8.426  0.2910E-01  0.1931E-01
     -8.339  0.3125E-01  0.2203E-01
     -8.252  0.3178E-01  0.2479E-01
     -8.165  0.3189E-01  0.2756E-01
     -8.078  0.3280E-01  0.3041E-01
     -7.991  0.3443E-01  0.3341E-01
     -7.904  0.3377E-01  0.3634E-01
     -7.817  0.2667E-01  0.3866E-01
     -7.730  0.1425E-01  0.3990E-01
     -7.643  0.3605E-02  0.4021E-01
     -7.556 -0.8449E-03  0.4014E-01
     -7.469 -0.1082E-02  0.4005E-01
     -7.382 -0.4300E-03  0.4001E-01
     -7.295 -0.9752E-04  0.4000E-01
     -7.208 -0.1402E-04  0.4000E-01
     -7.122 -0.1325E-05  0.4000E-01
     -7.035 -0.8386E-07  0.4000E-01
     -6.948 -0.3584E-08  0.4000E-01
     -6.861 -0.1040E-09  0.4000E-01
     -6.774 -0.2056E-11  0.4000E-01
     -6.687 -0.2775E-13  0.4000E-01
     -6.600 -0.2568E-15  0.4000E-01
     -6.513 -0.8173E-18  0.4000E-01
     -6.426  0.0000E+00  0.4000E-01
     -6.339  0.0000E+00  0.4000E-01
     -6.252  0.0000E+00  0.4000E-01
     -6.165  0.0000E+00  0.4000E-01
     -6.078  0.0000E+00  0.4000E-01
     -5.991  0.0000E+00  0.4000E-01
     -5.904  0.0000E+00  0.4000E-01
     -5.817 -0.6329E-31  0.4000E-01
     -5.731 -0.6006E-28  0.4000E-01
     -5.644 -0.3890E-25  0.4000E-01
     -5.557 -0.1730E-22  0.4000E-01
     -5.470 -0.5282E-20  0.4000E-01
     -5.383 -0.1102E-17  0.4000E-01
     -5.296 -0.1548E-15  0.4000E-01
     -5.209 -0.1525E-13  0.4000E-01
     -5.122 -0.1032E-11  0.4000E-01
     -5.035 -0.4798E-10  0.4000E-01
     -4.948 -0.1531E-08  0.4000E-01
     -4.861 -0.3351E-07  0.4000E-01
     -4.774 -0.5026E-06  0.4000E-01
     -4.687 -0.5152E-05  0.4000E-01
     -4.600 -0.3589E-04  0.4000E-01
     -4.513 -0.1676E-03  0.3998E-01
     -4.426 -0.5061E-03  0.3994E-01
     -4.339 -0.8556E-03  0.3986E-01
     -4.253 -0.3904E-04  0.3986E-01
     -4.166  0.4316E-02  0.4024E-01
     -4.079  0.1452E-01  0.4150E-01
     -3.992  0.2995E-01  0.4410E-01
     -3.905  0.4439E-01  0.4796E-01
     -3.818  0.4906E-01  0.5223E-01
     -3.731  0.4204E-01  0.5588E-01
     -3.644  0.3073E-01  0.5855E-01
     -3.557  0.2236E-01  0.6050E-01
     -3.470  0.1798E-01  0.6206E-01
     -3.383  0.1563E-01  0.6342E-01
     -3.296  0.1396E-01  0.6463E-01
     -3.209  0.1259E-01  0.6573E-01
     -3.122  0.1143E-01  0.6672E-01
     -3.035  0.1044E-01  0.6763E-01
     -2.948  0.9585E-02  0.6846E-01
     -2.862  0.8842E-02  0.6923E-01
     -2.775  0.8188E-02  0.6994E-01
     -2.688  0.7604E-02  0.7060E-01
     -2.601  0.7083E-02  0.7122E-01
     -2.514  0.6610E-02  0.7179E-01
     -2.427  0.6180E-02  0.7233E-01
     -2.340  0.5790E-02  0.7283E-01
     -2.253  0.5426E-02  0.7331E-01
     -2.166  0.5094E-02  0.7375E-01
     -2.079  0.4787E-02  0.7417E-01
     -1.992  0.4497E-02  0.7456E-01
     -1.905  0.4232E-02  0.7492E-01
     -1.818  0.3977E-02  0.7527E-01
     -1.731  0.3703E-02  0.7559E-01
     -1.644  0.3350E-02  0.7588E-01
     -1.557  0.2871E-02  0.7613E-01
     -1.470  0.2661E-02  0.7636E-01
     -1.384  0.3960E-02  0.7671E-01
     -1.297  0.8167E-02  0.7742E-01
     -1.210  0.1512E-01  0.7873E-01
     -1.123  0.2236E-01  0.8068E-01
     -1.036  0.2680E-01  0.8301E-01
     -0.949  0.2740E-01  0.8539E-01
     -0.862  0.2566E-01  0.8762E-01
     -0.775  0.2376E-01  0.8969E-01
     -0.688  0.2279E-01  0.9167E-01
     -0.601  0.2273E-01  0.9364E-01
     -0.514  0.2320E-01  0.9566E-01
     -0.427  0.2398E-01  0.9775E-01
     -0.340  0.2518E-01  0.9993E-01
     -0.253  0.2710E-01  0.1023E+00
     -0.166  0.2972E-01  0.1049E+00
     -0.079  0.3223E-01  0.1077E+00
      0.007  0.3361E-01  0.1106E+00
      0.094  0.3367E-01  0.1135E+00
      0.181  0.3308E-01  0.1164E+00
      0.268  0.3242E-01  0.1192E+00
      0.355  0.3184E-01  0.1220E+00
      0.442  0.3131E-01  0.1247E+00
      0.529  0.3081E-01  0.1274E+00
      0.616  0.3033E-01  0.1300E+00
      0.703  0.2985E-01  0.1326E+00
      0.790  0.2940E-01  0.1352E+00
      0.877  0.2896E-01  0.1377E+00
      0.964  0.2857E-01  0.1402E+00
      1.051  0.2828E-01  0.1426E+00
      1.138  0.2793E-01  0.1451E+00
      1.225  0.2699E-01  0.1474E+00
      1.312  0.2479E-01  0.1496E+00
      1.398  0.2144E-01  0.1514E+00
      1.485  0.1790E-01  0.1530E+00
      1.572  0.1505E-01  0.1543E+00
      1.659  0.1295E-01  0.1554E+00
      1.746  0.1128E-01  0.1564E+00
      1.833  0.9822E-02  0.1573E+00
      1.920  0.8490E-02  0.1580E+00
      2.007  0.7243E-02  0.1586E+00
      2.094  0.6017E-02  0.1591E+00
      2.181  0.4697E-02  0.1596E+00
      2.268  0.3193E-02  0.1598E+00
      2.355  0.1658E-02  0.1600E+00
      2.442  0.4989E-03  0.1600E+00
      2.529 -0.3626E-04  0.1600E+00
      2.616 -0.1151E-03  0.1600E+00
      2.703 -0.5065E-04  0.1600E+00
      2.790  0.7567E-06  0.1600E+00
      2.876  0.2495E-04  0.1600E+00
      2.963  0.3008E-04  0.1600E+00
      3.050  0.2935E-04  0.1600E+00
      3.137  0.9369E-04  0.1600E+00
      3.224  0.3407E-03  0.1600E+00
      3.311  0.8263E-03  0.1601E+00
      3.398  0.1475E-02  0.1602E+00
      3.485  0.2145E-02  0.1604E+00
      3.572  0.2775E-02  0.1607E+00
      3.659  0.3469E-02  0.1610E+00
      3.746  0.4452E-02  0.1614E+00
      3.833  0.5968E-02  0.1619E+00
      3.920  0.8120E-02  0.1626E+00
      4.007  0.1069E-01  0.1635E+00
      4.094  0.1332E-01  0.1647E+00
      4.181  0.1583E-01  0.1661E+00
      4.267  0.1820E-01  0.1676E+00
      4.354  0.2058E-01  0.1694E+00
      4.441  0.2340E-01  0.1715E+00
      4.528  0.2728E-01  0.1738E+00
      4.615  0.3232E-01  0.1766E+00
      4.702  0.3709E-01  0.1799E+00
      4.789  0.3911E-01  0.1833E+00
      4.876  0.3726E-01  0.1865E+00
      4.963  0.3270E-01  0.1893E+00
      5.050  0.2752E-01  0.1917E+00
      5.137  0.2316E-01  0.1938E+00
      5.224  0.2015E-01  0.1955E+00
      5.311  0.1866E-01  0.1971E+00
      5.398  0.1866E-01  0.1987E+00
      5.485  0.1948E-01  0.2004E+00
      5.572  0.1990E-01  0.2022E+00
      5.659  0.1919E-01  0.2038E+00
      5.745  0.1782E-01  0.2054E+00
      5.832  0.1665E-01  0.2068E+00
      5.919  0.1598E-01  0.2082E+00
      6.006  0.1577E-01  0.2096E+00
      6.093  0.1585E-01  0.2110E+00
      6.180  0.1594E-01  0.2124E+00
      6.267  0.1600E-01  0.2138E+00
      6.354  0.1677E-01  0.2152E+00
      6.441  0.1975E-01  0.2169E+00
      6.528  0.2599E-01  0.2192E+00
      6.615  0.3368E-01  0.2221E+00
      6.702  0.3864E-01  0.2255E+00
      6.789  0.3878E-01  0.2288E+00
      6.876  0.3590E-01  0.2320E+00
      6.963  0.3228E-01  0.2348E+00
      7.050  0.2879E-01  0.2373E+00
      7.136  0.2587E-01  0.2395E+00
      7.223  0.2367E-01  0.2416E+00
      7.310  0.2241E-01  0.2435E+00
      7.397  0.2257E-01  0.2455E+00
      7.484  0.2410E-01  0.2476E+00
      7.571  0.2670E-01  0.2499E+00
      7.658  0.3024E-01  0.2525E+00
      7.745  0.3410E-01  0.2555E+00
      7.832  0.3695E-01  0.2587E+00
      7.919  0.3744E-01  0.2620E+00
      8.006  0.3524E-01  0.2650E+00
      8.093  0.3149E-01  0.2678E+00
      8.180  0.2800E-01  0.2702E+00
      8.267  0.2578E-01  0.2725E+00
      8.354  0.2466E-01  0.2746E+00
      8.441  0.2395E-01  0.2767E+00
      8.527  0.2315E-01  0.2787E+00
      8.614  0.2183E-01  0.2806E+00
      8.701  0.1997E-01  0.2823E+00
      8.788  0.1826E-01  0.2839E+00
      8.875  0.1738E-01  0.2854E+00
      8.962  0.1715E-01  0.2869E+00
      9.049  0.1722E-01  0.2884E+00
      9.136  0.1758E-01  0.2899E+00
      9.223  0.1805E-01  0.2915E+00
      9.310  0.1850E-01  0.2931E+00
      9.397  0.1927E-01  0.2948E+00
      9.484  0.2044E-01  0.2966E+00
      9.571  0.2173E-01  0.2985E+00
      9.658  0.2300E-01  0.3005E+00
      9.745  0.2388E-01  0.3025E+00
      9.832  0.2351E-01  0.3046E+00
      9.919  0.2162E-01  0.3065E+00
     10.005  0.1945E-01  0.3081E+00
     10.092  0.1797E-01  0.3097E+00
     10.179  0.1642E-01  0.3111E+00
     10.266  0.1380E-01  0.3123E+00
     10.353  0.1072E-01  0.3133E+00
     10.440  0.8477E-02  0.3140E+00
     10.527  0.7379E-02  0.3146E+00
     10.614  0.6828E-02  0.3152E+00
     10.701  0.6390E-02  0.3158E+00
     10.788  0.5959E-02  0.3163E+00
     10.875  0.5500E-02  0.3168E+00
     10.962  0.5037E-02  0.3172E+00
     11.049  0.4604E-02  0.3176E+00
     11.136  0.4191E-02  0.3180E+00
     11.223  0.3795E-02  0.3183E+00
     11.310  0.3413E-02  0.3186E+00
     11.396  0.3046E-02  0.3189E+00
     11.483  0.2702E-02  0.3191E+00
     11.570  0.2367E-02  0.3193E+00
     11.657  0.2043E-02  0.3195E+00
     11.744  0.1738E-02  0.3197E+00
     11.831  0.1437E-02  0.3198E+00
     11.918  0.1127E-02  0.3199E+00
     12.005  0.7949E-03  0.3199E+00
     12.092  0.4531E-03  0.3200E+00
     12.179  0.1711E-03  0.3200E+00
     12.266  0.1560E-04  0.3200E+00
     12.353 -0.2559E-04  0.3200E+00
     12.440 -0.1742E-04  0.3200E+00
     12.527 -0.5905E-05  0.3200E+00
     12.614 -0.1243E-05  0.3200E+00
     12.701 -0.1718E-06  0.3200E+00
     12.788 -0.1595E-07  0.3200E+00
     12.874 -0.1004E-08  0.3200E+00
     12.961 -0.4299E-10  0.3200E+00
     13.048 -0.1256E-11  0.3200E+00
     13.135 -0.2507E-13  0.3200E+00
     13.222 -0.3419E-15  0.3200E+00
     13.309 -0.3178E-17  0.3200E+00
     13.396 -0.2270E-19  0.3200E+00
     13.483  0.0000E+00  0.3200E+00
     13.570  0.0000E+00  0.3200E+00
     13.657  0.0000E+00  0.3200E+00
     13.744  0.0000E+00  0.3200E+00
     13.831  0.0000E+00  0.3200E+00
     13.918  0.0000E+00  0.3200E+00
     14.005  0.0000E+00  0.3200E+00
     14.092  0.0000E+00  0.3200E+00
