    2    2   50    1
  0.2376367E+02  0.4065864E-09  0.4065864E-09  0.4065864E-09  0.5000000E-15
  1.000000000000000E-004
  CAR 
 GaAs                                    
      8   2480      8
 
  0.1666667E-01  0.1666667E-01  0.1666667E-01  0.7407407E-04
    1       -9.990109   1.000000
    2        2.157892   1.033810
    3        2.340436   0.677399
    4        2.340436   0.677399
    5        2.688093  -0.026604
    6        6.092879  -0.000000
    7        6.096793  -0.000000
    8        6.096793  -0.000000
 
  0.5000000E-01  0.1666667E-01  0.1666667E-01  0.2222222E-03
    1       -9.975056   1.000000
    2        1.765520   1.000056
    3        2.288570   0.855697
    4        2.332498   0.708008
    5        3.028027  -0.000025
    6        6.090485  -0.000000
    7        6.112639  -0.000000
    8        6.171271  -0.000000
 
  0.8333333E-01  0.1666667E-01  0.1666667E-01  0.2222222E-03
    1       -9.937565   1.000000
    2        1.234212   1.000000
    3        2.215922   0.999053
    4        2.290889   0.848972
    5        3.389051  -0.000000
    6        6.134800  -0.000000
    7        6.179045  -0.000000
    8        6.291898  -0.000000
 
  0.1166667E+00  0.1666667E-01  0.1666667E-01  0.2222222E-03
    1       -9.878067   1.000000
    2        0.675529   1.000000
    3        2.122853   1.034612
    4        2.220791   0.993364
    5        3.649531  -0.000000
    6        6.253682  -0.000000
    7        6.286904  -0.000000
    8        6.458177  -0.000000
 
  0.1500000E+00  0.1666667E-01  0.1666667E-01  0.2222222E-03
    1       -9.797337   1.000000
    2        0.110949   1.000000
    3        2.015837   1.013013
    4        2.129542   1.035167
    5        3.787795  -0.000000
    6        6.422189  -0.000000
    7        6.443218  -0.000000
    8        6.684851  -0.000000
 
  0.1833333E+00  0.1666667E-01  0.1666667E-01  0.2222222E-03
    1       -9.696491   1.000000
    2       -0.449047   1.000000
    3        1.902102   1.001739
    4        2.025151   1.014762
    5        3.820831  -0.000000
    6        6.568205  -0.000000
    7        6.641957  -0.000000
    8        7.007780  -0.000000
 
  0.2166667E+00  0.1666667E-01  0.1666667E-01  0.2222222E-03
    1       -9.577223   1.000000
    2       -0.996063   1.000000
    3        1.787731   1.000105
    4        1.914398   1.002248
    5        3.784966  -0.000000
    6        6.707324  -0.000000
    7        6.806298  -0.000000
    8        7.425547  -0.000000
 
  0.2500000E+00  0.1666667E-01  0.1666667E-01  0.2222222E-03
    1       -9.441766   1.000000
    2       -1.522967   1.000000
    3        1.677894   1.000004
    4        1.803443   1.000162
    5        3.712717  -0.000000
    6        6.824731  -0.000000
    7        6.929674  -0.000000
    8        7.902590   0.000000
 
  0.2833333E+00  0.1666667E-01  0.1666667E-01  0.2222222E-03
    1       -9.293277   1.000000
    2       -2.022847   1.000000
    3        1.576450   1.000000
    4        1.696928   1.000007
    5        3.625980  -0.000000
    6        6.911061  -0.000000
    7        7.010755  -0.000000
    8        8.409971   0.000000
 
  0.3166667E+00  0.1666667E-01  0.1666667E-01  0.2222222E-03
    1       -9.136149   1.000000
    2       -2.488221   1.000000
    3        1.486136   1.000000
    4        1.598643   1.000000
    5        3.538114  -0.000000
    6        6.964779  -0.000000
    7        7.052173  -0.000000
    8        8.921663   0.000000
 
  0.3500000E+00  0.1666667E-01  0.1666667E-01  0.2222222E-03
    1       -8.976468   1.000000
    2       -2.911007   1.000000
    3        1.408721   1.000000
    4        1.510306   1.000000
    5        3.456707  -0.000000
    6        6.990325  -0.000000
    7        7.061907  -0.000000
    8        9.398323   0.000000
 
  0.3833333E+00  0.1666667E-01  0.1666667E-01  0.2222222E-03
    1       -8.822250   1.000000
    2       -3.280736   1.000000
    3        1.346392   1.000000
    4        1.435293   1.000000
    5        3.386949  -0.000000
    6        6.997261  -0.000000
    7        7.050979  -0.000000
    8        9.768573   0.000000
 
  0.4166667E+00  0.1666667E-01  0.1666667E-01  0.2222222E-03
    1       -8.684114   1.000000
    2       -3.586069   1.000000
    3        1.299382   1.000000
    4        1.373624   1.000000
    5        3.331300  -0.000000
    6        6.994540  -0.000000
    7        7.029561  -0.000000
    8        9.964890   0.000000
 
  0.4500000E+00  0.1666667E-01  0.1666667E-01  0.2222222E-03
    1       -8.574421   1.000000
    2       -3.813369   1.000000
    3        1.268669   1.000000
    4        1.327471   1.000000
    5        3.291492  -0.000000
    6        6.990338  -0.000000
    7        7.006196  -0.000000
    8       10.030518   0.000000
 
  0.4833333E+00  0.1666667E-01  0.1666667E-01  0.2222222E-03
    1       -8.505907   1.000000
    2       -3.949520   1.000000
    3        1.254649   1.000000
    4        1.297115   1.000000
    5        3.268507  -0.000000
    6        6.986726  -0.000000
    7        6.990140  -0.000000
    8       10.044613   0.000000
 
 -0.4833333E+00  0.1666667E-01  0.1666667E-01  0.2222222E-03
    1       -8.488023   1.000000
    2       -3.984303   1.000000
    3        1.257438   1.000000
    4        1.283138   1.000000
    5        3.262813  -0.000000
    6        6.974473  -0.000000
    7        6.997080  -0.000000
    8       10.045880   0.000000
 
 -0.4500000E+00  0.1666667E-01  0.1666667E-01  0.2222222E-03
    1       -8.523485   1.000000
    2       -3.915142   1.000000
    3        1.276870   1.000000
    4        1.285732   1.000000
    5        3.274504  -0.000000
    6        6.970286  -0.000000
    7        7.011866  -0.000000
    8       10.041926   0.000000
 
 -0.4166667E+00  0.1666667E-01  0.1666667E-01  0.2222222E-03
    1       -8.607003   1.000000
    2       -3.747149   1.000000
    3        1.304987   1.000000
    4        1.312694   1.000000
    5        3.303393  -0.000000
    6        6.972650  -0.000000
    7        7.032852  -0.000000
    8       10.016541   0.000000
 
 -0.3833333E+00  0.1666667E-01  0.1666667E-01  0.2222222E-03
    1       -8.727644   1.000000
    2       -3.492288   1.000000
    3        1.340805   1.000000
    4        1.364304   1.000000
    5        3.348824  -0.000000
    6        6.977525  -0.000000
    7        7.055974  -0.000000
    8        9.916735   0.000000
 
 -0.3500000E+00  0.1666667E-01  0.1666667E-01  0.2222222E-03
    1       -8.872433   1.000000
    2       -3.164044   1.000000
    3        1.392360   1.000000
    4        1.431072   1.000000
    5        3.409619  -0.000000
    6        6.978437  -0.000000
    7        7.074553  -0.000000
    8        9.660737   0.000000
 
 -0.3166667E+00  0.1666667E-01  0.1666667E-01  0.2222222E-03
    1       -9.029515   1.000000
    2       -2.775488   1.000000
    3        1.458976   1.000000
    4        1.511410   1.000000
    5        3.483806  -0.000000
    6        6.966429  -0.000000
    7        7.079717  -0.000000
    8        9.245245   0.000000
 
 -0.2833333E+00  0.1666667E-01  0.1666667E-01  0.2222222E-03
    1       -9.189130   1.000000
    2       -2.337464   1.000000
    3        1.539993   1.000000
    4        1.603946   1.000000
    5        3.568150  -0.000000
    6        6.931473  -0.000000
    7        7.061505  -0.000000
    8        8.751707   0.000000
 
 -0.2500000E+00  0.1666667E-01  0.1666667E-01  0.2222222E-03
    1       -9.343953   1.000000
    2       -1.859692   1.000000
    3        1.633587   1.000001
    4        1.706369   1.000009
    5        3.656963  -0.000000
    6        6.864459  -0.000000
    7        7.010631  -0.000000
    8        8.238649   0.000000
 
 -0.2166667E+00  0.1666667E-01  0.1666667E-01  0.2222222E-03
    1       -9.488532   1.000000
    2       -1.349896   1.000000
    3        1.736551   1.000024
    4        1.815829   1.000224
    5        3.740869  -0.000000
    6        6.761343  -0.000000
    7        6.922034  -0.000000
    8        7.737747  -0.000000
 
 -0.1833333E+00  0.1666667E-01  0.1666667E-01  0.2222222E-03
    1       -9.618896   1.000000
    2       -0.815507   1.000000
    3        1.846854   1.000492
    4        1.928579   1.002989
    5        3.804172  -0.000000
    6        6.624628  -0.000000
    7        6.799093  -0.000000
    8        7.273067  -0.000000
 
 -0.1500000E+00  0.1666667E-01  0.1666667E-01  0.2222222E-03
    1       -9.732252   1.000000
    2       -0.263206   1.000000
    3        1.959905   1.005366
    4        2.039232   1.017639
    5        3.821534  -0.000000
    6        6.463156  -0.000000
    7        6.651561  -0.000000
    8        6.871427  -0.000000
 
 -0.1166667E+00  0.1666667E-01  0.1666667E-01  0.2222222E-03
    1       -9.826561   1.000000
    2        0.299489   1.000000
    3        2.070119   1.024611
    4        2.141437   1.035424
    5        3.757561  -0.000000
    6        6.294456  -0.000000
    7        6.494446  -0.000000
    8        6.561301  -0.000000
 
 -0.8333333E-01  0.1666667E-01  0.1666667E-01  0.2222222E-03
    1       -9.900305   1.000000
    2        0.864103   1.000000
    3        2.171087   1.030408
    4        2.227646   0.984475
    5        3.579626  -0.000000
    6        6.154384  -0.000000
    7        6.345191  -0.000000
    8        6.349144  -0.000000
 
 -0.5000000E-01  0.1666667E-01  0.1666667E-01  0.2222222E-03
    1       -9.952532   1.000000
    2        1.418454   1.000000
    3        2.254884   0.938296
    4        2.289656   0.852562
    5        3.282171  -0.000000
    6        6.078030  -0.000000
    7        6.212613  -0.000000
    8        6.220317  -0.000000
 
 -0.1666667E-01  0.1666667E-01  0.1666667E-01  0.2222222E-03
    1       -9.982579   1.000000
    2        1.932536   1.003229
    3        2.313502   0.776841
    4        2.321463   0.748822
    5        2.903699  -0.000728
    6        6.063322  -0.000000
    7        6.132364  -0.000000
    8        6.134120  -0.000000
 
  0.5000000E-01  0.5000000E-01  0.1666667E-01  0.2222222E-03
    1       -9.967525   1.000000
    2        1.664535   1.000002
    3        2.261351   0.924655
    4        2.270792   0.902846
    5        3.166201  -0.000000
    6        6.002775  -0.000000
    7        6.206028  -0.000000
    8        6.207032  -0.000000
 
  0.8333333E-01  0.5000000E-01  0.1666667E-01  0.4444444E-03
    1       -9.937512   1.000000
    2        1.280080   1.000000
    3        2.161287   1.033133
    4        2.238950   0.967473
    5        3.466328  -0.000000
    6        5.956613  -0.000000
    7        6.284289  -0.000000
    8        6.351891  -0.000000
 
  0.1166667E+00  0.5000000E-01  0.1666667E-01  0.4444444E-03
    1       -9.885356   1.000000
    2        0.782001   1.000000
    3        2.051581   1.020352
    4        2.190190   1.021263
    5        3.736082  -0.000000
    6        5.975943  -0.000000
    7        6.407555  -0.000000
    8        6.537592  -0.000000
 
  0.1500000E+00  0.5000000E-01  0.1666667E-01  0.4444444E-03
    1       -9.811704   1.000000
    2        0.246690   1.000000
    3        1.933664   1.003300
    4        2.115157   1.033677
    5        3.909516  -0.000000
    6        6.072153  -0.000000
    7        6.570053  -0.000000
    8        6.765234  -0.000000
 
  0.1833333E+00  0.5000000E-01  0.1666667E-01  0.4444444E-03
    1       -9.717574   1.000000
    2       -0.298306   1.000000
    3        1.812088   1.000203
    4        2.019035   1.013599
    5        3.977309  -0.000000
    6        6.231143  -0.000000
    7        6.749163  -0.000000
    8        7.044617  -0.000000
 
  0.2166667E+00  0.5000000E-01  0.1666667E-01  0.4444444E-03
    1       -9.604402   1.000000
    2       -0.838832   1.000000
    3        1.692002   1.000006
    4        1.909947   1.002051
    5        3.965198  -0.000000
    6        6.414139  -0.000000
    7        6.915621  -0.000000
    8        7.385099  -0.000000
 
  0.2500000E+00  0.5000000E-01  0.1666667E-01  0.4444444E-03
    1       -9.474224   1.000000
    2       -1.364948   1.000000
    3        1.578340   1.000000
    4        1.795450   1.000130
    5        3.906655  -0.000000
    6        6.583309  -0.000000
    7        7.048442  -0.000000
    8        7.783071  -0.000000
 
  0.2833333E+00  0.5000000E-01  0.1666667E-01  0.4444444E-03
    1       -9.329922   1.000000
    2       -1.868555   1.000000
    3        1.473686   1.000000
    4        1.681829   1.000004
    5        3.826577  -0.000000
    6        6.716560  -0.000000
    7        7.137752  -0.000000
    8        8.223274   0.000000
 
  0.3166667E+00  0.5000000E-01  0.1666667E-01  0.4444444E-03
    1       -9.175415   1.000000
    2       -2.341794   1.000000
    3        1.380442   1.000000
    4        1.574117   1.000000
    5        3.740818  -0.000000
    6        6.807668  -0.000000
    7        7.183347  -0.000000
    8        8.686777   0.000000
 
  0.3500000E+00  0.5000000E-01  0.1666667E-01  0.4444444E-03
    1       -9.016130   1.000000
    2       -2.776126   1.000000
    3        1.300074   1.000000
    4        1.476889   1.000000
    5        3.658956  -0.000000
    6        6.861478  -0.000000
    7        7.192488  -0.000000
    8        9.148443   0.000000
 
  0.3833333E+00  0.5000000E-01  0.1666667E-01  0.4444444E-03
    1       -8.859440   1.000000
    2       -3.162148   1.000000
    3        1.232660   1.000000
    4        1.393362   1.000000
    5        3.586467  -0.000000
    6        6.888246  -0.000000
    7        7.176313  -0.000000
    8        9.565113   0.000000
 
  0.4166667E+00  0.5000000E-01  0.1666667E-01  0.4444444E-03
    1       -8.715008   1.000000
    2       -3.488224   1.000000
    3        1.178051   1.000000
    4        1.327378   1.000000
    5        3.526829  -0.000000
    6        6.899765  -0.000000
    7        7.146279  -0.000000
    8        9.871362   0.000000
 
  0.4500000E+00  0.5000000E-01  0.1666667E-01  0.4444444E-03
    1       -8.594717   1.000000
    2       -3.741530   1.000000
    3        1.134949   1.000000
    4        1.281528   1.000000
    5        3.481993  -0.000000
    6        6.905652  -0.000000
    7        7.112061  -0.000000
    8       10.032235   0.000000
 
  0.4833333E+00  0.5000000E-01  0.1666667E-01  0.4444444E-03
    1       -8.511455   1.000000
    2       -3.908523   1.000000
    3        1.102843   1.000000
    4        1.257311   1.000000
    5        3.453101  -0.000000
    6        6.912351  -0.000000
    7        7.081153  -0.000000
    8       10.093837   0.000000
 
 -0.4833333E+00  0.5000000E-01  0.1666667E-01  0.4444444E-03
    1       -8.476117   1.000000
    2       -3.977326   1.000000
    3        1.082901   1.000000
    4        1.255280   1.000000
    5        3.440989  -0.000000
    6        6.922942  -0.000000
    7        7.059341  -0.000000
    8       10.111483   0.000000
 
 -0.4500000E+00  0.5000000E-01  0.1666667E-01  0.4444444E-03
    1       -8.493970   1.000000
    2       -3.942688   1.000000
    3        1.076533   1.000000
    4        1.273826   1.000000
    5        3.445876  -0.000000
    6        6.936195  -0.000000
    7        7.051047  -0.000000
    8       10.106382   0.000000
 
 -0.4166667E+00  0.5000000E-01  0.1666667E-01  0.4444444E-03
    1       -8.562305   1.000000
    2       -3.807368   1.000000
    3        1.085330   1.000000
    4        1.311388   1.000000
    5        3.467600  -0.000000
    6        6.947627  -0.000000
    7        7.059258  -0.000000
    8       10.068930   0.000000
 
 -0.3833333E+00  0.5000000E-01  0.1666667E-01  0.4444444E-03
    1       -8.671673   1.000000
    2       -3.581230   1.000000
    3        1.110137   1.000000
    4        1.366309   1.000000
    5        3.505745  -0.000000
    6        6.952895  -0.000000
    7        7.081603  -0.000000
    8        9.954897   0.000000
 
 -0.3500000E+00  0.5000000E-01  0.1666667E-01  0.4444444E-03
    1       -8.809461   1.000000
    2       -3.277821   1.000000
    3        1.151376   1.000000
    4        1.436933   1.000000
    5        3.559199  -0.000000
    6        6.949118  -0.000000
    7        7.108865  -0.000000
    8        9.701797   0.000000
 
 -0.3166667E+00  0.5000000E-01  0.1666667E-01  0.4444444E-03
    1       -8.963260   1.000000
    2       -2.910371   1.000000
    3        1.209406   1.000000
    4        1.521545   1.000000
    5        3.626365  -0.000000
    6        6.931328  -0.000000
    7        7.128503  -0.000000
    8        9.311914   0.000000
 
 -0.2833333E+00  0.5000000E-01  0.1666667E-01  0.4444444E-03
    1       -9.122637   1.000000
    2       -2.491117   1.000000
    3        1.283473   1.000000
    4        1.617700   1.000000
    5        3.704247  -0.000000
    6        6.891073  -0.000000
    7        7.126143  -0.000000
    8        8.852890   0.000000
 
 -0.2500000E+00  0.5000000E-01  0.1666667E-01  0.4444444E-03
    1       -9.279419   1.000000
    2       -2.030092   1.000000
    3        1.372897   1.000000
    4        1.723046   1.000016
    5        3.788131  -0.000000
    6        6.819907  -0.000000
    7        7.086635  -0.000000
    8        8.381553   0.000000
 
 -0.2166667E+00  0.5000000E-01  0.1666667E-01  0.4444444E-03
    1       -9.427631   1.000000
    2       -1.535948   1.000000
    3        1.476337   1.000000
    4        1.834042   1.000358
    5        3.869899  -0.000000
    6        6.711917  -0.000000
    7        6.996690  -0.000000
    8        7.932133   0.000000
 
 -0.1833333E+00  0.5000000E-01  0.1666667E-01  0.4444444E-03
    1       -9.562854   1.000000
    2       -1.017068   1.000000
    3        1.591561   1.000000
    4        1.946582   1.004215
    5        3.935903  -0.000000
    6        6.566986  -0.000000
    7        6.852143  -0.000000
    8        7.529273  -0.000000
 
 -0.1500000E+00  0.5000000E-01  0.1666667E-01  0.4444444E-03
    1       -9.681939   1.000000
    2       -0.481527   1.000000
    3        1.715661   1.000012
    4        2.054988   1.021124
    5        3.963828  -0.000000
    6        6.393750  -0.000000
    7        6.669477  -0.000000
    8        7.186449  -0.000000
 
 -0.1166667E+00  0.5000000E-01  0.1666667E-01  0.4444444E-03
    1       -9.782581   1.000000
    2        0.061352   1.000000
    3        1.845756   1.000479
    4        2.152331   1.034649
    5        3.922268  -0.000000
    6        6.218557  -0.000000
    7        6.487268  -0.000000
    8        6.897534  -0.000000
 
 -0.8333333E-01  0.5000000E-01  0.1666667E-01  0.4444444E-03
    1       -9.863196   1.000000
    2        0.598070   1.000000
    3        1.977071   1.007203
    4        2.230829   0.979987
    5        3.779956  -0.000000
    6        6.086868  -0.000000
    7        6.336880  -0.000000
    8        6.646596  -0.000000
 
 -0.5000000E-01  0.5000000E-01  0.1666667E-01  0.4444444E-03
    1       -9.922594   1.000000
    2        1.106373   1.000000
    3        2.107270   1.032449
    4        2.282881   0.871638
    5        3.533381  -0.000000
    6        6.029102  -0.000000
    7        6.232345  -0.000000
    8        6.428162  -0.000000
 
 -0.1666667E-01  0.5000000E-01  0.1666667E-01  0.4444444E-03
    1       -9.960023   1.000000
    2        1.534335   1.000000
    3        2.236220   0.971854
    4        2.303852   0.809033
    5        3.230210  -0.000000
    6        6.039480  -0.000000
    7        6.177910  -0.000000
    8        6.245260  -0.000000
 
  0.8333333E-01  0.8333333E-01  0.1666667E-01  0.2222222E-03
    1       -9.914989   1.000000
    2        1.107752   1.000000
    3        2.094307   1.029990
    4        2.102170   1.031537
    5        3.705337  -0.000000
    6        5.816323  -0.000000
    7        6.446522  -0.000000
    8        6.447718  -0.000000
 
  0.1166667E+00  0.8333333E-01  0.1666667E-01  0.4444444E-03
    1       -9.870259   1.000000
    2        0.748931   1.000000
    3        1.959979   1.005373
    4        2.040059   1.017816
    5        3.962859  -0.000000
    6        5.743328  -0.000000
    7        6.580292  -0.000000
    8        6.646037  -0.000000
 
  0.1500000E+00  0.8333333E-01  0.1666667E-01  0.4444444E-03
    1       -9.803895   1.000000
    2        0.290592   1.000000
    3        1.825762   1.000290
    4        1.971360   1.006545
    5        4.161155  -0.000000
    6        5.751544  -0.000000
    7        6.748398  -0.000000
    8        6.877216  -0.000000
 
  0.1833333E+00  0.8333333E-01  0.1666667E-01  0.4444444E-03
    1       -9.716730   1.000000
    2       -0.209858   1.000000
    3        1.692985   1.000006
    4        1.882282   1.001128
    5        4.266769  -0.000000
    6        5.848744  -0.000000
    7        6.933400  -0.000000
    8        7.137951  -0.000000
 
  0.2166667E+00  0.8333333E-01  0.1666667E-01  0.4444444E-03
    1       -9.610091   1.000000
    2       -0.723848   1.000000
    3        1.564160   1.000000
    4        1.775391   1.000074
    5        4.284989  -0.000000
    6        6.017348  -0.000000
    7        7.109105  -0.000000
    8        7.423098  -0.000000
 
  0.2500000E+00  0.8333333E-01  0.1666667E-01  0.4444444E-03
    1       -9.485803   1.000000
    2       -1.234859   1.000000
    3        1.441736   1.000000
    4        1.659024   1.000002
    5        4.244880  -0.000000
    6        6.217500  -0.000000
    7        7.253455  -0.000000
    8        7.726631  -0.000000
 
  0.2833333E+00  0.8333333E-01  0.1666667E-01  0.4444444E-03
    1       -9.346409   1.000000
    2       -1.731382   1.000000
    3        1.327314   1.000000
    4        1.541780   1.000000
    5        4.174555  -0.000000
    6        6.407501  -0.000000
    7        7.353139  -0.000000
    8        8.048702   0.000000
 
  0.3166667E+00  0.8333333E-01  0.1666667E-01  0.4444444E-03
    1       -9.195448   1.000000
    2       -2.203853   1.000000
    3        1.221407   1.000000
    4        1.432155   1.000000
    5        4.092967  -0.000000
    6        6.558037  -0.000000
    7        7.405472  -0.000000
    8        8.397233   0.000000
 
  0.3500000E+00  0.8333333E-01  0.1666667E-01  0.4444444E-03
    1       -9.037826   1.000000
    2       -2.642886   1.000000
    3        1.123450   1.000000
    4        1.337166   1.000000
    5        4.011462  -0.000000
    6        6.659310  -0.000000
    7        7.416127  -0.000000
    8        8.776454   0.000000
 
  0.3833333E+00  0.8333333E-01  0.1666667E-01  0.4444444E-03
    1       -8.880179   1.000000
    2       -3.038894   1.000000
    3        1.032932   1.000000
    4        1.262112   1.000000
    5        3.936656  -0.000000
    6        6.718959  -0.000000
    7        7.395891  -0.000000
    8        9.175362   0.000000
 
  0.4166667E+00  0.8333333E-01  0.1666667E-01  0.4444444E-03
    1       -8.731355   1.000000
    2       -3.380779   1.000000
    3        0.950646   1.000000
    4        1.209557   1.000000
    5        3.872653  -0.000000
    6        6.752122  -0.000000
    7        7.356604  -0.000000
    8        9.562434   0.000000
 
  0.4500000E+00  0.8333333E-01  0.1666667E-01  0.4444444E-03
    1       -8.602511   1.000000
    2       -3.655695   1.000000
    3        0.878808   1.000000
    4        1.179394   1.000000
    5        3.822022  -0.000000
    6        6.773242  -0.000000
    7        7.308666  -0.000000
    8        9.884762   0.000000
 
  0.4833333E+00  0.8333333E-01  0.1666667E-01  0.4444444E-03
    1       -8.506262   1.000000
    2       -3.849825   1.000000
    3        0.819791   1.000000
    4        1.171102   1.000000
    5        3.786330  -0.000000
    6        6.792865  -0.000000
    7        7.260153  -0.000000
    8       10.095156   0.000000
 
 -0.4833333E+00  0.8333333E-01  0.1666667E-01  0.4444444E-03
    1       -8.454527   1.000000
    2       -3.950610   1.000000
    3        0.775921   1.000000
    4        1.182892   1.000000
    5        3.766557  -0.000000
    6        6.817285  -0.000000
    7        7.216480  -0.000000
    8       10.196227   0.000000
 
 -0.4500000E+00  0.8333333E-01  0.1666667E-01  0.4444444E-03
    1       -8.454681   1.000000
    2       -3.950232   1.000000
    3        0.748596   1.000000
    4        1.214083   1.000000
    5        3.763053  -0.000000
    6        6.848933  -0.000000
    7        7.181206  -0.000000
    8       10.216537   0.000000
 
 -0.4166667E+00  0.8333333E-01  0.1666667E-01  0.4444444E-03
    1       -8.506686   1.000000
    2       -3.848707   1.000000
    3        0.739237   1.000000
    4        1.263244   1.000000
    5        3.775862  -0.000000
    6        6.886501  -0.000000
    7        7.156066  -0.000000
    8       10.159610   0.000000
 
 -0.3833333E+00  0.8333333E-01  0.1666667E-01  0.4444444E-03
    1       -8.603133   1.000000
    2       -3.653978   1.000000
    3        0.748584   1.000000
    4        1.328823   1.000000
    5        3.804631  -0.000000
    6        6.923656  -0.000000
    7        7.142358  -0.000000
    8        9.993621   0.000000
 
 -0.3500000E+00  0.8333333E-01  0.1666667E-01  0.4444444E-03
    1       -8.732115   1.000000
    2       -3.378715   1.000000
    3        0.777136   1.000000
    4        1.409539   1.000000
    5        3.848401  -0.000000
    6        6.948032  -0.000000
    7        7.141744  -0.000000
    8        9.693290   0.000000
 
 -0.3166667E+00  0.8333333E-01  0.1666667E-01  0.4444444E-03
    1       -8.880989   1.000000
    2       -3.036727   1.000000
    3        0.825739   1.000000
    4        1.502971   1.000000
    5        3.905662  -0.000000
    6        6.944999  -0.000000
    7        7.151356  -0.000000
    8        9.294318   0.000000
 
 -0.2833333E+00  0.8333333E-01  0.1666667E-01  0.4444444E-03
    1       -9.038657   1.000000
    2       -2.641076   1.000000
    3        0.894267   1.000000
    4        1.606992   1.000000
    5        3.973481  -0.000000
    6        6.906723  -0.000000
    7        7.153690  -0.000000
    8        8.860433   0.000000
 
 -0.2500000E+00  0.8333333E-01  0.1666667E-01  0.4444444E-03
    1       -9.196248   1.000000
    2       -2.203232   1.000000
    3        0.982855   1.000000
    4        1.718495   1.000014
    5        4.047236  -0.000000
    6        6.830338  -0.000000
    7        7.120024  -0.000000
    8        8.442668   0.000000
 
 -0.2166667E+00  0.8333333E-01  0.1666667E-01  0.4444444E-03
    1       -9.347159   1.000000
    2       -1.732965   1.000000
    3        1.091365   1.000000
    4        1.833591   1.000354
    5        4.119241  -0.000000
    6        6.712601  -0.000000
    7        7.023438  -0.000000
    8        8.076027   0.000000
 
 -0.1833333E+00  0.8333333E-01  0.1666667E-01  0.4444444E-03
    1       -9.486474   1.000000
    2       -1.240827   1.000000
    3        1.219681   1.000000
    4        1.947476   1.004286
    5        4.176133  -0.000000
    6        6.553303  -0.000000
    7        6.862474  -0.000000
    8        7.770664  -0.000000
 
 -0.1500000E+00  0.8333333E-01  0.1666667E-01  0.4444444E-03
    1       -9.610656   1.000000
    2       -0.737389   1.000000
    3        1.367794   1.000000
    4        2.054006   1.020901
    5        4.196612  -0.000000
    6        6.364966  -0.000000
    7        6.676656  -0.000000
    8        7.501270  -0.000000
 
 -0.1166667E+00  0.8333333E-01  0.1666667E-01  0.4444444E-03
    1       -9.717203   1.000000
    2       -0.236462   1.000000
    3        1.536027   1.000000
    4        2.145619   1.035253
    5        4.151187  -0.000000
    6        6.187838  -0.000000
    7        6.509065  -0.000000
    8        7.233790  -0.000000
 
 -0.8333333E-01  0.8333333E-01  0.1666667E-01  0.4444444E-03
    1       -9.804278   1.000000
    2        0.242719   1.000000
    3        1.725008   1.000017
    4        2.214592   1.000519
    5        4.015083  -0.000000
    6        6.072247  -0.000000
    7        6.379806  -0.000000
    8        6.954756  -0.000000
 
 -0.5000000E-01  0.8333333E-01  0.1666667E-01  0.4444444E-03
    1       -9.870528   1.000000
    2        0.672815   1.000000
    3        1.934382   1.003346
    4        2.253718   0.940644
    5        3.795046  -0.000000
    6        6.038478  -0.000000
    7        6.299008  -0.000000
    8        6.671662  -0.000000
 
 -0.1666667E-01  0.8333333E-01  0.1666667E-01  0.4444444E-03
    1       -9.915150   1.000000
    2        1.016657   1.000000
    3        2.143789   1.035346
    4        2.260047   0.927490
    5        3.545443  -0.000000
    6        6.072446  -0.000000
    7        6.271020  -0.000000
    8        6.400365  -0.000000
 
  0.1166667E+00  0.1166667E+00  0.1666667E-01  0.2222222E-03
    1       -9.833010   1.000000
    2        0.549374   1.000000
    3        1.869304   1.000839
    4        1.874373   1.000943
    5        4.214968  -0.000000
    6        5.585636  -0.000000
    7        6.784801  -0.000000
    8        6.787960  -0.000000
 
  0.1500000E+00  0.1166667E+00  0.1666667E-01  0.4444444E-03
    1       -9.774021   1.000000
    2        0.210729   1.000000
    3        1.714980   1.000012
    4        1.790199   1.000113
    5        4.426452  -0.000000
    6        5.511810  -0.000000
    7        6.959967  -0.000000
    8        7.018507  -0.000000
 
  0.1833333E+00  0.1166667E+00  0.1666667E-01  0.4444444E-03
    1       -9.694020   1.000000
    2       -0.211088   1.000000
    3        1.566881   1.000000
    4        1.700904   1.000008
    5        4.564440  -0.000000
    6        5.530995  -0.000000
    7        7.153624  -0.000000
    8        7.265792  -0.000000
 
  0.2166667E+00  0.1166667E+00  0.1666667E-01  0.4444444E-03
    1       -9.594222   1.000000
    2       -0.673816   1.000000
    3        1.424639   1.000000
    4        1.596199   1.000000
    5        4.616622  -0.000000
    6        5.646922  -0.000000
    7        7.342836  -0.000000
    8        7.508782  -0.000000
 