       N       E                     dE             d eps       ncg     rms          rms(c)
DAV:   1     0.566262076649E+01    0.56626E+01   -0.21370E+03 40640   0.414E+02
DAV:   2    -0.828985408091E+01   -0.13952E+02   -0.13484E+02 59304   0.671E+01
DAV:   3    -0.850596814235E+01   -0.21611E+00   -0.21610E+00 46976   0.108E+01
DAV:   4    -0.850639686699E+01   -0.42872E-03   -0.42872E-03 60624   0.507E-01
DAV:   5    -0.850639701878E+01   -0.15179E-06   -0.15192E-06 47264   0.717E-03    0.230E+00
DAV:   6    -0.836801361695E+01    0.13838E+00   -0.27662E-01 42640   0.235E+00    0.129E+00
DAV:   7    -0.833803687499E+01    0.29977E-01   -0.11490E-01 52464   0.173E+00    0.416E-01
DAV:   8    -0.833702365440E+01    0.10132E-02   -0.87125E-03 42488   0.566E-01    0.422E-02
DAV:   9    -0.833717390065E+01   -0.15025E-03   -0.41235E-04 58432   0.143E-01    0.232E-02
DAV:  10    -0.833723483337E+01   -0.60933E-04   -0.10611E-04 46096   0.732E-02    0.503E-03
DAV:  11    -0.833723500769E+01   -0.17433E-06   -0.12546E-05 56744   0.160E-02    0.235E-03
DAV:  12    -0.833723556882E+01   -0.56112E-06   -0.11481E-06 24816   0.628E-03
   1 F= -.83372356E+01 E0= -.83374115E+01  d E =-.833724E+01
       N       E                     dE             d eps       ncg     rms          rms(c)
DAV:   1    -0.833730548499E+01   -0.70477E-04   -0.13942E-03 43552   0.205E-01    0.284E-02
DAV:   2    -0.833726370245E+01    0.41783E-04   -0.75394E-05 43952   0.433E-02    0.135E-02
DAV:   3    -0.833725130720E+01    0.12395E-04   -0.32804E-05 46456   0.290E-02    0.359E-03
DAV:   4    -0.833724978896E+01    0.15182E-05   -0.22910E-06 29704   0.806E-03    0.603E-04
DAV:   5    -0.833724976685E+01    0.22108E-07   -0.97747E-08 19840   0.231E-03
   2 F= -.83372498E+01 E0= -.83374266E+01  d E =-.141980E-04
       N       E                     dE             d eps       ncg     rms          rms(c)
DAV:   1    -0.833725768479E+01   -0.78958E-05   -0.11558E-04 44024   0.590E-02    0.824E-03
DAV:   2    -0.833725453135E+01    0.31534E-05   -0.63870E-06 43600   0.125E-02    0.391E-03
DAV:   3    -0.833725402993E+01    0.50142E-06   -0.26560E-06 29464   0.838E-03
   3 F= -.83372540E+01 E0= -.83374306E+01  d E =-.184611E-04
