 vasp.5.4.4.18Apr17-6-g9f103f2a35 (build May 20 2018 16:52:39) complex          
  
 executed on             LinuxIFC date 2022.10.31  00:55:15
 running on    1 total cores
 distrk:  each k-point on    1 cores,    1 groups
 distr:  one band on NCORES_PER_BAND=   1 cores,    1 groups


--------------------------------------------------------------------------------------------------------


 INCAR:
 POTCAR:    PAW Ga                                
 POTCAR:    PAW As                                
 POTCAR:    PAW Ga                                
   VRHFIN =Ga: s2p1                                                             
   LEXCH  = 91                                                                  
   EATOM  =    59.0602 eV,    4.3408 Ry                                         
                                                                                
   TITEL  = PAW Ga                                                              
   LULTRA =        F    use ultrasoft PP ?                                      
   IUNSCR =        1    unscreen: 0-lin 1-nonlin 2-no                           
   RPACOR =    2.170    partial core radius                                     
   POMASS =   69.723; ZVAL   =    3.000    mass and valenz                      
   RCORE  =    2.600    outmost cutoff radius                                   
   RWIGS  =    2.650; RWIGS  =    1.402    wigner-seitz radius (au A)           
   ENMAX  =  134.733; ENMIN  =  101.050 eV                                      
   ICORE  =        3    local potential                                         
   LCOR   =        T    correct aug charges                                     
   LPAW   =        T    paw PP                                                  
   EAUG   =  320.264                                                            
   DEXC   =    -.088                                                            
   RMAX   =    3.972    core radius for proj-oper                               
   RAUG   =    1.300    factor for augmentation sphere                          
   RDEP   =    2.684    radius for radial grids                                 
   QCUT   =   -3.147; QGAM   =    6.294    optimization parameters              
                                                                                
   Description                                                                  
     l     E      TYP  RCUT    TYP  RCUT                                        
     0   .000     23  2.600                                                     
     0   .000     23  2.600                                                     
     1   .000     23  2.600                                                     
     1   .000     23  2.600                                                     
     2   .100     23  2.600                                                     
     3  -.100      7  2.600                                                     
  local pseudopotential read in
  partial core-charges read in
  atomic valenz-charges read in
  non local Contribution for L=           0  read in
    real space projection operators read in
  non local Contribution for L=           0  read in
    real space projection operators read in
  non local Contribution for L=           1  read in
    real space projection operators read in
  non local Contribution for L=           1  read in
    real space projection operators read in
  non local Contribution for L=           2  read in
    real space projection operators read in
    PAW grid and wavefunctions read in
 
   number of l-projection  operators is LMAX  =           5
   number of lm-projection operators is LMMAX =          13
 
 POTCAR:    PAW As                                
   VRHFIN =As: s2p3                                                             
   LEXCH  = 91                                                                  
   EATOM  =   170.5562 eV,   12.5355 Ry                                         
                                                                                
   TITEL  = PAW As                                                              
   LULTRA =        F    use ultrasoft PP ?                                      
   IUNSCR =        1    unscreen: 0-lin 1-nonlin 2-no                           
   RPACOR =    1.900    partial core radius                                     
   POMASS =   74.922; ZVAL   =    5.000    mass and valenz                      
   RCORE  =    2.100    outmost cutoff radius                                   
   RWIGS  =    2.300; RWIGS  =    1.217    wigner-seitz radius (au A)           
   ENMAX  =  208.733; ENMIN  =  156.550 eV                                      
   ICORE  =        3    local potential                                         
   LCOR   =        T    correct aug charges                                     
   LPAW   =        T    paw PP                                                  
   EAUG   =  462.758                                                            
   DEXC   =    -.071                                                            
   RMAX   =    3.191    core radius for proj-oper                               
   RAUG   =    1.300    factor for augmentation sphere                          
   RDEP   =    2.140    core radius for depl-charge                             
   QCUT   =   -3.917; QGAM   =    7.834    optimization parameters              
                                                                                
   Description                                                                  
     l     E      TYP  RCUT    TYP  RCUT                                        
     0   .000     23  2.100                                                     
     0   .000     23  2.100                                                     
     1   .000     23  2.100                                                     
     1   .000     23  2.100                                                     
     2   .000     23  2.100                                                     
     3  -.100      7  2.100                                                     
  local pseudopotential read in
  partial core-charges read in
  atomic valenz-charges read in
  non local Contribution for L=           0  read in
    real space projection operators read in
  non local Contribution for L=           0  read in
    real space projection operators read in
  non local Contribution for L=           1  read in
    real space projection operators read in
  non local Contribution for L=           1  read in
    real space projection operators read in
  non local Contribution for L=           2  read in
    real space projection operators read in
    PAW grid and wavefunctions read in
 
   number of l-projection  operators is LMAX  =           5
   number of lm-projection operators is LMMAX =          13
 
  PAW Ga                                :
 energy of atom  1       EATOM=  -59.0602
 kinetic energy error for atom=    0.0006 (will be added to EATOM!!)
  PAW As                                :
 energy of atom  2       EATOM= -170.5562
 kinetic energy error for atom=    0.0108 (will be added to EATOM!!)
 
 
 POSCAR: GaAs                                    
  positions in direct lattice
  No initial velocities read in
 exchange correlation table for  LEXCH =        7
   RHO(1)=    0.500       N(1)  =     2000
   RHO(2)=  100.500       N(2)  =     4000
 


--------------------------------------------------------------------------------------------------------


 ion  position               nearest neighbor table
   1  0.000  0.000  0.000-   2 2.49   2 2.49   2 2.49   2 2.49
   2  0.250  0.250  0.250-   1 2.49   1 2.49   1 2.49   1 2.49
 
  LATTYP: Found a face centered cubic cell.
 ALAT       =     5.7500000000
  
  Lattice vectors:
  
 A1 = (   0.0000000000,   2.8750000000,   2.8750000000)
 A2 = (   2.8750000000,   0.0000000000,   2.8750000000)
 A3 = (   2.8750000000,   2.8750000000,   0.0000000000)


Analysis of symmetry for initial positions (statically):
=====================================================================
 Subroutine PRICEL returns:
 Original cell was already a primitive cell.
 

 Routine SETGRP: Setting up the symmetry group for a 
 face centered cubic supercell.


 Subroutine GETGRP returns: Found 24 space group operations
 (whereof 24 operations were pure point group operations)
 out of a pool of 48 trial point group operations.


The static configuration has the point symmetry T_d .


Analysis of symmetry for dynamics (positions and initial velocities):
=====================================================================
 Subroutine PRICEL returns:
 Original cell was already a primitive cell.
 

 Routine SETGRP: Setting up the symmetry group for a 
 face centered cubic supercell.


 Subroutine GETGRP returns: Found 24 space group operations
 (whereof 24 operations were pure point group operations)
 out of a pool of 48 trial point group operations.


The dynamic configuration has the point symmetry T_d .


 Subroutine INISYM returns: Found 24 space group operations
 (whereof 24 operations are pure point group operations),
 and found     1 'primitive' translations

 
 
 KPOINTS: 30x30x30                                

Automatic generation of k-mesh.
Space group operators:
 irot       det(A)        alpha          n_x          n_y          n_z        tau_x        tau_y        tau_z
    1     1.000000     0.000000     1.000000     0.000000     0.000000     0.000000     0.000000     0.000000
    2     1.000000   120.000000    -0.577350    -0.577350    -0.577350     0.000000     0.000000     0.000000
    3     1.000000   120.000000     0.577350     0.577350     0.577350     0.000000     0.000000     0.000000
    4    -1.000000    90.000000     0.000000     0.000000    -1.000000     0.000000     0.000000     0.000000
    5    -1.000000   180.000000     0.000000     0.707107     0.707107     0.000000     0.000000     0.000000
    6    -1.000000    90.000000     0.000000     1.000000     0.000000     0.000000     0.000000     0.000000
    7     1.000000   180.000000     0.000000     0.000000     1.000000     0.000000     0.000000     0.000000
    8     1.000000   120.000000    -0.577350     0.577350     0.577350     0.000000     0.000000     0.000000
    9     1.000000   120.000000    -0.577350     0.577350    -0.577350     0.000000     0.000000     0.000000
   10    -1.000000    90.000000     0.000000     0.000000     1.000000     0.000000     0.000000     0.000000
   11    -1.000000    90.000000    -1.000000     0.000000     0.000000     0.000000     0.000000     0.000000
   12    -1.000000   180.000000     0.707107     0.000000     0.707107     0.000000     0.000000     0.000000
   13     1.000000   120.000000     0.577350    -0.577350     0.577350     0.000000     0.000000     0.000000
   14     1.000000   120.000000    -0.577350    -0.577350     0.577350     0.000000     0.000000     0.000000
   15     1.000000   180.000000     1.000000     0.000000     0.000000     0.000000     0.000000     0.000000
   16    -1.000000    90.000000     0.000000    -1.000000     0.000000     0.000000     0.000000     0.000000
   17    -1.000000   180.000000     0.707107     0.707107     0.000000     0.000000     0.000000     0.000000
   18    -1.000000    90.000000     1.000000     0.000000     0.000000     0.000000     0.000000     0.000000
   19     1.000000   120.000000     0.577350    -0.577350    -0.577350     0.000000     0.000000     0.000000
   20     1.000000   180.000000     0.000000     1.000000     0.000000     0.000000     0.000000     0.000000
   21     1.000000   120.000000     0.577350     0.577350    -0.577350     0.000000     0.000000     0.000000
   22    -1.000000   180.000000     0.000000    -0.707107     0.707107     0.000000     0.000000     0.000000
   23    -1.000000   180.000000     0.707107    -0.707107     0.000000     0.000000     0.000000     0.000000
   24    -1.000000   180.000000     0.707107     0.000000    -0.707107     0.000000     0.000000     0.000000
 
 Subroutine IBZKPT returns following result:
 ===========================================
 
 Found   2480 irreducible k-points:
 
 Following reciprocal coordinates:
            Coordinates               Weight
  0.016667  0.016667  0.016667     96.000000
  0.050000  0.016667  0.016667    288.000000
  0.083333  0.016667  0.016667    288.000000
  0.116667  0.016667  0.016667    288.000000
  0.150000  0.016667  0.016667    288.000000
  0.183333  0.016667  0.016667    288.000000
  0.216667  0.016667  0.016667    288.000000
  0.250000  0.016667  0.016667    288.000000
  0.283333  0.016667  0.016667    288.000000
  0.316667  0.016667  0.016667    288.000000
  0.350000  0.016667  0.016667    288.000000
  0.383333  0.016667  0.016667    288.000000
  0.416667  0.016667  0.016667    288.000000
  0.450000  0.016667  0.016667    288.000000
  0.483333  0.016667  0.016667    288.000000
 -0.483333  0.016667  0.016667    288.000000
 -0.450000  0.016667  0.016667    288.000000
 -0.416667  0.016667  0.016667    288.000000
 -0.383333  0.016667  0.016667    288.000000
 -0.350000  0.016667  0.016667    288.000000
 -0.316667  0.016667  0.016667    288.000000
 -0.283333  0.016667  0.016667    288.000000
 -0.250000  0.016667  0.016667    288.000000
 -0.216667  0.016667  0.016667    288.000000
 -0.183333  0.016667  0.016667    288.000000
 -0.150000  0.016667  0.016667    288.000000
 -0.116667  0.016667  0.016667    288.000000
 -0.083333  0.016667  0.016667    288.000000
 -0.050000  0.016667  0.016667    288.000000
 -0.016667  0.016667  0.016667    288.000000
  0.050000  0.050000  0.016667    288.000000
  0.083333  0.050000  0.016667    576.000000
  0.116667  0.050000  0.016667    576.000000
  0.150000  0.050000  0.016667    576.000000
  0.183333  0.050000  0.016667    576.000000
  0.216667  0.050000  0.016667    576.000000
  0.250000  0.050000  0.016667    576.000000
  0.283333  0.050000  0.016667    576.000000
  0.316667  0.050000  0.016667    576.000000
  0.350000  0.050000  0.016667    576.000000
  0.383333  0.050000  0.016667    576.000000
  0.416667  0.050000  0.016667    576.000000
  0.450000  0.050000  0.016667    576.000000
  0.483333  0.050000  0.016667    576.000000
 -0.483333  0.050000  0.016667    576.000000
 -0.450000  0.050000  0.016667    576.000000
 -0.416667  0.050000  0.016667    576.000000
 -0.383333  0.050000  0.016667    576.000000
 -0.350000  0.050000  0.016667    576.000000
 -0.316667  0.050000  0.016667    576.000000
 -0.283333  0.050000  0.016667    576.000000
 -0.250000  0.050000  0.016667    576.000000
 -0.216667  0.050000  0.016667    576.000000
 -0.183333  0.050000  0.016667    576.000000
 -0.150000  0.050000  0.016667    576.000000
 -0.116667  0.050000  0.016667    576.000000
 -0.083333  0.050000  0.016667    576.000000
 -0.050000  0.050000  0.016667    576.000000
 -0.016667  0.050000  0.016667    576.000000
  0.083333  0.083333  0.016667    288.000000
  0.116667  0.083333  0.016667    576.000000
  0.150000  0.083333  0.016667    576.000000
  0.183333  0.083333  0.016667    576.000000
  0.216667  0.083333  0.016667    576.000000
  0.250000  0.083333  0.016667    576.000000
  0.283333  0.083333  0.016667    576.000000
  0.316667  0.083333  0.016667    576.000000
  0.350000  0.083333  0.016667    576.000000
  0.383333  0.083333  0.016667    576.000000
  0.416667  0.083333  0.016667    576.000000
  0.450000  0.083333  0.016667    576.000000
  0.483333  0.083333  0.016667    576.000000
 -0.483333  0.083333  0.016667    576.000000
 -0.450000  0.083333  0.016667    576.000000
 -0.416667  0.083333  0.016667    576.000000
 -0.383333  0.083333  0.016667    576.000000
 -0.350000  0.083333  0.016667    576.000000
 -0.316667  0.083333  0.016667    576.000000
 -0.283333  0.083333  0.016667    576.000000
 -0.250000  0.083333  0.016667    576.000000
 -0.216667  0.083333  0.016667    576.000000
 -0.183333  0.083333  0.016667    576.000000
 -0.150000  0.083333  0.016667    576.000000
 -0.116667  0.083333  0.016667    576.000000
 -0.083333  0.083333  0.016667    576.000000
 -0.050000  0.083333  0.016667    576.000000
 -0.016667  0.083333  0.016667    576.000000
  0.116667  0.116667  0.016667    288.000000
  0.150000  0.116667  0.016667    576.000000
  0.183333  0.116667  0.016667    576.000000
  0.216667  0.116667  0.016667    576.000000
  0.250000  0.116667  0.016667    576.000000
  0.283333  0.116667  0.016667    576.000000
  0.316667  0.116667  0.016667    576.000000
  0.350000  0.116667  0.016667    576.000000
  0.383333  0.116667  0.016667    576.000000
  0.416667  0.116667  0.016667    576.000000
  0.450000  0.116667  0.016667    576.000000
  0.483333  0.116667  0.016667    576.000000
 -0.483333  0.116667  0.016667    576.000000
 -0.450000  0.116667  0.016667    576.000000
 -0.416667  0.116667  0.016667    576.000000
 -0.383333  0.116667  0.016667    576.000000
 -0.350000  0.116667  0.016667    576.000000
 -0.316667  0.116667  0.016667    576.000000
 -0.283333  0.116667  0.016667    576.000000
 -0.250000  0.116667  0.016667    576.000000
 -0.216667  0.116667  0.016667    576.000000
 -0.183333  0.116667  0.016667    576.000000
 -0.150000  0.116667  0.016667    576.000000
 -0.116667  0.116667  0.016667    576.000000
 -0.083333  0.116667  0.016667    576.000000
 -0.050000  0.116667  0.016667    576.000000
 -0.016667  0.116667  0.016667    576.000000
  0.150000  0.150000  0.016667    288.000000
  0.183333  0.150000  0.016667    576.000000
  0.216667  0.150000  0.016667    576.000000
  0.250000  0.150000  0.016667    576.000000
  0.283333  0.150000  0.016667    576.000000
  0.316667  0.150000  0.016667    576.000000
  0.350000  0.150000  0.016667    576.000000
  0.383333  0.150000  0.016667    576.000000
  0.416667  0.150000  0.016667    576.000000
  0.450000  0.150000  0.016667    576.000000
  0.483333  0.150000  0.016667    576.000000
 -0.483333  0.150000  0.016667    576.000000
 -0.450000  0.150000  0.016667    576.000000
 -0.416667  0.150000  0.016667    576.000000
 -0.383333  0.150000  0.016667    576.000000
 -0.350000  0.150000  0.016667    576.000000
 -0.316667  0.150000  0.016667    576.000000
 -0.283333  0.150000  0.016667    576.000000
 -0.250000  0.150000  0.016667    576.000000
 -0.216667  0.150000  0.016667    576.000000
 -0.183333  0.150000  0.016667    576.000000
 -0.150000  0.150000  0.016667    576.000000
 -0.116667  0.150000  0.016667    576.000000
 -0.083333  0.150000  0.016667    576.000000
 -0.050000  0.150000  0.016667    576.000000
 -0.016667  0.150000  0.016667    576.000000
  0.183333  0.183333  0.016667    288.000000
  0.216667  0.183333  0.016667    576.000000
  0.250000  0.183333  0.016667    576.000000
  0.283333  0.183333  0.016667    576.000000
  0.316667  0.183333  0.016667    576.000000
  0.350000  0.183333  0.016667    576.000000
  0.383333  0.183333  0.016667    576.000000
  0.416667  0.183333  0.016667    576.000000
  0.450000  0.183333  0.016667    576.000000
  0.483333  0.183333  0.016667    576.000000
 -0.483333  0.183333  0.016667    576.000000
 -0.450000  0.183333  0.016667    576.000000
 -0.416667  0.183333  0.016667    576.000000
 -0.383333  0.183333  0.016667    576.000000
 -0.350000  0.183333  0.016667    576.000000
 -0.316667  0.183333  0.016667    576.000000
 -0.283333  0.183333  0.016667    576.000000
 -0.250000  0.183333  0.016667    576.000000
 -0.216667  0.183333  0.016667    576.000000
 -0.183333  0.183333  0.016667    576.000000
 -0.150000  0.183333  0.016667    576.000000
 -0.116667  0.183333  0.016667    576.000000
 -0.083333  0.183333  0.016667    576.000000
 -0.050000  0.183333  0.016667    576.000000
 -0.016667  0.183333  0.016667    576.000000
  0.216667  0.216667  0.016667    288.000000
  0.250000  0.216667  0.016667    576.000000
  0.283333  0.216667  0.016667    576.000000
  0.316667  0.216667  0.016667    576.000000
  0.350000  0.216667  0.016667    576.000000
  0.383333  0.216667  0.016667    576.000000
  0.416667  0.216667  0.016667    576.000000
  0.450000  0.216667  0.016667    576.000000
  0.483333  0.216667  0.016667    576.000000
 -0.483333  0.216667  0.016667    576.000000
 -0.450000  0.216667  0.016667    576.000000
 -0.416667  0.216667  0.016667    576.000000
 -0.383333  0.216667  0.016667    576.000000
 -0.350000  0.216667  0.016667    576.000000
 -0.316667  0.216667  0.016667    576.000000
 -0.283333  0.216667  0.016667    576.000000
 -0.250000  0.216667  0.016667    576.000000
 -0.216667  0.216667  0.016667    576.000000
 -0.183333  0.216667  0.016667    576.000000
 -0.150000  0.216667  0.016667    576.000000
 -0.116667  0.216667  0.016667    576.000000
 -0.083333  0.216667  0.016667    576.000000
 -0.050000  0.216667  0.016667    576.000000
 -0.016667  0.216667  0.016667    576.000000
  0.250000  0.250000  0.016667    288.000000
  0.283333  0.250000  0.016667    576.000000
  0.316667  0.250000  0.016667    576.000000
  0.350000  0.250000  0.016667    576.000000
  0.383333  0.250000  0.016667    576.000000
  0.416667  0.250000  0.016667    576.000000
  0.450000  0.250000  0.016667    576.000000
  0.483333  0.250000  0.016667    576.000000
 -0.483333  0.250000  0.016667    576.000000
 -0.450000  0.250000  0.016667    576.000000
 -0.416667  0.250000  0.016667    576.000000
 -0.383333  0.250000  0.016667    576.000000
 -0.350000  0.250000  0.016667    576.000000
 -0.316667  0.250000  0.016667    576.000000
 -0.283333  0.250000  0.016667    576.000000
 -0.250000  0.250000  0.016667    576.000000
 -0.216667  0.250000  0.016667    576.000000
 -0.183333  0.250000  0.016667    576.000000
 -0.150000  0.250000  0.016667    576.000000
 -0.116667  0.250000  0.016667    576.000000
 -0.083333  0.250000  0.016667    576.000000
 -0.050000  0.250000  0.016667    576.000000
 -0.016667  0.250000  0.016667    576.000000
  0.283333  0.283333  0.016667    288.000000
  0.316667  0.283333  0.016667    576.000000
  0.350000  0.283333  0.016667    576.000000
  0.383333  0.283333  0.016667    576.000000
  0.416667  0.283333  0.016667    576.000000
  0.450000  0.283333  0.016667    576.000000
  0.483333  0.283333  0.016667    576.000000
 -0.483333  0.283333  0.016667    576.000000
 -0.450000  0.283333  0.016667    576.000000
 -0.416667  0.283333  0.016667    576.000000
 -0.383333  0.283333  0.016667    576.000000
 -0.350000  0.283333  0.016667    576.000000
 -0.316667  0.283333  0.016667    576.000000
 -0.283333  0.283333  0.016667    576.000000
 -0.250000  0.283333  0.016667    576.000000
 -0.216667  0.283333  0.016667    576.000000
 -0.183333  0.283333  0.016667    576.000000
 -0.150000  0.283333  0.016667    576.000000
 -0.116667  0.283333  0.016667    576.000000
 -0.083333  0.283333  0.016667    576.000000
 -0.050000  0.283333  0.016667    576.000000
 -0.016667  0.283333  0.016667    576.000000
  0.316667  0.316667  0.016667    288.000000
  0.350000  0.316667  0.016667    576.000000
  0.383333  0.316667  0.016667    576.000000
  0.416667  0.316667  0.016667    576.000000
  0.450000  0.316667  0.016667    576.000000
  0.483333  0.316667  0.016667    576.000000
 -0.483333  0.316667  0.016667    576.000000
 -0.450000  0.316667  0.016667    576.000000
 -0.416667  0.316667  0.016667    576.000000
 -0.383333  0.316667  0.016667    576.000000
 -0.350000  0.316667  0.016667    576.000000
 -0.316667  0.316667  0.016667    576.000000
 -0.283333  0.316667  0.016667    576.000000
 -0.250000  0.316667  0.016667    576.000000
 -0.216667  0.316667  0.016667    576.000000
 -0.183333  0.316667  0.016667    576.000000
 -0.150000  0.316667  0.016667    576.000000
 -0.116667  0.316667  0.016667    576.000000
 -0.083333  0.316667  0.016667    576.000000
 -0.050000  0.316667  0.016667    576.000000
 -0.016667  0.316667  0.016667    576.000000
  0.350000  0.350000  0.016667    288.000000
  0.383333  0.350000  0.016667    576.000000
  0.416667  0.350000  0.016667    576.000000
  0.450000  0.350000  0.016667    576.000000
  0.483333  0.350000  0.016667    576.000000
 -0.483333  0.350000  0.016667    576.000000
 -0.450000  0.350000  0.016667    576.000000
 -0.416667  0.350000  0.016667    576.000000
 -0.383333  0.350000  0.016667    576.000000
 -0.350000  0.350000  0.016667    576.000000
 -0.316667  0.350000  0.016667    576.000000
 -0.283333  0.350000  0.016667    576.000000
 -0.250000  0.350000  0.016667    576.000000
 -0.216667  0.350000  0.016667    576.000000
 -0.183333  0.350000  0.016667    576.000000
 -0.150000  0.350000  0.016667    576.000000
 -0.116667  0.350000  0.016667    576.000000
 -0.083333  0.350000  0.016667    576.000000
 -0.050000  0.350000  0.016667    576.000000
 -0.016667  0.350000  0.016667    576.000000
  0.383333  0.383333  0.016667    288.000000
  0.416667  0.383333  0.016667    576.000000
  0.450000  0.383333  0.016667    576.000000
  0.483333  0.383333  0.016667    576.000000
 -0.483333  0.383333  0.016667    576.000000
 -0.450000  0.383333  0.016667    576.000000
 -0.416667  0.383333  0.016667    576.000000
 -0.383333  0.383333  0.016667    576.000000
 -0.350000  0.383333  0.016667    576.000000
 -0.316667  0.383333  0.016667    576.000000
 -0.283333  0.383333  0.016667    576.000000
 -0.250000  0.383333  0.016667    576.000000
 -0.216667  0.383333  0.016667    576.000000
 -0.183333  0.383333  0.016667    576.000000
 -0.150000  0.383333  0.016667    576.000000
 -0.116667  0.383333  0.016667    576.000000
 -0.083333  0.383333  0.016667    576.000000
 -0.050000  0.383333  0.016667    576.000000
 -0.016667  0.383333  0.016667    576.000000
  0.416667  0.416667  0.016667    288.000000
  0.450000  0.416667  0.016667    576.000000
  0.483333  0.416667  0.016667    576.000000
 -0.483333  0.416667  0.016667    576.000000
 -0.450000  0.416667  0.016667    576.000000
 -0.416667  0.416667  0.016667    576.000000
 -0.383333  0.416667  0.016667    576.000000
 -0.350000  0.416667  0.016667    576.000000
 -0.316667  0.416667  0.016667    576.000000
 -0.283333  0.416667  0.016667    576.000000
 -0.250000  0.416667  0.016667    576.000000
 -0.216667  0.416667  0.016667    576.000000
 -0.183333  0.416667  0.016667    576.000000
 -0.150000  0.416667  0.016667    576.000000
 -0.116667  0.416667  0.016667    576.000000
 -0.083333  0.416667  0.016667    576.000000
 -0.050000  0.416667  0.016667    576.000000
 -0.016667  0.416667  0.016667    576.000000
  0.450000  0.450000  0.016667    288.000000
  0.483333  0.450000  0.016667    576.000000
 -0.483333  0.450000  0.016667    576.000000
 -0.450000  0.450000  0.016667    576.000000
 -0.416667  0.450000  0.016667    576.000000
 -0.383333  0.450000  0.016667    576.000000
 -0.350000  0.450000  0.016667    576.000000
 -0.316667  0.450000  0.016667    576.000000
 -0.283333  0.450000  0.016667    576.000000
 -0.250000  0.450000  0.016667    576.000000
 -0.216667  0.450000  0.016667    576.000000
 -0.183333  0.450000  0.016667    576.000000
 -0.150000  0.450000  0.016667    576.000000
 -0.116667  0.450000  0.016667    576.000000
 -0.083333  0.450000  0.016667    576.000000
 -0.050000  0.450000  0.016667    576.000000
 -0.016667  0.450000  0.016667    576.000000
  0.483333  0.483333  0.016667    288.000000
 -0.483333  0.483333  0.016667    576.000000
 -0.450000  0.483333  0.016667    576.000000
 -0.416667  0.483333  0.016667    576.000000
 -0.383333  0.483333  0.016667    576.000000
 -0.350000  0.483333  0.016667    576.000000
 -0.316667  0.483333  0.016667    576.000000
 -0.283333  0.483333  0.016667    576.000000
 -0.250000  0.483333  0.016667    576.000000
 -0.216667  0.483333  0.016667    576.000000
 -0.183333  0.483333  0.016667    576.000000
 -0.150000  0.483333  0.016667    576.000000
 -0.116667  0.483333  0.016667    576.000000
 -0.083333  0.483333  0.016667    576.000000
 -0.050000  0.483333  0.016667    576.000000
 -0.016667  0.483333  0.016667    576.000000
 -0.483333 -0.483333  0.016667    288.000000
 -0.450000 -0.483333  0.016667    576.000000
 -0.416667 -0.483333  0.016667    576.000000
 -0.383333 -0.483333  0.016667    576.000000
 -0.350000 -0.483333  0.016667    576.000000
 -0.316667 -0.483333  0.016667    576.000000
 -0.283333 -0.483333  0.016667    576.000000
 -0.250000 -0.483333  0.016667    576.000000
 -0.216667 -0.483333  0.016667    576.000000
 -0.183333 -0.483333  0.016667    576.000000
 -0.150000 -0.483333  0.016667    576.000000
 -0.116667 -0.483333  0.016667    576.000000
 -0.083333 -0.483333  0.016667    576.000000
 -0.050000 -0.483333  0.016667    576.000000
 -0.450000 -0.450000  0.016667    288.000000
 -0.416667 -0.450000  0.016667    576.000000
 -0.383333 -0.450000  0.016667    576.000000
 -0.350000 -0.450000  0.016667    576.000000
 -0.316667 -0.450000  0.016667    576.000000
 -0.283333 -0.450000  0.016667    576.000000
 -0.250000 -0.450000  0.016667    576.000000
 -0.216667 -0.450000  0.016667    576.000000
 -0.183333 -0.450000  0.016667    576.000000
 -0.150000 -0.450000  0.016667    576.000000
 -0.116667 -0.450000  0.016667    576.000000
 -0.083333 -0.450000  0.016667    576.000000
 -0.050000 -0.450000  0.016667    576.000000
 -0.416667 -0.416667  0.016667    288.000000
 -0.383333 -0.416667  0.016667    576.000000
 -0.350000 -0.416667  0.016667    576.000000
 -0.316667 -0.416667  0.016667    576.000000
 -0.283333 -0.416667  0.016667    576.000000
 -0.250000 -0.416667  0.016667    576.000000
 -0.216667 -0.416667  0.016667    576.000000
 -0.183333 -0.416667  0.016667    576.000000
 -0.150000 -0.416667  0.016667    576.000000
 -0.116667 -0.416667  0.016667    576.000000
 -0.083333 -0.416667  0.016667    576.000000
 -0.050000 -0.416667  0.016667    576.000000
 -0.383333 -0.383333  0.016667    288.000000
 -0.350000 -0.383333  0.016667    576.000000
 -0.316667 -0.383333  0.016667    576.000000
 -0.283333 -0.383333  0.016667    576.000000
 -0.250000 -0.383333  0.016667    576.000000
 -0.216667 -0.383333  0.016667    576.000000
 -0.183333 -0.383333  0.016667    576.000000
 -0.150000 -0.383333  0.016667    576.000000
 -0.116667 -0.383333  0.016667    576.000000
 -0.083333 -0.383333  0.016667    576.000000
 -0.050000 -0.383333  0.016667    576.000000
 -0.350000 -0.350000  0.016667    288.000000
 -0.316667 -0.350000  0.016667    576.000000
 -0.283333 -0.350000  0.016667    576.000000
 -0.250000 -0.350000  0.016667    576.000000
 -0.216667 -0.350000  0.016667    576.000000
 -0.183333 -0.350000  0.016667    576.000000
 -0.150000 -0.350000  0.016667    576.000000
 -0.116667 -0.350000  0.016667    576.000000
 -0.083333 -0.350000  0.016667    576.000000
 -0.050000 -0.350000  0.016667    576.000000
 -0.316667 -0.316667  0.016667    288.000000
 -0.283333 -0.316667  0.016667    576.000000
 -0.250000 -0.316667  0.016667    576.000000
 -0.216667 -0.316667  0.016667    576.000000
 -0.183333 -0.316667  0.016667    576.000000
 -0.150000 -0.316667  0.016667    576.000000
 -0.116667 -0.316667  0.016667    576.000000
 -0.083333 -0.316667  0.016667    576.000000
 -0.050000 -0.316667  0.016667    576.000000
 -0.283333 -0.283333  0.016667    288.000000
 -0.250000 -0.283333  0.016667    576.000000
 -0.216667 -0.283333  0.016667    576.000000
 -0.183333 -0.283333  0.016667    576.000000
 -0.150000 -0.283333  0.016667    576.000000
 -0.116667 -0.283333  0.016667    576.000000
 -0.083333 -0.283333  0.016667    576.000000
 -0.050000 -0.283333  0.016667    576.000000
 -0.250000 -0.250000  0.016667    288.000000
 -0.216667 -0.250000  0.016667    576.000000
 -0.183333 -0.250000  0.016667    576.000000
 -0.150000 -0.250000  0.016667    576.000000
 -0.116667 -0.250000  0.016667    576.000000
 -0.083333 -0.250000  0.016667    576.000000
 -0.050000 -0.250000  0.016667    576.000000
 -0.216667 -0.216667  0.016667    288.000000
 -0.183333 -0.216667  0.016667    576.000000
 -0.150000 -0.216667  0.016667    576.000000
 -0.116667 -0.216667  0.016667    576.000000
 -0.083333 -0.216667  0.016667    576.000000
 -0.050000 -0.216667  0.016667    576.000000
 -0.183333 -0.183333  0.016667    288.000000
 -0.150000 -0.183333  0.016667    576.000000
 -0.116667 -0.183333  0.016667    576.000000
 -0.083333 -0.183333  0.016667    576.000000
 -0.050000 -0.183333  0.016667    576.000000
 -0.150000 -0.150000  0.016667    288.000000
 -0.116667 -0.150000  0.016667    576.000000
 -0.083333 -0.150000  0.016667    576.000000
 -0.050000 -0.150000  0.016667    576.000000
 -0.116667 -0.116667  0.016667    288.000000
 -0.083333 -0.116667  0.016667    576.000000
 -0.050000 -0.116667  0.016667    576.000000
 -0.083333 -0.083333  0.016667    288.000000
 -0.050000 -0.083333  0.016667    576.000000
 -0.050000 -0.050000  0.016667    288.000000
  0.050000  0.050000  0.050000     96.000000
  0.083333  0.050000  0.050000    288.000000
  0.116667  0.050000  0.050000    288.000000
  0.150000  0.050000  0.050000    288.000000
  0.183333  0.050000  0.050000    288.000000
  0.216667  0.050000  0.050000    288.000000
  0.250000  0.050000  0.050000    288.000000
  0.283333  0.050000  0.050000    288.000000
  0.316667  0.050000  0.050000    288.000000
  0.350000  0.050000  0.050000    288.000000
  0.383333  0.050000  0.050000    288.000000
  0.416667  0.050000  0.050000    288.000000
  0.450000  0.050000  0.050000    288.000000
  0.483333  0.050000  0.050000    288.000000
 -0.483333  0.050000  0.050000    288.000000
 -0.450000  0.050000  0.050000    288.000000
 -0.416667  0.050000  0.050000    288.000000
 -0.383333  0.050000  0.050000    288.000000
 -0.350000  0.050000  0.050000    288.000000
 -0.316667  0.050000  0.050000    288.000000
 -0.283333  0.050000  0.050000    288.000000
 -0.250000  0.050000  0.050000    288.000000
 -0.216667  0.050000  0.050000    288.000000
 -0.183333  0.050000  0.050000    288.000000
 -0.150000  0.050000  0.050000    288.000000
 -0.116667  0.050000  0.050000    288.000000
 -0.083333  0.050000  0.050000    288.000000
 -0.050000  0.050000  0.050000    288.000000
  0.083333  0.083333  0.050000    288.000000
  0.116667  0.083333  0.050000    576.000000
  0.150000  0.083333  0.050000    576.000000
  0.183333  0.083333  0.050000    576.000000
  0.216667  0.083333  0.050000    576.000000
  0.250000  0.083333  0.050000    576.000000
  0.283333  0.083333  0.050000    576.000000
  0.316667  0.083333  0.050000    576.000000
  0.350000  0.083333  0.050000    576.000000
  0.383333  0.083333  0.050000    576.000000
  0.416667  0.083333  0.050000    576.000000
  0.450000  0.083333  0.050000    576.000000
  0.483333  0.083333  0.050000    576.000000
 -0.483333  0.083333  0.050000    576.000000
 -0.450000  0.083333  0.050000    576.000000
 -0.416667  0.083333  0.050000    576.000000
 -0.383333  0.083333  0.050000    576.000000
 -0.350000  0.083333  0.050000    576.000000
 -0.316667  0.083333  0.050000    576.000000
 -0.283333  0.083333  0.050000    576.000000
 -0.250000  0.083333  0.050000    576.000000
 -0.216667  0.083333  0.050000    576.000000
 -0.183333  0.083333  0.050000    576.000000
 -0.150000  0.083333  0.050000    576.000000
 -0.116667  0.083333  0.050000    576.000000
 -0.083333  0.083333  0.050000    576.000000
 -0.050000  0.083333  0.050000    576.000000
  0.116667  0.116667  0.050000    288.000000
  0.150000  0.116667  0.050000    576.000000
  0.183333  0.116667  0.050000    576.000000
  0.216667  0.116667  0.050000    576.000000
  0.250000  0.116667  0.050000    576.000000
  0.283333  0.116667  0.050000    576.000000
  0.316667  0.116667  0.050000    576.000000
  0.350000  0.116667  0.050000    576.000000
  0.383333  0.116667  0.050000    576.000000
  0.416667  0.116667  0.050000    576.000000
  0.450000  0.116667  0.050000    576.000000
  0.483333  0.116667  0.050000    576.000000
 -0.483333  0.116667  0.050000    576.000000
 -0.450000  0.116667  0.050000    576.000000
 -0.416667  0.116667  0.050000    576.000000
 -0.383333  0.116667  0.050000    576.000000
 -0.350000  0.116667  0.050000    576.000000
 -0.316667  0.116667  0.050000    576.000000
 -0.283333  0.116667  0.050000    576.000000
 -0.250000  0.116667  0.050000    576.000000
 -0.216667  0.116667  0.050000    576.000000
 -0.183333  0.116667  0.050000    576.000000
 -0.150000  0.116667  0.050000    576.000000
 -0.116667  0.116667  0.050000    576.000000
 -0.083333  0.116667  0.050000    576.000000
 -0.050000  0.116667  0.050000    576.000000
  0.150000  0.150000  0.050000    288.000000
  0.183333  0.150000  0.050000    576.000000
  0.216667  0.150000  0.050000    576.000000
  0.250000  0.150000  0.050000    576.000000
  0.283333  0.150000  0.050000    576.000000
  0.316667  0.150000  0.050000    576.000000
  0.350000  0.150000  0.050000    576.000000
  0.383333  0.150000  0.050000    576.000000
  0.416667  0.150000  0.050000    576.000000
  0.450000  0.150000  0.050000    576.000000
  0.483333  0.150000  0.050000    576.000000
 -0.483333  0.150000  0.050000    576.000000
 -0.450000  0.150000  0.050000    576.000000
 -0.416667  0.150000  0.050000    576.000000
 -0.383333  0.150000  0.050000    576.000000
 -0.350000  0.150000  0.050000    576.000000
 -0.316667  0.150000  0.050000    576.000000
 -0.283333  0.150000  0.050000    576.000000
 -0.250000  0.150000  0.050000    576.000000
 -0.216667  0.150000  0.050000    576.000000
 -0.183333  0.150000  0.050000    576.000000
 -0.150000  0.150000  0.050000    576.000000
 -0.116667  0.150000  0.050000    576.000000
 -0.083333  0.150000  0.050000    576.000000
 -0.050000  0.150000  0.050000    576.000000
  0.183333  0.183333  0.050000    288.000000
  0.216667  0.183333  0.050000    576.000000
  0.250000  0.183333  0.050000    576.000000
  0.283333  0.183333  0.050000    576.000000
  0.316667  0.183333  0.050000    576.000000
  0.350000  0.183333  0.050000    576.000000
  0.383333  0.183333  0.050000    576.000000
  0.416667  0.183333  0.050000    576.000000
  0.450000  0.183333  0.050000    576.000000
  0.483333  0.183333  0.050000    576.000000
 -0.483333  0.183333  0.050000    576.000000
 -0.450000  0.183333  0.050000    576.000000
 -0.416667  0.183333  0.050000    576.000000
 -0.383333  0.183333  0.050000    576.000000
 -0.350000  0.183333  0.050000    576.000000
 -0.316667  0.183333  0.050000    576.000000
 -0.283333  0.183333  0.050000    576.000000
 -0.250000  0.183333  0.050000    576.000000
 -0.216667  0.183333  0.050000    576.000000
 -0.183333  0.183333  0.050000    576.000000
 -0.150000  0.183333  0.050000    576.000000
 -0.116667  0.183333  0.050000    576.000000
 -0.083333  0.183333  0.050000    576.000000
 -0.050000  0.183333  0.050000    576.000000
  0.216667  0.216667  0.050000    288.000000
  0.250000  0.216667  0.050000    576.000000
  0.283333  0.216667  0.050000    576.000000
  0.316667  0.216667  0.050000    576.000000
  0.350000  0.216667  0.050000    576.000000
  0.383333  0.216667  0.050000    576.000000
  0.416667  0.216667  0.050000    576.000000
  0.450000  0.216667  0.050000    576.000000
  0.483333  0.216667  0.050000    576.000000
 -0.483333  0.216667  0.050000    576.000000
 -0.450000  0.216667  0.050000    576.000000
 -0.416667  0.216667  0.050000    576.000000
 -0.383333  0.216667  0.050000    576.000000
 -0.350000  0.216667  0.050000    576.000000
 -0.316667  0.216667  0.050000    576.000000
 -0.283333  0.216667  0.050000    576.000000
 -0.250000  0.216667  0.050000    576.000000
 -0.216667  0.216667  0.050000    576.000000
 -0.183333  0.216667  0.050000    576.000000
 -0.150000  0.216667  0.050000    576.000000
 -0.116667  0.216667  0.050000    576.000000
 -0.083333  0.216667  0.050000    576.000000
 -0.050000  0.216667  0.050000    576.000000
  0.250000  0.250000  0.050000    288.000000
  0.283333  0.250000  0.050000    576.000000
  0.316667  0.250000  0.050000    576.000000
  0.350000  0.250000  0.050000    576.000000
  0.383333  0.250000  0.050000    576.000000
  0.416667  0.250000  0.050000    576.000000
  0.450000  0.250000  0.050000    576.000000
  0.483333  0.250000  0.050000    576.000000
 -0.483333  0.250000  0.050000    576.000000
 -0.450000  0.250000  0.050000    576.000000
 -0.416667  0.250000  0.050000    576.000000
 -0.383333  0.250000  0.050000    576.000000
 -0.350000  0.250000  0.050000    576.000000
 -0.316667  0.250000  0.050000    576.000000
 -0.283333  0.250000  0.050000    576.000000
 -0.250000  0.250000  0.050000    576.000000
 -0.216667  0.250000  0.050000    576.000000
 -0.183333  0.250000  0.050000    576.000000
 -0.150000  0.250000  0.050000    576.000000
 -0.116667  0.250000  0.050000    576.000000
 -0.083333  0.250000  0.050000    576.000000
 -0.050000  0.250000  0.050000    576.000000
  0.283333  0.283333  0.050000    288.000000
  0.316667  0.283333  0.050000    576.000000
  0.350000  0.283333  0.050000    576.000000
  0.383333  0.283333  0.050000    576.000000
  0.416667  0.283333  0.050000    576.000000
  0.450000  0.283333  0.050000    576.000000
  0.483333  0.283333  0.050000    576.000000
 -0.483333  0.283333  0.050000    576.000000
 -0.450000  0.283333  0.050000    576.000000
 -0.416667  0.283333  0.050000    576.000000
 -0.383333  0.283333  0.050000    576.000000
 -0.350000  0.283333  0.050000    576.000000
 -0.316667  0.283333  0.050000    576.000000
 -0.283333  0.283333  0.050000    576.000000
 -0.250000  0.283333  0.050000    576.000000
 -0.216667  0.283333  0.050000    576.000000
 -0.183333  0.283333  0.050000    576.000000
 -0.150000  0.283333  0.050000    576.000000
 -0.116667  0.283333  0.050000    576.000000
 -0.083333  0.283333  0.050000    576.000000
 -0.050000  0.283333  0.050000    576.000000
  0.316667  0.316667  0.050000    288.000000
  0.350000  0.316667  0.050000    576.000000
  0.383333  0.316667  0.050000    576.000000
  0.416667  0.316667  0.050000    576.000000
  0.450000  0.316667  0.050000    576.000000
  0.483333  0.316667  0.050000    576.000000
 -0.483333  0.316667  0.050000    576.000000
 -0.450000  0.316667  0.050000    576.000000
 -0.416667  0.316667  0.050000    576.000000
 -0.383333  0.316667  0.050000    576.000000
 -0.350000  0.316667  0.050000    576.000000
 -0.316667  0.316667  0.050000    576.000000
 -0.283333  0.316667  0.050000    576.000000
 -0.250000  0.316667  0.050000    576.000000
 -0.216667  0.316667  0.050000    576.000000
 -0.183333  0.316667  0.050000    576.000000
 -0.150000  0.316667  0.050000    576.000000
 -0.116667  0.316667  0.050000    576.000000
 -0.083333  0.316667  0.050000    576.000000
 -0.050000  0.316667  0.050000    576.000000
  0.350000  0.350000  0.050000    288.000000
  0.383333  0.350000  0.050000    576.000000
  0.416667  0.350000  0.050000    576.000000
  0.450000  0.350000  0.050000    576.000000
  0.483333  0.350000  0.050000    576.000000
 -0.483333  0.350000  0.050000    576.000000
 -0.450000  0.350000  0.050000    576.000000
 -0.416667  0.350000  0.050000    576.000000
 -0.383333  0.350000  0.050000    576.000000
 -0.350000  0.350000  0.050000    576.000000
 -0.316667  0.350000  0.050000    576.000000
 -0.283333  0.350000  0.050000    576.000000
 -0.250000  0.350000  0.050000    576.000000
 -0.216667  0.350000  0.050000    576.000000
 -0.183333  0.350000  0.050000    576.000000
 -0.150000  0.350000  0.050000    576.000000
 -0.116667  0.350000  0.050000    576.000000
 -0.083333  0.350000  0.050000    576.000000
 -0.050000  0.350000  0.050000    576.000000
  0.383333  0.383333  0.050000    288.000000
  0.416667  0.383333  0.050000    576.000000
  0.450000  0.383333  0.050000    576.000000
  0.483333  0.383333  0.050000    576.000000
 -0.483333  0.383333  0.050000    576.000000
 -0.450000  0.383333  0.050000    576.000000
 -0.416667  0.383333  0.050000    576.000000
 -0.383333  0.383333  0.050000    576.000000
 -0.350000  0.383333  0.050000    576.000000
 -0.316667  0.383333  0.050000    576.000000
 -0.283333  0.383333  0.050000    576.000000
 -0.250000  0.383333  0.050000    576.000000
 -0.216667  0.383333  0.050000    576.000000
 -0.183333  0.383333  0.050000    576.000000
 -0.150000  0.383333  0.050000    576.000000
 -0.116667  0.383333  0.050000    576.000000
 -0.083333  0.383333  0.050000    576.000000
 -0.050000  0.383333  0.050000    576.000000
  0.416667  0.416667  0.050000    288.000000
  0.450000  0.416667  0.050000    576.000000
  0.483333  0.416667  0.050000    576.000000
 -0.483333  0.416667  0.050000    576.000000
 -0.450000  0.416667  0.050000    576.000000
 -0.416667  0.416667  0.050000    576.000000
 -0.383333  0.416667  0.050000    576.000000
 -0.350000  0.416667  0.050000    576.000000
 -0.316667  0.416667  0.050000    576.000000
 -0.283333  0.416667  0.050000    576.000000
 -0.250000  0.416667  0.050000    576.000000
 -0.216667  0.416667  0.050000    576.000000
 -0.183333  0.416667  0.050000    576.000000
 -0.150000  0.416667  0.050000    576.000000
 -0.116667  0.416667  0.050000    576.000000
 -0.083333  0.416667  0.050000    576.000000
 -0.050000  0.416667  0.050000    576.000000
  0.450000  0.450000  0.050000    288.000000
  0.483333  0.450000  0.050000    576.000000
 -0.483333  0.450000  0.050000    576.000000
 -0.450000  0.450000  0.050000    576.000000
 -0.416667  0.450000  0.050000    576.000000
 -0.383333  0.450000  0.050000    576.000000
 -0.350000  0.450000  0.050000    576.000000
 -0.316667  0.450000  0.050000    576.000000
 -0.283333  0.450000  0.050000    576.000000
 -0.250000  0.450000  0.050000    576.000000
 -0.216667  0.450000  0.050000    576.000000
 -0.183333  0.450000  0.050000    576.000000
 -0.150000  0.450000  0.050000    576.000000
 -0.116667  0.450000  0.050000    576.000000
 -0.083333  0.450000  0.050000    576.000000
 -0.050000  0.450000  0.050000    576.000000
  0.483333  0.483333  0.050000    288.000000
 -0.483333  0.483333  0.050000    576.000000
 -0.450000  0.483333  0.050000    576.000000
 -0.416667  0.483333  0.050000    576.000000
 -0.383333  0.483333  0.050000    576.000000
 -0.350000  0.483333  0.050000    576.000000
 -0.316667  0.483333  0.050000    576.000000
 -0.283333  0.483333  0.050000    576.000000
 -0.250000  0.483333  0.050000    576.000000
 -0.216667  0.483333  0.050000    576.000000
 -0.183333  0.483333  0.050000    576.000000
 -0.150000  0.483333  0.050000    576.000000
 -0.116667  0.483333  0.050000    576.000000
 -0.083333  0.483333  0.050000    576.000000
 -0.050000  0.483333  0.050000    576.000000
 -0.483333 -0.483333  0.050000    288.000000
 -0.450000 -0.483333  0.050000    576.000000
 -0.416667 -0.483333  0.050000    576.000000
 -0.383333 -0.483333  0.050000    576.000000
 -0.350000 -0.483333  0.050000    576.000000
 -0.316667 -0.483333  0.050000    576.000000
 -0.283333 -0.483333  0.050000    576.000000
 -0.250000 -0.483333  0.050000    576.000000
 -0.216667 -0.483333  0.050000    576.000000
 -0.183333 -0.483333  0.050000    576.000000
 -0.150000 -0.483333  0.050000    576.000000
 -0.116667 -0.483333  0.050000    576.000000
 -0.083333 -0.483333  0.050000    576.000000
 -0.450000 -0.450000  0.050000    288.000000
 -0.416667 -0.450000  0.050000    576.000000
 -0.383333 -0.450000  0.050000    576.000000
 -0.350000 -0.450000  0.050000    576.000000
 -0.316667 -0.450000  0.050000    576.000000
 -0.283333 -0.450000  0.050000    576.000000
 -0.250000 -0.450000  0.050000    576.000000
 -0.216667 -0.450000  0.050000    576.000000
 -0.183333 -0.450000  0.050000    576.000000
 -0.150000 -0.450000  0.050000    576.000000
 -0.116667 -0.450000  0.050000    576.000000
 -0.083333 -0.450000  0.050000    576.000000
 -0.416667 -0.416667  0.050000    288.000000
 -0.383333 -0.416667  0.050000    576.000000
 -0.350000 -0.416667  0.050000    576.000000
 -0.316667 -0.416667  0.050000    576.000000
 -0.283333 -0.416667  0.050000    576.000000
 -0.250000 -0.416667  0.050000    576.000000
 -0.216667 -0.416667  0.050000    576.000000
 -0.183333 -0.416667  0.050000    576.000000
 -0.150000 -0.416667  0.050000    576.000000
 -0.116667 -0.416667  0.050000    576.000000
 -0.083333 -0.416667  0.050000    576.000000
 -0.383333 -0.383333  0.050000    288.000000
 -0.350000 -0.383333  0.050000    576.000000
 -0.316667 -0.383333  0.050000    576.000000
 -0.283333 -0.383333  0.050000    576.000000
 -0.250000 -0.383333  0.050000    576.000000
 -0.216667 -0.383333  0.050000    576.000000
 -0.183333 -0.383333  0.050000    576.000000
 -0.150000 -0.383333  0.050000    576.000000
 -0.116667 -0.383333  0.050000    576.000000
 -0.083333 -0.383333  0.050000    576.000000
 -0.350000 -0.350000  0.050000    288.000000
 -0.316667 -0.350000  0.050000    576.000000
 -0.283333 -0.350000  0.050000    576.000000
 -0.250000 -0.350000  0.050000    576.000000
 -0.216667 -0.350000  0.050000    576.000000
 -0.183333 -0.350000  0.050000    576.000000
 -0.150000 -0.350000  0.050000    576.000000
 -0.116667 -0.350000  0.050000    576.000000
 -0.083333 -0.350000  0.050000    576.000000
 -0.316667 -0.316667  0.050000    288.000000
 -0.283333 -0.316667  0.050000    576.000000
 -0.250000 -0.316667  0.050000    576.000000
 -0.216667 -0.316667  0.050000    576.000000
 -0.183333 -0.316667  0.050000    576.000000
 -0.150000 -0.316667  0.050000    576.000000
 -0.116667 -0.316667  0.050000    576.000000
 -0.083333 -0.316667  0.050000    576.000000
 -0.283333 -0.283333  0.050000    288.000000
 -0.250000 -0.283333  0.050000    576.000000
 -0.216667 -0.283333  0.050000    576.000000
 -0.183333 -0.283333  0.050000    576.000000
 -0.150000 -0.283333  0.050000    576.000000
 -0.116667 -0.283333  0.050000    576.000000
 -0.083333 -0.283333  0.050000    576.000000
 -0.250000 -0.250000  0.050000    288.000000
 -0.216667 -0.250000  0.050000    576.000000
 -0.183333 -0.250000  0.050000    576.000000
 -0.150000 -0.250000  0.050000    576.000000
 -0.116667 -0.250000  0.050000    576.000000
 -0.083333 -0.250000  0.050000    576.000000
 -0.216667 -0.216667  0.050000    288.000000
 -0.183333 -0.216667  0.050000    576.000000
 -0.150000 -0.216667  0.050000    576.000000
 -0.116667 -0.216667  0.050000    576.000000
 -0.083333 -0.216667  0.050000    576.000000
 -0.183333 -0.183333  0.050000    288.000000
 -0.150000 -0.183333  0.050000    576.000000
 -0.116667 -0.183333  0.050000    576.000000
 -0.083333 -0.183333  0.050000    576.000000
 -0.150000 -0.150000  0.050000    288.000000
 -0.116667 -0.150000  0.050000    576.000000
 -0.083333 -0.150000  0.050000    576.000000
 -0.116667 -0.116667  0.050000    288.000000
 -0.083333 -0.116667  0.050000    576.000000
 -0.083333 -0.083333  0.050000    288.000000
  0.083333  0.083333  0.083333     96.000000
  0.116667  0.083333  0.083333    288.000000
  0.150000  0.083333  0.083333    288.000000
  0.183333  0.083333  0.083333    288.000000
  0.216667  0.083333  0.083333    288.000000
  0.250000  0.083333  0.083333    288.000000
  0.283333  0.083333  0.083333    288.000000
  0.316667  0.083333  0.083333    288.000000
  0.350000  0.083333  0.083333    288.000000
  0.383333  0.083333  0.083333    288.000000
  0.416667  0.083333  0.083333    288.000000
  0.450000  0.083333  0.083333    288.000000
  0.483333  0.083333  0.083333    288.000000
 -0.483333  0.083333  0.083333    288.000000
 -0.450000  0.083333  0.083333    288.000000
 -0.416667  0.083333  0.083333    288.000000
 -0.383333  0.083333  0.083333    288.000000
 -0.350000  0.083333  0.083333    288.000000
 -0.316667  0.083333  0.083333    288.000000
 -0.283333  0.083333  0.083333    288.000000
 -0.250000  0.083333  0.083333    288.000000
 -0.216667  0.083333  0.083333    288.000000
 -0.183333  0.083333  0.083333    288.000000
 -0.150000  0.083333  0.083333    288.000000
 -0.116667  0.083333  0.083333    288.000000
 -0.083333  0.083333  0.083333    288.000000
  0.116667  0.116667  0.083333    288.000000
  0.150000  0.116667  0.083333    576.000000
  0.183333  0.116667  0.083333    576.000000
  0.216667  0.116667  0.083333    576.000000
  0.250000  0.116667  0.083333    576.000000
  0.283333  0.116667  0.083333    576.000000
  0.316667  0.116667  0.083333    576.000000
  0.350000  0.116667  0.083333    576.000000
  0.383333  0.116667  0.083333    576.000000
  0.416667  0.116667  0.083333    576.000000
  0.450000  0.116667  0.083333    576.000000
  0.483333  0.116667  0.083333    576.000000
 -0.483333  0.116667  0.083333    576.000000
 -0.450000  0.116667  0.083333    576.000000
 -0.416667  0.116667  0.083333    576.000000
 -0.383333  0.116667  0.083333    576.000000
 -0.350000  0.116667  0.083333    576.000000
 -0.316667  0.116667  0.083333    576.000000
 -0.283333  0.116667  0.083333    576.000000
 -0.250000  0.116667  0.083333    576.000000
 -0.216667  0.116667  0.083333    576.000000
 -0.183333  0.116667  0.083333    576.000000
 -0.150000  0.116667  0.083333    576.000000
 -0.116667  0.116667  0.083333    576.000000
 -0.083333  0.116667  0.083333    576.000000
  0.150000  0.150000  0.083333    288.000000
  0.183333  0.150000  0.083333    576.000000
  0.216667  0.150000  0.083333    576.000000
  0.250000  0.150000  0.083333    576.000000
  0.283333  0.150000  0.083333    576.000000
  0.316667  0.150000  0.083333    576.000000
  0.350000  0.150000  0.083333    576.000000
  0.383333  0.150000  0.083333    576.000000
  0.416667  0.150000  0.083333    576.000000
  0.450000  0.150000  0.083333    576.000000
  0.483333  0.150000  0.083333    576.000000
 -0.483333  0.150000  0.083333    576.000000
 -0.450000  0.150000  0.083333    576.000000
 -0.416667  0.150000  0.083333    576.000000
 -0.383333  0.150000  0.083333    576.000000
 -0.350000  0.150000  0.083333    576.000000
 -0.316667  0.150000  0.083333    576.000000
 -0.283333  0.150000  0.083333    576.000000
 -0.250000  0.150000  0.083333    576.000000
 -0.216667  0.150000  0.083333    576.000000
 -0.183333  0.150000  0.083333    576.000000
 -0.150000  0.150000  0.083333    576.000000
 -0.116667  0.150000  0.083333    576.000000
 -0.083333  0.150000  0.083333    576.000000
  0.183333  0.183333  0.083333    288.000000
  0.216667  0.183333  0.083333    576.000000
  0.250000  0.183333  0.083333    576.000000
  0.283333  0.183333  0.083333    576.000000
  0.316667  0.183333  0.083333    576.000000
  0.350000  0.183333  0.083333    576.000000
  0.383333  0.183333  0.083333    576.000000
  0.416667  0.183333  0.083333    576.000000
  0.450000  0.183333  0.083333    576.000000
  0.483333  0.183333  0.083333    576.000000
 -0.483333  0.183333  0.083333    576.000000
 -0.450000  0.183333  0.083333    576.000000
 -0.416667  0.183333  0.083333    576.000000
 -0.383333  0.183333  0.083333    576.000000
 -0.350000  0.183333  0.083333    576.000000
 -0.316667  0.183333  0.083333    576.000000
 -0.283333  0.183333  0.083333    576.000000
 -0.250000  0.183333  0.083333    576.000000
 -0.216667  0.183333  0.083333    576.000000
 -0.183333  0.183333  0.083333    576.000000
 -0.150000  0.183333  0.083333    576.000000
 -0.116667  0.183333  0.083333    576.000000
 -0.083333  0.183333  0.083333    576.000000
  0.216667  0.216667  0.083333    288.000000
  0.250000  0.216667  0.083333    576.000000
  0.283333  0.216667  0.083333    576.000000
  0.316667  0.216667  0.083333    576.000000
  0.350000  0.216667  0.083333    576.000000
  0.383333  0.216667  0.083333    576.000000
  0.416667  0.216667  0.083333    576.000000
  0.450000  0.216667  0.083333    576.000000
  0.483333  0.216667  0.083333    576.000000
 -0.483333  0.216667  0.083333    576.000000
 -0.450000  0.216667  0.083333    576.000000
 -0.416667  0.216667  0.083333    576.000000
 -0.383333  0.216667  0.083333    576.000000
 -0.350000  0.216667  0.083333    576.000000
 -0.316667  0.216667  0.083333    576.000000
 -0.283333  0.216667  0.083333    576.000000
 -0.250000  0.216667  0.083333    576.000000
 -0.216667  0.216667  0.083333    576.000000
 -0.183333  0.216667  0.083333    576.000000
 -0.150000  0.216667  0.083333    576.000000
 -0.116667  0.216667  0.083333    576.000000
 -0.083333  0.216667  0.083333    576.000000
  0.250000  0.250000  0.083333    288.000000
  0.283333  0.250000  0.083333    576.000000
  0.316667  0.250000  0.083333    576.000000
  0.350000  0.250000  0.083333    576.000000
  0.383333  0.250000  0.083333    576.000000
  0.416667  0.250000  0.083333    576.000000
  0.450000  0.250000  0.083333    576.000000
  0.483333  0.250000  0.083333    576.000000
 -0.483333  0.250000  0.083333    576.000000
 -0.450000  0.250000  0.083333    576.000000
 -0.416667  0.250000  0.083333    576.000000
 -0.383333  0.250000  0.083333    576.000000
 -0.350000  0.250000  0.083333    576.000000
 -0.316667  0.250000  0.083333    576.000000
 -0.283333  0.250000  0.083333    576.000000
 -0.250000  0.250000  0.083333    576.000000
 -0.216667  0.250000  0.083333    576.000000
 -0.183333  0.250000  0.083333    576.000000
 -0.150000  0.250000  0.083333    576.000000
 -0.116667  0.250000  0.083333    576.000000
 -0.083333  0.250000  0.083333    576.000000
  0.283333  0.283333  0.083333    288.000000
  0.316667  0.283333  0.083333    576.000000
  0.350000  0.283333  0.083333    576.000000
  0.383333  0.283333  0.083333    576.000000
  0.416667  0.283333  0.083333    576.000000
  0.450000  0.283333  0.083333    576.000000
  0.483333  0.283333  0.083333    576.000000
 -0.483333  0.283333  0.083333    576.000000
 -0.450000  0.283333  0.083333    576.000000
 -0.416667  0.283333  0.083333    576.000000
 -0.383333  0.283333  0.083333    576.000000
 -0.350000  0.283333  0.083333    576.000000
 -0.316667  0.283333  0.083333    576.000000
 -0.283333  0.283333  0.083333    576.000000
 -0.250000  0.283333  0.083333    576.000000
 -0.216667  0.283333  0.083333    576.000000
 -0.183333  0.283333  0.083333    576.000000
 -0.150000  0.283333  0.083333    576.000000
 -0.116667  0.283333  0.083333    576.000000
 -0.083333  0.283333  0.083333    576.000000
  0.316667  0.316667  0.083333    288.000000
  0.350000  0.316667  0.083333    576.000000
  0.383333  0.316667  0.083333    576.000000
  0.416667  0.316667  0.083333    576.000000
  0.450000  0.316667  0.083333    576.000000
  0.483333  0.316667  0.083333    576.000000
 -0.483333  0.316667  0.083333    576.000000
 -0.450000  0.316667  0.083333    576.000000
 -0.416667  0.316667  0.083333    576.000000
 -0.383333  0.316667  0.083333    576.000000
 -0.350000  0.316667  0.083333    576.000000
 -0.316667  0.316667  0.083333    576.000000
 -0.283333  0.316667  0.083333    576.000000
 -0.250000  0.316667  0.083333    576.000000
 -0.216667  0.316667  0.083333    576.000000
 -0.183333  0.316667  0.083333    576.000000
 -0.150000  0.316667  0.083333    576.000000
 -0.116667  0.316667  0.083333    576.000000
 -0.083333  0.316667  0.083333    576.000000
  0.350000  0.350000  0.083333    288.000000
  0.383333  0.350000  0.083333    576.000000
  0.416667  0.350000  0.083333    576.000000
  0.450000  0.350000  0.083333    576.000000
  0.483333  0.350000  0.083333    576.000000
 -0.483333  0.350000  0.083333    576.000000
 -0.450000  0.350000  0.083333    576.000000
 -0.416667  0.350000  0.083333    576.000000
 -0.383333  0.350000  0.083333    576.000000
 -0.350000  0.350000  0.083333    576.000000
 -0.316667  0.350000  0.083333    576.000000
 -0.283333  0.350000  0.083333    576.000000
 -0.250000  0.350000  0.083333    576.000000
 -0.216667  0.350000  0.083333    576.000000
 -0.183333  0.350000  0.083333    576.000000
 -0.150000  0.350000  0.083333    576.000000
 -0.116667  0.350000  0.083333    576.000000
 -0.083333  0.350000  0.083333    576.000000
  0.383333  0.383333  0.083333    288.000000
  0.416667  0.383333  0.083333    576.000000
  0.450000  0.383333  0.083333    576.000000
  0.483333  0.383333  0.083333    576.000000
 -0.483333  0.383333  0.083333    576.000000
 -0.450000  0.383333  0.083333    576.000000
 -0.416667  0.383333  0.083333    576.000000
 -0.383333  0.383333  0.083333    576.000000
 -0.350000  0.383333  0.083333    576.000000
 -0.316667  0.383333  0.083333    576.000000
 -0.283333  0.383333  0.083333    576.000000
 -0.250000  0.383333  0.083333    576.000000
 -0.216667  0.383333  0.083333    576.000000
 -0.183333  0.383333  0.083333    576.000000
 -0.150000  0.383333  0.083333    576.000000
 -0.116667  0.383333  0.083333    576.000000
 -0.083333  0.383333  0.083333    576.000000
  0.416667  0.416667  0.083333    288.000000
  0.450000  0.416667  0.083333    576.000000
  0.483333  0.416667  0.083333    576.000000
 -0.483333  0.416667  0.083333    576.000000
 -0.450000  0.416667  0.083333    576.000000
 -0.416667  0.416667  0.083333    576.000000
 -0.383333  0.416667  0.083333    576.000000
 -0.350000  0.416667  0.083333    576.000000
 -0.316667  0.416667  0.083333    576.000000
 -0.283333  0.416667  0.083333    576.000000
 -0.250000  0.416667  0.083333    576.000000
 -0.216667  0.416667  0.083333    576.000000
 -0.183333  0.416667  0.083333    576.000000
 -0.150000  0.416667  0.083333    576.000000
 -0.116667  0.416667  0.083333    576.000000
 -0.083333  0.416667  0.083333    576.000000
  0.450000  0.450000  0.083333    288.000000
  0.483333  0.450000  0.083333    576.000000
 -0.483333  0.450000  0.083333    576.000000
 -0.450000  0.450000  0.083333    576.000000
 -0.416667  0.450000  0.083333    576.000000
 -0.383333  0.450000  0.083333    576.000000
 -0.350000  0.450000  0.083333    576.000000
 -0.316667  0.450000  0.083333    576.000000
 -0.283333  0.450000  0.083333    576.000000
 -0.250000  0.450000  0.083333    576.000000
 -0.216667  0.450000  0.083333    576.000000
 -0.183333  0.450000  0.083333    576.000000
 -0.150000  0.450000  0.083333    576.000000
 -0.116667  0.450000  0.083333    576.000000
 -0.083333  0.450000  0.083333    576.000000
  0.483333  0.483333  0.083333    288.000000
 -0.483333  0.483333  0.083333    576.000000
 -0.450000  0.483333  0.083333    576.000000
 -0.416667  0.483333  0.083333    576.000000
 -0.383333  0.483333  0.083333    576.000000
 -0.350000  0.483333  0.083333    576.000000
 -0.316667  0.483333  0.083333    576.000000
 -0.283333  0.483333  0.083333    576.000000
 -0.250000  0.483333  0.083333    576.000000
 -0.216667  0.483333  0.083333    576.000000
 -0.183333  0.483333  0.083333    576.000000
 -0.150000  0.483333  0.083333    576.000000
 -0.116667  0.483333  0.083333    576.000000
 -0.083333  0.483333  0.083333    576.000000
 -0.483333 -0.483333  0.083333    288.000000
 -0.450000 -0.483333  0.083333    576.000000
 -0.416667 -0.483333  0.083333    576.000000
 -0.383333 -0.483333  0.083333    576.000000
 -0.350000 -0.483333  0.083333    576.000000
 -0.316667 -0.483333  0.083333    576.000000
 -0.283333 -0.483333  0.083333    576.000000
 -0.250000 -0.483333  0.083333    576.000000
 -0.216667 -0.483333  0.083333    576.000000
 -0.183333 -0.483333  0.083333    576.000000
 -0.150000 -0.483333  0.083333    576.000000
 -0.116667 -0.483333  0.083333    576.000000
 -0.450000 -0.450000  0.083333    288.000000
 -0.416667 -0.450000  0.083333    576.000000
 -0.383333 -0.450000  0.083333    576.000000
 -0.350000 -0.450000  0.083333    576.000000
 -0.316667 -0.450000  0.083333    576.000000
 -0.283333 -0.450000  0.083333    576.000000
 -0.250000 -0.450000  0.083333    576.000000
 -0.216667 -0.450000  0.083333    576.000000
 -0.183333 -0.450000  0.083333    576.000000
 -0.150000 -0.450000  0.083333    576.000000
 -0.116667 -0.450000  0.083333    576.000000
 -0.416667 -0.416667  0.083333    288.000000
 -0.383333 -0.416667  0.083333    576.000000
 -0.350000 -0.416667  0.083333    576.000000
 -0.316667 -0.416667  0.083333    576.000000
 -0.283333 -0.416667  0.083333    576.000000
 -0.250000 -0.416667  0.083333    576.000000
 -0.216667 -0.416667  0.083333    576.000000
 -0.183333 -0.416667  0.083333    576.000000
 -0.150000 -0.416667  0.083333    576.000000
 -0.116667 -0.416667  0.083333    576.000000
 -0.383333 -0.383333  0.083333    288.000000
 -0.350000 -0.383333  0.083333    576.000000
 -0.316667 -0.383333  0.083333    576.000000
 -0.283333 -0.383333  0.083333    576.000000
 -0.250000 -0.383333  0.083333    576.000000
 -0.216667 -0.383333  0.083333    576.000000
 -0.183333 -0.383333  0.083333    576.000000
 -0.150000 -0.383333  0.083333    576.000000
 -0.116667 -0.383333  0.083333    576.000000
 -0.350000 -0.350000  0.083333    288.000000
 -0.316667 -0.350000  0.083333    576.000000
 -0.283333 -0.350000  0.083333    576.000000
 -0.250000 -0.350000  0.083333    576.000000
 -0.216667 -0.350000  0.083333    576.000000
 -0.183333 -0.350000  0.083333    576.000000
 -0.150000 -0.350000  0.083333    576.000000
 -0.116667 -0.350000  0.083333    576.000000
 -0.316667 -0.316667  0.083333    288.000000
 -0.283333 -0.316667  0.083333    576.000000
 -0.250000 -0.316667  0.083333    576.000000
 -0.216667 -0.316667  0.083333    576.000000
 -0.183333 -0.316667  0.083333    576.000000
 -0.150000 -0.316667  0.083333    576.000000
 -0.116667 -0.316667  0.083333    576.000000
 -0.283333 -0.283333  0.083333    288.000000
 -0.250000 -0.283333  0.083333    576.000000
 -0.216667 -0.283333  0.083333    576.000000
 -0.183333 -0.283333  0.083333    576.000000
 -0.150000 -0.283333  0.083333    576.000000
 -0.116667 -0.283333  0.083333    576.000000
 -0.250000 -0.250000  0.083333    288.000000
 -0.216667 -0.250000  0.083333    576.000000
 -0.183333 -0.250000  0.083333    576.000000
 -0.150000 -0.250000  0.083333    576.000000
 -0.116667 -0.250000  0.083333    576.000000
 -0.216667 -0.216667  0.083333    288.000000
 -0.183333 -0.216667  0.083333    576.000000
 -0.150000 -0.216667  0.083333    576.000000
 -0.116667 -0.216667  0.083333    576.000000
 -0.183333 -0.183333  0.083333    288.000000
 -0.150000 -0.183333  0.083333    576.000000
 -0.116667 -0.183333  0.083333    576.000000
 -0.150000 -0.150000  0.083333    288.000000
 -0.116667 -0.150000  0.083333    576.000000
 -0.116667 -0.116667  0.083333    288.000000
  0.116667  0.116667  0.116667     96.000000
  0.150000  0.116667  0.116667    288.000000
  0.183333  0.116667  0.116667    288.000000
  0.216667  0.116667  0.116667    288.000000
  0.250000  0.116667  0.116667    288.000000
  0.283333  0.116667  0.116667    288.000000
  0.316667  0.116667  0.116667    288.000000
  0.350000  0.116667  0.116667    288.000000
  0.383333  0.116667  0.116667    288.000000
  0.416667  0.116667  0.116667    288.000000
  0.450000  0.116667  0.116667    288.000000
  0.483333  0.116667  0.116667    288.000000
 -0.483333  0.116667  0.116667    288.000000
 -0.450000  0.116667  0.116667    288.000000
 -0.416667  0.116667  0.116667    288.000000
 -0.383333  0.116667  0.116667    288.000000
 -0.350000  0.116667  0.116667    288.000000
 -0.316667  0.116667  0.116667    288.000000
 -0.283333  0.116667  0.116667    288.000000
 -0.250000  0.116667  0.116667    288.000000
 -0.216667  0.116667  0.116667    288.000000
 -0.183333  0.116667  0.116667    288.000000
 -0.150000  0.116667  0.116667    288.000000
 -0.116667  0.116667  0.116667    288.000000
  0.150000  0.150000  0.116667    288.000000
  0.183333  0.150000  0.116667    576.000000
  0.216667  0.150000  0.116667    576.000000
  0.250000  0.150000  0.116667    576.000000
  0.283333  0.150000  0.116667    576.000000
  0.316667  0.150000  0.116667    576.000000
  0.350000  0.150000  0.116667    576.000000
  0.383333  0.150000  0.116667    576.000000
  0.416667  0.150000  0.116667    576.000000
  0.450000  0.150000  0.116667    576.000000
  0.483333  0.150000  0.116667    576.000000
 -0.483333  0.150000  0.116667    576.000000
 -0.450000  0.150000  0.116667    576.000000
 -0.416667  0.150000  0.116667    576.000000
 -0.383333  0.150000  0.116667    576.000000
 -0.350000  0.150000  0.116667    576.000000
 -0.316667  0.150000  0.116667    576.000000
 -0.283333  0.150000  0.116667    576.000000
 -0.250000  0.150000  0.116667    576.000000
 -0.216667  0.150000  0.116667    576.000000
 -0.183333  0.150000  0.116667    576.000000
 -0.150000  0.150000  0.116667    576.000000
 -0.116667  0.150000  0.116667    576.000000
  0.183333  0.183333  0.116667    288.000000
  0.216667  0.183333  0.116667    576.000000
  0.250000  0.183333  0.116667    576.000000
  0.283333  0.183333  0.116667    576.000000
  0.316667  0.183333  0.116667    576.000000
  0.350000  0.183333  0.116667    576.000000
  0.383333  0.183333  0.116667    576.000000
  0.416667  0.183333  0.116667    576.000000
  0.450000  0.183333  0.116667    576.000000
  0.483333  0.183333  0.116667    576.000000
 -0.483333  0.183333  0.116667    576.000000
 -0.450000  0.183333  0.116667    576.000000
 -0.416667  0.183333  0.116667    576.000000
 -0.383333  0.183333  0.116667    576.000000
 -0.350000  0.183333  0.116667    576.000000
 -0.316667  0.183333  0.116667    576.000000
 -0.283333  0.183333  0.116667    576.000000
 -0.250000  0.183333  0.116667    576.000000
 -0.216667  0.183333  0.116667    576.000000
 -0.183333  0.183333  0.116667    576.000000
 -0.150000  0.183333  0.116667    576.000000
 -0.116667  0.183333  0.116667    576.000000
  0.216667  0.216667  0.116667    288.000000
  0.250000  0.216667  0.116667    576.000000
  0.283333  0.216667  0.116667    576.000000
  0.316667  0.216667  0.116667    576.000000
  0.350000  0.216667  0.116667    576.000000
  0.383333  0.216667  0.116667    576.000000
  0.416667  0.216667  0.116667    576.000000
  0.450000  0.216667  0.116667    576.000000
  0.483333  0.216667  0.116667    576.000000
 -0.483333  0.216667  0.116667    576.000000
 -0.450000  0.216667  0.116667    576.000000
 -0.416667  0.216667  0.116667    576.000000
 -0.383333  0.216667  0.116667    576.000000
 -0.350000  0.216667  0.116667    576.000000
 -0.316667  0.216667  0.116667    576.000000
 -0.283333  0.216667  0.116667    576.000000
 -0.250000  0.216667  0.116667    576.000000
 -0.216667  0.216667  0.116667    576.000000
 -0.183333  0.216667  0.116667    576.000000
 -0.150000  0.216667  0.116667    576.000000
 -0.116667  0.216667  0.116667    576.000000
  0.250000  0.250000  0.116667    288.000000
  0.283333  0.250000  0.116667    576.000000
  0.316667  0.250000  0.116667    576.000000
  0.350000  0.250000  0.116667    576.000000
  0.383333  0.250000  0.116667    576.000000
  0.416667  0.250000  0.116667    576.000000
  0.450000  0.250000  0.116667    576.000000
  0.483333  0.250000  0.116667    576.000000
 -0.483333  0.250000  0.116667    576.000000
 -0.450000  0.250000  0.116667    576.000000
 -0.416667  0.250000  0.116667    576.000000
 -0.383333  0.250000  0.116667    576.000000
 -0.350000  0.250000  0.116667    576.000000
 -0.316667  0.250000  0.116667    576.000000
 -0.283333  0.250000  0.116667    576.000000
 -0.250000  0.250000  0.116667    576.000000
 -0.216667  0.250000  0.116667    576.000000
 -0.183333  0.250000  0.116667    576.000000
 -0.150000  0.250000  0.116667    576.000000
 -0.116667  0.250000  0.116667    576.000000
  0.283333  0.283333  0.116667    288.000000
  0.316667  0.283333  0.116667    576.000000
  0.350000  0.283333  0.116667    576.000000
  0.383333  0.283333  0.116667    576.000000
  0.416667  0.283333  0.116667    576.000000
  0.450000  0.283333  0.116667    576.000000
  0.483333  0.283333  0.116667    576.000000
 -0.483333  0.283333  0.116667    576.000000
 -0.450000  0.283333  0.116667    576.000000
 -0.416667  0.283333  0.116667    576.000000
 -0.383333  0.283333  0.116667    576.000000
 -0.350000  0.283333  0.116667    576.000000
 -0.316667  0.283333  0.116667    576.000000
 -0.283333  0.283333  0.116667    576.000000
 -0.250000  0.283333  0.116667    576.000000
 -0.216667  0.283333  0.116667    576.000000
 -0.183333  0.283333  0.116667    576.000000
 -0.150000  0.283333  0.116667    576.000000
 -0.116667  0.283333  0.116667    576.000000
  0.316667  0.316667  0.116667    288.000000
  0.350000  0.316667  0.116667    576.000000
  0.383333  0.316667  0.116667    576.000000
  0.416667  0.316667  0.116667    576.000000
  0.450000  0.316667  0.116667    576.000000
  0.483333  0.316667  0.116667    576.000000
 -0.483333  0.316667  0.116667    576.000000
 -0.450000  0.316667  0.116667    576.000000
 -0.416667  0.316667  0.116667    576.000000
 -0.383333  0.316667  0.116667    576.000000
 -0.350000  0.316667  0.116667    576.000000
 -0.316667  0.316667  0.116667    576.000000
 -0.283333  0.316667  0.116667    576.000000
 -0.250000  0.316667  0.116667    576.000000
 -0.216667  0.316667  0.116667    576.000000
 -0.183333  0.316667  0.116667    576.000000
 -0.150000  0.316667  0.116667    576.000000
 -0.116667  0.316667  0.116667    576.000000
  0.350000  0.350000  0.116667    288.000000
  0.383333  0.350000  0.116667    576.000000
  0.416667  0.350000  0.116667    576.000000
  0.450000  0.350000  0.116667    576.000000
  0.483333  0.350000  0.116667    576.000000
 -0.483333  0.350000  0.116667    576.000000
 -0.450000  0.350000  0.116667    576.000000
 -0.416667  0.350000  0.116667    576.000000
 -0.383333  0.350000  0.116667    576.000000
 -0.350000  0.350000  0.116667    576.000000
 -0.316667  0.350000  0.116667    576.000000
 -0.283333  0.350000  0.116667    576.000000
 -0.250000  0.350000  0.116667    576.000000
 -0.216667  0.350000  0.116667    576.000000
 -0.183333  0.350000  0.116667    576.000000
 -0.150000  0.350000  0.116667    576.000000
 -0.116667  0.350000  0.116667    576.000000
  0.383333  0.383333  0.116667    288.000000
  0.416667  0.383333  0.116667    576.000000
  0.450000  0.383333  0.116667    576.000000
  0.483333  0.383333  0.116667    576.000000
 -0.483333  0.383333  0.116667    576.000000
 -0.450000  0.383333  0.116667    576.000000
 -0.416667  0.383333  0.116667    576.000000
 -0.383333  0.383333  0.116667    576.000000
 -0.350000  0.383333  0.116667    576.000000
 -0.316667  0.383333  0.116667    576.000000
 -0.283333  0.383333  0.116667    576.000000
 -0.250000  0.383333  0.116667    576.000000
 -0.216667  0.383333  0.116667    576.000000
 -0.183333  0.383333  0.116667    576.000000
 -0.150000  0.383333  0.116667    576.000000
 -0.116667  0.383333  0.116667    576.000000
  0.416667  0.416667  0.116667    288.000000
  0.450000  0.416667  0.116667    576.000000
  0.483333  0.416667  0.116667    576.000000
 -0.483333  0.416667  0.116667    576.000000
 -0.450000  0.416667  0.116667    576.000000
 -0.416667  0.416667  0.116667    576.000000
 -0.383333  0.416667  0.116667    576.000000
 -0.350000  0.416667  0.116667    576.000000
 -0.316667  0.416667  0.116667    576.000000
 -0.283333  0.416667  0.116667    576.000000
 -0.250000  0.416667  0.116667    576.000000
 -0.216667  0.416667  0.116667    576.000000
 -0.183333  0.416667  0.116667    576.000000
 -0.150000  0.416667  0.116667    576.000000
 -0.116667  0.416667  0.116667    576.000000
  0.450000  0.450000  0.116667    288.000000
  0.483333  0.450000  0.116667    576.000000
 -0.483333  0.450000  0.116667    576.000000
 -0.450000  0.450000  0.116667    576.000000
 -0.416667  0.450000  0.116667    576.000000
 -0.383333  0.450000  0.116667    576.000000
 -0.350000  0.450000  0.116667    576.000000
 -0.316667  0.450000  0.116667    576.000000
 -0.283333  0.450000  0.116667    576.000000
 -0.250000  0.450000  0.116667    576.000000
 -0.216667  0.450000  0.116667    576.000000
 -0.183333  0.450000  0.116667    576.000000
 -0.150000  0.450000  0.116667    576.000000
 -0.116667  0.450000  0.116667    576.000000
  0.483333  0.483333  0.116667    288.000000
 -0.483333  0.483333  0.116667    576.000000
 -0.450000  0.483333  0.116667    576.000000
 -0.416667  0.483333  0.116667    576.000000
 -0.383333  0.483333  0.116667    576.000000
 -0.350000  0.483333  0.116667    576.000000
 -0.316667  0.483333  0.116667    576.000000
 -0.283333  0.483333  0.116667    576.000000
 -0.250000  0.483333  0.116667    576.000000
 -0.216667  0.483333  0.116667    576.000000
 -0.183333  0.483333  0.116667    576.000000
 -0.150000  0.483333  0.116667    576.000000
 -0.116667  0.483333  0.116667    576.000000
 -0.483333 -0.483333  0.116667    288.000000
 -0.450000 -0.483333  0.116667    576.000000
 -0.416667 -0.483333  0.116667    576.000000
 -0.383333 -0.483333  0.116667    576.000000
 -0.350000 -0.483333  0.116667    576.000000
 -0.316667 -0.483333  0.116667    576.000000
 -0.283333 -0.483333  0.116667    576.000000
 -0.250000 -0.483333  0.116667    576.000000
 -0.216667 -0.483333  0.116667    576.000000
 -0.183333 -0.483333  0.116667    576.000000
 -0.150000 -0.483333  0.116667    576.000000
 -0.450000 -0.450000  0.116667    288.000000
 -0.416667 -0.450000  0.116667    576.000000
 -0.383333 -0.450000  0.116667    576.000000
 -0.350000 -0.450000  0.116667    576.000000
 -0.316667 -0.450000  0.116667    576.000000
 -0.283333 -0.450000  0.116667    576.000000
 -0.250000 -0.450000  0.116667    576.000000
 -0.216667 -0.450000  0.116667    576.000000
 -0.183333 -0.450000  0.116667    576.000000
 -0.150000 -0.450000  0.116667    576.000000
 -0.416667 -0.416667  0.116667    288.000000
 -0.383333 -0.416667  0.116667    576.000000
 -0.350000 -0.416667  0.116667    576.000000
 -0.316667 -0.416667  0.116667    576.000000
 -0.283333 -0.416667  0.116667    576.000000
 -0.250000 -0.416667  0.116667    576.000000
 -0.216667 -0.416667  0.116667    576.000000
 -0.183333 -0.416667  0.116667    576.000000
 -0.150000 -0.416667  0.116667    576.000000
 -0.383333 -0.383333  0.116667    288.000000
 -0.350000 -0.383333  0.116667    576.000000
 -0.316667 -0.383333  0.116667    576.000000
 -0.283333 -0.383333  0.116667    576.000000
 -0.250000 -0.383333  0.116667    576.000000
 -0.216667 -0.383333  0.116667    576.000000
 -0.183333 -0.383333  0.116667    576.000000
 -0.150000 -0.383333  0.116667    576.000000
 -0.350000 -0.350000  0.116667    288.000000
 -0.316667 -0.350000  0.116667    576.000000
 -0.283333 -0.350000  0.116667    576.000000
 -0.250000 -0.350000  0.116667    576.000000
 -0.216667 -0.350000  0.116667    576.000000
 -0.183333 -0.350000  0.116667    576.000000
 -0.150000 -0.350000  0.116667    576.000000
 -0.316667 -0.316667  0.116667    288.000000
 -0.283333 -0.316667  0.116667    576.000000
 -0.250000 -0.316667  0.116667    576.000000
 -0.216667 -0.316667  0.116667    576.000000
 -0.183333 -0.316667  0.116667    576.000000
 -0.150000 -0.316667  0.116667    576.000000
 -0.283333 -0.283333  0.116667    288.000000
 -0.250000 -0.283333  0.116667    576.000000
 -0.216667 -0.283333  0.116667    576.000000
 -0.183333 -0.283333  0.116667    576.000000
 -0.150000 -0.283333  0.116667    576.000000
 -0.250000 -0.250000  0.116667    288.000000
 -0.216667 -0.250000  0.116667    576.000000
 -0.183333 -0.250000  0.116667    576.000000
 -0.150000 -0.250000  0.116667    576.000000
 -0.216667 -0.216667  0.116667    288.000000
 -0.183333 -0.216667  0.116667    576.000000
 -0.150000 -0.216667  0.116667    576.000000
 -0.183333 -0.183333  0.116667    288.000000
 -0.150000 -0.183333  0.116667    576.000000
 -0.150000 -0.150000  0.116667    288.000000
  0.150000  0.150000  0.150000     96.000000
  0.183333  0.150000  0.150000    288.000000
  0.216667  0.150000  0.150000    288.000000
  0.250000  0.150000  0.150000    288.000000
  0.283333  0.150000  0.150000    288.000000
  0.316667  0.150000  0.150000    288.000000
  0.350000  0.150000  0.150000    288.000000
  0.383333  0.150000  0.150000    288.000000
  0.416667  0.150000  0.150000    288.000000
  0.450000  0.150000  0.150000    288.000000
  0.483333  0.150000  0.150000    288.000000
 -0.483333  0.150000  0.150000    288.000000
 -0.450000  0.150000  0.150000    288.000000
 -0.416667  0.150000  0.150000    288.000000
 -0.383333  0.150000  0.150000    288.000000
 -0.350000  0.150000  0.150000    288.000000
 -0.316667  0.150000  0.150000    288.000000
 -0.283333  0.150000  0.150000    288.000000
 -0.250000  0.150000  0.150000    288.000000
 -0.216667  0.150000  0.150000    288.000000
 -0.183333  0.150000  0.150000    288.000000
 -0.150000  0.150000  0.150000    288.000000
  0.183333  0.183333  0.150000    288.000000
  0.216667  0.183333  0.150000    576.000000
  0.250000  0.183333  0.150000    576.000000
  0.283333  0.183333  0.150000    576.000000
  0.316667  0.183333  0.150000    576.000000
  0.350000  0.183333  0.150000    576.000000
  0.383333  0.183333  0.150000    576.000000
  0.416667  0.183333  0.150000    576.000000
  0.450000  0.183333  0.150000    576.000000
  0.483333  0.183333  0.150000    576.000000
 -0.483333  0.183333  0.150000    576.000000
 -0.450000  0.183333  0.150000    576.000000
 -0.416667  0.183333  0.150000    576.000000
[...]
      2      -3.8848      2.00000
      3      -0.4616      2.00000
      4       0.8377      2.00000
      5       4.7105     -0.00000
      6       6.8674     -0.00000
      7       8.1279      0.00000
      8       9.8250      0.00000

 k-point  2452 :      -0.4167   -0.4167    0.3833
  band No.  band energies     occupation 
      1      -8.2359      2.00000
      2      -3.8656      2.00000
      3      -0.6295      2.00000
      4       0.8354      2.00000
      5       4.6967     -0.00000
      6       7.0824     -0.00000
      7       8.2162      0.00000
      8       9.7522      0.00000

 k-point  2453 :       0.4167    0.4167    0.4167
  band No.  band energies     occupation 
      1      -8.6458      2.00000
      2      -3.6722      2.00000
      3       1.3403      2.00000
      4       1.3403      2.00000
      5       3.2834     -0.00000
      6       7.0067     -0.00000
      7       7.0067     -0.00000
      8       9.9933      0.00000

 k-point  2454 :       0.4500    0.4167    0.4167
  band No.  band energies     occupation 
      1      -8.6009      2.00000
      2      -3.7443      2.00000
      3       1.1703      2.00000
      4       1.3456      2.00000
      5       3.3942     -0.00000
      6       7.0011     -0.00000
      7       7.0084     -0.00000
      8      10.0337      0.00000

 k-point  2455 :       0.4833    0.4167    0.4167
  band No.  band energies     occupation 
      1      -8.5444      2.00000
      2      -3.7984      2.00000
      3       0.8422      2.00000
      4       1.3061      2.00000
      5       3.6799     -0.00000
      6       6.9421     -0.00000
      7       7.0885     -0.00000
      8      10.1134      0.00000

 k-point  2456 :      -0.4833    0.4167    0.4167
  band No.  band energies     occupation 
      1      -8.4777      2.00000
      2      -3.8344      2.00000
      3       0.4543      2.00000
      4       1.2265      2.00000
      5       4.0289     -0.00000
      6       6.8534     -0.00000
      7       7.2639     -0.00000
      8      10.1877      0.00000

 k-point  2457 :      -0.4500    0.4167    0.4167
  band No.  band energies     occupation 
      1      -8.4026      2.00000
      2      -3.8543      2.00000
      3       0.0615      2.00000
      4       1.1148      2.00000
      5       4.3576     -0.00000
      6       6.8066     -0.00000
      7       7.5181     -0.00000
      8      10.1913      0.00000

 k-point  2458 :      -0.4167    0.4167    0.4167
  band No.  band energies     occupation 
      1      -8.3212      2.00000
      2      -3.8625      2.00000
      3      -0.3064      2.00000
      4       0.9812      2.00000
      5       4.5945     -0.00000
      6       6.8713     -0.00000
      7       7.8396     -0.00000
      8      10.0621      0.00000

 k-point  2459 :       0.4500    0.4500    0.4167
  band No.  band energies     occupation 
      1      -8.5683      2.00000
      2      -3.8106      2.00000
      3       1.2222      2.00000
      4       1.2682      2.00000
      5       3.3858     -0.00000
      6       6.9292     -0.00000
      7       7.0729     -0.00000
      8      10.0462      0.00000

 k-point  2460 :       0.4833    0.4500    0.4167
  band No.  band energies     occupation 
      1      -8.5243      2.00000
      2      -3.8582      2.00000
      3       0.9707      2.00000
      4       1.2589      2.00000
      5       3.5868     -0.00000
      6       6.8868     -0.00000
      7       7.1266     -0.00000
      8      10.1089      0.00000

 k-point  2461 :      -0.4833    0.4500    0.4167
  band No.  band energies     occupation 
      1      -8.4702      2.00000
      2      -3.8868      2.00000
      3       0.6180      2.00000
      4       1.2044      2.00000
      5       3.9030     -0.00000
      6       6.8169     -0.00000
      7       7.2525     -0.00000
      8      10.1968      0.00000

 k-point  2462 :      -0.4500    0.4500    0.4167
  band No.  band energies     occupation 
      1      -8.4073      2.00000
      2      -3.8977      2.00000
      3       0.2392      2.00000
      4       1.1078      2.00000
      5       4.2453     -0.00000
      6       6.7430     -0.00000
      7       7.4733     -0.00000
      8      10.2344      0.00000

 k-point  2463 :      -0.4167    0.4500    0.4167
  band No.  band energies     occupation 
      1      -8.3372      2.00000
      2      -3.8949      2.00000
      3      -0.1285      2.00000
      4       0.9817      2.00000
      5       4.5369     -0.00000
      6       6.7380     -0.00000
      7       7.7721     -0.00000
      8      10.1319      0.00000

 k-point  2464 :       0.4833    0.4833    0.4167
  band No.  band energies     occupation 
      1      -8.4935      2.00000
      2      -3.8994      2.00000
      3       0.9100      2.00000
      4       1.1921      2.00000
      5       3.6737     -0.00000
      6       6.8297     -0.00000
      7       7.1944     -0.00000
      8      10.1302      0.00000

 k-point  2465 :      -0.4833    0.4833    0.4167
  band No.  band energies     occupation 
      1      -8.4526      2.00000
      2      -3.9210      2.00000
      3       0.6522      2.00000
      4       1.1522      2.00000
      5       3.9030     -0.00000
      6       6.7729     -0.00000
      7       7.2983     -0.00000
      8      10.1885      0.00000

 k-point  2466 :      -0.4500    0.4833    0.4167
  band No.  band energies     occupation 
      1      -8.4028      2.00000
      2      -3.9243      2.00000
      3       0.3242      2.00000
      4       1.0743      2.00000
      5       4.2101     -0.00000
      6       6.6913     -0.00000
      7       7.4901     -0.00000
      8      10.2275      0.00000

 k-point  2467 :      -0.4167    0.4833    0.4167
  band No.  band energies     occupation 
      1      -8.3453      2.00000
      2      -3.9123      2.00000
      3      -0.0149      2.00000
      4       0.9561      2.00000
      5       4.5283     -0.00000
      6       6.6239     -0.00000
      7       7.7697     -0.00000
      8      10.1588      0.00000

 k-point  2468 :      -0.4833   -0.4833    0.4167
  band No.  band energies     occupation 
      1      -8.4254      2.00000
      2      -3.9359      2.00000
      3       0.5135      2.00000
      4       1.1162      2.00000
      5       4.0233     -0.00000
      6       6.7518     -0.00000
      7       7.3678     -0.00000
      8      10.2026      0.00000

 k-point  2469 :      -0.4500   -0.4833    0.4167
  band No.  band energies     occupation 
      1      -8.3894      2.00000
      2      -3.9320      2.00000
      3       0.2678      2.00000
      4       1.0603      2.00000
      5       4.2430     -0.00000
      6       6.7067     -0.00000
      7       7.5163     -0.00000
      8      10.2145      0.00000

 k-point  2470 :      -0.4500   -0.4500    0.4167
  band No.  band energies     occupation 
      1      -8.3674      2.00000
      2      -3.9214      2.00000
      3       0.0961      2.00000
      4       1.0447      2.00000
      5       4.3490     -0.00000
      6       6.7492     -0.00000
      7       7.5866     -0.00000
      8      10.1945      0.00000

 k-point  2471 :       0.4500    0.4500    0.4500
  band No.  band energies     occupation 
      1      -8.5485      2.00000
      2      -3.8710      2.00000
      3       1.3074      2.00000
      4       1.3074      2.00000
      5       3.2488     -0.00000
      6       6.9938     -0.00000
      7       6.9938     -0.00000
      8      10.0283      0.00000

 k-point  2472 :       0.4833    0.4500    0.4500
  band No.  band energies     occupation 
      1      -8.5175      2.00000
      2      -3.9120      2.00000
      3       1.1572      2.00000
      4       1.3017      2.00000
      5       3.3665     -0.00000
      6       6.9774     -0.00000
      7       7.0088     -0.00000
      8      10.0729      0.00000

 k-point  2473 :      -0.4833    0.4500    0.4500
  band No.  band energies     occupation 
      1      -8.4763      2.00000
      2      -3.9328      2.00000
      3       0.8461      2.00000
      4       1.2516      2.00000
      5       3.6614     -0.00000
      6       6.8957     -0.00000
      7       7.1173     -0.00000
      8      10.1805      0.00000

 k-point  2474 :      -0.4500    0.4500    0.4500
  band No.  band energies     occupation 
      1      -8.4258      2.00000
      2      -3.9348      2.00000
      3       0.4736      2.00000
      4       1.1631      2.00000
      5       4.0183     -0.00000
      6       6.7973     -0.00000
      7       7.3133     -0.00000
      8      10.2664      0.00000

 k-point  2475 :       0.4833    0.4833    0.4500
  band No.  band energies     occupation 
      1      -8.4999      2.00000
      2      -3.9463      2.00000
      3       1.1837      2.00000
      4       1.2626      2.00000
      5       3.3623     -0.00000
      6       6.9374     -0.00000
      7       7.0445     -0.00000
      8      10.0749      0.00000

 k-point  2476 :      -0.4833    0.4833    0.4500
  band No.  band energies     occupation 
      1      -8.4722      2.00000
      2      -3.9603      2.00000
      3       0.9576      2.00000
      4       1.2370      2.00000
      5       3.5701     -0.00000
      6       6.8864     -0.00000
      7       7.1112     -0.00000
      8      10.1523      0.00000

 k-point  2477 :      -0.4500    0.4833    0.4500
  band No.  band energies     occupation 
      1      -8.4351      2.00000
      2      -3.9546      2.00000
      3       0.6271      2.00000
      4       1.1679      2.00000
      5       3.8949     -0.00000
      6       6.7929     -0.00000
      7       7.2692     -0.00000
      8      10.2452      0.00000

 k-point  2478 :      -0.4833   -0.4833    0.4500
  band No.  band energies     occupation 
      1      -8.4584      2.00000
      2      -3.9674      2.00000
      3       0.8690      2.00000
      4       1.2134      2.00000
      5       3.6593     -0.00000
      6       6.8580     -0.00000
      7       7.1524     -0.00000
      8      10.1830      0.00000

 k-point  2479 :       0.4833    0.4833    0.4833
  band No.  band energies     occupation 
      1      -8.4960      2.00000
      2      -3.9740      2.00000
      3       1.2909      2.00000
      4       1.2909      2.00000
      5       3.2314     -0.00000
      6       6.9861     -0.00000
      7       6.9861     -0.00000
      8      10.0333      0.00000

 k-point  2480 :      -0.4833    0.4833    0.4833
  band No.  band energies     occupation 
      1      -8.4821      2.00000
      2      -3.9809      2.00000
      3       1.1620      2.00000
      4       1.2739      2.00000
      5       3.3558     -0.00000
      6       6.9532     -0.00000
      7       7.0228     -0.00000
      8      10.0807      0.00000


--------------------------------------------------------------------------------------------------------


 soft charge-density along one line, spin component           1
         0         1         2         3         4         5         6         7         8         9
 total charge-density along one line
 
 pseudopotential strength for first ion, spin component:           1
  6.302   0.000   0.089   0.000  -0.000   0.000  -0.000   0.000  -0.000   0.000  -0.000   0.000  -0.000   0.000  -0.000   0.000
  0.089   0.000  -0.014   0.000  -0.000   0.000  -0.000   0.000  -0.000   0.000  -0.000   0.000  -0.000   0.000  -0.000   0.000
 -0.000   0.000  -0.000   0.000   1.367   0.000   0.000   0.000   0.000   0.000  -0.014   0.000   0.000   0.000   0.000   0.000
 -0.000   0.000  -0.000   0.000   0.000   0.000   1.367   0.000   0.000   0.000   0.000   0.000  -0.014   0.000   0.000   0.000
 -0.000   0.000  -0.000   0.000   0.000   0.000   0.000   0.000   1.367   0.000   0.000   0.000   0.000   0.000  -0.014   0.000
 -0.000   0.000  -0.000   0.000  -0.014   0.000   0.000   0.000   0.000   0.000   0.013   0.000   0.000   0.000   0.000   0.000
 -0.000   0.000  -0.000   0.000   0.000   0.000  -0.014   0.000   0.000   0.000   0.000   0.000   0.013   0.000   0.000   0.000
 -0.000   0.000  -0.000   0.000   0.000   0.000   0.000   0.000  -0.014   0.000   0.000   0.000   0.000   0.000   0.013   0.000
  0.000   0.000   0.000   0.000  -0.000   0.000   0.004   0.000  -0.000   0.000  -0.000   0.000  -0.000   0.000  -0.000   0.000
  0.000   0.000   0.000   0.000  -0.000   0.000  -0.000   0.000   0.004   0.000  -0.000   0.000  -0.000   0.000  -0.000   0.000
  0.000   0.000   0.000   0.000   0.000   0.000  -0.000   0.000   0.000   0.000   0.000   0.000  -0.000   0.000   0.000   0.000
  0.000   0.000   0.000   0.000   0.004   0.000  -0.000   0.000  -0.000   0.000  -0.000   0.000  -0.000   0.000  -0.000   0.000
  0.000   0.000   0.000   0.000   0.000   0.000  -0.000   0.000  -0.000   0.000   0.000   0.000  -0.000   0.000  -0.000   0.000
 total augmentation occupancy for first ion, spin component:           1
  1.497  -0.445  -0.000   0.000   0.000   0.000   0.000   0.000   0.000   0.000  -0.000  -0.000   0.000
 -0.445   0.302  -0.000   0.000   0.000  -0.000   0.000   0.000   0.000   0.000   0.000  -0.000   0.000
  0.000  -0.000   0.928   0.000   0.000  -0.394   0.000   0.000   0.000   0.000  -0.000   0.163   0.000
  0.000   0.000   0.000   0.928  -0.000   0.000  -0.394  -0.000   0.163  -0.000   0.000   0.000   0.000
  0.000   0.000   0.000   0.000   0.928   0.000  -0.000  -0.394   0.000   0.163   0.000   0.000   0.000
 -0.000   0.000  -0.394   0.000   0.000   0.201   0.000   0.000   0.000  -0.000   0.000  -0.074   0.000
  0.000   0.000   0.000  -0.394   0.000   0.000   0.201   0.000  -0.074  -0.000   0.000   0.000   0.000
  0.000   0.000   0.000   0.000  -0.394   0.000  -0.000   0.201   0.000  -0.074   0.000   0.000   0.000
  0.000   0.000   0.000   0.163  -0.000   0.000  -0.074  -0.000   0.050   0.000   0.000   0.000   0.000
  0.000   0.000   0.000  -0.000   0.163   0.000   0.000  -0.074   0.000   0.050   0.000   0.000   0.000
 -0.000   0.000   0.000   0.000   0.000  -0.000   0.000  -0.000   0.000  -0.000   0.014   0.000   0.000
  0.000  -0.000   0.163   0.000   0.000  -0.074   0.000  -0.000   0.000   0.000   0.000   0.050  -0.000
 -0.000   0.000  -0.000   0.000  -0.000  -0.000   0.000   0.000  -0.000   0.000   0.000   0.000   0.014


------------------------ aborting loop because EDIFF is reached ----------------------------------------


    CHARGE:  cpu time    0.5117: real time    0.5129
    FORLOC:  cpu time    0.0016: real time    0.0016
    FORNL :  cpu time    1.4947: real time    1.4983
    STRESS:  cpu time    5.1556: real time    5.1679
    FORCOR:  cpu time    0.0164: real time    0.0164
    FORHAR:  cpu time    0.0043: real time    0.0044
    MIXING:  cpu time    0.0008: real time    0.0008
    OFIELD:  cpu time    0.0000: real time    0.0000

  FORCE on cell =-STRESS in cart. coord.  units (eV):
  Direction    XX          YY          ZZ          XY          YZ          ZX
  --------------------------------------------------------------------------------------
  Alpha Z    17.36684    17.36684    17.36684
  Ewald     -75.06867   -75.06867   -75.06867    -0.00000     0.00000     0.00000
  Hartree     7.38225     7.38225     7.38225    -0.00000    -0.00000    -0.00000
  E(xc)     -29.84947   -29.84947   -29.84947     0.00001     0.00001     0.00001
  Local     -30.77550   -30.77550   -30.77550     0.00034     0.00034     0.00034
  n-local    45.40148    46.86002    43.74886     0.71500    -0.71889     0.00065
  augment     1.18528     1.18528     1.18528    -0.00019    -0.00019    -0.00019
  Kinetic    65.72226    65.99300    61.54703     1.39723    -1.39813     0.00445
  Fock        0.00000     0.00000     0.00000     0.00000     0.00000     0.00000
  -------------------------------------------------------------------------------------
  Total      -0.00171    -0.00171    -0.00171     0.00000     0.00000     0.00000
  in kB      -0.05764    -0.05764    -0.05764     0.00000     0.00000     0.00000
  external pressure =       -0.06 kB  Pullay stress =        0.00 kB


 VOLUME and BASIS-vectors are now :
 -----------------------------------------------------------------------------
  energy-cutoff  :      208.73
  volume of cell :       47.60
      direct lattice vectors                 reciprocal lattice vectors
    -0.000000000  2.876419419  2.876419419    -0.173827223  0.173827223  0.173827223
     2.876419419  0.000000000  2.876419419     0.173827223 -0.173827223  0.173827223
     2.876419419  2.876419419  0.000000000     0.173827223  0.173827223 -0.173827223

  length of vectors
     4.067871354  4.067871354  4.067871354     0.301077582  0.301077582  0.301077582


 FORCES acting on ions
    electron-ion (+dipol)            ewald-force                    non-local-force                 convergence-correction
 -----------------------------------------------------------------------------------------------
   -.977E-05 -.977E-05 -.977E-05   -.172E-14 0.281E-14 -.450E-14   0.434E-17 0.477E-17 0.450E-17   0.805E-07 0.805E-07 0.805E-07
   -.623E-06 -.623E-06 -.623E-06   0.173E-14 -.297E-14 0.437E-14   -.347E-16 -.347E-16 -.344E-16   -.725E-07 -.725E-07 -.725E-07
 -----------------------------------------------------------------------------------------------
   -.104E-04 -.104E-04 -.104E-04   0.994E-17 -.152E-15 -.130E-15   -.304E-16 -.299E-16 -.299E-16   0.803E-08 0.803E-08 0.803E-08
 
 
 POSITION                                       TOTAL-FORCE (eV/Angst)
 -----------------------------------------------------------------------------------
      0.00000      0.00000      0.00000        -0.000000     -0.000000     -0.000000
      1.43821      1.43821      1.43821         0.000000      0.000000      0.000000
 -----------------------------------------------------------------------------------
    total drift:                               -0.000010     -0.000010     -0.000010


--------------------------------------------------------------------------------------------------------



  FREE ENERGIE OF THE ION-ELECTRON SYSTEM (eV)
  ---------------------------------------------------
  free  energy   TOTEN  =        -8.33725403 eV

  energy  without entropy=       -8.33778377  energy(sigma->0) =       -8.33743061
 
 d Force = 0.0000000E+00[ 0.000E+00, 0.000E+00]  d Energy = 0.4263087E-05-0.426E-05
 d Force = 0.0000000E+00[ 0.000E+00, 0.000E+00]  d Ewald  = 0.4401333E-01-0.440E-01


--------------------------------------------------------------------------------------------------------


    POTLOK:  cpu time    0.0182: real time    0.0182


--------------------------------------------------------------------------------------------------------




--------------------------------------------------------------------------------------------------------


  
 reached required accuracy - stopping structural energy minimisation
     LOOP+:  cpu time   20.8830: real time   20.9360
    4ORBIT:  cpu time    0.0000: real time    0.0000

 total amount of memory used by VASP MPI-rank0   321111. kBytes
=======================================================================

   base      :      30000. kBytes
   nonl-proj :     172817. kBytes
   fftplans  :       1488. kBytes
   grid      :       2195. kBytes
   one-center:         16. kBytes
   wavefun   :     114595. kBytes
 
  
  
 General timing and accounting informations for this job:
 ========================================================
  
                  Total CPU time used (sec):      243.869
                            User time (sec):      242.047
                          System time (sec):        1.822
                         Elapsed time (sec):      253.957
  
                   Maximum memory used (kb):      365316.
                   Average memory used (kb):           0.
  
                          Minor page faults:        11180
                          Major page faults:            0
                 Voluntary context switches:          335
