<?xml version="1.0" encoding="ISO-8859-1"?>
<modeling>
 <generator>
  <i name="program" type="string">vasp </i>
  <i name="version" type="string">5.4.4.18Apr17-6-g9f103f2a35  </i>
  <i name="subversion" type="string">(build May 20 2018 16:52:39) complex            parallel </i>
  <i name="platform" type="string">LinuxIFC </i>
  <i name="date" type="string">2022 10 31 </i>
  <i name="time" type="string">00:55:15 </i>
 </generator>
 <incar>
  <i type="string" name="SYSTEM"> GaAs</i>
  <i type="string" name="PREC">normal</i>
  <i type="int" name="IBRION">     2</i>
  <i name="EDIFF">      0.00000100</i>
  <i type="int" name="NSW">    50</i>
  <i type="int" name="ISIF">     3</i>
  <i type="logical" name="LWAVE"> F  </i>
  <v type="int" name="KPOINT_BSE">    -1     0     0     0</v>
 </incar>
 <structure name="primitive_cell" >
  <crystal>
   <varray name="basis" >
    <v>       0.00000000       2.87500000       2.87500000 </v>
    <v>       2.87500000       0.00000000       2.87500000 </v>
    <v>       2.87500000       2.87500000       0.00000000 </v>
   </varray>
   <i name="volume">     47.52734375 </i>
   <varray name="rec_basis" >
    <v>      -0.17391304       0.17391304       0.17391304 </v>
    <v>       0.17391304      -0.17391304       0.17391304 </v>
    <v>       0.17391304       0.17391304      -0.17391304 </v>
   </varray>
  </crystal>
  <varray name="positions" >
   <v>       0.00000000       0.00000000       0.00000000 </v>
   <v>       0.25000000       0.25000000       0.25000000 </v>
  </varray>
 </structure>
 <varray name="primitive_index" >
  <v type="int" >        1 </v>
  <v type="int" >        2 </v>
 </varray>
 <kpoints>
  <generation param="Monkhorst-Pack">
   <v type="int" name="divisions">      30       30       30 </v>
   <v name="usershift">      0.00000000       0.00000000       0.00000000 </v>
   <v name="genvec1">      0.03333333       0.00000000       0.00000000 </v>
   <v name="genvec2">      0.00000000       0.03333333       0.00000000 </v>
   <v name="genvec3">      0.00000000       0.00000000       0.03333333 </v>
   <v name="shift">      0.50000000       0.50000000       0.50000000 </v>
  </generation>
  <varray name="kpointlist" >
   <v>       0.01666667       0.01666667       0.01666667 </v>
   <v>       0.05000000       0.01666667       0.01666667 </v>
   <v>       0.08333333       0.01666667       0.01666667 </v>
   <v>       0.11666667       0.01666667       0.01666667 </v>
   <v>       0.15000000       0.01666667       0.01666667 </v>
   <v>       0.18333333       0.01666667       0.01666667 </v>
   <v>       0.21666667       0.01666667       0.01666667 </v>
   <v>       0.25000000       0.01666667       0.01666667 </v>
   <v>       0.28333333       0.01666667       0.01666667 </v>
   <v>       0.31666667       0.01666667       0.01666667 </v>
   <v>       0.35000000       0.01666667       0.01666667 </v>
   <v>       0.38333333       0.01666667       0.01666667 </v>
   <v>       0.41666667       0.01666667       0.01666667 </v>
   <v>       0.45000000       0.01666667       0.01666667 </v>
   <v>       0.48333333       0.01666667       0.01666667 </v>
   <v>      -0.48333333       0.01666667       0.01666667 </v>
   <v>      -0.45000000       0.01666667       0.01666667 </v>
   <v>      -0.41666667       0.01666667       0.01666667 </v>
   <v>      -0.38333333       0.01666667       0.01666667 </v>
   <v>      -0.35000000       0.01666667       0.01666667 </v>
   <v>      -0.31666667       0.01666667       0.01666667 </v>
   <v>      -0.28333333       0.01666667       0.01666667 </v>
   <v>      -0.25000000       0.01666667       0.01666667 </v>
   <v>      -0.21666667       0.01666667       0.01666667 </v>
   <v>      -0.18333333       0.01666667       0.01666667 </v>
   <v>      -0.15000000       0.01666667       0.01666667 </v>
   <v>      -0.11666667       0.01666667       0.01666667 </v>
   <v>      -0.08333333       0.01666667       0.01666667 </v>
   <v>      -0.05000000       0.01666667       0.01666667 </v>
   <v>      -0.01666667       0.01666667       0.01666667 </v>
   <v>       0.05000000       0.05000000       0.01666667 </v>
   <v>       0.08333333       0.05000000       0.01666667 </v>
   <v>       0.11666667       0.05000000       0.01666667 </v>
   <v>       0.15000000       0.05000000       0.01666667 </v>
   <v>       0.18333333       0.05000000       0.01666667 </v>
   <v>       0.21666667       0.05000000       0.01666667 </v>
   <v>       0.25000000       0.05000000       0.01666667 </v>
   <v>       0.28333333       0.05000000       0.01666667 </v>
   <v>       0.31666667       0.05000000       0.01666667 </v>
   <v>       0.35000000       0.05000000       0.01666667 </v>
   <v>       0.38333333       0.05000000       0.01666667 </v>
   <v>       0.41666667       0.05000000       0.01666667 </v>
   <v>       0.45000000       0.05000000       0.01666667 </v>
   <v>       0.48333333       0.05000000       0.01666667 </v>
   <v>      -0.48333333       0.05000000       0.01666667 </v>
   <v>      -0.45000000       0.05000000       0.01666667 </v>
   <v>      -0.41666667       0.05000000       0.01666667 </v>
   <v>      -0.38333333       0.05000000       0.01666667 </v>
   <v>      -0.35000000       0.05000000       0.01666667 </v>
   <v>      -0.31666667       0.05000000       0.01666667 </v>
   <v>      -0.28333333       0.05000000       0.01666667 </v>
   <v>      -0.25000000       0.05000000       0.01666667 </v>
   <v>      -0.21666667       0.05000000       0.01666667 </v>
   <v>      -0.18333333       0.05000000       0.01666667 </v>
   <v>      -0.15000000       0.05000000       0.01666667 </v>
   <v>      -0.11666667       0.05000000       0.01666667 </v>
   <v>      -0.08333333       0.05000000       0.01666667 </v>
   <v>      -0.05000000       0.05000000       0.01666667 </v>
   <v>      -0.01666667       0.05000000       0.01666667 </v>
   <v>       0.08333333       0.08333333       0.01666667 </v>
   <v>       0.11666667       0.08333333       0.01666667 </v>
   <v>       0.15000000       0.08333333       0.01666667 </v>
   <v>       0.18333333       0.08333333       0.01666667 </v>
   <v>       0.21666667       0.08333333       0.01666667 </v>
   <v>       0.25000000       0.08333333       0.01666667 </v>
   <v>       0.28333333       0.08333333       0.01666667 </v>
   <v>       0.31666667       0.08333333       0.01666667 </v>
   <v>       0.35000000       0.08333333       0.01666667 </v>
   <v>       0.38333333       0.08333333       0.01666667 </v>
   <v>       0.41666667       0.08333333       0.01666667 </v>
   <v>       0.45000000       0.08333333       0.01666667 </v>
   <v>       0.48333333       0.08333333       0.01666667 </v>
   <v>      -0.48333333       0.08333333       0.01666667 </v>
   <v>      -0.45000000       0.08333333       0.01666667 </v>
   <v>      -0.41666667       0.08333333       0.01666667 </v>
   <v>      -0.38333333       0.08333333       0.01666667 </v>
   <v>      -0.35000000       0.08333333       0.01666667 </v>
   <v>      -0.31666667       0.08333333       0.01666667 </v>
   <v>      -0.28333333       0.08333333       0.01666667 </v>
   <v>      -0.25000000       0.08333333       0.01666667 </v>
   <v>      -0.21666667       0.08333333       0.01666667 </v>
   <v>      -0.18333333       0.08333333       0.01666667 </v>
   <v>      -0.15000000       0.08333333       0.01666667 </v>
   <v>      -0.11666667       0.08333333       0.01666667 </v>
   <v>      -0.08333333       0.08333333       0.01666667 </v>
   <v>      -0.05000000       0.08333333       0.01666667 </v>
   <v>      -0.01666667       0.08333333       0.01666667 </v>
   <v>       0.11666667       0.11666667       0.01666667 </v>
   <v>       0.15000000       0.11666667       0.01666667 </v>
   <v>       0.18333333       0.11666667       0.01666667 </v>
   <v>       0.21666667       0.11666667       0.01666667 </v>
   <v>       0.25000000       0.11666667       0.01666667 </v>
   <v>       0.28333333       0.11666667       0.01666667 </v>
   <v>       0.31666667       0.11666667       0.01666667 </v>
   <v>       0.35000000       0.11666667       0.01666667 </v>
   <v>       0.38333333       0.11666667       0.01666667 </v>
   <v>       0.41666667       0.11666667       0.01666667 </v>
   <v>       0.45000000       0.11666667       0.01666667 </v>
   <v>       0.48333333       0.11666667       0.01666667 </v>
   <v>      -0.48333333       0.11666667       0.01666667 </v>
   <v>      -0.45000000       0.11666667       0.01666667 </v>
   <v>      -0.41666667       0.11666667       0.01666667 </v>
   <v>      -0.38333333       0.11666667       0.01666667 </v>
   <v>      -0.35000000       0.11666667       0.01666667 </v>
   <v>      -0.31666667       0.11666667       0.01666667 </v>
   <v>      -0.28333333       0.11666667       0.01666667 </v>
   <v>      -0.25000000       0.11666667       0.01666667 </v>
   <v>      -0.21666667       0.11666667       0.01666667 </v>
   <v>      -0.18333333       0.11666667       0.01666667 </v>
   <v>      -0.15000000       0.11666667       0.01666667 </v>
   <v>      -0.11666667       0.11666667       0.01666667 </v>
   <v>      -0.08333333       0.11666667       0.01666667 </v>
   <v>      -0.05000000       0.11666667       0.01666667 </v>
   <v>      -0.01666667       0.11666667       0.01666667 </v>
   <v>       0.15000000       0.15000000       0.01666667 </v>
   <v>       0.18333333       0.15000000       0.01666667 </v>
   <v>       0.21666667       0.15000000       0.01666667 </v>
   <v>       0.25000000       0.15000000       0.01666667 </v>
   <v>       0.28333333       0.15000000       0.01666667 </v>
   <v>       0.31666667       0.15000000       0.01666667 </v>
   <v>       0.35000000       0.15000000       0.01666667 </v>
   <v>       0.38333333       0.15000000       0.01666667 </v>
   <v>       0.41666667       0.15000000       0.01666667 </v>
   <v>       0.45000000       0.15000000       0.01666667 </v>
   <v>       0.48333333       0.15000000       0.01666667 </v>
   <v>      -0.48333333       0.15000000       0.01666667 </v>
   <v>      -0.45000000       0.15000000       0.01666667 </v>
   <v>      -0.41666667       0.15000000       0.01666667 </v>
   <v>      -0.38333333       0.15000000       0.01666667 </v>
   <v>      -0.35000000       0.15000000       0.01666667 </v>
   <v>      -0.31666667       0.15000000       0.01666667 </v>
   <v>      -0.28333333       0.15000000       0.01666667 </v>
   <v>      -0.25000000       0.15000000       0.01666667 </v>
   <v>      -0.21666667       0.15000000       0.01666667 </v>
   <v>      -0.18333333       0.15000000       0.01666667 </v>
   <v>      -0.15000000       0.15000000       0.01666667 </v>
   <v>      -0.11666667       0.15000000       0.01666667 </v>
   <v>      -0.08333333       0.15000000       0.01666667 </v>
   <v>      -0.05000000       0.15000000       0.01666667 </v>
   <v>      -0.01666667       0.15000000       0.01666667 </v>
   <v>       0.18333333       0.18333333       0.01666667 </v>
   <v>       0.21666667       0.18333333       0.01666667 </v>
   <v>       0.25000000       0.18333333       0.01666667 </v>
   <v>       0.28333333       0.18333333       0.01666667 </v>
   <v>       0.31666667       0.18333333       0.01666667 </v>
   <v>       0.35000000       0.18333333       0.01666667 </v>
   <v>       0.38333333       0.18333333       0.01666667 </v>
   <v>       0.41666667       0.18333333       0.01666667 </v>
   <v>       0.45000000       0.18333333       0.01666667 </v>
   <v>       0.48333333       0.18333333       0.01666667 </v>
   <v>      -0.48333333       0.18333333       0.01666667 </v>
   <v>      -0.45000000       0.18333333       0.01666667 </v>
   <v>      -0.41666667       0.18333333       0.01666667 </v>
   <v>      -0.38333333       0.18333333       0.01666667 </v>
   <v>      -0.35000000       0.18333333       0.01666667 </v>
   <v>      -0.31666667       0.18333333       0.01666667 </v>
   <v>      -0.28333333       0.18333333       0.01666667 </v>
   <v>      -0.25000000       0.18333333       0.01666667 </v>
   <v>      -0.21666667       0.18333333       0.01666667 </v>
   <v>      -0.18333333       0.18333333       0.01666667 </v>
   <v>      -0.15000000       0.18333333       0.01666667 </v>
   <v>      -0.11666667       0.18333333       0.01666667 </v>
   <v>      -0.08333333       0.18333333       0.01666667 </v>
   <v>      -0.05000000       0.18333333       0.01666667 </v>
   <v>      -0.01666667       0.18333333       0.01666667 </v>
   <v>       0.21666667       0.21666667       0.01666667 </v>
   <v>       0.25000000       0.21666667       0.01666667 </v>
   <v>       0.28333333       0.21666667       0.01666667 </v>
   <v>       0.31666667       0.21666667       0.01666667 </v>
   <v>       0.35000000       0.21666667       0.01666667 </v>
   <v>       0.38333333       0.21666667       0.01666667 </v>
   <v>       0.41666667       0.21666667       0.01666667 </v>
   <v>       0.45000000       0.21666667       0.01666667 </v>
   <v>       0.48333333       0.21666667       0.01666667 </v>
   <v>      -0.48333333       0.21666667       0.01666667 </v>
   <v>      -0.45000000       0.21666667       0.01666667 </v>
   <v>      -0.41666667       0.21666667       0.01666667 </v>
   <v>      -0.38333333       0.21666667       0.01666667 </v>
   <v>      -0.35000000       0.21666667       0.01666667 </v>
   <v>      -0.31666667       0.21666667       0.01666667 </v>
   <v>      -0.28333333       0.21666667       0.01666667 </v>
   <v>      -0.25000000       0.21666667       0.01666667 </v>
   <v>      -0.21666667       0.21666667       0.01666667 </v>
   <v>      -0.18333333       0.21666667       0.01666667 </v>
   <v>      -0.15000000       0.21666667       0.01666667 </v>
   <v>      -0.11666667       0.21666667       0.01666667 </v>
   <v>      -0.08333333       0.21666667       0.01666667 </v>
   <v>      -0.05000000       0.21666667       0.01666667 </v>
   <v>      -0.01666667       0.21666667       0.01666667 </v>
   <v>       0.25000000       0.25000000       0.01666667 </v>
   <v>       0.28333333       0.25000000       0.01666667 </v>
   <v>       0.31666667       0.25000000       0.01666667 </v>
   <v>       0.35000000       0.25000000       0.01666667 </v>
   <v>       0.38333333       0.25000000       0.01666667 </v>
   <v>       0.41666667       0.25000000       0.01666667 </v>
   <v>       0.45000000       0.25000000       0.01666667 </v>
   <v>       0.48333333       0.25000000       0.01666667 </v>
   <v>      -0.48333333       0.25000000       0.01666667 </v>
   <v>      -0.45000000       0.25000000       0.01666667 </v>
   <v>      -0.41666667       0.25000000       0.01666667 </v>
   <v>      -0.38333333       0.25000000       0.01666667 </v>
   <v>      -0.35000000       0.25000000       0.01666667 </v>
   <v>      -0.31666667       0.25000000       0.01666667 </v>
   <v>      -0.28333333       0.25000000       0.01666667 </v>
   <v>      -0.25000000       0.25000000       0.01666667 </v>
   <v>      -0.21666667       0.25000000       0.01666667 </v>
   <v>      -0.18333333       0.25000000       0.01666667 </v>
   <v>      -0.15000000       0.25000000       0.01666667 </v>
   <v>      -0.11666667       0.25000000       0.01666667 </v>
   <v>      -0.08333333       0.25000000       0.01666667 </v>
   <v>      -0.05000000       0.25000000       0.01666667 </v>
   <v>      -0.01666667       0.25000000       0.01666667 </v>
   <v>       0.28333333       0.28333333       0.01666667 </v>
   <v>       0.31666667       0.28333333       0.01666667 </v>
   <v>       0.35000000       0.28333333       0.01666667 </v>
   <v>       0.38333333       0.28333333       0.01666667 </v>
   <v>       0.41666667       0.28333333       0.01666667 </v>
   <v>       0.45000000       0.28333333       0.01666667 </v>
   <v>       0.48333333       0.28333333       0.01666667 </v>
   <v>      -0.48333333       0.28333333       0.01666667 </v>
   <v>      -0.45000000       0.28333333       0.01666667 </v>
   <v>      -0.41666667       0.28333333       0.01666667 </v>
   <v>      -0.38333333       0.28333333       0.01666667 </v>
   <v>      -0.35000000       0.28333333       0.01666667 </v>
   <v>      -0.31666667       0.28333333       0.01666667 </v>
   <v>      -0.28333333       0.28333333       0.01666667 </v>
   <v>      -0.25000000       0.28333333       0.01666667 </v>
   <v>      -0.21666667       0.28333333       0.01666667 </v>
   <v>      -0.18333333       0.28333333       0.01666667 </v>
   <v>      -0.15000000       0.28333333       0.01666667 </v>
   <v>      -0.11666667       0.28333333       0.01666667 </v>
   <v>      -0.08333333       0.28333333       0.01666667 </v>
   <v>      -0.05000000       0.28333333       0.01666667 </v>
   <v>      -0.01666667       0.28333333       0.01666667 </v>
   <v>       0.31666667       0.31666667       0.01666667 </v>
   <v>       0.35000000       0.31666667       0.01666667 </v>
   <v>       0.38333333       0.31666667       0.01666667 </v>
   <v>       0.41666667       0.31666667       0.01666667 </v>
   <v>       0.45000000       0.31666667       0.01666667 </v>
   <v>       0.48333333       0.31666667       0.01666667 </v>
   <v>      -0.48333333       0.31666667       0.01666667 </v>
   <v>      -0.45000000       0.31666667       0.01666667 </v>
   <v>      -0.41666667       0.31666667       0.01666667 </v>
   <v>      -0.38333333       0.31666667       0.01666667 </v>
   <v>      -0.35000000       0.31666667       0.01666667 </v>
   <v>      -0.31666667       0.31666667       0.01666667 </v>
   <v>      -0.28333333       0.31666667       0.01666667 </v>
   <v>      -0.25000000       0.31666667       0.01666667 </v>
   <v>      -0.21666667       0.31666667       0.01666667 </v>
   <v>      -0.18333333       0.31666667       0.01666667 </v>
   <v>      -0.15000000       0.31666667       0.01666667 </v>
   <v>      -0.11666667       0.31666667       0.01666667 </v>
   <v>      -0.08333333       0.31666667       0.01666667 </v>
   <v>      -0.05000000       0.31666667       0.01666667 </v>
   <v>      -0.01666667       0.31666667       0.01666667 </v>
   <v>       0.35000000       0.35000000       0.01666667 </v>
   <v>       0.38333333       0.35000000       0.01666667 </v>
   <v>       0.41666667       0.35000000       0.01666667 </v>
   <v>       0.45000000       0.35000000       0.01666667 </v>
   <v>       0.48333333       0.35000000       0.01666667 </v>
   <v>      -0.48333333       0.35000000       0.01666667 </v>
   <v>      -0.45000000       0.35000000       0.01666667 </v>
   <v>      -0.41666667       0.35000000       0.01666667 </v>
   <v>      -0.38333333       0.35000000       0.01666667 </v>
   <v>      -0.35000000       0.35000000       0.01666667 </v>
   <v>      -0.31666667       0.35000000       0.01666667 </v>
   <v>      -0.28333333       0.35000000       0.01666667 </v>
   <v>      -0.25000000       0.35000000       0.01666667 </v>
   <v>      -0.21666667       0.35000000       0.01666667 </v>
   <v>      -0.18333333       0.35000000       0.01666667 </v>
   <v>      -0.15000000       0.35000000       0.01666667 </v>
   <v>      -0.11666667       0.35000000       0.01666667 </v>
   <v>      -0.08333333       0.35000000       0.01666667 </v>
   <v>      -0.05000000       0.35000000       0.01666667 </v>
   <v>      -0.01666667       0.35000000       0.01666667 </v>
   <v>       0.38333333       0.38333333       0.01666667 </v>
   <v>       0.41666667       0.38333333       0.01666667 </v>
   <v>       0.45000000       0.38333333       0.01666667 </v>
   <v>       0.48333333       0.38333333       0.01666667 </v>
   <v>      -0.48333333       0.38333333       0.01666667 </v>
   <v>      -0.45000000       0.38333333       0.01666667 </v>
   <v>      -0.41666667       0.38333333       0.01666667 </v>
   <v>      -0.38333333       0.38333333       0.01666667 </v>
   <v>      -0.35000000       0.38333333       0.01666667 </v>
   <v>      -0.31666667       0.38333333       0.01666667 </v>
   <v>      -0.28333333       0.38333333       0.01666667 </v>
   <v>      -0.25000000       0.38333333       0.01666667 </v>
   <v>      -0.21666667       0.38333333       0.01666667 </v>
   <v>      -0.18333333       0.38333333       0.01666667 </v>
   <v>      -0.15000000       0.38333333       0.01666667 </v>
   <v>      -0.11666667       0.38333333       0.01666667 </v>
   <v>      -0.08333333       0.38333333       0.01666667 </v>
   <v>      -0.05000000       0.38333333       0.01666667 </v>
   <v>      -0.01666667       0.38333333       0.01666667 </v>
   <v>       0.41666667       0.41666667       0.01666667 </v>
   <v>       0.45000000       0.41666667       0.01666667 </v>
   <v>       0.48333333       0.41666667       0.01666667 </v>
   <v>      -0.48333333       0.41666667       0.01666667 </v>
   <v>      -0.45000000       0.41666667       0.01666667 </v>
   <v>      -0.41666667       0.41666667       0.01666667 </v>
   <v>      -0.38333333       0.41666667       0.01666667 </v>
   <v>      -0.35000000       0.41666667       0.01666667 </v>
   <v>      -0.31666667       0.41666667       0.01666667 </v>
   <v>      -0.28333333       0.41666667       0.01666667 </v>
   <v>      -0.25000000       0.41666667       0.01666667 </v>
   <v>      -0.21666667       0.41666667       0.01666667 </v>
   <v>      -0.18333333       0.41666667       0.01666667 </v>
   <v>      -0.15000000       0.41666667       0.01666667 </v>
   <v>      -0.11666667       0.41666667       0.01666667 </v>
   <v>      -0.08333333       0.41666667       0.01666667 </v>
   <v>      -0.05000000       0.41666667       0.01666667 </v>
   <v>      -0.01666667       0.41666667       0.01666667 </v>
   <v>       0.45000000       0.45000000       0.01666667 </v>
   <v>       0.48333333       0.45000000       0.01666667 </v>
   <v>      -0.48333333       0.45000000       0.01666667 </v>
   <v>      -0.45000000       0.45000000       0.01666667 </v>
   <v>      -0.41666667       0.45000000       0.01666667 </v>
   <v>      -0.38333333       0.45000000       0.01666667 </v>
   <v>      -0.35000000       0.45000000       0.01666667 </v>
   <v>      -0.31666667       0.45000000       0.01666667 </v>
   <v>      -0.28333333       0.45000000       0.01666667 </v>
   <v>      -0.25000000       0.45000000       0.01666667 </v>
   <v>      -0.21666667       0.45000000       0.01666667 </v>
   <v>      -0.18333333       0.45000000       0.01666667 </v>
   <v>      -0.15000000       0.45000000       0.01666667 </v>
   <v>      -0.11666667       0.45000000       0.01666667 </v>
   <v>      -0.08333333       0.45000000       0.01666667 </v>
   <v>      -0.05000000       0.45000000       0.01666667 </v>
   <v>      -0.01666667       0.45000000       0.01666667 </v>
   <v>       0.48333333       0.48333333       0.01666667 </v>
   <v>      -0.48333333       0.48333333       0.01666667 </v>
   <v>      -0.45000000       0.48333333       0.01666667 </v>
   <v>      -0.41666667       0.48333333       0.01666667 </v>
   <v>      -0.38333333       0.48333333       0.01666667 </v>
   <v>      -0.35000000       0.48333333       0.01666667 </v>
   <v>      -0.31666667       0.48333333       0.01666667 </v>
   <v>      -0.28333333       0.48333333       0.01666667 </v>
   <v>      -0.25000000       0.48333333       0.01666667 </v>
   <v>      -0.21666667       0.48333333       0.01666667 </v>
   <v>      -0.18333333       0.48333333       0.01666667 </v>
   <v>      -0.15000000       0.48333333       0.01666667 </v>
   <v>      -0.11666667       0.48333333       0.01666667 </v>
   <v>      -0.08333333       0.48333333       0.01666667 </v>
   <v>      -0.05000000       0.48333333       0.01666667 </v>
   <v>      -0.01666667       0.48333333       0.01666667 </v>
   <v>      -0.48333333      -0.48333333       0.01666667 </v>
   <v>      -0.45000000      -0.48333333       0.01666667 </v>
   <v>      -0.41666667      -0.48333333       0.01666667 </v>
   <v>      -0.38333333      -0.48333333       0.01666667 </v>
   <v>      -0.35000000      -0.48333333       0.01666667 </v>
   <v>      -0.31666667      -0.48333333       0.01666667 </v>
   <v>      -0.28333333      -0.48333333       0.01666667 </v>
   <v>      -0.25000000      -0.48333333       0.01666667 </v>
   <v>      -0.21666667      -0.48333333       0.01666667 </v>
   <v>      -0.18333333      -0.48333333       0.01666667 </v>
   <v>      -0.15000000      -0.48333333       0.01666667 </v>
   <v>      -0.11666667      -0.48333333       0.01666667 </v>
   <v>      -0.08333333      -0.48333333       0.01666667 </v>
   <v>      -0.05000000      -0.48333333       0.01666667 </v>
   <v>      -0.45000000      -0.45000000       0.01666667 </v>
   <v>      -0.41666667      -0.45000000       0.01666667 </v>
   <v>      -0.38333333      -0.45000000       0.01666667 </v>
   <v>      -0.35000000      -0.45000000       0.01666667 </v>
   <v>      -0.31666667      -0.45000000       0.01666667 </v>
   <v>      -0.28333333      -0.45000000       0.01666667 </v>
   <v>      -0.25000000      -0.45000000       0.01666667 </v>
   <v>      -0.21666667      -0.45000000       0.01666667 </v>
   <v>      -0.18333333      -0.45000000       0.01666667 </v>
   <v>      -0.15000000      -0.45000000       0.01666667 </v>
   <v>      -0.11666667      -0.45000000       0.01666667 </v>
   <v>      -0.08333333      -0.45000000       0.01666667 </v>
   <v>      -0.05000000      -0.45000000       0.01666667 </v>
   <v>      -0.41666667      -0.41666667       0.01666667 </v>
   <v>      -0.38333333      -0.41666667       0.01666667 </v>
   <v>      -0.35000000      -0.41666667       0.01666667 </v>
   <v>      -0.31666667      -0.41666667       0.01666667 </v>
   <v>      -0.28333333      -0.41666667       0.01666667 </v>
   <v>      -0.25000000      -0.41666667       0.01666667 </v>
   <v>      -0.21666667      -0.41666667       0.01666667 </v>
   <v>      -0.18333333      -0.41666667       0.01666667 </v>
   <v>      -0.15000000      -0.41666667       0.01666667 </v>
   <v>      -0.11666667      -0.41666667       0.01666667 </v>
   <v>      -0.08333333      -0.41666667       0.01666667 </v>
   <v>      -0.05000000      -0.41666667       0.01666667 </v>
   <v>      -0.38333333      -0.38333333       0.01666667 </v>
   <v>      -0.35000000      -0.38333333       0.01666667 </v>
   <v>      -0.31666667      -0.38333333       0.01666667 </v>
   <v>      -0.28333333      -0.38333333       0.01666667 </v>
   <v>      -0.25000000      -0.38333333       0.01666667 </v>
   <v>      -0.21666667      -0.38333333       0.01666667 </v>
   <v>      -0.18333333      -0.38333333       0.01666667 </v>
   <v>      -0.15000000      -0.38333333       0.01666667 </v>
   <v>      -0.11666667      -0.38333333       0.01666667 </v>
   <v>      -0.08333333      -0.38333333       0.01666667 </v>
   <v>      -0.05000000      -0.38333333       0.01666667 </v>
   <v>      -0.35000000      -0.35000000       0.01666667 </v>
   <v>      -0.31666667      -0.35000000       0.01666667 </v>
   <v>      -0.28333333      -0.35000000       0.01666667 </v>
   <v>      -0.25000000      -0.35000000       0.01666667 </v>
   <v>      -0.21666667      -0.35000000       0.01666667 </v>
   <v>      -0.18333333      -0.35000000       0.01666667 </v>
   <v>      -0.15000000      -0.35000000       0.01666667 </v>
   <v>      -0.11666667      -0.35000000       0.01666667 </v>
   <v>      -0.08333333      -0.35000000       0.01666667 </v>
   <v>      -0.05000000      -0.35000000       0.01666667 </v>
   <v>      -0.31666667      -0.31666667       0.01666667 </v>
   <v>      -0.28333333      -0.31666667       0.01666667 </v>
   <v>      -0.25000000      -0.31666667       0.01666667 </v>
   <v>      -0.21666667      -0.31666667       0.01666667 </v>
   <v>      -0.18333333      -0.31666667       0.01666667 </v>
   <v>      -0.15000000      -0.31666667       0.01666667 </v>
   <v>      -0.11666667      -0.31666667       0.01666667 </v>
   <v>      -0.08333333      -0.31666667       0.01666667 </v>
   <v>      -0.05000000      -0.31666667       0.01666667 </v>
   <v>      -0.28333333      -0.28333333       0.01666667 </v>
   <v>      -0.25000000      -0.28333333       0.01666667 </v>
   <v>      -0.21666667      -0.28333333       0.01666667 </v>
   <v>      -0.18333333      -0.28333333       0.01666667 </v>
   <v>      -0.15000000      -0.28333333       0.01666667 </v>
   <v>      -0.11666667      -0.28333333       0.01666667 </v>
   <v>      -0.08333333      -0.28333333       0.01666667 </v>
   <v>      -0.05000000      -0.28333333       0.01666667 </v>
   <v>      -0.25000000      -0.25000000       0.01666667 </v>
   <v>      -0.21666667      -0.25000000       0.01666667 </v>
   <v>      -0.18333333      -0.25000000       0.01666667 </v>
   <v>      -0.15000000      -0.25000000       0.01666667 </v>
   <v>      -0.11666667      -0.25000000       0.01666667 </v>
   <v>      -0.08333333      -0.25000000       0.01666667 </v>
   <v>      -0.05000000      -0.25000000       0.01666667 </v>
   <v>      -0.21666667      -0.21666667       0.01666667 </v>
   <v>      -0.18333333      -0.21666667       0.01666667 </v>
   <v>      -0.15000000      -0.21666667       0.01666667 </v>
   <v>      -0.11666667      -0.21666667       0.01666667 </v>
   <v>      -0.08333333      -0.21666667       0.01666667 </v>
   <v>      -0.05000000      -0.21666667       0.01666667 </v>
   <v>      -0.18333333      -0.18333333       0.01666667 </v>
   <v>      -0.15000000      -0.18333333       0.01666667 </v>
   <v>      -0.11666667      -0.18333333       0.01666667 </v>
   <v>      -0.08333333      -0.18333333       0.01666667 </v>
   <v>      -0.05000000      -0.18333333       0.01666667 </v>
   <v>      -0.15000000      -0.15000000       0.01666667 </v>
   <v>      -0.11666667      -0.15000000       0.01666667 </v>
   <v>      -0.08333333      -0.15000000       0.01666667 </v>
   <v>      -0.05000000      -0.15000000       0.01666667 </v>
   <v>      -0.11666667      -0.11666667       0.01666667 </v>
   <v>      -0.08333333      -0.11666667       0.01666667 </v>
   <v>      -0.05000000      -0.11666667       0.01666667 </v>
   <v>      -0.08333333      -0.08333333       0.01666667 </v>
   <v>      -0.05000000      -0.08333333       0.01666667 </v>
   <v>      -0.05000000      -0.05000000       0.01666667 </v>
   <v>       0.05000000       0.05000000       0.05000000 </v>
   <v>       0.08333333       0.05000000       0.05000000 </v>
   <v>       0.11666667       0.05000000       0.05000000 </v>
   <v>       0.15000000       0.05000000       0.05000000 </v>
   <v>       0.18333333       0.05000000       0.05000000 </v>
   <v>       0.21666667       0.05000000       0.05000000 </v>
   <v>       0.25000000       0.05000000       0.05000000 </v>
   <v>       0.28333333       0.05000000       0.05000000 </v>
   <v>       0.31666667       0.05000000       0.05000000 </v>
   <v>       0.35000000       0.05000000       0.05000000 </v>
   <v>       0.38333333       0.05000000       0.05000000 </v>
   <v>       0.41666667       0.05000000       0.05000000 </v>
   <v>       0.45000000       0.05000000       0.05000000 </v>
   <v>       0.48333333       0.05000000       0.05000000 </v>
   <v>      -0.48333333       0.05000000       0.05000000 </v>
   <v>      -0.45000000       0.05000000       0.05000000 </v>
   <v>      -0.41666667       0.05000000       0.05000000 </v>
   <v>      -0.38333333       0.05000000       0.05000000 </v>
   <v>      -0.35000000       0.05000000       0.05000000 </v>
   <v>      -0.31666667       0.05000000       0.05000000 </v>
   <v>      -0.28333333       0.05000000       0.05000000 </v>
   <v>      -0.25000000       0.05000000       0.05000000 </v>
   <v>      -0.21666667       0.05000000       0.05000000 </v>
   <v>      -0.18333333       0.05000000       0.05000000 </v>
   <v>      -0.15000000       0.05000000       0.05000000 </v>
   <v>      -0.11666667       0.05000000       0.05000000 </v>
   <v>      -0.08333333       0.05000000       0.05000000 </v>
   <v>      -0.05000000       0.05000000       0.05000000 </v>
   <v>       0.08333333       0.08333333       0.05000000 </v>
   <v>       0.11666667       0.08333333       0.05000000 </v>
   <v>       0.15000000       0.08333333       0.05000000 </v>
   <v>       0.18333333       0.08333333       0.05000000 </v>
   <v>       0.21666667       0.08333333       0.05000000 </v>
   <v>       0.25000000       0.08333333       0.05000000 </v>
   <v>       0.28333333       0.08333333       0.05000000 </v>
   <v>       0.31666667       0.08333333       0.05000000 </v>
   <v>       0.35000000       0.08333333       0.05000000 </v>
   <v>       0.38333333       0.08333333       0.05000000 </v>
   <v>       0.41666667       0.08333333       0.05000000 </v>
   <v>       0.45000000       0.08333333       0.05000000 </v>
   <v>       0.48333333       0.08333333       0.05000000 </v>
   <v>      -0.48333333       0.08333333       0.05000000 </v>
   <v>      -0.45000000       0.08333333       0.05000000 </v>
   <v>      -0.41666667       0.08333333       0.05000000 </v>
   <v>      -0.38333333       0.08333333       0.05000000 </v>
   <v>      -0.35000000       0.08333333       0.05000000 </v>
   <v>      -0.31666667       0.08333333       0.05000000 </v>
   <v>      -0.28333333       0.08333333       0.05000000 </v>
   <v>      -0.25000000       0.08333333       0.05000000 </v>
   <v>      -0.21666667       0.08333333       0.05000000 </v>
   <v>      -0.18333333       0.08333333       0.05000000 </v>
   <v>      -0.15000000       0.08333333       0.05000000 </v>
   <v>      -0.11666667       0.08333333       0.05000000 </v>
   <v>      -0.08333333       0.08333333       0.05000000 </v>
   <v>      -0.05000000       0.08333333       0.05000000 </v>
   <v>       0.11666667       0.11666667       0.05000000 </v>
   <v>       0.15000000       0.11666667       0.05000000 </v>
   <v>       0.18333333       0.11666667       0.05000000 </v>
   <v>       0.21666667       0.11666667       0.05000000 </v>
   <v>       0.25000000       0.11666667       0.05000000 </v>
   <v>       0.28333333       0.11666667       0.05000000 </v>
   <v>       0.31666667       0.11666667       0.05000000 </v>
   <v>       0.35000000       0.11666667       0.05000000 </v>
   <v>       0.38333333       0.11666667       0.05000000 </v>
   <v>       0.41666667       0.11666667       0.05000000 </v>
   <v>       0.45000000       0.11666667       0.05000000 </v>
   <v>       0.48333333       0.11666667       0.05000000 </v>
   <v>      -0.48333333       0.11666667       0.05000000 </v>
   <v>      -0.45000000       0.11666667       0.05000000 </v>
   <v>      -0.41666667       0.11666667       0.05000000 </v>
   <v>      -0.38333333       0.11666667       0.05000000 </v>
   <v>      -0.35000000       0.11666667       0.05000000 </v>
   <v>      -0.31666667       0.11666667       0.05000000 </v>
   <v>      -0.28333333       0.11666667       0.05000000 </v>
   <v>      -0.25000000       0.11666667       0.05000000 </v>
   <v>      -0.21666667       0.11666667       0.05000000 </v>
   <v>      -0.18333333       0.11666667       0.05000000 </v>
   <v>      -0.15000000       0.11666667       0.05000000 </v>
   <v>      -0.11666667       0.11666667       0.05000000 </v>
   <v>      -0.08333333       0.11666667       0.05000000 </v>
   <v>      -0.05000000       0.11666667       0.05000000 </v>
   <v>       0.15000000       0.15000000       0.05000000 </v>
   <v>       0.18333333       0.15000000       0.05000000 </v>
   <v>       0.21666667       0.15000000       0.05000000 </v>
   <v>       0.25000000       0.15000000       0.05000000 </v>
   <v>       0.28333333       0.15000000       0.05000000 </v>
   <v>       0.31666667       0.15000000       0.05000000 </v>
   <v>       0.35000000       0.15000000       0.05000000 </v>
   <v>       0.38333333       0.15000000       0.05000000 </v>
   <v>       0.41666667       0.15000000       0.05000000 </v>
   <v>       0.45000000       0.15000000       0.05000000 </v>
   <v>       0.48333333       0.15000000       0.05000000 </v>
   <v>      -0.48333333       0.15000000       0.05000000 </v>
   <v>      -0.45000000       0.15000000       0.05000000 </v>
   <v>      -0.41666667       0.15000000       0.05000000 </v>
   <v>      -0.38333333       0.15000000       0.05000000 </v>
   <v>      -0.35000000       0.15000000       0.05000000 </v>
   <v>      -0.31666667       0.15000000       0.05000000 </v>
   <v>      -0.28333333       0.15000000       0.05000000 </v>
   <v>      -0.25000000       0.15000000       0.05000000 </v>
   <v>      -0.21666667       0.15000000       0.05000000 </v>
   <v>      -0.18333333       0.15000000       0.05000000 </v>
   <v>      -0.15000000       0.15000000       0.05000000 </v>
   <v>      -0.11666667       0.15000000       0.05000000 </v>
   <v>      -0.08333333       0.15000000       0.05000000 </v>
   <v>      -0.05000000       0.15000000       0.05000000 </v>
   <v>       0.18333333       0.18333333       0.05000000 </v>
   <v>       0.21666667       0.18333333       0.05000000 </v>
   <v>       0.25000000       0.18333333       0.05000000 </v>
   <v>       0.28333333       0.18333333       0.05000000 </v>
   <v>       0.31666667       0.18333333       0.05000000 </v>
   <v>       0.35000000       0.18333333       0.05000000 </v>
   <v>       0.38333333       0.18333333       0.05000000 </v>
   <v>       0.41666667       0.18333333       0.05000000 </v>
   <v>       0.45000000       0.18333333       0.05000000 </v>
   <v>       0.48333333       0.18333333       0.05000000 </v>
   <v>      -0.48333333       0.18333333       0.05000000 </v>
   <v>      -0.45000000       0.18333333       0.05000000 </v>
   <v>      -0.41666667       0.18333333       0.05000000 </v>
   <v>      -0.38333333       0.18333333       0.05000000 </v>
   <v>      -0.35000000       0.18333333       0.05000000 </v>
   <v>      -0.31666667       0.18333333       0.05000000 </v>
   <v>      -0.28333333       0.18333333       0.05000000 </v>
   <v>      -0.25000000       0.18333333       0.05000000 </v>
   <v>      -0.21666667       0.18333333       0.05000000 </v>
   <v>      -0.18333333       0.18333333       0.05000000 </v>
   <v>      -0.15000000       0.18333333       0.05000000 </v>
   <v>      -0.11666667       0.18333333       0.05000000 </v>
   <v>      -0.08333333       0.18333333       0.05000000 </v>
   <v>      -0.05000000       0.18333333       0.05000000 </v>
   <v>       0.21666667       0.21666667       0.05000000 </v>
   <v>       0.25000000       0.21666667       0.05000000 </v>
   <v>       0.28333333       0.21666667       0.05000000 </v>
   <v>       0.31666667       0.21666667       0.05000000 </v>
   <v>       0.35000000       0.21666667       0.05000000 </v>
   <v>       0.38333333       0.21666667       0.05000000 </v>
   <v>       0.41666667       0.21666667       0.05000000 </v>
   <v>       0.45000000       0.21666667       0.05000000 </v>
   <v>       0.48333333       0.21666667       0.05000000 </v>
   <v>      -0.48333333       0.21666667       0.05000000 </v>
   <v>      -0.45000000       0.21666667       0.05000000 </v>
   <v>      -0.41666667       0.21666667       0.05000000 </v>
   <v>      -0.38333333       0.21666667       0.05000000 </v>
   <v>      -0.35000000       0.21666667       0.05000000 </v>
   <v>      -0.31666667       0.21666667       0.05000000 </v>
   <v>      -0.28333333       0.21666667       0.05000000 </v>
   <v>      -0.25000000       0.21666667       0.05000000 </v>
   <v>      -0.21666667       0.21666667       0.05000000 </v>
   <v>      -0.18333333       0.21666667       0.05000000 </v>
   <v>      -0.15000000       0.21666667       0.05000000 </v>
   <v>      -0.11666667       0.21666667       0.05000000 </v>
   <v>      -0.08333333       0.21666667       0.05000000 </v>
   <v>      -0.05000000       0.21666667       0.05000000 </v>
   <v>       0.25000000       0.25000000       0.05000000 </v>
   <v>       0.28333333       0.25000000       0.05000000 </v>
   <v>       0.31666667       0.25000000       0.05000000 </v>
   <v>       0.35000000       0.25000000       0.05000000 </v>
   <v>       0.38333333       0.25000000       0.05000000 </v>
   <v>       0.41666667       0.25000000       0.05000000 </v>
   <v>       0.45000000       0.25000000       0.05000000 </v>
   <v>       0.48333333       0.25000000       0.05000000 </v>
   <v>      -0.48333333       0.25000000       0.05000000 </v>
   <v>      -0.45000000       0.25000000       0.05000000 </v>
   <v>      -0.41666667       0.25000000       0.05000000 </v>
   <v>      -0.38333333       0.25000000       0.05000000 </v>
   <v>      -0.35000000       0.25000000       0.05000000 </v>
   <v>      -0.31666667       0.25000000       0.05000000 </v>
   <v>      -0.28333333       0.25000000       0.05000000 </v>
   <v>      -0.25000000       0.25000000       0.05000000 </v>
   <v>      -0.21666667       0.25000000       0.05000000 </v>
   <v>      -0.18333333       0.25000000       0.05000000 </v>
   <v>      -0.15000000       0.25000000       0.05000000 </v>
   <v>      -0.11666667       0.25000000       0.05000000 </v>
   <v>      -0.08333333       0.25000000       0.05000000 </v>
   <v>      -0.05000000       0.25000000       0.05000000 </v>
   <v>       0.28333333       0.28333333       0.05000000 </v>
   <v>       0.31666667       0.28333333       0.05000000 </v>
   <v>       0.35000000       0.28333333       0.05000000 </v>
   <v>       0.38333333       0.28333333       0.05000000 </v>
   <v>       0.41666667       0.28333333       0.05000000 </v>
   <v>       0.45000000       0.28333333       0.05000000 </v>
   <v>       0.48333333       0.28333333       0.05000000 </v>
   <v>      -0.48333333       0.28333333       0.05000000 </v>
   <v>      -0.45000000       0.28333333       0.05000000 </v>
   <v>      -0.41666667       0.28333333       0.05000000 </v>
   <v>      -0.38333333       0.28333333       0.05000000 </v>
   <v>      -0.35000000       0.28333333       0.05000000 </v>
   <v>      -0.31666667       0.28333333       0.05000000 </v>
   <v>      -0.28333333       0.28333333       0.05000000 </v>
   <v>      -0.25000000       0.28333333       0.05000000 </v>
   <v>      -0.21666667       0.28333333       0.05000000 </v>
   <v>      -0.18333333       0.28333333       0.05000000 </v>
   <v>      -0.15000000       0.28333333       0.05000000 </v>
   <v>      -0.11666667       0.28333333       0.05000000 </v>
   <v>      -0.08333333       0.28333333       0.05000000 </v>
   <v>      -0.05000000       0.28333333       0.05000000 </v>
   <v>       0.31666667       0.31666667       0.05000000 </v>
   <v>       0.35000000       0.31666667       0.05000000 </v>
   <v>       0.38333333       0.31666667       0.05000000 </v>
   <v>       0.41666667       0.31666667       0.05000000 </v>
   <v>       0.45000000       0.31666667       0.05000000 </v>
   <v>       0.48333333       0.31666667       0.05000000 </v>
   <v>      -0.48333333       0.31666667       0.05000000 </v>
   <v>      -0.45000000       0.31666667       0.05000000 </v>
   <v>      -0.41666667       0.31666667       0.05000000 </v>
   <v>      -0.38333333       0.31666667       0.05000000 </v>
   <v>      -0.35000000       0.31666667       0.05000000 </v>
   <v>      -0.31666667       0.31666667       0.05000000 </v>
   <v>      -0.28333333       0.31666667       0.05000000 </v>
   <v>      -0.25000000       0.31666667       0.05000000 </v>
   <v>      -0.21666667       0.31666667       0.05000000 </v>
   <v>      -0.18333333       0.31666667       0.05000000 </v>
   <v>      -0.15000000       0.31666667       0.05000000 </v>
   <v>      -0.11666667       0.31666667       0.05000000 </v>
   <v>      -0.08333333       0.31666667       0.05000000 </v>
   <v>      -0.05000000       0.31666667       0.05000000 </v>
   <v>       0.35000000       0.35000000       0.05000000 </v>
   <v>       0.38333333       0.35000000       0.05000000 </v>
   <v>       0.41666667       0.35000000       0.05000000 </v>
   <v>       0.45000000       0.35000000       0.05000000 </v>
   <v>       0.48333333       0.35000000       0.05000000 </v>
   <v>      -0.48333333       0.35000000       0.05000000 </v>
   <v>      -0.45000000       0.35000000       0.05000000 </v>
   <v>      -0.41666667       0.35000000       0.05000000 </v>
   <v>      -0.38333333       0.35000000       0.05000000 </v>
   <v>      -0.35000000       0.35000000       0.05000000 </v>
   <v>      -0.31666667       0.35000000       0.05000000 </v>
   <v>      -0.28333333       0.35000000       0.05000000 </v>
   <v>      -0.25000000       0.35000000       0.05000000 </v>
   <v>      -0.21666667       0.35000000       0.05000000 </v>
   <v>      -0.18333333       0.35000000       0.05000000 </v>
   <v>      -0.15000000       0.35000000       0.05000000 </v>
   <v>      -0.11666667       0.35000000       0.05000000 </v>
   <v>      -0.08333333       0.35000000       0.05000000 </v>
   <v>      -0.05000000       0.35000000       0.05000000 </v>
   <v>       0.38333333       0.38333333       0.05000000 </v>
   <v>       0.41666667       0.38333333       0.05000000 </v>
   <v>       0.45000000       0.38333333       0.05000000 </v>
   <v>       0.48333333       0.38333333       0.05000000 </v>
   <v>      -0.48333333       0.38333333       0.05000000 </v>
   <v>      -0.45000000       0.38333333       0.05000000 </v>
   <v>      -0.41666667       0.38333333       0.05000000 </v>
   <v>      -0.38333333       0.38333333       0.05000000 </v>
   <v>      -0.35000000       0.38333333       0.05000000 </v>
   <v>      -0.31666667       0.38333333       0.05000000 </v>
   <v>      -0.28333333       0.38333333       0.05000000 </v>
   <v>      -0.25000000       0.38333333       0.05000000 </v>
   <v>      -0.21666667       0.38333333       0.05000000 </v>
   <v>      -0.18333333       0.38333333       0.05000000 </v>
   <v>      -0.15000000       0.38333333       0.05000000 </v>
   <v>      -0.11666667       0.38333333       0.05000000 </v>
   <v>      -0.08333333       0.38333333       0.05000000 </v>
   <v>      -0.05000000       0.38333333       0.05000000 </v>
   <v>       0.41666667       0.41666667       0.05000000 </v>
   <v>       0.45000000       0.41666667       0.05000000 </v>
   <v>       0.48333333       0.41666667       0.05000000 </v>
   <v>      -0.48333333       0.41666667       0.05000000 </v>
   <v>      -0.45000000       0.41666667       0.05000000 </v>
   <v>      -0.41666667       0.41666667       0.05000000 </v>
   <v>      -0.38333333       0.41666667       0.05000000 </v>
   <v>      -0.35000000       0.41666667       0.05000000 </v>
   <v>      -0.31666667       0.41666667       0.05000000 </v>
   <v>      -0.28333333       0.41666667       0.05000000 </v>
   <v>      -0.25000000       0.41666667       0.05000000 </v>
   <v>      -0.21666667       0.41666667       0.05000000 </v>
   <v>      -0.18333333       0.41666667       0.05000000 </v>
   <v>      -0.15000000       0.41666667       0.05000000 </v>
   <v>      -0.11666667       0.41666667       0.05000000 </v>
   <v>      -0.08333333       0.41666667       0.05000000 </v>
   <v>      -0.05000000       0.41666667       0.05000000 </v>
   <v>       0.45000000       0.45000000       0.05000000 </v>
   <v>       0.48333333       0.45000000       0.05000000 </v>
   <v>      -0.48333333       0.45000000       0.05000000 </v>
   <v>      -0.45000000       0.45000000       0.05000000 </v>
   <v>      -0.41666667       0.45000000       0.05000000 </v>
   <v>      -0.38333333       0.45000000       0.05000000 </v>
   <v>      -0.35000000       0.45000000       0.05000000 </v>
   <v>      -0.31666667       0.45000000       0.05000000 </v>
   <v>      -0.28333333       0.45000000       0.05000000 </v>
   <v>      -0.25000000       0.45000000       0.05000000 </v>
   <v>      -0.21666667       0.45000000       0.05000000 </v>
   <v>      -0.18333333       0.45000000       0.05000000 </v>
   <v>      -0.15000000       0.45000000       0.05000000 </v>
   <v>      -0.11666667       0.45000000       0.05000000 </v>
   <v>      -0.08333333       0.45000000       0.05000000 </v>
   <v>      -0.05000000       0.45000000       0.05000000 </v>
   <v>       0.48333333       0.48333333       0.05000000 </v>
   <v>      -0.48333333       0.48333333       0.05000000 </v>
   <v>      -0.45000000       0.48333333       0.05000000 </v>
   <v>      -0.41666667       0.48333333       0.05000000 </v>
   <v>      -0.38333333       0.48333333       0.05000000 </v>
   <v>      -0.35000000       0.48333333       0.05000000 </v>
   <v>      -0.31666667       0.48333333       0.05000000 </v>
   <v>      -0.28333333       0.48333333       0.05000000 </v>
   <v>      -0.25000000       0.48333333       0.05000000 </v>
   <v>      -0.21666667       0.48333333       0.05000000 </v>
   <v>      -0.18333333       0.48333333       0.05000000 </v>
   <v>      -0.15000000       0.48333333       0.05000000 </v>
   <v>      -0.11666667       0.48333333       0.05000000 </v>
   <v>      -0.08333333       0.48333333       0.05000000 </v>
   <v>      -0.05000000       0.48333333       0.05000000 </v>
   <v>      -0.48333333      -0.48333333       0.05000000 </v>
   <v>      -0.45000000      -0.48333333       0.05000000 </v>
   <v>      -0.41666667      -0.48333333       0.05000000 </v>
   <v>      -0.38333333      -0.48333333       0.05000000 </v>
   <v>      -0.35000000      -0.48333333       0.05000000 </v>
   <v>      -0.31666667      -0.48333333       0.05000000 </v>
   <v>      -0.28333333      -0.48333333       0.05000000 </v>
   <v>      -0.25000000      -0.48333333       0.05000000 </v>
   <v>      -0.21666667      -0.48333333       0.05000000 </v>
   <v>      -0.18333333      -0.48333333       0.05000000 </v>
   <v>      -0.15000000      -0.48333333       0.05000000 </v>
   <v>      -0.11666667      -0.48333333       0.05000000 </v>
   <v>      -0.08333333      -0.48333333       0.05000000 </v>
   <v>      -0.45000000      -0.45000000       0.05000000 </v>
   <v>      -0.41666667      -0.45000000       0.05000000 </v>
   <v>      -0.38333333      -0.45000000       0.05000000 </v>
   <v>      -0.35000000      -0.45000000       0.05000000 </v>
   <v>      -0.31666667      -0.45000000       0.05000000 </v>
   <v>      -0.28333333      -0.45000000       0.05000000 </v>
   <v>      -0.25000000      -0.45000000       0.05000000 </v>
   <v>      -0.21666667      -0.45000000       0.05000000 </v>
   <v>      -0.18333333      -0.45000000       0.05000000 </v>
   <v>      -0.15000000      -0.45000000       0.05000000 </v>
   <v>      -0.11666667      -0.45000000       0.05000000 </v>
   <v>      -0.08333333      -0.45000000       0.05000000 </v>
   <v>      -0.41666667      -0.41666667       0.05000000 </v>
   <v>      -0.38333333      -0.41666667       0.05000000 </v>
   <v>      -0.35000000      -0.41666667       0.05000000 </v>
   <v>      -0.31666667      -0.41666667       0.05000000 </v>
   <v>      -0.28333333      -0.41666667       0.05000000 </v>
   <v>      -0.25000000      -0.41666667       0.05000000 </v>
   <v>      -0.21666667      -0.41666667       0.05000000 </v>
   <v>      -0.18333333      -0.41666667       0.05000000 </v>
   <v>      -0.15000000      -0.41666667       0.05000000 </v>
   <v>      -0.11666667      -0.41666667       0.05000000 </v>
   <v>      -0.08333333      -0.41666667       0.05000000 </v>
   <v>      -0.38333333      -0.38333333       0.05000000 </v>
   <v>      -0.35000000      -0.38333333       0.05000000 </v>
   <v>      -0.31666667      -0.38333333       0.05000000 </v>
   <v>      -0.28333333      -0.38333333       0.05000000 </v>
   <v>      -0.25000000      -0.38333333       0.05000000 </v>
   <v>      -0.21666667      -0.38333333       0.05000000 </v>
   <v>      -0.18333333      -0.38333333       0.05000000 </v>
   <v>      -0.15000000      -0.38333333       0.05000000 </v>
   <v>      -0.11666667      -0.38333333       0.05000000 </v>
   <v>      -0.08333333      -0.38333333       0.05000000 </v>
   <v>      -0.35000000      -0.35000000       0.05000000 </v>
   <v>      -0.31666667      -0.35000000       0.05000000 </v>
   <v>      -0.28333333      -0.35000000       0.05000000 </v>
   <v>      -0.25000000      -0.35000000       0.05000000 </v>
   <v>      -0.21666667      -0.35000000       0.05000000 </v>
   <v>      -0.18333333      -0.35000000       0.05000000 </v>
   <v>      -0.15000000      -0.35000000       0.05000000 </v>
   <v>      -0.11666667      -0.35000000       0.05000000 </v>
   <v>      -0.08333333      -0.35000000       0.05000000 </v>
   <v>      -0.31666667      -0.31666667       0.05000000 </v>
   <v>      -0.28333333      -0.31666667       0.05000000 </v>
   <v>      -0.25000000      -0.31666667       0.05000000 </v>
   <v>      -0.21666667      -0.31666667       0.05000000 </v>
   <v>      -0.18333333      -0.31666667       0.05000000 </v>
   <v>      -0.15000000      -0.31666667       0.05000000 </v>
   <v>      -0.11666667      -0.31666667       0.05000000 </v>
   <v>      -0.08333333      -0.31666667       0.05000000 </v>
   <v>      -0.28333333      -0.28333333       0.05000000 </v>
   <v>      -0.25000000      -0.28333333       0.05000000 </v>
   <v>      -0.21666667      -0.28333333       0.05000000 </v>
   <v>      -0.18333333      -0.28333333       0.05000000 </v>
   <v>      -0.15000000      -0.28333333       0.05000000 </v>
   <v>      -0.11666667      -0.28333333       0.05000000 </v>
   <v>      -0.08333333      -0.28333333       0.05000000 </v>
   <v>      -0.25000000      -0.25000000       0.05000000 </v>
   <v>      -0.21666667      -0.25000000       0.05000000 </v>
   <v>      -0.18333333      -0.25000000       0.05000000 </v>
   <v>      -0.15000000      -0.25000000       0.05000000 </v>
   <v>      -0.11666667      -0.25000000       0.05000000 </v>
   <v>      -0.08333333      -0.25000000       0.05000000 </v>
   <v>      -0.21666667      -0.21666667       0.05000000 </v>
   <v>      -0.18333333      -0.21666667       0.05000000 </v>
   <v>      -0.15000000      -0.21666667       0.05000000 </v>
   <v>      -0.11666667      -0.21666667       0.05000000 </v>
   <v>      -0.08333333      -0.21666667       0.05000000 </v>
   <v>      -0.18333333      -0.18333333       0.05000000 </v>
   <v>      -0.15000000      -0.18333333       0.05000000 </v>
   <v>      -0.11666667      -0.18333333       0.05000000 </v>
   <v>      -0.08333333      -0.18333333       0.05000000 </v>
   <v>      -0.15000000      -0.15000000       0.05000000 </v>
   <v>      -0.11666667      -0.15000000       0.05000000 </v>
   <v>      -0.08333333      -0.15000000       0.05000000 </v>
   <v>      -0.11666667      -0.11666667       0.05000000 </v>
   <v>      -0.08333333      -0.11666667       0.05000000 </v>
   <v>      -0.08333333      -0.08333333       0.05000000 </v>
   <v>       0.08333333       0.08333333       0.08333333 </v>
   <v>       0.11666667       0.08333333       0.08333333 </v>
   <v>       0.15000000       0.08333333       0.08333333 </v>
   <v>       0.18333333       0.08333333       0.08333333 </v>
   <v>       0.21666667       0.08333333       0.08333333 </v>
   <v>       0.25000000       0.08333333       0.08333333 </v>
   <v>       0.28333333       0.08333333       0.08333333 </v>
   <v>       0.31666667       0.08333333       0.08333333 </v>
   <v>       0.35000000       0.08333333       0.08333333 </v>
   <v>       0.38333333       0.08333333       0.08333333 </v>
   <v>       0.41666667       0.08333333       0.08333333 </v>
   <v>       0.45000000       0.08333333       0.08333333 </v>
   <v>       0.48333333       0.08333333       0.08333333 </v>
   <v>      -0.48333333       0.08333333       0.08333333 </v>
   <v>      -0.45000000       0.08333333       0.08333333 </v>
   <v>      -0.41666667       0.08333333       0.08333333 </v>
   <v>      -0.38333333       0.08333333       0.08333333 </v>
   <v>      -0.35000000       0.08333333       0.08333333 </v>
   <v>      -0.31666667       0.08333333       0.08333333 </v>
   <v>      -0.28333333       0.08333333       0.08333333 </v>
   <v>      -0.25000000       0.08333333       0.08333333 </v>
   <v>      -0.21666667       0.08333333       0.08333333 </v>
   <v>      -0.18333333       0.08333333       0.08333333 </v>
   <v>      -0.15000000       0.08333333       0.08333333 </v>
   <v>      -0.11666667       0.08333333       0.08333333 </v>
   <v>      -0.08333333       0.08333333       0.08333333 </v>
   <v>       0.11666667       0.11666667       0.08333333 </v>
   <v>       0.15000000       0.11666667       0.08333333 </v>
   <v>       0.18333333       0.11666667       0.08333333 </v>
   <v>       0.21666667       0.11666667       0.08333333 </v>
   <v>       0.25000000       0.11666667       0.08333333 </v>
   <v>       0.28333333       0.11666667       0.08333333 </v>
   <v>       0.31666667       0.11666667       0.08333333 </v>
   <v>       0.35000000       0.11666667       0.08333333 </v>
   <v>       0.38333333       0.11666667       0.08333333 </v>
   <v>       0.41666667       0.11666667       0.08333333 </v>
   <v>       0.45000000       0.11666667       0.08333333 </v>
   <v>       0.48333333       0.11666667       0.08333333 </v>
   <v>      -0.48333333       0.11666667       0.08333333 </v>
   <v>      -0.45000000       0.11666667       0.08333333 </v>
   <v>      -0.41666667       0.11666667       0.08333333 </v>
   <v>      -0.38333333       0.11666667       0.08333333 </v>
   <v>      -0.35000000       0.11666667       0.08333333 </v>
   <v>      -0.31666667       0.11666667       0.08333333 </v>
   <v>      -0.28333333       0.11666667       0.08333333 </v>
   <v>      -0.25000000       0.11666667       0.08333333 </v>
   <v>      -0.21666667       0.11666667       0.08333333 </v>
   <v>      -0.18333333       0.11666667       0.08333333 </v>
   <v>      -0.15000000       0.11666667       0.08333333 </v>
   <v>      -0.11666667       0.11666667       0.08333333 </v>
   <v>      -0.08333333       0.11666667       0.08333333 </v>
   <v>       0.15000000       0.15000000       0.08333333 </v>
   <v>       0.18333333       0.15000000       0.08333333 </v>
   <v>       0.21666667       0.15000000       0.08333333 </v>
   <v>       0.25000000       0.15000000       0.08333333 </v>
   <v>       0.28333333       0.15000000       0.08333333 </v>
   <v>       0.31666667       0.15000000       0.08333333 </v>
   <v>       0.35000000       0.15000000       0.08333333 </v>
   <v>       0.38333333       0.15000000       0.08333333 </v>
   <v>       0.41666667       0.15000000       0.08333333 </v>
   <v>       0.45000000       0.15000000       0.08333333 </v>
   <v>       0.48333333       0.15000000       0.08333333 </v>
   <v>      -0.48333333       0.15000000       0.08333333 </v>
   <v>      -0.45000000       0.15000000       0.08333333 </v>
   <v>      -0.41666667       0.15000000       0.08333333 </v>
   <v>      -0.38333333       0.15000000       0.08333333 </v>
   <v>      -0.35000000       0.15000000       0.08333333 </v>
   <v>      -0.31666667       0.15000000       0.08333333 </v>
   <v>      -0.28333333       0.15000000       0.08333333 </v>
   <v>      -0.25000000       0.15000000       0.08333333 </v>
   <v>      -0.21666667       0.15000000       0.08333333 </v>
   <v>      -0.18333333       0.15000000       0.08333333 </v>
   <v>      -0.15000000       0.15000000       0.08333333 </v>
   <v>      -0.11666667       0.15000000       0.08333333 </v>
   <v>      -0.08333333       0.15000000       0.08333333 </v>
   <v>       0.18333333       0.18333333       0.08333333 </v>
   <v>       0.21666667       0.18333333       0.08333333 </v>
   <v>       0.25000000       0.18333333       0.08333333 </v>
   <v>       0.28333333       0.18333333       0.08333333 </v>
   <v>       0.31666667       0.18333333       0.08333333 </v>
   <v>       0.35000000       0.18333333       0.08333333 </v>
   <v>       0.38333333       0.18333333       0.08333333 </v>
   <v>       0.41666667       0.18333333       0.08333333 </v>
   <v>       0.45000000       0.18333333       0.08333333 </v>
   <v>       0.48333333       0.18333333       0.08333333 </v>
   <v>      -0.48333333       0.18333333       0.08333333 </v>
   <v>      -0.45000000       0.18333333       0.08333333 </v>
   <v>      -0.41666667       0.18333333       0.08333333 </v>
   <v>      -0.38333333       0.18333333       0.08333333 </v>
   <v>      -0.35000000       0.18333333       0.08333333 </v>
   <v>      -0.31666667       0.18333333       0.08333333 </v>
   <v>      -0.28333333       0.18333333       0.08333333 </v>
   <v>      -0.25000000       0.18333333       0.08333333 </v>
   <v>      -0.21666667       0.18333333       0.08333333 </v>
   <v>      -0.18333333       0.18333333       0.08333333 </v>
   <v>      -0.15000000       0.18333333       0.08333333 </v>
   <v>      -0.11666667       0.18333333       0.08333333 </v>
   <v>      -0.08333333       0.18333333       0.08333333 </v>
   <v>       0.21666667       0.21666667       0.08333333 </v>
   <v>       0.25000000       0.21666667       0.08333333 </v>
   <v>       0.28333333       0.21666667       0.08333333 </v>
   <v>       0.31666667       0.21666667       0.08333333 </v>
   <v>       0.35000000       0.21666667       0.08333333 </v>
   <v>       0.38333333       0.21666667       0.08333333 </v>
   <v>       0.41666667       0.21666667       0.08333333 </v>
   <v>       0.45000000       0.21666667       0.08333333 </v>
   <v>       0.48333333       0.21666667       0.08333333 </v>
   <v>      -0.48333333       0.21666667       0.08333333 </v>
   <v>      -0.45000000       0.21666667       0.08333333 </v>
   <v>      -0.41666667       0.21666667       0.08333333 </v>
   <v>      -0.38333333       0.21666667       0.08333333 </v>
   <v>      -0.35000000       0.21666667       0.08333333 </v>
   <v>      -0.31666667       0.21666667       0.08333333 </v>
   <v>      -0.28333333       0.21666667       0.08333333 </v>
   <v>      -0.25000000       0.21666667       0.08333333 </v>
   <v>      -0.21666667       0.21666667       0.08333333 </v>
   <v>      -0.18333333       0.21666667       0.08333333 </v>
   <v>      -0.15000000       0.21666667       0.08333333 </v>
   <v>      -0.11666667       0.21666667       0.08333333 </v>
   <v>      -0.08333333       0.21666667       0.08333333 </v>
   <v>       0.25000000       0.25000000       0.08333333 </v>
   <v>       0.28333333       0.25000000       0.08333333 </v>
   <v>       0.31666667       0.25000000       0.08333333 </v>
   <v>       0.35000000       0.25000000       0.08333333 </v>
   <v>       0.38333333       0.25000000       0.08333333 </v>
   <v>       0.41666667       0.25000000       0.08333333 </v>
   <v>       0.45000000       0.25000000       0.08333333 </v>
   <v>       0.48333333       0.25000000       0.08333333 </v>
   <v>      -0.48333333       0.25000000       0.08333333 </v>
   <v>      -0.45000000       0.25000000       0.08333333 </v>
   <v>      -0.41666667       0.25000000       0.08333333 </v>
   <v>      -0.38333333       0.25000000       0.08333333 </v>
   <v>      -0.35000000       0.25000000       0.08333333 </v>
   <v>      -0.31666667       0.25000000       0.08333333 </v>
   <v>      -0.28333333       0.25000000       0.08333333 </v>
   <v>      -0.25000000       0.25000000       0.08333333 </v>
   <v>      -0.21666667       0.25000000       0.08333333 </v>
   <v>      -0.18333333       0.25000000       0.08333333 </v>
   <v>      -0.15000000       0.25000000       0.08333333 </v>
   <v>      -0.11666667       0.25000000       0.08333333 </v>
   <v>      -0.08333333       0.25000000       0.08333333 </v>
   <v>       0.28333333       0.28333333       0.08333333 </v>
   <v>       0.31666667       0.28333333       0.08333333 </v>
   <v>       0.35000000       0.28333333       0.08333333 </v>
   <v>       0.38333333       0.28333333       0.08333333 </v>
   <v>       0.41666667       0.28333333       0.08333333 </v>
   <v>       0.45000000       0.28333333       0.08333333 </v>
   <v>       0.48333333       0.28333333       0.08333333 </v>
   <v>      -0.48333333       0.28333333       0.08333333 </v>
   <v>      -0.45000000       0.28333333       0.08333333 </v>
   <v>      -0.41666667       0.28333333       0.08333333 </v>
   <v>      -0.38333333       0.28333333       0.08333333 </v>
   <v>      -0.35000000       0.28333333       0.08333333 </v>
   <v>      -0.31666667       0.28333333       0.08333333 </v>
   <v>      -0.28333333       0.28333333       0.08333333 </v>
   <v>      -0.25000000       0.28333333       0.08333333 </v>
   <v>      -0.21666667       0.28333333       0.08333333 </v>
   <v>      -0.18333333       0.28333333       0.08333333 </v>
   <v>      -0.15000000       0.28333333       0.08333333 </v>
   <v>      -0.11666667       0.28333333       0.08333333 </v>
   <v>      -0.08333333       0.28333333       0.08333333 </v>
   <v>       0.31666667       0.31666667       0.08333333 </v>
   <v>       0.35000000       0.31666667       0.08333333 </v>
   <v>       0.38333333       0.31666667       0.08333333 </v>
   <v>       0.41666667       0.31666667       0.08333333 </v>
   <v>       0.45000000       0.31666667       0.08333333 </v>
   <v>       0.48333333       0.31666667       0.08333333 </v>
   <v>      -0.48333333       0.31666667       0.08333333 </v>
   <v>      -0.45000000       0.31666667       0.08333333 </v>
   <v>      -0.41666667       0.31666667       0.08333333 </v>
   <v>      -0.38333333       0.31666667       0.08333333 </v>
   <v>      -0.35000000       0.31666667       0.08333333 </v>
   <v>      -0.31666667       0.31666667       0.08333333 </v>
   <v>      -0.28333333       0.31666667       0.08333333 </v>
   <v>      -0.25000000       0.31666667       0.08333333 </v>
   <v>      -0.21666667       0.31666667       0.08333333 </v>
   <v>      -0.18333333       0.31666667       0.08333333 </v>
   <v>      -0.15000000       0.31666667       0.08333333 </v>
   <v>      -0.11666667       0.31666667       0.08333333 </v>
   <v>      -0.08333333       0.31666667       0.08333333 </v>
   <v>       0.35000000       0.35000000       0.08333333 </v>
   <v>       0.38333333       0.35000000       0.08333333 </v>
   <v>       0.41666667       0.35000000       0.08333333 </v>
   <v>       0.45000000       0.35000000       0.08333333 </v>
   <v>       0.48333333       0.35000000       0.08333333 </v>
   <v>      -0.48333333       0.35000000       0.08333333 </v>
   <v>      -0.45000000       0.35000000       0.08333333 </v>
   <v>      -0.41666667       0.35000000       0.08333333 </v>
   <v>      -0.38333333       0.35000000       0.08333333 </v>
   <v>      -0.35000000       0.35000000       0.08333333 </v>
   <v>      -0.31666667       0.35000000       0.08333333 </v>
   <v>      -0.28333333       0.35000000       0.08333333 </v>
   <v>      -0.25000000       0.35000000       0.08333333 </v>
   <v>      -0.21666667       0.35000000       0.08333333 </v>
   <v>      -0.18333333       0.35000000       0.08333333 </v>
   <v>      -0.15000000       0.35000000       0.08333333 </v>
   <v>      -0.11666667       0.35000000       0.08333333 </v>
   <v>      -0.08333333       0.35000000       0.08333333 </v>
   <v>       0.38333333       0.38333333       0.08333333 </v>
   <v>       0.41666667       0.38333333       0.08333333 </v>
   <v>       0.45000000       0.38333333       0.08333333 </v>
   <v>       0.48333333       0.38333333       0.08333333 </v>
   <v>      -0.48333333       0.38333333       0.08333333 </v>
   <v>      -0.45000000       0.38333333       0.08333333 </v>
   <v>      -0.41666667       0.38333333       0.08333333 </v>
   <v>      -0.38333333       0.38333333       0.08333333 </v>
   <v>      -0.35000000       0.38333333       0.08333333 </v>
   <v>      -0.31666667       0.38333333       0.08333333 </v>
   <v>      -0.28333333       0.38333333       0.08333333 </v>
   <v>      -0.25000000       0.38333333       0.08333333 </v>
   <v>      -0.21666667       0.38333333       0.08333333 </v>
   <v>      -0.18333333       0.38333333       0.08333333 </v>
   <v>      -0.15000000       0.38333333       0.08333333 </v>
   <v>      -0.11666667       0.38333333       0.08333333 </v>
   <v>      -0.08333333       0.38333333       0.08333333 </v>
   <v>       0.41666667       0.41666667       0.08333333 </v>
   <v>       0.45000000       0.41666667       0.08333333 </v>
   <v>       0.48333333       0.41666667       0.08333333 </v>
   <v>      -0.48333333       0.41666667       0.08333333 </v>
   <v>      -0.45000000       0.41666667       0.08333333 </v>
   <v>      -0.41666667       0.41666667       0.08333333 </v>
   <v>      -0.38333333       0.41666667       0.08333333 </v>
   <v>      -0.35000000       0.41666667       0.08333333 </v>
   <v>      -0.31666667       0.41666667       0.08333333 </v>
   <v>      -0.28333333       0.41666667       0.08333333 </v>
   <v>      -0.25000000       0.41666667       0.08333333 </v>
   <v>      -0.21666667       0.41666667       0.08333333 </v>
   <v>      -0.18333333       0.41666667       0.08333333 </v>
   <v>      -0.15000000       0.41666667       0.08333333 </v>
   <v>      -0.11666667       0.41666667       0.08333333 </v>
   <v>      -0.08333333       0.41666667       0.08333333 </v>
   <v>       0.45000000       0.45000000       0.08333333 </v>
   <v>       0.48333333       0.45000000       0.08333333 </v>
   <v>      -0.48333333       0.45000000       0.08333333 </v>
   <v>      -0.45000000       0.45000000       0.08333333 </v>
   <v>      -0.41666667       0.45000000       0.08333333 </v>
   <v>      -0.38333333       0.45000000       0.08333333 </v>
   <v>      -0.35000000       0.45000000       0.08333333 </v>
   <v>      -0.31666667       0.45000000       0.08333333 </v>
   <v>      -0.28333333       0.45000000       0.08333333 </v>
   <v>      -0.25000000       0.45000000       0.08333333 </v>
   <v>      -0.21666667       0.45000000       0.08333333 </v>
   <v>      -0.18333333       0.45000000       0.08333333 </v>
   <v>      -0.15000000       0.45000000       0.08333333 </v>
   <v>      -0.11666667       0.45000000       0.08333333 </v>
   <v>      -0.08333333       0.45000000       0.08333333 </v>
   <v>       0.48333333       0.48333333       0.08333333 </v>
   <v>      -0.48333333       0.48333333       0.08333333 </v>
   <v>      -0.45000000       0.48333333       0.08333333 </v>
   <v>      -0.41666667       0.48333333       0.08333333 </v>
   <v>      -0.38333333       0.48333333       0.08333333 </v>
   <v>      -0.35000000       0.48333333       0.08333333 </v>
   <v>      -0.31666667       0.48333333       0.08333333 </v>
   <v>      -0.28333333       0.48333333       0.08333333 </v>
   <v>      -0.25000000       0.48333333       0.08333333 </v>
   <v>      -0.21666667       0.48333333       0.08333333 </v>
   <v>      -0.18333333       0.48333333       0.08333333 </v>
   <v>      -0.15000000       0.48333333       0.08333333 </v>
   <v>      -0.11666667       0.48333333       0.08333333 </v>
   <v>      -0.08333333       0.48333333       0.08333333 </v>
   <v>      -0.48333333      -0.48333333       0.08333333 </v>
   <v>      -0.45000000      -0.48333333       0.08333333 </v>
   <v>      -0.41666667      -0.48333333       0.08333333 </v>
   <v>      -0.38333333      -0.48333333       0.08333333 </v>
   <v>      -0.35000000      -0.48333333       0.08333333 </v>
   <v>      -0.31666667      -0.48333333       0.08333333 </v>
   <v>      -0.28333333      -0.48333333       0.08333333 </v>
   <v>      -0.25000000      -0.48333333       0.08333333 </v>
   <v>      -0.21666667      -0.48333333       0.08333333 </v>
   <v>      -0.18333333      -0.48333333       0.08333333 </v>
   <v>      -0.15000000      -0.48333333       0.08333333 </v>
   <v>      -0.11666667      -0.48333333       0.08333333 </v>
   <v>      -0.45000000      -0.45000000       0.08333333 </v>
   <v>      -0.41666667      -0.45000000       0.08333333 </v>
   <v>      -0.38333333      -0.45000000       0.08333333 </v>
   <v>      -0.35000000      -0.45000000       0.08333333 </v>
   <v>      -0.31666667      -0.45000000       0.08333333 </v>
   <v>      -0.28333333      -0.45000000       0.08333333 </v>
   <v>      -0.25000000      -0.45000000       0.08333333 </v>
   <v>      -0.21666667      -0.45000000       0.08333333 </v>
   <v>      -0.18333333      -0.45000000       0.08333333 </v>
   <v>      -0.15000000      -0.45000000       0.08333333 </v>
   <v>      -0.11666667      -0.45000000       0.08333333 </v>
   <v>      -0.41666667      -0.41666667       0.08333333 </v>
   <v>      -0.38333333      -0.41666667       0.08333333 </v>
   <v>      -0.35000000      -0.41666667       0.08333333 </v>
   <v>      -0.31666667      -0.41666667       0.08333333 </v>
   <v>      -0.28333333      -0.41666667       0.08333333 </v>
   <v>      -0.25000000      -0.41666667       0.08333333 </v>
   <v>      -0.21666667      -0.41666667       0.08333333 </v>
   <v>      -0.18333333      -0.41666667       0.08333333 </v>
   <v>      -0.15000000      -0.41666667       0.08333333 </v>
   <v>      -0.11666667      -0.41666667       0.08333333 </v>
   <v>      -0.38333333      -0.38333333       0.08333333 </v>
   <v>      -0.35000000      -0.38333333       0.08333333 </v>
   <v>      -0.31666667      -0.38333333       0.08333333 </v>
   <v>      -0.28333333      -0.38333333       0.08333333 </v>
   <v>      -0.25000000      -0.38333333       0.08333333 </v>
   <v>      -0.21666667      -0.38333333       0.08333333 </v>
   <v>      -0.18333333      -0.38333333       0.08333333 </v>
   <v>      -0.15000000      -0.38333333       0.08333333 </v>
   <v>      -0.11666667      -0.38333333       0.08333333 </v>
   <v>      -0.35000000      -0.35000000       0.08333333 </v>
   <v>      -0.31666667      -0.35000000       0.08333333 </v>
   <v>      -0.28333333      -0.35000000       0.08333333 </v>
   <v>      -0.25000000      -0.35000000       0.08333333 </v>
   <v>      -0.21666667      -0.35000000       0.08333333 </v>
   <v>      -0.18333333      -0.35000000       0.08333333 </v>
   <v>      -0.15000000      -0.35000000       0.08333333 </v>
   <v>      -0.11666667      -0.35000000       0.08333333 </v>
   <v>      -0.31666667      -0.31666667       0.08333333 </v>
   <v>      -0.28333333      -0.31666667       0.08333333 </v>
   <v>      -0.25000000      -0.31666667       0.08333333 </v>
   <v>      -0.21666667      -0.31666667       0.08333333 </v>
   <v>      -0.18333333      -0.31666667       0.08333333 </v>
   <v>      -0.15000000      -0.31666667       0.08333333 </v>
   <v>      -0.11666667      -0.31666667       0.08333333 </v>
   <v>      -0.28333333      -0.28333333       0.08333333 </v>
   <v>      -0.25000000      -0.28333333       0.08333333 </v>
   <v>      -0.21666667      -0.28333333       0.08333333 </v>
   <v>      -0.18333333      -0.28333333       0.08333333 </v>
   <v>      -0.15000000      -0.28333333       0.08333333 </v>
   <v>      -0.11666667      -0.28333333       0.08333333 </v>
   <v>      -0.25000000      -0.25000000       0.08333333 </v>
   <v>      -0.21666667      -0.25000000       0.08333333 </v>
   <v>      -0.18333333      -0.25000000       0.08333333 </v>
   <v>      -0.15000000      -0.25000000       0.08333333 </v>
   <v>      -0.11666667      -0.25000000       0.08333333 </v>
   <v>      -0.21666667      -0.21666667       0.08333333 </v>
   <v>      -0.18333333      -0.21666667       0.08333333 </v>
   <v>      -0.15000000      -0.21666667       0.08333333 </v>
   <v>      -0.11666667      -0.21666667       0.08333333 </v>
   <v>      -0.18333333      -0.18333333       0.08333333 </v>
   <v>      -0.15000000      -0.18333333       0.08333333 </v>
   <v>      -0.11666667      -0.18333333       0.08333333 </v>
   <v>      -0.15000000      -0.15000000       0.08333333 </v>
   <v>      -0.11666667      -0.15000000       0.08333333 </v>
   <v>      -0.11666667      -0.11666667       0.08333333 </v>
   <v>       0.11666667       0.11666667       0.11666667 </v>
   <v>       0.15000000       0.11666667       0.11666667 </v>
   <v>       0.18333333       0.11666667       0.11666667 </v>
   <v>       0.21666667       0.11666667       0.11666667 </v>
   <v>       0.25000000       0.11666667       0.11666667 </v>
   <v>       0.28333333       0.11666667       0.11666667 </v>
   <v>       0.31666667       0.11666667       0.11666667 </v>
   <v>       0.35000000       0.11666667       0.11666667 </v>
   <v>       0.38333333       0.11666667       0.11666667 </v>
   <v>       0.41666667       0.11666667       0.11666667 </v>
   <v>       0.45000000       0.11666667       0.11666667 </v>
   <v>       0.48333333       0.11666667       0.11666667 </v>
   <v>      -0.48333333       0.11666667       0.11666667 </v>
   <v>      -0.45000000       0.11666667       0.11666667 </v>
   <v>      -0.41666667       0.11666667       0.11666667 </v>
   <v>      -0.38333333       0.11666667       0.11666667 </v>
   <v>      -0.35000000       0.11666667       0.11666667 </v>
   <v>      -0.31666667       0.11666667       0.11666667 </v>
   <v>      -0.28333333       0.11666667       0.11666667 </v>
   <v>      -0.25000000       0.11666667       0.11666667 </v>
   <v>      -0.21666667       0.11666667       0.11666667 </v>
   <v>      -0.18333333       0.11666667       0.11666667 </v>
   <v>      -0.15000000       0.11666667       0.11666667 </v>
   <v>      -0.11666667       0.11666667       0.11666667 </v>
   <v>       0.15000000       0.15000000       0.11666667 </v>
   <v>       0.18333333       0.15000000       0.11666667 </v>
   <v>       0.21666667       0.15000000       0.11666667 </v>
   <v>       0.25000000       0.15000000       0.11666667 </v>
   <v>       0.28333333       0.15000000       0.11666667 </v>
   <v>       0.31666667       0.15000000       0.11666667 </v>
   <v>       0.35000000       0.15000000       0.11666667 </v>
   <v>       0.38333333       0.15000000       0.11666667 </v>
   <v>       0.41666667       0.15000000       0.11666667 </v>
   <v>       0.45000000       0.15000000       0.11666667 </v>
   <v>       0.48333333       0.15000000       0.11666667 </v>
   <v>      -0.48333333       0.15000000       0.11666667 </v>
   <v>      -0.45000000       0.15000000       0.11666667 </v>
   <v>      -0.41666667       0.15000000       0.11666667 </v>
   <v>      -0.38333333       0.15000000       0.11666667 </v>
   <v>      -0.35000000       0.15000000       0.11666667 </v>
   <v>      -0.31666667       0.15000000       0.11666667 </v>
   <v>      -0.28333333       0.15000000       0.11666667 </v>
   <v>      -0.25000000       0.15000000       0.11666667 </v>
   <v>      -0.21666667       0.15000000       0.11666667 </v>
   <v>      -0.18333333       0.15000000       0.11666667 </v>
   <v>      -0.15000000       0.15000000       0.11666667 </v>
   <v>      -0.11666667       0.15000000       0.11666667 </v>
   <v>       0.18333333       0.18333333       0.11666667 </v>
   <v>       0.21666667       0.18333333       0.11666667 </v>
   <v>       0.25000000       0.18333333       0.11666667 </v>
   <v>       0.28333333       0.18333333       0.11666667 </v>
   <v>       0.31666667       0.18333333       0.11666667 </v>
   <v>       0.35000000       0.18333333       0.11666667 </v>
   <v>       0.38333333       0.18333333       0.11666667 </v>
[...]
       <r>    0.2678    1.0000 </r>
       <r>    1.0603    1.0000 </r>
       <r>    4.2430   -0.0000 </r>
       <r>    6.7067   -0.0000 </r>
       <r>    7.5163   -0.0000 </r>
       <r>   10.2145    0.0000 </r>
      </set>
      <set comment="kpoint 2470">
       <r>   -8.3674    1.0000 </r>
       <r>   -3.9214    1.0000 </r>
       <r>    0.0961    1.0000 </r>
       <r>    1.0447    1.0000 </r>
       <r>    4.3490   -0.0000 </r>
       <r>    6.7492   -0.0000 </r>
       <r>    7.5866   -0.0000 </r>
       <r>   10.1945    0.0000 </r>
      </set>
      <set comment="kpoint 2471">
       <r>   -8.5485    1.0000 </r>
       <r>   -3.8710    1.0000 </r>
       <r>    1.3074    1.0000 </r>
       <r>    1.3074    1.0000 </r>
       <r>    3.2488   -0.0000 </r>
       <r>    6.9938   -0.0000 </r>
       <r>    6.9938   -0.0000 </r>
       <r>   10.0283    0.0000 </r>
      </set>
      <set comment="kpoint 2472">
       <r>   -8.5175    1.0000 </r>
       <r>   -3.9120    1.0000 </r>
       <r>    1.1572    1.0000 </r>
       <r>    1.3017    1.0000 </r>
       <r>    3.3665   -0.0000 </r>
       <r>    6.9774   -0.0000 </r>
       <r>    7.0088   -0.0000 </r>
       <r>   10.0729    0.0000 </r>
      </set>
      <set comment="kpoint 2473">
       <r>   -8.4763    1.0000 </r>
       <r>   -3.9328    1.0000 </r>
       <r>    0.8461    1.0000 </r>
       <r>    1.2516    1.0000 </r>
       <r>    3.6614   -0.0000 </r>
       <r>    6.8957   -0.0000 </r>
       <r>    7.1173   -0.0000 </r>
       <r>   10.1805    0.0000 </r>
      </set>
      <set comment="kpoint 2474">
       <r>   -8.4258    1.0000 </r>
       <r>   -3.9348    1.0000 </r>
       <r>    0.4736    1.0000 </r>
       <r>    1.1631    1.0000 </r>
       <r>    4.0183   -0.0000 </r>
       <r>    6.7973   -0.0000 </r>
       <r>    7.3133   -0.0000 </r>
       <r>   10.2664    0.0000 </r>
      </set>
      <set comment="kpoint 2475">
       <r>   -8.4999    1.0000 </r>
       <r>   -3.9463    1.0000 </r>
       <r>    1.1837    1.0000 </r>
       <r>    1.2626    1.0000 </r>
       <r>    3.3623   -0.0000 </r>
       <r>    6.9374   -0.0000 </r>
       <r>    7.0445   -0.0000 </r>
       <r>   10.0749    0.0000 </r>
      </set>
      <set comment="kpoint 2476">
       <r>   -8.4722    1.0000 </r>
       <r>   -3.9603    1.0000 </r>
       <r>    0.9576    1.0000 </r>
       <r>    1.2370    1.0000 </r>
       <r>    3.5701   -0.0000 </r>
       <r>    6.8864   -0.0000 </r>
       <r>    7.1112   -0.0000 </r>
       <r>   10.1523    0.0000 </r>
      </set>
      <set comment="kpoint 2477">
       <r>   -8.4351    1.0000 </r>
       <r>   -3.9546    1.0000 </r>
       <r>    0.6271    1.0000 </r>
       <r>    1.1679    1.0000 </r>
       <r>    3.8949   -0.0000 </r>
       <r>    6.7929   -0.0000 </r>
       <r>    7.2692   -0.0000 </r>
       <r>   10.2452    0.0000 </r>
      </set>
      <set comment="kpoint 2478">
       <r>   -8.4584    1.0000 </r>
       <r>   -3.9674    1.0000 </r>
       <r>    0.8690    1.0000 </r>
       <r>    1.2134    1.0000 </r>
       <r>    3.6593   -0.0000 </r>
       <r>    6.8580   -0.0000 </r>
       <r>    7.1524   -0.0000 </r>
       <r>   10.1830    0.0000 </r>
      </set>
      <set comment="kpoint 2479">
       <r>   -8.4960    1.0000 </r>
       <r>   -3.9740    1.0000 </r>
       <r>    1.2909    1.0000 </r>
       <r>    1.2909    1.0000 </r>
       <r>    3.2314   -0.0000 </r>
       <r>    6.9861   -0.0000 </r>
       <r>    6.9861   -0.0000 </r>
       <r>   10.0333    0.0000 </r>
      </set>
      <set comment="kpoint 2480">
       <r>   -8.4821    1.0000 </r>
       <r>   -3.9809    1.0000 </r>
       <r>    1.1620    1.0000 </r>
       <r>    1.2739    1.0000 </r>
       <r>    3.3558   -0.0000 </r>
       <r>    6.9532   -0.0000 </r>
       <r>    7.0228   -0.0000 </r>
       <r>   10.0807    0.0000 </r>
      </set>
     </set>
    </set>
   </array>
  </eigenvalues>
  <separator name="orbital magnetization" >
   <v name="MAGDIPOLOUT">      0.00000000      0.00000000      0.00000000</v>
  </separator>
  <dos>
   <i name="efermi">      2.38344358 </i>
   <total>
    <array>
     <dimension dim="1">gridpoints</dimension>
     <dimension dim="2">spin</dimension>
     <field>energy</field>
     <field>total</field>
     <field>integrated</field>
     <set>
      <set comment="spin 1">
       <r>   -11.9901     0.0000     0.0000 </r>
       <r>   -11.9032     0.0000     0.0000 </r>
       <r>   -11.8162     0.0000     0.0000 </r>
       <r>   -11.7293     0.0000     0.0000 </r>
       <r>   -11.6424    -0.0000    -0.0000 </r>
       <r>   -11.5554    -0.0000    -0.0000 </r>
       <r>   -11.4685    -0.0000    -0.0000 </r>
       <r>   -11.3815    -0.0000    -0.0000 </r>
       <r>   -11.2946    -0.0000    -0.0000 </r>
       <r>   -11.2077    -0.0000    -0.0000 </r>
       <r>   -11.1207    -0.0000    -0.0000 </r>
       <r>   -11.0338    -0.0000    -0.0000 </r>
       <r>   -10.9468    -0.0000    -0.0000 </r>
       <r>   -10.8599    -0.0000    -0.0000 </r>
       <r>   -10.7730    -0.0000    -0.0000 </r>
       <r>   -10.6860    -0.0000    -0.0000 </r>
       <r>   -10.5991    -0.0000    -0.0000 </r>
       <r>   -10.5121    -0.0000    -0.0000 </r>
       <r>   -10.4252    -0.0002    -0.0000 </r>
       <r>   -10.3383    -0.0011    -0.0001 </r>
       <r>   -10.2513    -0.0036    -0.0004 </r>
       <r>   -10.1644    -0.0061    -0.0010 </r>
       <r>   -10.0775     0.0008    -0.0009 </r>
       <r>    -9.9905     0.0333     0.0020 </r>
       <r>    -9.9036     0.0961     0.0104 </r>
       <r>    -9.8166     0.1724     0.0253 </r>
       <r>    -9.7297     0.2409     0.0463 </r>
       <r>    -9.6428     0.2958     0.0720 </r>
       <r>    -9.5558     0.3425     0.1018 </r>
       <r>    -9.4689     0.3864     0.1354 </r>
       <r>    -9.3819     0.4299     0.1728 </r>
       <r>    -9.2950     0.4740     0.2140 </r>
       <r>    -9.2081     0.5196     0.2591 </r>
       <r>    -9.1211     0.5677     0.3085 </r>
       <r>    -9.0342     0.6193     0.3623 </r>
       <r>    -8.9472     0.6756     0.4211 </r>
       <r>    -8.8603     0.7386     0.4853 </r>
       <r>    -8.7734     0.8139     0.5560 </r>
       <r>    -8.6864     0.9171     0.6358 </r>
       <r>    -8.5995     1.0700     0.7288 </r>
       <r>    -8.5126     1.2687     0.8391 </r>
       <r>    -8.4256     1.4550     0.9656 </r>
       <r>    -8.3387     1.5624     1.1014 </r>
       <r>    -8.2517     1.5890     1.2396 </r>
       <r>    -8.1648     1.5943     1.3782 </r>
       <r>    -8.0779     1.6399     1.5207 </r>
       <r>    -7.9909     1.7214     1.6704 </r>
       <r>    -7.9040     1.6885     1.8172 </r>
       <r>    -7.8170     1.3334     1.9331 </r>
       <r>    -7.7301     0.7125     1.9951 </r>
       <r>    -7.6432     0.1803     2.0107 </r>
       <r>    -7.5562    -0.0422     2.0071 </r>
       <r>    -7.4693    -0.0541     2.0024 </r>
       <r>    -7.3823    -0.0215     2.0005 </r>
       <r>    -7.2954    -0.0049     2.0001 </r>
       <r>    -7.2085    -0.0007     2.0000 </r>
       <r>    -7.1215    -0.0001     2.0000 </r>
       <r>    -7.0346    -0.0000     2.0000 </r>
       <r>    -6.9476    -0.0000     2.0000 </r>
       <r>    -6.8607    -0.0000     2.0000 </r>
       <r>    -6.7738    -0.0000     2.0000 </r>
       <r>    -6.6868    -0.0000     2.0000 </r>
       <r>    -6.5999    -0.0000     2.0000 </r>
       <r>    -6.5130    -0.0000     2.0000 </r>
       <r>    -6.4260     0.0000     2.0000 </r>
       <r>    -6.3391     0.0000     2.0000 </r>
       <r>    -6.2521     0.0000     2.0000 </r>
       <r>    -6.1652     0.0000     2.0000 </r>
       <r>    -6.0783     0.0000     2.0000 </r>
       <r>    -5.9913     0.0000     2.0000 </r>
       <r>    -5.9044     0.0000     2.0000 </r>
       <r>    -5.8174    -0.0000     2.0000 </r>
       <r>    -5.7305    -0.0000     2.0000 </r>
       <r>    -5.6436    -0.0000     2.0000 </r>
       <r>    -5.5566    -0.0000     2.0000 </r>
       <r>    -5.4697    -0.0000     2.0000 </r>
       <r>    -5.3827    -0.0000     2.0000 </r>
       <r>    -5.2958    -0.0000     2.0000 </r>
       <r>    -5.2089    -0.0000     2.0000 </r>
       <r>    -5.1219    -0.0000     2.0000 </r>
       <r>    -5.0350    -0.0000     2.0000 </r>
       <r>    -4.9481    -0.0000     2.0000 </r>
       <r>    -4.8611    -0.0000     2.0000 </r>
       <r>    -4.7742    -0.0000     2.0000 </r>
       <r>    -4.6872    -0.0003     2.0000 </r>
       <r>    -4.6003    -0.0018     1.9998 </r>
       <r>    -4.5134    -0.0084     1.9991 </r>
       <r>    -4.4264    -0.0253     1.9969 </r>
       <r>    -4.3395    -0.0428     1.9932 </r>
       <r>    -4.2525    -0.0020     1.9930 </r>
       <r>    -4.1656     0.2158     2.0118 </r>
       <r>    -4.0787     0.7259     2.0749 </r>
       <r>    -3.9917     1.4977     2.2051 </r>
       <r>    -3.9048     2.2197     2.3981 </r>
       <r>    -3.8178     2.4529     2.6113 </r>
       <r>    -3.7309     2.1022     2.7941 </r>
       <r>    -3.6440     1.5365     2.9277 </r>
       <r>    -3.5570     1.1179     3.0249 </r>
       <r>    -3.4701     0.8991     3.1030 </r>
       <r>    -3.3832     0.7815     3.1710 </r>
       <r>    -3.2962     0.6981     3.2317 </r>
       <r>    -3.2093     0.6294     3.2864 </r>
       <r>    -3.1223     0.5713     3.3360 </r>
       <r>    -3.0354     0.5219     3.3814 </r>
       <r>    -2.9485     0.4793     3.4231 </r>
       <r>    -2.8615     0.4421     3.4615 </r>
       <r>    -2.7746     0.4094     3.4971 </r>
       <r>    -2.6876     0.3802     3.5302 </r>
       <r>    -2.6007     0.3542     3.5610 </r>
       <r>    -2.5138     0.3305     3.5897 </r>
       <r>    -2.4268     0.3090     3.6166 </r>
       <r>    -2.3399     0.2895     3.6417 </r>
       <r>    -2.2529     0.2713     3.6653 </r>
       <r>    -2.1660     0.2547     3.6874 </r>
       <r>    -2.0791     0.2394     3.7083 </r>
       <r>    -1.9921     0.2249     3.7278 </r>
       <r>    -1.9052     0.2116     3.7462 </r>
       <r>    -1.8182     0.1988     3.7635 </r>
       <r>    -1.7313     0.1852     3.7796 </r>
       <r>    -1.6444     0.1675     3.7941 </r>
       <r>    -1.5574     0.1436     3.8066 </r>
       <r>    -1.4705     0.1331     3.8182 </r>
       <r>    -1.3836     0.1980     3.8354 </r>
       <r>    -1.2966     0.4083     3.8709 </r>
       <r>    -1.2097     0.7559     3.9366 </r>
       <r>    -1.1227     1.1178     4.0338 </r>
       <r>    -1.0358     1.3402     4.1503 </r>
       <r>    -0.9489     1.3699     4.2694 </r>
       <r>    -0.8619     1.2832     4.3810 </r>
       <r>    -0.7750     1.1882     4.4843 </r>
       <r>    -0.6880     1.1393     4.5833 </r>
       <r>    -0.6011     1.1366     4.6821 </r>
       <r>    -0.5142     1.1602     4.7830 </r>
       <r>    -0.4272     1.1991     4.8873 </r>
       <r>    -0.3403     1.2592     4.9967 </r>
       <r>    -0.2533     1.3552     5.1146 </r>
       <r>    -0.1664     1.4860     5.2437 </r>
       <r>    -0.0795     1.6115     5.3839 </r>
       <r>     0.0075     1.6803     5.5299 </r>
       <r>     0.0944     1.6836     5.6763 </r>
       <r>     0.1813     1.6542     5.8201 </r>
       <r>     0.2683     1.6211     5.9611 </r>
       <r>     0.3552     1.5918     6.0994 </r>
       <r>     0.4422     1.5656     6.2356 </r>
       <r>     0.5291     1.5407     6.3695 </r>
       <r>     0.6160     1.5164     6.5013 </r>
       <r>     0.7030     1.4927     6.6311 </r>
       <r>     0.7899     1.4699     6.7589 </r>
       <r>     0.8769     1.4480     6.8848 </r>
       <r>     0.9638     1.4286     7.0090 </r>
       <r>     1.0507     1.4138     7.1319 </r>
       <r>     1.1377     1.3964     7.2533 </r>
       <r>     1.2246     1.3493     7.3706 </r>
       <r>     1.3116     1.2397     7.4784 </r>
       <r>     1.3985     1.0718     7.5716 </r>
       <r>     1.4854     0.8950     7.6494 </r>
       <r>     1.5724     0.7523     7.7148 </r>
       <r>     1.6593     0.6473     7.7711 </r>
       <r>     1.7462     0.5640     7.8201 </r>
       <r>     1.8332     0.4911     7.8628 </r>
       <r>     1.9201     0.4245     7.8997 </r>
       <r>     2.0071     0.3622     7.9312 </r>
       <r>     2.0940     0.3009     7.9574 </r>
       <r>     2.1809     0.2348     7.9778 </r>
       <r>     2.2679     0.1596     7.9917 </r>
       <r>     2.3548     0.0829     7.9989 </r>
       <r>     2.4418     0.0249     8.0010 </r>
       <r>     2.5287    -0.0018     8.0009 </r>
       <r>     2.6156    -0.0058     8.0004 </r>
       <r>     2.7026    -0.0025     8.0001 </r>
       <r>     2.7895     0.0000     8.0002 </r>
       <r>     2.8765     0.0012     8.0003 </r>
       <r>     2.9634     0.0015     8.0004 </r>
       <r>     3.0503     0.0015     8.0005 </r>
       <r>     3.1373     0.0047     8.0009 </r>
       <r>     3.2242     0.0170     8.0024 </r>
       <r>     3.3112     0.0413     8.0060 </r>
       <r>     3.3981     0.0737     8.0124 </r>
       <r>     3.4850     0.1072     8.0217 </r>
       <r>     3.5720     0.1387     8.0338 </r>
       <r>     3.6589     0.1734     8.0489 </r>
       <r>     3.7458     0.2226     8.0682 </r>
       <r>     3.8328     0.2984     8.0942 </r>
       <r>     3.9197     0.4060     8.1295 </r>
       <r>     4.0067     0.5344     8.1759 </r>
       <r>     4.0936     0.6660     8.2338 </r>
       <r>     4.1805     0.7916     8.3027 </r>
       <r>     4.2675     0.9101     8.3818 </r>
       <r>     4.3544     1.0290     8.4712 </r>
       <r>     4.4414     1.1699     8.5729 </r>
       <r>     4.5283     1.3638     8.6915 </r>
       <r>     4.6152     1.6162     8.8320 </r>
       <r>     4.7022     1.8543     8.9932 </r>
       <r>     4.7891     1.9554     9.1632 </r>
       <r>     4.8761     1.8629     9.3252 </r>
       <r>     4.9630     1.6352     9.4673 </r>
       <r>     5.0499     1.3762     9.5870 </r>
       <r>     5.1369     1.1580     9.6877 </r>
       <r>     5.2238     1.0074     9.7753 </r>
       <r>     5.3107     0.9331     9.8564 </r>
       <r>     5.3977     0.9330     9.9375 </r>
       <r>     5.4846     0.9741    10.0222 </r>
       <r>     5.5716     0.9951    10.1087 </r>
       <r>     5.6585     0.9596    10.1921 </r>
       <r>     5.7454     0.8910    10.2696 </r>
       <r>     5.8324     0.8324    10.3420 </r>
       <r>     5.9193     0.7992    10.4114 </r>
       <r>     6.0063     0.7886    10.4800 </r>
       <r>     6.0932     0.7927    10.5489 </r>
       <r>     6.1801     0.7970    10.6182 </r>
       <r>     6.2671     0.8000    10.6877 </r>
       <r>     6.3540     0.8384    10.7606 </r>
       <r>     6.4410     0.9876    10.8465 </r>
       <r>     6.5279     1.2995    10.9595 </r>
       <r>     6.6148     1.6841    11.1059 </r>
       <r>     6.7018     1.9320    11.2739 </r>
       <r>     6.7887     1.9390    11.4424 </r>
       <r>     6.8756     1.7951    11.5985 </r>
       <r>     6.9626     1.6140    11.7388 </r>
       <r>     7.0495     1.4395    11.8640 </r>
       <r>     7.1365     1.2936    11.9764 </r>
       <r>     7.2234     1.1836    12.0793 </r>
       <r>     7.3103     1.1205    12.1768 </r>
       <r>     7.3973     1.1285    12.2749 </r>
       <r>     7.4842     1.2048    12.3796 </r>
       <r>     7.5712     1.3348    12.4957 </r>
       <r>     7.6581     1.5121    12.6271 </r>
       <r>     7.7450     1.7052    12.7754 </r>
       <r>     7.8320     1.8475    12.9360 </r>
       <r>     7.9189     1.8721    13.0987 </r>
       <r>     8.0059     1.7618    13.2519 </r>
       <r>     8.0928     1.5745    13.3888 </r>
       <r>     8.1797     1.4001    13.5105 </r>
       <r>     8.2667     1.2892    13.6226 </r>
       <r>     8.3536     1.2328    13.7298 </r>
       <r>     8.4406     1.1977    13.8339 </r>
       <r>     8.5275     1.1573    13.9345 </r>
       <r>     8.6144     1.0914    14.0294 </r>
       <r>     8.7014     0.9986    14.1162 </r>
       <r>     8.7883     0.9132    14.1956 </r>
       <r>     8.8752     0.8688    14.2712 </r>
       <r>     8.9622     0.8575    14.3457 </r>
       <r>     9.0491     0.8612    14.4206 </r>
       <r>     9.1361     0.8790    14.4970 </r>
       <r>     9.2230     0.9025    14.5755 </r>
       <r>     9.3099     0.9251    14.6559 </r>
       <r>     9.3969     0.9633    14.7397 </r>
       <r>     9.4838     1.0218    14.8285 </r>
       <r>     9.5708     1.0863    14.9229 </r>
       <r>     9.6577     1.1499    15.0229 </r>
       <r>     9.7446     1.1942    15.1267 </r>
       <r>     9.8316     1.1753    15.2289 </r>
       <r>     9.9185     1.0811    15.3229 </r>
       <r>    10.0055     0.9723    15.4074 </r>
       <r>    10.0924     0.8983    15.4855 </r>
       <r>    10.1793     0.8210    15.5569 </r>
       <r>    10.2663     0.6901    15.6169 </r>
       <r>    10.3532     0.5358    15.6635 </r>
       <r>    10.4401     0.4239    15.7003 </r>
       <r>    10.5271     0.3690    15.7324 </r>
       <r>    10.6140     0.3414    15.7621 </r>
       <r>    10.7010     0.3195    15.7899 </r>
       <r>    10.7879     0.2980    15.8158 </r>
       <r>    10.8748     0.2750    15.8397 </r>
       <r>    10.9618     0.2518    15.8616 </r>
       <r>    11.0487     0.2302    15.8816 </r>
       <r>    11.1357     0.2096    15.8998 </r>
       <r>    11.2226     0.1897    15.9163 </r>
       <r>    11.3095     0.1706    15.9311 </r>
       <r>    11.3965     0.1523    15.9444 </r>
       <r>    11.4834     0.1351    15.9561 </r>
       <r>    11.5704     0.1184    15.9664 </r>
       <r>    11.6573     0.1021    15.9753 </r>
       <r>    11.7442     0.0869    15.9828 </r>
       <r>    11.8312     0.0719    15.9891 </r>
       <r>    11.9181     0.0563    15.9940 </r>
       <r>    12.0050     0.0397    15.9974 </r>
       <r>    12.0920     0.0227    15.9994 </r>
       <r>    12.1789     0.0086    16.0002 </r>
       <r>    12.2659     0.0008    16.0002 </r>
       <r>    12.3528    -0.0013    16.0001 </r>
       <r>    12.4397    -0.0009    16.0000 </r>
       <r>    12.5267    -0.0003    16.0000 </r>
       <r>    12.6136    -0.0001    16.0000 </r>
       <r>    12.7006    -0.0000    16.0000 </r>
       <r>    12.7875    -0.0000    16.0000 </r>
       <r>    12.8744    -0.0000    16.0000 </r>
       <r>    12.9614    -0.0000    16.0000 </r>
       <r>    13.0483    -0.0000    16.0000 </r>
       <r>    13.1353    -0.0000    16.0000 </r>
       <r>    13.2222    -0.0000    16.0000 </r>
       <r>    13.3091    -0.0000    16.0000 </r>
       <r>    13.3961    -0.0000    16.0000 </r>
       <r>    13.4830     0.0000    16.0000 </r>
       <r>    13.5700     0.0000    16.0000 </r>
       <r>    13.6569     0.0000    16.0000 </r>
       <r>    13.7438     0.0000    16.0000 </r>
       <r>    13.8308     0.0000    16.0000 </r>
       <r>    13.9177     0.0000    16.0000 </r>
       <r>    14.0046     0.0000    16.0000 </r>
       <r>    14.0916     0.0000    16.0000 </r>
      </set>
     </set>
    </array>
   </total>
  </dos>
 </calculation>
 <structure name="finalpos" >
  <crystal>
   <varray name="basis" >
    <v>      -0.00000000       2.87641942       2.87641942 </v>
    <v>       2.87641942       0.00000000       2.87641942 </v>
    <v>       2.87641942       2.87641942       0.00000000 </v>
   </varray>
   <i name="volume">     47.59777283 </i>
   <varray name="rec_basis" >
    <v>      -0.17382722       0.17382722       0.17382722 </v>
    <v>       0.17382722      -0.17382722       0.17382722 </v>
    <v>       0.17382722       0.17382722      -0.17382722 </v>
   </varray>
  </crystal>
  <varray name="positions" >
   <v>       0.00000000       0.00000000       0.00000000 </v>
   <v>       0.25000000       0.25000000       0.25000000 </v>
  </varray>
 </structure>
</modeling>
