   5   5   0   0
  0.3155450E+02  0.3160000E-09  0.3160000E-09  0.1580000E-08  0.5000000E-15
  1.000000000000000E-004
  CAR 
 unknown system                          
      6.29123099     -8.98513824  301      1.74080548      1.00000000
     -8.985  0.0000E+00  0.0000E+00
     -8.934  0.0000E+00  0.0000E+00
     -8.883  0.0000E+00  0.0000E+00
     -8.832  0.0000E+00  0.0000E+00
     -8.781  0.0000E+00  0.0000E+00
     -8.731  0.0000E+00  0.0000E+00
     -8.680  0.0000E+00  0.0000E+00
     -8.629  0.0000E+00  0.0000E+00
     -8.578  0.0000E+00  0.0000E+00
     -8.527  0.0000E+00  0.0000E+00
     -8.476  0.0000E+00  0.0000E+00
     -8.425  0.0000E+00  0.0000E+00
     -8.374  0.0000E+00  0.0000E+00
     -8.323  0.0000E+00  0.0000E+00
     -8.272  0.0000E+00  0.0000E+00
     -8.221  0.0000E+00  0.0000E+00
     -8.170  0.0000E+00  0.0000E+00
     -8.119  0.0000E+00  0.0000E+00
     -8.069  0.0000E+00  0.0000E+00
     -8.018  0.0000E+00  0.0000E+00
     -7.967  0.0000E+00  0.0000E+00
     -7.916  0.0000E+00  0.0000E+00
     -7.865  0.0000E+00  0.0000E+00
     -7.814  0.0000E+00  0.0000E+00
     -7.763  0.0000E+00  0.0000E+00
     -7.712  0.0000E+00  0.0000E+00
     -7.661  0.0000E+00  0.0000E+00
     -7.610  0.0000E+00  0.0000E+00
     -7.559  0.0000E+00  0.0000E+00
     -7.508  0.0000E+00  0.0000E+00
     -7.458  0.0000E+00  0.0000E+00
     -7.407  0.0000E+00  0.0000E+00
     -7.356  0.0000E+00  0.0000E+00
     -7.305  0.0000E+00  0.0000E+00
     -7.254  0.0000E+00  0.0000E+00
     -7.203  0.0000E+00  0.0000E+00
     -7.152  0.0000E+00  0.0000E+00
     -7.101  0.0000E+00  0.0000E+00
     -7.050  0.0000E+00  0.0000E+00
     -6.999  0.0000E+00  0.0000E+00
     -6.948  0.2374E+00  0.4373E-02
     -6.897  0.2924E+00  0.2045E-01
     -6.846  0.2633E+00  0.3368E-01
     -6.796  0.3013E+00  0.4806E-01
     -6.745  0.3056E+00  0.6404E-01
     -6.694  0.2757E+00  0.7852E-01
     -6.643  0.2846E+00  0.9278E-01
     -6.592  0.2934E+00  0.1075E+00
     -6.541  0.3031E+00  0.1227E+00
     -6.490  0.3134E+00  0.1385E+00
     -6.439  0.2947E+00  0.1539E+00
     -6.388  0.2972E+00  0.1690E+00
     -6.337  0.2996E+00  0.1842E+00
     -6.286  0.3020E+00  0.1995E+00
     -6.235  0.3106E+00  0.2151E+00
     -6.184  0.3183E+00  0.2311E+00
     -6.134  0.3237E+00  0.2475E+00
     -6.083  0.3140E+00  0.2637E+00
     -6.032  0.3150E+00  0.2797E+00
     -5.981  0.3183E+00  0.2959E+00
     -5.930  0.3218E+00  0.3122E+00
     -5.879  0.3266E+00  0.3287E+00
     -5.828  0.3314E+00  0.3454E+00
     -5.777  0.3363E+00  0.3624E+00
     -5.726  0.3411E+00  0.3797E+00
     -5.675  0.3418E+00  0.3971E+00
     -5.624  0.3434E+00  0.4145E+00
     -5.573  0.3467E+00  0.4321E+00
     -5.522  0.3501E+00  0.4498E+00
     -5.472  0.3540E+00  0.4677E+00
     -5.421  0.3581E+00  0.4859E+00
     -5.370  0.3621E+00  0.5042E+00
     -5.319  0.3691E+00  0.5228E+00
     -5.268  0.3756E+00  0.5418E+00
     -5.217  0.3809E+00  0.5611E+00
     -5.166  0.3857E+00  0.5806E+00
     -5.115  0.3907E+00  0.6003E+00
     -5.064  0.8060E+00  0.6275E+00
     -5.013  0.7409E+00  0.6686E+00
     -4.962  0.8189E+00  0.7083E+00
     -4.911  0.8221E+00  0.7509E+00
     -4.861  0.8218E+00  0.7923E+00
     -4.810  0.8504E+00  0.8349E+00
     -4.759  0.8775E+00  0.8789E+00
     -4.708  0.8848E+00  0.9237E+00
     -4.657  0.9107E+00  0.9694E+00
     -4.606  0.9438E+00  0.1017E+01
     -4.555  0.9690E+00  0.1065E+01
     -4.504  0.9992E+00  0.1115E+01
     -4.453  0.1030E+01  0.1167E+01
     -4.402  0.1061E+01  0.1220E+01
     -4.351  0.1084E+01  0.1275E+01
     -4.300  0.1197E+01  0.1332E+01
     -4.249  0.1288E+01  0.1396E+01
     -4.199  0.1360E+01  0.1463E+01
     -4.148  0.1516E+01  0.1536E+01
     -4.097  0.1659E+01  0.1617E+01
     -4.046  0.2633E+01  0.1718E+01
     -3.995  0.3374E+01  0.1892E+01
     -3.944  0.2137E+01  0.2026E+01
     -3.893  0.2037E+01  0.2132E+01
     -3.842  0.1928E+01  0.2233E+01
     -3.791  0.1728E+01  0.2327E+01
     -3.740  0.2138E+01  0.2417E+01
     -3.689  0.2664E+01  0.2542E+01
     -3.638  0.2822E+01  0.2712E+01
     -3.587  0.2619E+01  0.2845E+01
     -3.537  0.2780E+01  0.2991E+01
     -3.486  0.2666E+01  0.3125E+01
     -3.435  0.2934E+01  0.3275E+01
     -3.384  0.4552E+01  0.3474E+01
     -3.333  0.4882E+01  0.3711E+01
     -3.282  0.4851E+01  0.3971E+01
     -3.231  0.3505E+01  0.4180E+01
     -3.180  0.3292E+01  0.4352E+01
     -3.129  0.3364E+01  0.4521E+01
     -3.078  0.3053E+01  0.4685E+01
     -3.027  0.3026E+01  0.4842E+01
     -2.976  0.2703E+01  0.4988E+01
     -2.926  0.3051E+01  0.5140E+01
     -2.875  0.3084E+01  0.5293E+01
     -2.824  0.3095E+01  0.5449E+01
     -2.773  0.3233E+01  0.5610E+01
     -2.722  0.3124E+01  0.5780E+01
     -2.671  0.2461E+01  0.5911E+01
     -2.620  0.2429E+01  0.6035E+01
     -2.569  0.2404E+01  0.6158E+01
     -2.518  0.2489E+01  0.6278E+01
     -2.467  0.4700E+01  0.6476E+01
     -2.416  0.5998E+01  0.6738E+01
     -2.365  0.8373E+01  0.7149E+01
     -2.314  0.9343E+01  0.7599E+01
     -2.264  0.7882E+01  0.8026E+01
     -2.213  0.7387E+01  0.8424E+01
     -2.162  0.5686E+01  0.8949E+01
     -2.111  0.5047E+01  0.9208E+01
     -2.060  0.5729E+01  0.9496E+01
     -2.009  0.4805E+01  0.9762E+01
     -1.958  0.4100E+01  0.9986E+01
     -1.907  0.4030E+01  0.1020E+02
     -1.856  0.3709E+01  0.1040E+02
     -1.805  0.3798E+01  0.1059E+02
     -1.754  0.3028E+01  0.1077E+02
     -1.703  0.2506E+01  0.1089E+02
     -1.652  0.2409E+01  0.1103E+02
     -1.602  0.2209E+01  0.1114E+02
     -1.551  0.2235E+01  0.1126E+02
     -1.500  0.2530E+01  0.1137E+02
     -1.449  0.3419E+01  0.1152E+02
     -1.398  0.3265E+01  0.1170E+02
     -1.347  0.6809E+01  0.1198E+02
     -1.296  0.1035E+02  0.1249E+02
     -1.245  0.7428E+01  0.1295E+02
     -1.194  0.6329E+01  0.1332E+02
     -1.143  0.6555E+01  0.1367E+02
     -1.092  0.9261E+01  0.1408E+02
     -1.041  0.6664E+01  0.1451E+02
     -0.991  0.5386E+01  0.1487E+02
     -0.940  0.4543E+01  0.1512E+02
     -0.889  0.5245E+01  0.1535E+02
     -0.838  0.5483E+01  0.1562E+02
     -0.787  0.6070E+01  0.1593E+02
     -0.736  0.5235E+01  0.1619E+02
     -0.685  0.6215E+01  0.1650E+02
     -0.634  0.8676E+01  0.1687E+02
     -0.583  0.6957E+01  0.1723E+02
     -0.532  0.7001E+01  0.1761E+02
     -0.481  0.7970E+01  0.1799E+02
     -0.430  0.8295E+01  0.1839E+02
     -0.379  0.6240E+01  0.1876E+02
     -0.329  0.7722E+01  0.1912E+02
     -0.278  0.4404E+01  0.1945E+02
     -0.227  0.4232E+01  0.1967E+02
     -0.176  0.4888E+01  0.1990E+02
     -0.125  0.5519E+01  0.2018E+02
     -0.074  0.6808E+01  0.2049E+02
     -0.023  0.6014E+01  0.2082E+02
      0.028  0.5658E+01  0.2111E+02
      0.079  0.5520E+01  0.2139E+02
      0.130  0.5984E+01  0.2168E+02
      0.181  0.6320E+01  0.2200E+02
      0.232  0.5568E+01  0.2231E+02
      0.283  0.5236E+01  0.2257E+02
      0.333  0.5558E+01  0.2286E+02
      0.384  0.4919E+01  0.2312E+02
      0.435  0.4865E+01  0.2337E+02
      0.486  0.5283E+01  0.2363E+02
      0.537  0.5273E+01  0.2389E+02
      0.588  0.4609E+01  0.2414E+02
      0.639  0.3435E+01  0.2435E+02
      0.690  0.2858E+01  0.2451E+02
      0.741  0.3271E+01  0.2466E+02
      0.792  0.4852E+01  0.2486E+02
      0.843  0.3672E+01  0.2508E+02
      0.894  0.3926E+01  0.2526E+02
      0.945  0.5055E+01  0.2549E+02
      0.995  0.4221E+01  0.2572E+02
      1.046  0.5416E+01  0.2596E+02
      1.097  0.4084E+01  0.2622E+02
      1.148  0.4617E+01  0.2645E+02
      1.199  0.3999E+01  0.2666E+02
      1.250  0.6884E+01  0.2692E+02
      1.301  0.7588E+01  0.2732E+02
      1.352  0.7616E+01  0.2772E+02
      1.403  0.5713E+01  0.2809E+02
      1.454  0.3657E+01  0.2834E+02
      1.505  0.3794E+01  0.2851E+02
      1.556  0.3506E+01  0.2871E+02
      1.606  0.5881E+01  0.2895E+02
      1.657  0.1013E+02  0.2933E+02
      1.708  0.7688E+01  0.2978E+02
      1.759  0.6226E+01  0.3011E+02
      1.810  0.6012E+01  0.3044E+02
      1.861  0.5822E+01  0.3073E+02
      1.912  0.5906E+01  0.3105E+02
      1.963  0.4767E+01  0.3131E+02
      2.014  0.5271E+01  0.3157E+02
      2.065  0.4295E+01  0.3181E+02
      2.116  0.3749E+01  0.3203E+02
      2.167  0.3515E+01  0.3221E+02
      2.218  0.3435E+01  0.3239E+02
      2.268  0.3753E+01  0.3257E+02
      2.319  0.4045E+01  0.3276E+02
      2.370  0.3163E+01  0.3294E+02
      2.421  0.4113E+01  0.3313E+02
      2.472  0.3329E+01  0.3331E+02
      2.523  0.2904E+01  0.3347E+02
      2.574  0.4630E+01  0.3365E+02
      2.625  0.7128E+01  0.3397E+02
      2.676  0.4966E+01  0.3428E+02
      2.727  0.6663E+01  0.3464E+02
      2.778  0.4999E+01  0.3493E+02
      2.829  0.4391E+01  0.3517E+02
      2.880  0.4257E+01  0.3539E+02
      2.930  0.3587E+01  0.3558E+02
      2.981  0.4126E+01  0.3578E+02
      3.032  0.4960E+01  0.3601E+02
      3.083  0.5016E+01  0.3626E+02
      3.134  0.7921E+01  0.3656E+02
      3.185  0.4386E+01  0.3691E+02
      3.236  0.2622E+01  0.3708E+02
      3.287  0.2340E+01  0.3720E+02
      3.338  0.2023E+01  0.3731E+02
      3.389  0.2239E+01  0.3742E+02
      3.440  0.3176E+01  0.3755E+02
      3.491  0.2045E+01  0.3768E+02
      3.541  0.1733E+01  0.3778E+02
      3.592  0.1060E+01  0.3785E+02
      3.643  0.7436E+00  0.3789E+02
      3.694  0.3547E+00  0.3793E+02
      3.745  0.2856E+00  0.3794E+02
      3.796  0.2190E+00  0.3795E+02
      3.847  0.1623E+00  0.3796E+02
      3.898  0.1481E+00  0.3797E+02
      3.949  0.1339E+00  0.3798E+02
      4.000  0.1197E+00  0.3798E+02
      4.051  0.9078E-01  0.3799E+02
      4.102  0.6996E-01  0.3799E+02
      4.153  0.4919E-01  0.3800E+02
      4.203  0.2845E-01  0.3800E+02
      4.254  0.7763E-02  0.3800E+02
      4.305  0.0000E+00  0.3800E+02
      4.356  0.0000E+00  0.3800E+02
      4.407  0.0000E+00  0.3800E+02
      4.458  0.0000E+00  0.3800E+02
      4.509  0.0000E+00  0.3800E+02
      4.560  0.0000E+00  0.3800E+02
      4.611  0.0000E+00  0.3800E+02
      4.662  0.0000E+00  0.3800E+02
      4.713  0.0000E+00  0.3800E+02
      4.764  0.0000E+00  0.3800E+02
      4.815  0.0000E+00  0.3800E+02
      4.865  0.0000E+00  0.3800E+02
      4.916  0.0000E+00  0.3800E+02
      4.967  0.0000E+00  0.3800E+02
      5.018  0.0000E+00  0.3800E+02
      5.069  0.0000E+00  0.3800E+02
      5.120  0.0000E+00  0.3800E+02
      5.171  0.0000E+00  0.3800E+02
      5.222  0.0000E+00  0.3800E+02
      5.273  0.0000E+00  0.3800E+02
      5.324  0.0000E+00  0.3800E+02
      5.375  0.0000E+00  0.3800E+02
      5.426  0.0000E+00  0.3800E+02
      5.476  0.0000E+00  0.3800E+02
      5.527  0.0000E+00  0.3800E+02
      5.578  0.0000E+00  0.3800E+02
      5.629  0.0000E+00  0.3800E+02
      5.680  0.0000E+00  0.3800E+02
      5.731  0.0000E+00  0.3800E+02
      5.782  0.0000E+00  0.3800E+02
      5.833  0.0000E+00  0.3800E+02
      5.884  0.0000E+00  0.3800E+02
      5.935  0.0000E+00  0.3800E+02
      5.986  0.0000E+00  0.3800E+02
      6.037  0.0000E+00  0.3800E+02
      6.088  0.0000E+00  0.3800E+02
      6.138  0.0000E+00  0.3800E+02
      6.189  0.0000E+00  0.3800E+02
      6.240  0.0000E+00  0.3800E+02
      6.291  0.0000E+00  0.3800E+02
