    5    5    1    1
  0.3155450E+02  0.3160000E-09  0.3160000E-09  0.1580000E-08  0.5000000E-15
  1.000000000000000E-004
  CAR 
 unknown system                          
     30    198     19
 
  0.0000000E+00  0.0000000E+00  0.0000000E+00  0.6250000E-03
    1       -6.985120   1.000000
    2       -5.098980   1.000000
    3       -3.591054   1.000000
    4       -3.495586   1.000000
    5       -2.968624   1.000000
    6       -2.316413   1.000000
    7       -2.308320   1.000000
    8       -0.603852   1.000000
    9        0.593351   1.000000
   10        0.593351   1.000000
   11        0.937282   1.000000
   12        1.025872   1.000000
   13        1.025872   1.000000
   14        1.405286   1.000000
   15        1.453305   1.000000
   16        1.500028   1.000000
   17        1.874336   0.007299
   18        1.874336   0.000000
   19        2.092404   0.000000
 
  0.5000000E-01  0.0000000E+00  0.0000000E+00  0.2500000E-02
    1       -6.929385   1.000000
    2       -5.057865   1.000000
    3       -3.552946   1.000000
    4       -3.460958   1.000000
    5       -2.943173   1.000000
    6       -2.321860   1.000000
    7       -2.247945   1.000000
    8       -0.622489   1.000000
    9        0.526259   1.000000
   10        0.545214   1.000000
   11        0.683179   1.000000
   12        1.070209   1.000000
   13        1.226193   1.000000
   14        1.265139   1.000000
   15        1.513588   1.000000
   16        1.519414   1.000000
   17        1.622615   1.047538
   18        2.088396   0.000000
   19        2.366976   0.000000
 
  0.1000000E+00  0.0000000E+00  0.0000000E+00  0.2500000E-02
    1       -6.764435   1.000000
    2       -4.939704   1.000000
    3       -3.469183   1.000000
    4       -3.336463   1.000000
    5       -2.876874   1.000000
    6       -2.350955   1.000000
    7       -2.057717   1.000000
    8       -0.636477   1.000000
    9        0.371394   1.000000
   10        0.380521   1.000000
   11        0.385518   1.000000
   12        1.075936   1.000000
   13        1.127161   1.000000
   14        1.347944   1.000000
   15        1.378374   1.000000
   16        1.593794   1.023434
   17        1.703042   0.493332
   18        2.456536   0.000000
   19        2.762213   0.000000
 
  0.1500000E+00  0.0000000E+00  0.0000000E+00  0.2500000E-02
    1       -6.497178   1.000000
    2       -4.760438   1.000000
    3       -3.378603   1.000000
    4       -3.120594   1.000000
    5       -2.786361   1.000000
    6       -2.399014   1.000000
    7       -1.751405   1.000000
    8       -0.559236   1.000000
    9        0.060352   1.000000
   10        0.120587   1.000000
   11        0.243573   1.000000
   12        0.953083   1.000000
   13        1.072599   1.000000
   14        1.236187   1.000000
   15        1.282551   1.000000
   16        1.797778   0.335248
   17        1.946697  -0.023862
   18        2.615137   0.000000
   19        2.845719   0.000000
 
  0.2000000E+00  0.0000000E+00  0.0000000E+00  0.2500000E-02
    1       -6.139651   1.000000
    2       -4.547715   1.000000
    3       -3.309103   1.000000
    4       -2.882148   1.000000
    5       -2.638990   1.000000
    6       -2.457634   1.000000
    7       -1.348370   1.000000
    8       -0.322863   1.000000
    9       -0.235038   1.000000
   10       -0.190300   1.000000
   11        0.174795   1.000000
   12        0.902372   1.000000
   13        0.918096   1.000000
   14        1.063967   1.000000
   15        1.141194   1.000000
   16        2.075262  -0.051108
   17        2.219164   0.000000
   18        2.543804   0.000000
   19        2.922510   0.000000
 
  0.2500000E+00  0.0000000E+00  0.0000000E+00  0.2500000E-02
    1       -5.710083   1.000000
    2       -4.339910   1.000000
    3       -3.301568   1.000000
    4       -2.693443   1.000000
    5       -2.507453   1.000000
    6       -2.368649   1.000000
    7       -0.882790   1.000000
    8       -0.503847   1.000000
    9       -0.494375   1.000000
   10        0.085392   1.000000
   11        0.206602   1.000000
   12        0.727381   1.000000
   13        0.799382   1.000000
   14        0.917295   1.000000
   15        1.038320   1.000000
   16        2.337895   0.000000
   17        2.455610   0.000000
   18        2.462215   0.000000
   19        2.887086   0.000000
 
  0.3000000E+00  0.0000000E+00  0.0000000E+00  0.2500000E-02
    1       -5.234994   1.000000
    2       -4.177304   1.000000
    3       -3.351974   1.000000
    4       -2.525185   1.000000
    5       -2.515201   1.000000
    6       -2.052294   1.000000
    7       -0.763282   1.000000
    8       -0.737160   1.000000
    9       -0.413606   1.000000
   10        0.355107   1.000000
   11        0.544154   1.000000
   12        0.554367   1.000000
   13        0.629057   1.000000
   14        0.911150   1.000000
   15        0.978809   1.000000
   16        2.315608   0.000000
   17        2.362494   0.000000
   18        2.461155   0.000000
   19        2.891109   0.000000
 
  0.3500000E+00  0.0000000E+00  0.0000000E+00  0.2500000E-02
    1       -4.754582   1.000000
    2       -4.082000   1.000000
    3       -3.413977   1.000000
    4       -2.502491   1.000000
    5       -2.370293   1.000000
    6       -1.738804   1.000000
    7       -0.982308   1.000000
    8       -0.927410   1.000000
    9       -0.019633   1.000000
   10        0.355598   1.000000
   11        0.366439   1.000000
   12        0.602667   1.000000
   13        0.775332   1.000000
   14        1.055010   1.000000
   15        1.216271   1.000000
   16        2.134718   0.000000
   17        2.186906   0.000000
   18        2.382352   0.000000
   19        2.996169   0.000000
 
  0.4000000E+00  0.0000000E+00  0.0000000E+00  0.2500000E-02
    1       -4.335011   1.000000
    2       -4.044332   1.000000
    3       -3.436115   1.000000
    4       -2.456588   1.000000
    5       -2.318902   1.000000
    6       -1.407433   1.000000
    7       -1.143262   1.000000
    8       -1.068264   1.000000
    9        0.129429   1.000000
   10        0.212458   1.000000
   11        0.262307   1.000000
   12        0.657096   1.000000
   13        0.785442   1.000000
   14        1.197211   1.000000
   15        1.591293   1.000000
   16        1.969767   0.000000
   17        2.309532   0.000000
   18        2.445755   0.000000
   19        3.087025   0.000000
 
  0.4500000E+00  0.0000000E+00  0.0000000E+00  0.2500000E-02
    1       -4.072860   1.000000
    2       -4.036883   1.000000
    3       -3.376825   1.000000
    4       -2.415527   1.000000
    5       -2.359762   1.000000
    6       -1.241455   1.000000
    7       -1.154841   1.000000
    8       -1.040473   1.000000
    9       -0.199278   1.000000
   10        0.127001   1.000000
   11        0.438698   1.000000
   12        0.577860   1.000000
   13        0.792907   1.000000
   14        1.428043   1.000000
   15        1.650085   1.000000
   16        1.857156   0.000000
   17        2.544978   0.000000
   18        2.763512   0.000000
   19        3.139894   0.000000
 
  0.5000000E+00  0.0000000E+00  0.0000000E+00  0.1250000E-02
    1       -4.037087   1.000000
    2       -3.998131   1.000000
    3       -3.316346   1.000000
    4       -2.400094   1.000000
    5       -2.399586   1.000000
    6       -1.274443   1.000000
    7       -1.184056   1.000000
    8       -0.740464   1.000000
    9       -0.492384   1.000000
   10        0.098678   1.000000
   11        0.500507   1.000000
   12        0.550110   1.000000
   13        0.777359   1.000000
   14        1.537151   1.000000
   15        1.655807   1.000000
   16        1.817451   0.000000
   17        2.569222   0.000000
   18        3.042726   0.000000
   19        3.248662   0.000000
 
  0.5000000E-01  0.5000000E-01  0.0000000E+00  0.2500000E-02
    1       -6.873869   1.000000
    2       -5.016085   1.000000
    3       -3.509334   1.000000
    4       -3.431396   1.000000
    5       -2.915702   1.000000
    6       -2.258902   1.000000
    7       -2.256203   1.000000
    8       -0.646687   1.000000
    9        0.417871   1.000000
   10        0.532197   1.000000
   11        0.581853   1.000000
   12        1.069001   1.000000
   13        1.155002   1.000000
   14        1.324883   1.000000
   15        1.459720   1.000000
   16        1.496178   1.000000
   17        1.789517   0.181820
   18        2.066260   0.000000
   19        2.554561   0.000000
 
  0.1000000E+00  0.5000000E-01  0.0000000E+00  0.5000000E-02
    1       -6.709631   1.000000
    2       -4.895915   1.000000
    3       -3.416178   1.000000
    4       -3.314756   1.000000
    5       -2.843972   1.000000
    6       -2.287384   1.000000
    7       -2.067446   1.000000
    8       -0.676709   1.000000
    9        0.254191   1.000000
   10        0.341846   1.000000
   11        0.357199   1.000000
   12        1.033568   1.000000
   13        1.107200   1.000000
   14        1.395612   1.000000
   15        1.412188   1.000000
   16        1.500261   1.020022
   17        1.823715   0.010455
   18        2.410859   0.000000
   19        2.735389   0.000000
 
  0.1500000E+00  0.5000000E-01  0.0000000E+00  0.5000000E-02
    1       -6.443612   1.000000
    2       -4.713391   1.000000
    3       -3.324657   1.000000
    4       -3.095537   1.000000
    5       -2.748575   1.000000
    6       -2.336566   1.000000
    7       -1.761984   1.000000
    8       -0.628861   1.000000
    9        0.036897   1.000000
   10        0.071218   1.000000
   11        0.153395   1.000000
   12        0.971995   1.000000
   13        0.973936   1.000000
   14        1.286740   1.000000
   15        1.341556   1.000000
   16        1.664115   0.839336
   17        2.011468  -0.014260
   18        2.642973   0.000000
   19        2.790820   0.000000
 
  0.2000000E+00  0.5000000E-01  0.0000000E+00  0.5000000E-02
    1       -6.087919   1.000000
    2       -4.496505   1.000000
    3       -3.254012   1.000000
    4       -2.844167   1.000000
    5       -2.608750   1.000000
    6       -2.397056   1.000000
    7       -1.361254   1.000000
    8       -0.487230   1.000000
    9       -0.258382   1.000000
   10       -0.131806   1.000000
   11        0.075861   1.000000
   12        0.705015   1.000000
   13        0.943510   1.000000
   14        1.159483   1.000000
   15        1.218617   1.000000
   16        1.891521  -0.046045
   17        2.271503   0.000000
   18        2.646320   0.000000
   19        2.708479   0.000000
 
  0.2500000E+00  0.5000000E-01  0.0000000E+00  0.5000000E-02
    1       -5.660767   1.000000
    2       -4.284433   1.000000
    3       -3.244869   1.000000
    4       -2.641676   1.000000
    5       -2.449252   1.000000
    6       -2.354457   1.000000
    7       -0.907932   1.000000
    8       -0.567214   1.000000
    9       -0.536865   1.000000
   10        0.079799   1.000000
   11        0.106764   1.000000
   12        0.435361   1.000000
   13        0.951640   1.000000
   14        1.010021   1.000000
   15        1.047510   1.000000
   16        2.050846  -0.003732
   17        2.515325   0.000000
   18        2.620252   0.000000
   19        2.688137   0.000000
 
  0.3000000E+00  0.5000000E-01  0.0000000E+00  0.5000000E-02
    1       -5.188435   1.000000
    2       -4.118671   1.000000
    3       -3.295336   1.000000
    4       -2.469588   1.000000
    5       -2.458728   1.000000
    6       -2.054088   1.000000
    7       -0.821949   1.000000
    8       -0.771752   1.000000
    9       -0.415738   1.000000
   10        0.204155   1.000000
   11        0.265931   1.000000
   12        0.594495   1.000000
   13        0.809586   1.000000
   14        0.863905   1.000000
   15        1.022851   1.000000
   16        2.023781  -0.009864
   17        2.422395   0.000000
   18        2.677559   0.000000
   19        2.850309   0.000000
 
  0.3500000E+00  0.5000000E-01  0.0000000E+00  0.5000000E-02
    1       -4.710079   1.000000
    2       -4.022004   1.000000
    3       -3.359616   1.000000
    4       -2.449917   1.000000
    5       -2.316245   1.000000
    6       -1.762305   1.000000
    7       -1.020458   1.000000
    8       -0.950905   1.000000
    9       -0.050231   1.000000
   10        0.037013   1.000000
   11        0.550281   1.000000
   12        0.627611   1.000000
   13        0.670271   1.000000
   14        1.100644   1.000000
   15        1.175431   1.000000
   16        1.918908  -0.020387
   17        2.334415   0.000000
   18        2.424868   0.000000
   19        3.005457   0.000000
 
  0.4000000E+00  0.5000000E-01  0.0000000E+00  0.5000000E-02
    1       -4.289292   1.000000
    2       -3.984295   1.000000
    3       -3.386809   1.000000
    4       -2.407741   1.000000
    5       -2.280522   1.000000
    6       -1.455988   1.000000
    7       -1.170466   1.000000
    8       -1.078539   1.000000
    9       -0.121337   1.000000
   10        0.204995   1.000000
   11        0.447395   1.000000
   12        0.464973   1.000000
   13        0.918010   1.000000
   14        1.157105   1.000000
   15        1.590476   1.016689
   16        1.917801  -0.011982
   17        2.337705   0.000000
   18        2.365927   0.000000
   19        3.090525   0.000000
 
  0.4500000E+00  0.5000000E-01  0.0000000E+00  0.5000000E-02
    1       -4.021081   1.000000
    2       -3.977178   1.000000
    3       -3.334379   1.000000
    4       -2.370189   1.000000
    5       -2.341989   1.000000
    6       -1.262000   1.000000
    7       -1.216578   1.000000
    8       -1.051307   1.000000
    9       -0.348821   1.000000
   10        0.280880   1.000000
   11        0.302483   1.000000
   12        0.430175   1.000000
   13        1.066822   1.000000
   14        1.310214   1.000000
   15        1.685335   0.966639
   16        1.897613   0.000000
   17        2.351026   0.000000
   18        2.703768   0.000000
   19        3.148401   0.000000
 
  0.5000000E+00  0.5000000E-01  0.0000000E+00  0.2500000E-02
    1       -3.977541   1.000000
    2       -3.942969   1.000000
    3       -3.275946   1.000000
    4       -2.392408   1.000000
    5       -2.355720   1.000000
    6       -1.292675   1.000000
    7       -1.217899   1.000000
    8       -0.794046   1.000000
    9       -0.594474   1.000000
   10        0.247497   1.000000
   11        0.255481   1.000000
   12        0.477365   1.000000
   13        1.069545   1.000000
   14        1.428915   1.000000
   15        1.698760   0.900043
   16        1.874790   0.000000
   17        2.335523   0.000000
   18        2.924380   0.000000
   19        3.166112   0.000000
 
  0.1000000E+00  0.1000000E+00  0.0000000E+00  0.2500000E-02
    1       -6.547563   1.000000
    2       -4.769715   1.000000
    3       -3.266889   1.000000
    4       -3.249255   1.000000
    5       -2.756780   1.000000
    6       -2.115484   1.000000
    7       -2.082273   1.000000
    8       -0.749633   1.000000
    9        0.078474   1.000000
   10        0.147950   1.000000
   11        0.220081   1.000000
   12        1.018657   1.000000
   13        1.153981   1.000000
   14        1.164597   1.000000
   15        1.428368   1.000000
   16        1.536526   1.000000
   17        1.984192   0.000000
   18        2.520000   0.000000
   19        2.717298   0.000000
 
  0.1500000E+00  0.1000000E+00  0.0000000E+00  0.5000000E-02
    1       -6.285423   1.000000
    2       -4.577292   1.000000
    3       -3.170897   1.000000
    4       -3.022779   1.000000
    5       -2.644319   1.000000
    6       -2.153624   1.000000
    7       -1.795289   1.000000
    8       -0.766837   1.000000
    9       -0.143107   1.000000
   10       -0.061026   1.000000
   11        0.034273   1.000000
   12        0.778725   1.000000
   13        1.008436   1.000000
   14        1.273734   1.000000
   15        1.359036   1.000000
   16        1.619231   1.001557
   17        2.112028   0.000000
   18        2.651331   0.000000
   19        2.721546   0.000000
 
  0.2000000E+00  0.1000000E+00  0.0000000E+00  0.5000000E-02
    1       -5.935575   1.000000
    2       -4.347530   1.000000
    3       -3.096395   1.000000
    4       -2.740929   1.000000
    5       -2.516518   1.000000
    6       -2.219993   1.000000
    7       -1.404794   1.000000
    8       -0.700404   1.000000
    9       -0.413325   1.000000
   10       -0.148880   1.000000
   11       -0.106814   1.000000
   12        0.415519   1.000000
   13        0.973531   1.000000
   14        1.205003   1.000000
   15        1.303378   1.000000
   16        1.733228   0.599863
   17        2.236850   0.000000
   18        2.585701   0.000000
   19        2.674323   0.000000
 
  0.2500000E+00  0.1000000E+00  0.0000000E+00  0.5000000E-02
    1       -5.516287   1.000000
    2       -4.121984   1.000000
    3       -3.080877   1.000000
    4       -2.493791   1.000000
    5       -2.313278   1.000000
    6       -2.280204   1.000000
    7       -1.001112   1.000000
    8       -0.716106   1.000000
    9       -0.616385   1.000000
   10       -0.134856   1.000000
   11       -0.029506   1.000000
   12        0.165452   1.000000
   13        0.861817   1.000000
   14        1.065408   1.000000
   15        1.232060   1.000000
   16        1.816183  -0.026796
   17        2.292998   0.000000
   18        2.682173   0.000000
   19        2.700928   0.000000
 
  0.3000000E+00  0.1000000E+00  0.0000000E+00  0.5000000E-02
    1       -5.053325   1.000000
    2       -3.946099   1.000000
    3       -3.130637   1.000000
    4       -2.309676   1.000000
    5       -2.294278   1.000000
    6       -2.063988   1.000000
    7       -0.966323   1.000000
    8       -0.862299   1.000000
    9       -0.438913   1.000000
   10       -0.133214   1.000000
   11        0.027856   1.000000
   12        0.480051   1.000000
   13        0.605787   1.000000
   14        1.092252   1.000000
   15        1.115865   1.000000
   16        1.781032   0.175295
   17        2.279044   0.000000
   18        2.795203   0.000000
   19        2.919982   0.000000
 
  0.3500000E+00  0.1000000E+00  0.0000000E+00  0.5000000E-02
    1       -4.583015   1.000000
    2       -3.845103   1.000000
    3       -3.201768   1.000000
    4       -2.301388   1.000000
    5       -2.166169   1.000000
    6       -1.829000   1.000000
    7       -1.115652   1.000000
    8       -1.009771   1.000000
    9       -0.251984   1.000000
   10       -0.159572   1.000000
   11        0.352463   1.000000
   12        0.370544   1.000000
   13        0.831772   1.000000
   14        1.141926   1.000000
   15        1.195257   1.000000
   16        1.728677   0.419361
   17        2.207711   0.000000
   18        2.692110   0.000000
   19        2.967988   0.000000
 
  0.4000000E+00  0.1000000E+00  0.0000000E+00  0.5000000E-02
    1       -4.161032   1.000000
    2       -3.807316   1.000000
    3       -3.245136   1.000000
    4       -2.273797   1.000000
    5       -2.194084   1.000000
    6       -1.561697   1.000000
    7       -1.233381   1.000000
    8       -1.105509   1.000000
    9       -0.357200   1.000000
   10       -0.014857   1.000000
   11        0.234613   1.000000
   12        0.697542   1.000000
   13        0.741011   1.000000
   14        1.313832   1.000000
   15        1.595348   1.036353
   16        1.768215   0.059662
   17        2.129163   0.000000
   18        2.534837   0.000000
   19        3.099005   0.000000
 
  0.4500000E+00  0.1000000E+00  0.0000000E+00  0.5000000E-02
    1       -3.874608   1.000000
    2       -3.801317   1.000000
    3       -3.217990   1.000000
    4       -2.317300   1.000000
    5       -2.249958   1.000000
    6       -1.339215   1.000000
    7       -1.303951   1.000000
    8       -1.081833   1.000000
    9       -0.527417   1.000000
   10       -0.073473   1.000000
   11        0.331094   1.000000
   12        0.562562   1.000000
   13        1.017323   1.000000
   14        1.406926   1.000429
   15        1.792145   0.284351
   16        1.896649   0.000000
   17        2.051569   0.000000
   18        2.642330   0.000000
   19        3.148718   0.000000
 
  0.5000000E+00  0.1000000E+00  0.0000000E+00  0.2500000E-02
    1       -3.802217   1.000000
    2       -3.784341   1.000000
    3       -3.170284   1.000000
    4       -2.394090   1.000000
    5       -2.241214   1.000000
    6       -1.327127   1.000000
    7       -1.298090   1.000000
    8       -0.921896   1.000000
    9       -0.702143   1.000000
   10       -0.111685   1.000000
   11        0.387964   1.000000
   12        0.515843   1.000000
   13        1.115508   1.000000
   14        1.459035   1.000794
   15        1.820973  -0.072595
   16        1.936961   0.000000
   17        2.000197   0.000000
   18        2.780733   0.000000
   19        3.161925   0.000000
 
  0.1500000E+00  0.1500000E+00  0.0000000E+00  0.2500000E-02
    1       -6.030280   1.000000
    2       -4.368231   1.000000
    3       -2.978837   1.000000
    4       -2.872282   1.000000
    5       -2.505607   1.000000
    6       -1.893899   1.000000
    7       -1.823559   1.000000
    8       -0.868529   1.000000
    9       -0.360077   1.000000
   10       -0.270324   1.000000
   11       -0.081842   1.000000
   12        0.451298   1.000000
   13        0.976366   1.000000
   14        1.266314   1.000000
   15        1.388576   1.000000
   16        1.677615   1.000000
   17        2.027415   0.000000
   18        2.650110   0.000000
   19        2.666402   0.000000
 
  0.2000000E+00  0.1500000E+00  0.0000000E+00  0.5000000E-02
    1       -5.691251   1.000000
    2       -4.115864   1.000000
    3       -2.869359   1.000000
    4       -2.584944   1.000000
    5       -2.375070   1.000000
    6       -1.943468   1.000000
    7       -1.487561   1.000000
    8       -0.880092   1.000000
    9       -0.577560   1.000000
   10       -0.394208   1.000000
   11       -0.197183   1.000000
   12        0.106678   1.000000
   13        0.839389   1.000000
   14        1.315804   1.000000
   15        1.323113   1.000000
   16        1.712661   0.964765
   17        1.954898   0.000000
   18        2.604781   0.000000
   19        2.779732   0.000000
 
  0.2500000E+00  0.1500000E+00  0.0000000E+00  0.5000000E-02
    1       -5.287255   1.000000
    2       -3.865545   1.000000
    3       -2.832328   1.000000
    4       -2.277802   1.000000
    5       -2.246440   1.000000
    6       -2.020751   1.000000
    7       -1.168400   1.000000
    8       -0.885135   1.000000
    9       -0.672480   1.000000
   10       -0.415816   1.000000
   11       -0.286479   1.000000
   12       -0.013638   1.000000
   13        0.593809   1.000000
   14        1.224969   1.000000
   15        1.338798   1.000000
   16        1.690295   0.960066
   17        2.010120   0.000000
   18        2.603520   0.000000
   19        2.905992   0.000000
 
  0.3000000E+00  0.1500000E+00  0.0000000E+00  0.5000000E-02
    1       -4.843727   1.000000
    2       -3.670253   1.000000
    3       -2.875565   1.000000
    4       -2.096291   1.000000
    5       -2.071787   1.000000
    6       -2.037344   1.000000
    7       -1.139563   1.000000
    8       -0.979080   1.000000
    9       -0.530770   1.000000
   10       -0.417307   1.000000
   11       -0.224775   1.000000
   12        0.284110   1.000000
   13        0.298984   1.000000
   14        1.236263   1.000000
   15        1.297141   1.000000
   16        1.625080   1.057908
   17        2.048162   0.000000
   18        2.724392   0.000000
   19        3.055885   0.000000
 
  0.3500000E+00  0.1500000E+00  0.0000000E+00  0.5000000E-02
    1       -4.393494   1.000000
    2       -3.561019   1.000000
    3       -2.957319   1.000000
    4       -2.093297   1.000000
    5       -2.058746   1.000000
    6       -1.819000   1.000000
    7       -1.216415   1.000000
    8       -1.079756   1.000000
    9       -0.463457   1.000000
   10       -0.377328   1.000000
   11        0.034041   1.000000
   12        0.156949   1.000000
   13        0.683184   1.000000
   14        1.237711   1.000000
   15        1.355019   1.000000
   16        1.651410   1.069537
   17        2.000374   0.000000
   18        2.877924   0.000000
   19        2.989059   0.000000
 
  0.4000000E+00  0.1500000E+00  0.0000000E+00  0.5000000E-02
    1       -3.979751   1.000000
    2       -3.523345   1.000000
    3       -3.029911   1.000000
    4       -2.180213   1.000000
    5       -2.103788   1.000000
    6       -1.582328   1.000000
    7       -1.275197   1.000000
    8       -1.138158   1.000000
    9       -0.491396   1.000000
   10       -0.313732   1.000000
   11       -0.029473   1.000000
   12        0.469921   1.000000
   13        0.823545   1.000000
   14        1.404777   1.000000
   15        1.546076   1.025454
   16        1.805738   0.004463
   17        1.904432   0.000000
   18        2.792668   0.000000
   19        3.093040   0.000000
 
  0.4500000E+00  0.1500000E+00  0.0000000E+00  0.5000000E-02
    1       -3.667814   1.000000
    2       -3.519663   1.000000
    3       -3.059799   1.000000
    4       -2.351975   1.000000
    5       -2.112940   1.000000
    6       -1.401152   1.000000
    7       -1.306922   1.000000
    8       -1.125740   1.000000
    9       -0.574589   1.000000
   10       -0.407320   1.000000
   11        0.124840   1.000000
   12        0.657547   1.000000
   13        0.786728   1.000000
   14        1.649943   0.999884
   15        1.714445   0.853618
   16        1.823167   0.000000
   17        1.965304   0.000000
   18        2.795271   0.000000
   19        3.127897   0.000000
 
  0.5000000E+00  0.1500000E+00  0.0000000E+00  0.2500000E-02
    1       -3.549379   1.000000
    2       -3.521624   1.000000
    3       -3.052306   1.000000
    4       -2.443119   1.000000
    5       -2.117039   1.000000
    6       -1.351984   1.000000
    7       -1.316582   1.000000
    8       -1.068428   1.000000
    9       -0.645229   1.000000
   10       -0.449867   1.000000
   11        0.203245   1.000000
   12        0.718895   1.000000
   13        0.768796   1.000000
   14        1.741715   0.996913
   15        1.759240   0.391183
   16        1.809604   0.000000
   17        2.011379   0.000000
   18        2.873006   0.000000
   19        3.131979   0.000000
 
  0.2000000E+00  0.2000000E+00  0.0000000E+00  0.2500000E-02
    1       -5.369622   1.000000
    2       -3.830715   1.000000
    3       -2.663016   1.000000
    4       -2.341991   1.000000
    5       -2.244546   1.000000
    6       -1.626049   1.000000
    7       -1.590516   1.000000
    8       -0.974983   1.000000
    9       -0.700546   1.000000
   10       -0.584791   1.000000
   11       -0.346019   1.000000
   12       -0.154425   1.000000
   13        0.582686   1.000000
   14        1.378025   1.000000
   15        1.397881   1.000000
   16        1.674757   1.000000
   17        1.779573   0.021615
   18        2.537424   0.000000
   19        2.946144   0.000000
 
  0.2500000E+00  0.2000000E+00  0.0000000E+00  0.5000000E-02
    1       -4.991603   1.000000
    2       -3.540945   1.000000
    3       -2.556749   1.000000
    4       -2.190499   1.000000
    5       -2.011274   1.000000
    6       -1.729568   1.000000
    7       -1.351668   1.000000
    8       -1.009955   1.000000
    9       -0.719168   1.000000
   10       -0.640362   1.000000
   11       -0.530590   1.000000
   12       -0.174092   1.000000
   13        0.272858   1.000000
   14        1.388034   1.000000
   15        1.431887   1.000000
   16        1.583282   1.000000
   17        1.788081   0.061272
   18        2.564092   0.000000
   19        3.020481   0.000000
 
  0.3000000E+00  0.2000000E+00  0.0000000E+00  0.5000000E-02
    1       -4.583649   1.000000
    2       -3.311868   1.000000
    3       -2.567591   1.000000
    4       -2.172587   1.000000
    5       -1.833943   1.000000
    6       -1.716680   1.000000
    7       -1.270340   1.000000
    8       -1.083831   1.000000
    9       -0.736426   1.000000
   10       -0.610303   1.000000
   11       -0.364375   1.000000
   12       -0.033649   1.000000
   13        0.068912   1.000000
   14        1.374107   1.000000
   15        1.414055   1.000000
   16        1.592474   1.045822
   17        1.818888   0.004454
   18        2.690170   0.000000
   19        3.083555   0.000000
 
  0.3500000E+00  0.2000000E+00  0.0000000E+00  0.5000000E-02
    1       -4.176024   1.000000
    2       -3.187996   1.000000
    3       -2.661300   1.000000
    4       -2.205900   1.000000
    5       -1.922437   1.000000
    6       -1.529319   1.000000
    7       -1.230306   1.000000
    8       -1.146554   1.000000
    9       -0.669881   1.000000
   10       -0.558945   1.000000
   11       -0.299758   1.000000
   12       -0.017206   1.000000
   13        0.435793   1.000000
   14        1.262711   1.000000
   15        1.548742   1.000000
   16        1.753766   0.429402
   17        1.791202   0.009510
   18        2.860289   0.000000
   19        3.203803   0.000000
 
  0.4000000E+00  0.2000000E+00  0.0000000E+00  0.5000000E-02
    1       -3.799033   1.000000
    2       -3.151060   1.000000
    3       -2.781749   1.000000
    4       -2.313482   1.000000
    5       -1.998299   1.000000
    6       -1.402720   1.000000
    7       -1.206554   1.000000
    8       -1.177835   1.000000
    9       -0.595479   1.000000
   10       -0.469163   1.000000
   11       -0.380004   1.000000
   12        0.210239   1.000000
   13        0.771949   1.000000
   14        1.218644   1.000000
   15        1.694242   1.000000
   16        1.820285  -0.003893
   17        1.995869   0.000000
   18        3.008091   0.000000
   19        3.107210   0.000000
 
  0.4500000E+00  0.2000000E+00  0.0000000E+00  0.5000000E-02
    1       -3.484042   1.000000
    2       -3.151785   1.000000