 vasp.5.4.4.18Apr17-6-g9f103f2a35 (build May 20 2018 16:52:39) complex          
  
 executed on             LinuxIFC date 2022.11.15  15:07:02
 running on    1 total cores
 distrk:  each k-point on    1 cores,    1 groups
 distr:  one band on NCORES_PER_BAND=   1 cores,    1 groups


--------------------------------------------------------------------------------------------------------


 INCAR:
 POTCAR:    PAW W                                 
 POTCAR:    PAW W                                 
   VRHFIN =W: 5p6s5d                                                            
   LEXCH  = CA                                                                  
   EATOM  =   206.5370 eV,   15.1800 Ry                                         
                                                                                
   TITEL  = PAW W                                                               
   LULTRA =        F    use ultrasoft PP ?                                      
   IUNSCR =        1    unscreen: 0-lin 1-nonlin 2-no                           
   RPACOR =    2.330    partial core radius                                     
   POMASS =  183.850; ZVAL   =    6.000    mass and valenz                      
   RCORE  =    2.750    outmost cutoff radius                                   
   RWIGS  =    2.750; RWIGS  =    1.455    wigner-seitz radius (au A)           
   ENMAX  =  223.126; ENMIN  =  167.344 eV                                      
   RCLOC  =    2.147    cutoff for local pot                                    
   LCOR   =        T    correct aug charges                                     
   LPAW   =        T    paw PP                                                  
   EAUG   =  373.438                                                            
   DEXC   =    -.048                                                            
   RMAX   =    3.087    core radius for proj-oper                               
   RAUG   =    1.300    factor for augmentation sphere                          
   RDEP   =    2.886    radius for radial grids                                 
   QCUT   =   -4.050; QGAM   =    8.099    optimization parameters              
                                                                                
   Description                                                                  
     l     E      TYP  RCUT    TYP  RCUT                                        
     2   .000     23  2.500                                                     
     2   .000     23  2.500                                                     
     0   .000     23  2.500                                                     
     0   .000     23  2.500                                                     
     1   .200     23  2.750                                                     
     1  2.000     23  2.750                                                     
     3   .000      7   .000                                                     
  local pseudopotential read in
  partial core-charges read in
  atomic valenz-charges read in
  non local Contribution for L=           2  read in
    real space projection operators read in
  non local Contribution for L=           2  read in
    real space projection operators read in
  non local Contribution for L=           0  read in
    real space projection operators read in
  non local Contribution for L=           0  read in
    real space projection operators read in
  non local Contribution for L=           1  read in
    real space projection operators read in
  non local Contribution for L=           1  read in
    real space projection operators read in
    PAW grid and wavefunctions read in
 
   number of l-projection  operators is LMAX  =           6
   number of lm-projection operators is LMMAX =          18
 
  PAW W                                 :
 energy of atom  1       EATOM= -206.5370
 kinetic energy error for atom=    0.0005 (will be added to EATOM!!)
 
 
 POSCAR: BCC W 5-layers                          
  positions in direct lattice
  No initial velocities read in
 exchange correlation table for  LEXCH =        2
   RHO(1)=    0.500       N(1)  =     2000
   RHO(2)=  100.500       N(2)  =     4000
 


--------------------------------------------------------------------------------------------------------


 ion  position               nearest neighbor table
   1  0.000  0.000  0.000-   2 2.74   2 2.74   2 2.74   2 2.74   3 3.16
   2  0.500  0.500  0.100-   1 2.74   3 2.74   1 2.74   3 2.74   1 2.74   3 2.74   1 2.74   3 2.74
                             4 3.16
   3  0.000  0.000  0.200-   4 2.74   4 2.74   4 2.74   4 2.74   2 2.74   2 2.74   2 2.74   2 2.74
                             5 3.16   1 3.16
   4  0.500  0.500  0.300-   3 2.74   3 2.74   3 2.74   3 2.74   5 2.74   5 2.74   5 2.74   5 2.74
                             2 3.16
   5  0.000  0.000  0.400-   4 2.74   4 2.74   4 2.74   4 2.74   3 3.16
 
  LATTYP: Found a simple tetragonal cell.
 ALAT       =     3.1600000000
 C/A-ratio  =     5.0000000000
  
  Lattice vectors:
  
 A1 = (   3.1600000000,   0.0000000000,   0.0000000000)
 A2 = (   0.0000000000,   3.1600000000,   0.0000000000)
 A3 = (   0.0000000000,   0.0000000000,  15.8000000000)


Analysis of symmetry for initial positions (statically):
=====================================================================
 Subroutine PRICEL returns:
 Original cell was already a primitive cell.
 

 Routine SETGRP: Setting up the symmetry group for a 
 simple tetragonal supercell.


 Subroutine GETGRP returns: Found 16 space group operations
 (whereof  8 operations were pure point group operations)
 out of a pool of 16 trial point group operations.


The static configuration has the point symmetry C_4v.
 The point group associated with its full space group is D_4h.


Analysis of symmetry for dynamics (positions and initial velocities):
=====================================================================
 Subroutine PRICEL returns:
 Original cell was already a primitive cell.
 

 Routine SETGRP: Setting up the symmetry group for a 
 simple tetragonal supercell.


 Subroutine GETGRP returns: Found 16 space group operations
 (whereof  8 operations were pure point group operations)
 out of a pool of 16 trial point group operations.


The dynamic configuration has the point symmetry C_4v.
 The point group associated with its full space group is D_4h.


 Subroutine INISYM returns: Found 16 space group operations
 (whereof  8 operations are pure point group operations),
 and found     1 'primitive' translations

 
 
 KPOINTS: Gamma 20*20*4                           

Automatic generation of k-mesh.
Space group operators:
 irot       det(A)        alpha          n_x          n_y          n_z        tau_x        tau_y        tau_z
    1     1.000000     0.000000     1.000000     0.000000     0.000000     0.000000     0.000000     0.000000
    2     1.000000    90.000000     0.000000     0.000000    -1.000000     0.000000     0.000000     0.000000
    3     1.000000   180.000000     0.000000     0.000000     1.000000     0.000000     0.000000     0.000000
    4     1.000000    90.000000     0.000000     0.000000     1.000000     0.000000     0.000000     0.000000
    5    -1.000000   180.000000     0.000000     1.000000     0.000000     0.000000     0.000000     0.000000
    6    -1.000000   180.000000     0.707107     0.707107     0.000000     0.000000     0.000000     0.000000
    7    -1.000000   180.000000     1.000000     0.000000     0.000000     0.000000     0.000000     0.000000
    8    -1.000000   180.000000     0.707107    -0.707107     0.000000     0.000000     0.000000     0.000000
    9    -1.000000     0.000000     1.000000     0.000000     0.000000     0.000000     0.000000     0.400000
   10    -1.000000    90.000000     0.000000     0.000000    -1.000000     0.000000     0.000000     0.400000
   11    -1.000000   180.000000     0.000000     0.000000     1.000000     0.000000     0.000000     0.400000
   12    -1.000000    90.000000     0.000000     0.000000     1.000000     0.000000     0.000000     0.400000
   13     1.000000   180.000000     0.000000     1.000000     0.000000     0.000000     0.000000     0.400000
   14     1.000000   180.000000     0.707107     0.707107     0.000000     0.000000     0.000000     0.400000
   15     1.000000   180.000000     1.000000     0.000000     0.000000     0.000000     0.000000     0.400000
   16     1.000000   180.000000     0.707107    -0.707107     0.000000     0.000000     0.000000     0.400000
 
 Subroutine IBZKPT returns following result:
 ===========================================
 
 Found    198 irreducible k-points:
 
 Following reciprocal coordinates:
            Coordinates               Weight
  0.000000  0.000000  0.000000      1.000000
  0.050000  0.000000  0.000000      4.000000
  0.100000  0.000000  0.000000      4.000000
  0.150000  0.000000  0.000000      4.000000
  0.200000  0.000000  0.000000      4.000000
  0.250000  0.000000  0.000000      4.000000
  0.300000  0.000000  0.000000      4.000000
  0.350000  0.000000  0.000000      4.000000
  0.400000  0.000000  0.000000      4.000000
  0.450000  0.000000  0.000000      4.000000
  0.500000  0.000000  0.000000      2.000000
  0.050000  0.050000  0.000000      4.000000
  0.100000  0.050000  0.000000      8.000000
  0.150000  0.050000  0.000000      8.000000
  0.200000  0.050000  0.000000      8.000000
  0.250000  0.050000  0.000000      8.000000
  0.300000  0.050000  0.000000      8.000000
  0.350000  0.050000  0.000000      8.000000
  0.400000  0.050000  0.000000      8.000000
  0.450000  0.050000  0.000000      8.000000
  0.500000  0.050000  0.000000      4.000000
  0.100000  0.100000  0.000000      4.000000
  0.150000  0.100000  0.000000      8.000000
  0.200000  0.100000  0.000000      8.000000
  0.250000  0.100000  0.000000      8.000000
  0.300000  0.100000  0.000000      8.000000
  0.350000  0.100000  0.000000      8.000000
  0.400000  0.100000  0.000000      8.000000
  0.450000  0.100000  0.000000      8.000000
  0.500000  0.100000  0.000000      4.000000
  0.150000  0.150000  0.000000      4.000000
  0.200000  0.150000  0.000000      8.000000
  0.250000  0.150000  0.000000      8.000000
  0.300000  0.150000  0.000000      8.000000
  0.350000  0.150000  0.000000      8.000000
  0.400000  0.150000  0.000000      8.000000
  0.450000  0.150000  0.000000      8.000000
  0.500000  0.150000  0.000000      4.000000
  0.200000  0.200000  0.000000      4.000000
  0.250000  0.200000  0.000000      8.000000
  0.300000  0.200000  0.000000      8.000000
  0.350000  0.200000  0.000000      8.000000
  0.400000  0.200000  0.000000      8.000000
  0.450000  0.200000  0.000000      8.000000
  0.500000  0.200000  0.000000      4.000000
  0.250000  0.250000  0.000000      4.000000
  0.300000  0.250000  0.000000      8.000000
  0.350000  0.250000  0.000000      8.000000
  0.400000  0.250000  0.000000      8.000000
  0.450000  0.250000  0.000000      8.000000
  0.500000  0.250000  0.000000      4.000000
  0.300000  0.300000  0.000000      4.000000
  0.350000  0.300000  0.000000      8.000000
  0.400000  0.300000  0.000000      8.000000
  0.450000  0.300000  0.000000      8.000000
  0.500000  0.300000  0.000000      4.000000
  0.350000  0.350000  0.000000      4.000000
  0.400000  0.350000  0.000000      8.000000
  0.450000  0.350000  0.000000      8.000000
  0.500000  0.350000  0.000000      4.000000
  0.400000  0.400000  0.000000      4.000000
  0.450000  0.400000  0.000000      8.000000
  0.500000  0.400000  0.000000      4.000000
  0.450000  0.450000  0.000000      4.000000
  0.500000  0.450000  0.000000      4.000000
  0.500000  0.500000  0.000000      1.000000
  0.000000  0.000000  0.250000      2.000000
  0.050000  0.000000  0.250000      8.000000
  0.100000  0.000000  0.250000      8.000000
  0.150000  0.000000  0.250000      8.000000
  0.200000  0.000000  0.250000      8.000000
  0.250000  0.000000  0.250000      8.000000
  0.300000  0.000000  0.250000      8.000000
  0.350000  0.000000  0.250000      8.000000
  0.400000  0.000000  0.250000      8.000000
  0.450000  0.000000  0.250000      8.000000
  0.500000  0.000000  0.250000      4.000000
  0.050000  0.050000  0.250000      8.000000
  0.100000  0.050000  0.250000     16.000000
  0.150000  0.050000  0.250000     16.000000
  0.200000  0.050000  0.250000     16.000000
  0.250000  0.050000  0.250000     16.000000
  0.300000  0.050000  0.250000     16.000000
  0.350000  0.050000  0.250000     16.000000
  0.400000  0.050000  0.250000     16.000000
  0.450000  0.050000  0.250000     16.000000
  0.500000  0.050000  0.250000      8.000000
  0.100000  0.100000  0.250000      8.000000
  0.150000  0.100000  0.250000     16.000000
  0.200000  0.100000  0.250000     16.000000
  0.250000  0.100000  0.250000     16.000000
  0.300000  0.100000  0.250000     16.000000
  0.350000  0.100000  0.250000     16.000000
  0.400000  0.100000  0.250000     16.000000
  0.450000  0.100000  0.250000     16.000000
  0.500000  0.100000  0.250000      8.000000
  0.150000  0.150000  0.250000      8.000000
  0.200000  0.150000  0.250000     16.000000
  0.250000  0.150000  0.250000     16.000000
  0.300000  0.150000  0.250000     16.000000
  0.350000  0.150000  0.250000     16.000000
  0.400000  0.150000  0.250000     16.000000
  0.450000  0.150000  0.250000     16.000000
  0.500000  0.150000  0.250000      8.000000
  0.200000  0.200000  0.250000      8.000000
  0.250000  0.200000  0.250000     16.000000
  0.300000  0.200000  0.250000     16.000000
  0.350000  0.200000  0.250000     16.000000
  0.400000  0.200000  0.250000     16.000000
  0.450000  0.200000  0.250000     16.000000
  0.500000  0.200000  0.250000      8.000000
  0.250000  0.250000  0.250000      8.000000
  0.300000  0.250000  0.250000     16.000000
  0.350000  0.250000  0.250000     16.000000
  0.400000  0.250000  0.250000     16.000000
  0.450000  0.250000  0.250000     16.000000
  0.500000  0.250000  0.250000      8.000000
  0.300000  0.300000  0.250000      8.000000
  0.350000  0.300000  0.250000     16.000000
  0.400000  0.300000  0.250000     16.000000
  0.450000  0.300000  0.250000     16.000000
  0.500000  0.300000  0.250000      8.000000
  0.350000  0.350000  0.250000      8.000000
  0.400000  0.350000  0.250000     16.000000
  0.450000  0.350000  0.250000     16.000000
  0.500000  0.350000  0.250000      8.000000
  0.400000  0.400000  0.250000      8.000000
  0.450000  0.400000  0.250000     16.000000
  0.500000  0.400000  0.250000      8.000000
  0.450000  0.450000  0.250000      8.000000
  0.500000  0.450000  0.250000      8.000000
  0.500000  0.500000  0.250000      2.000000
  0.000000  0.000000  0.500000      1.000000
  0.050000  0.000000  0.500000      4.000000
  0.100000  0.000000  0.500000      4.000000
  0.150000  0.000000  0.500000      4.000000
  0.200000  0.000000  0.500000      4.000000
  0.250000  0.000000  0.500000      4.000000
  0.300000  0.000000  0.500000      4.000000
  0.350000  0.000000  0.500000      4.000000
  0.400000  0.000000  0.500000      4.000000
  0.450000  0.000000  0.500000      4.000000
  0.500000  0.000000  0.500000      2.000000
  0.050000  0.050000  0.500000      4.000000
  0.100000  0.050000  0.500000      8.000000
  0.150000  0.050000  0.500000      8.000000
  0.200000  0.050000  0.500000      8.000000
  0.250000  0.050000  0.500000      8.000000
  0.300000  0.050000  0.500000      8.000000
  0.350000  0.050000  0.500000      8.000000
  0.400000  0.050000  0.500000      8.000000
  0.450000  0.050000  0.500000      8.000000
  0.500000  0.050000  0.500000      4.000000
  0.100000  0.100000  0.500000      4.000000
  0.150000  0.100000  0.500000      8.000000
  0.200000  0.100000  0.500000      8.000000
  0.250000  0.100000  0.500000      8.000000
  0.300000  0.100000  0.500000      8.000000
  0.350000  0.100000  0.500000      8.000000
  0.400000  0.100000  0.500000      8.000000
  0.450000  0.100000  0.500000      8.000000
  0.500000  0.100000  0.500000      4.000000
  0.150000  0.150000  0.500000      4.000000
  0.200000  0.150000  0.500000      8.000000
  0.250000  0.150000  0.500000      8.000000
  0.300000  0.150000  0.500000      8.000000
  0.350000  0.150000  0.500000      8.000000
  0.400000  0.150000  0.500000      8.000000
  0.450000  0.150000  0.500000      8.000000
  0.500000  0.150000  0.500000      4.000000
  0.200000  0.200000  0.500000      4.000000
  0.250000  0.200000  0.500000      8.000000
  0.300000  0.200000  0.500000      8.000000
  0.350000  0.200000  0.500000      8.000000
  0.400000  0.200000  0.500000      8.000000
  0.450000  0.200000  0.500000      8.000000
  0.500000  0.200000  0.500000      4.000000
  0.250000  0.250000  0.500000      4.000000
  0.300000  0.250000  0.500000      8.000000
  0.350000  0.250000  0.500000      8.000000
  0.400000  0.250000  0.500000      8.000000
  0.450000  0.250000  0.500000      8.000000
  0.500000  0.250000  0.500000      4.000000
  0.300000  0.300000  0.500000      4.000000
  0.350000  0.300000  0.500000      8.000000
  0.400000  0.300000  0.500000      8.000000
  0.450000  0.300000  0.500000      8.000000
  0.500000  0.300000  0.500000      4.000000
  0.350000  0.350000  0.500000      4.000000
  0.400000  0.350000  0.500000      8.000000
  0.450000  0.350000  0.500000      8.000000
  0.500000  0.350000  0.500000      4.000000
  0.400000  0.400000  0.500000      4.000000
  0.450000  0.400000  0.500000      8.000000
  0.500000  0.400000  0.500000      4.000000
  0.450000  0.450000  0.500000      4.000000
  0.500000  0.450000  0.500000      4.000000
  0.500000  0.500000  0.500000      1.000000
 
 Following cartesian coordinates:
            Coordinates               Weight
  0.000000  0.000000  0.000000      1.000000
  0.050000  0.000000  0.000000      4.000000
  0.100000  0.000000  0.000000      4.000000
  0.150000  0.000000  0.000000      4.000000
  0.200000  0.000000  0.000000      4.000000
  0.250000  0.000000  0.000000      4.000000
  0.300000  0.000000  0.000000      4.000000
  0.350000  0.000000  0.000000      4.000000
  0.400000  0.000000  0.000000      4.000000
  0.450000  0.000000  0.000000      4.000000
  0.500000  0.000000  0.000000      2.000000
  0.050000  0.050000  0.000000      4.000000
  0.100000  0.050000  0.000000      8.000000
  0.150000  0.050000  0.000000      8.000000
  0.200000  0.050000  0.000000      8.000000
  0.250000  0.050000  0.000000      8.000000
  0.300000  0.050000  0.000000      8.000000
  0.350000  0.050000  0.000000      8.000000
  0.400000  0.050000  0.000000      8.000000
  0.450000  0.050000  0.000000      8.000000
  0.500000  0.050000  0.000000      4.000000
  0.100000  0.100000  0.000000      4.000000
  0.150000  0.100000  0.000000      8.000000
  0.200000  0.100000  0.000000      8.000000
  0.250000  0.100000  0.000000      8.000000
  0.300000  0.100000  0.000000      8.000000
  0.350000  0.100000  0.000000      8.000000
  0.400000  0.100000  0.000000      8.000000
  0.450000  0.100000  0.000000      8.000000
  0.500000  0.100000  0.000000      4.000000
  0.150000  0.150000  0.000000      4.000000
  0.200000  0.150000  0.000000      8.000000
  0.250000  0.150000  0.000000      8.000000
  0.300000  0.150000  0.000000      8.000000
  0.350000  0.150000  0.000000      8.000000
  0.400000  0.150000  0.000000      8.000000
  0.450000  0.150000  0.000000      8.000000
  0.500000  0.150000  0.000000      4.000000
  0.200000  0.200000  0.000000      4.000000
  0.250000  0.200000  0.000000      8.000000
  0.300000  0.200000  0.000000      8.000000
  0.350000  0.200000  0.000000      8.000000
  0.400000  0.200000  0.000000      8.000000
  0.450000  0.200000  0.000000      8.000000
  0.500000  0.200000  0.000000      4.000000
  0.250000  0.250000  0.000000      4.000000
  0.300000  0.250000  0.000000      8.000000
  0.350000  0.250000  0.000000      8.000000
  0.400000  0.250000  0.000000      8.000000
  0.450000  0.250000  0.000000      8.000000
  0.500000  0.250000  0.000000      4.000000
  0.300000  0.300000  0.000000      4.000000
  0.350000  0.300000  0.000000      8.000000
  0.400000  0.300000  0.000000      8.000000
  0.450000  0.300000  0.000000      8.000000
  0.500000  0.300000  0.000000      4.000000
  0.350000  0.350000  0.000000      4.000000
  0.400000  0.350000  0.000000      8.000000
  0.450000  0.350000  0.000000      8.000000
  0.500000  0.350000  0.000000      4.000000
  0.400000  0.400000  0.000000      4.000000
  0.450000  0.400000  0.000000      8.000000
  0.500000  0.400000  0.000000      4.000000
  0.450000  0.450000  0.000000      4.000000
  0.500000  0.450000  0.000000      4.000000
  0.500000  0.500000  0.000000      1.000000
  0.000000  0.000000  0.050000      2.000000
  0.050000  0.000000  0.050000      8.000000
  0.100000  0.000000  0.050000      8.000000
  0.150000  0.000000  0.050000      8.000000
  0.200000  0.000000  0.050000      8.000000
  0.250000  0.000000  0.050000      8.000000
  0.300000  0.000000  0.050000      8.000000
  0.350000  0.000000  0.050000      8.000000
  0.400000  0.000000  0.050000      8.000000
  0.450000  0.000000  0.050000      8.000000
  0.500000  0.000000  0.050000      4.000000
  0.050000  0.050000  0.050000      8.000000
  0.100000  0.050000  0.050000     16.000000
  0.150000  0.050000  0.050000     16.000000
  0.200000  0.050000  0.050000     16.000000
  0.250000  0.050000  0.050000     16.000000
  0.300000  0.050000  0.050000     16.000000
  0.350000  0.050000  0.050000     16.000000
  0.400000  0.050000  0.050000     16.000000
  0.450000  0.050000  0.050000     16.000000
  0.500000  0.050000  0.050000      8.000000
  0.100000  0.100000  0.050000      8.000000
  0.150000  0.100000  0.050000     16.000000
  0.200000  0.100000  0.050000     16.000000
  0.250000  0.100000  0.050000     16.000000
  0.300000  0.100000  0.050000     16.000000
  0.350000  0.100000  0.050000     16.000000
  0.400000  0.100000  0.050000     16.000000
  0.450000  0.100000  0.050000     16.000000
  0.500000  0.100000  0.050000      8.000000
  0.150000  0.150000  0.050000      8.000000
  0.200000  0.150000  0.050000     16.000000
  0.250000  0.150000  0.050000     16.000000
  0.300000  0.150000  0.050000     16.000000
  0.350000  0.150000  0.050000     16.000000
  0.400000  0.150000  0.050000     16.000000
  0.450000  0.150000  0.050000     16.000000
  0.500000  0.150000  0.050000      8.000000
  0.200000  0.200000  0.050000      8.000000
  0.250000  0.200000  0.050000     16.000000
  0.300000  0.200000  0.050000     16.000000
  0.350000  0.200000  0.050000     16.000000
  0.400000  0.200000  0.050000     16.000000
  0.450000  0.200000  0.050000     16.000000
  0.500000  0.200000  0.050000      8.000000
  0.250000  0.250000  0.050000      8.000000
  0.300000  0.250000  0.050000     16.000000
  0.350000  0.250000  0.050000     16.000000
  0.400000  0.250000  0.050000     16.000000
  0.450000  0.250000  0.050000     16.000000
  0.500000  0.250000  0.050000      8.000000
  0.300000  0.300000  0.050000      8.000000
  0.350000  0.300000  0.050000     16.000000
  0.400000  0.300000  0.050000     16.000000
  0.450000  0.300000  0.050000     16.000000
  0.500000  0.300000  0.050000      8.000000
  0.350000  0.350000  0.050000      8.000000
  0.400000  0.350000  0.050000     16.000000
  0.450000  0.350000  0.050000     16.000000
  0.500000  0.350000  0.050000      8.000000
  0.400000  0.400000  0.050000      8.000000
  0.450000  0.400000  0.050000     16.000000
  0.500000  0.400000  0.050000      8.000000
  0.450000  0.450000  0.050000      8.000000
  0.500000  0.450000  0.050000      8.000000
  0.500000  0.500000  0.050000      2.000000
  0.000000  0.000000  0.100000      1.000000
  0.050000  0.000000  0.100000      4.000000
  0.100000  0.000000  0.100000      4.000000
  0.150000  0.000000  0.100000      4.000000
  0.200000  0.000000  0.100000      4.000000
  0.250000  0.000000  0.100000      4.000000
  0.300000  0.000000  0.100000      4.000000
  0.350000  0.000000  0.100000      4.000000
  0.400000  0.000000  0.100000      4.000000
  0.450000  0.000000  0.100000      4.000000
  0.500000  0.000000  0.100000      2.000000
  0.050000  0.050000  0.100000      4.000000
  0.100000  0.050000  0.100000      8.000000
  0.150000  0.050000  0.100000      8.000000
  0.200000  0.050000  0.100000      8.000000
  0.250000  0.050000  0.100000      8.000000
  0.300000  0.050000  0.100000      8.000000
  0.350000  0.050000  0.100000      8.000000
  0.400000  0.050000  0.100000      8.000000
  0.450000  0.050000  0.100000      8.000000
  0.500000  0.050000  0.100000      4.000000
  0.100000  0.100000  0.100000      4.000000
  0.150000  0.100000  0.100000      8.000000
  0.200000  0.100000  0.100000      8.000000
  0.250000  0.100000  0.100000      8.000000
  0.300000  0.100000  0.100000      8.000000
  0.350000  0.100000  0.100000      8.000000
  0.400000  0.100000  0.100000      8.000000
  0.450000  0.100000  0.100000      8.000000
  0.500000  0.100000  0.100000      4.000000
  0.150000  0.150000  0.100000      4.000000
  0.200000  0.150000  0.100000      8.000000
  0.250000  0.150000  0.100000      8.000000
  0.300000  0.150000  0.100000      8.000000
  0.350000  0.150000  0.100000      8.000000
  0.400000  0.150000  0.100000      8.000000
  0.450000  0.150000  0.100000      8.000000
  0.500000  0.150000  0.100000      4.000000
  0.200000  0.200000  0.100000      4.000000
  0.250000  0.200000  0.100000      8.000000
  0.300000  0.200000  0.100000      8.000000
  0.350000  0.200000  0.100000      8.000000
  0.400000  0.200000  0.100000      8.000000
  0.450000  0.200000  0.100000      8.000000
  0.500000  0.200000  0.100000      4.000000
  0.250000  0.250000  0.100000      4.000000
  0.300000  0.250000  0.100000      8.000000
  0.350000  0.250000  0.100000      8.000000
  0.400000  0.250000  0.100000      8.000000
  0.450000  0.250000  0.100000      8.000000
  0.500000  0.250000  0.100000      4.000000
  0.300000  0.300000  0.100000      4.000000
  0.350000  0.300000  0.100000      8.000000
  0.400000  0.300000  0.100000      8.000000
  0.450000  0.300000  0.100000      8.000000
  0.500000  0.300000  0.100000      4.000000
  0.350000  0.350000  0.100000      4.000000
  0.400000  0.350000  0.100000      8.000000
  0.450000  0.350000  0.100000      8.000000
  0.500000  0.350000  0.100000      4.000000
  0.400000  0.400000  0.100000      4.000000
  0.450000  0.400000  0.100000      8.000000
  0.500000  0.400000  0.100000      4.000000
  0.450000  0.450000  0.100000      4.000000
  0.500000  0.450000  0.100000      4.000000
  0.500000  0.500000  0.100000      1.000000
 
 TETIRR: Found   2400 inequivalent tetrahedra from     9600


--------------------------------------------------------------------------------------------------------




 Dimension of arrays:
   k-points           NKPTS =    198   k-points in BZ     NKDIM =    198   number of bands    NBANDS=     19
   number of dos      NEDOS =    301   number of ions     NIONS =      5
   non local maximal  LDIM  =      6   non local SUM 2l+1 LMDIM =     18
   total plane-waves  NPLWV =  38400
   max r-space proj   IRMAX =      1   max aug-charges    IRDMAX=  14091
   dimension x,y,z NGX =    20 NGY =   20 NGZ =   96
   dimension x,y,z NGXF=    40 NGYF=   40 NGZF=  192
   support grid    NGXF=    40 NGYF=   40 NGZF=  192
   ions per type =               5
   NGX,Y,Z   is equivalent  to a cutoff of  10.52, 10.52, 10.10 a.u.
   NGXF,Y,Z  is equivalent  to a cutoff of  21.04, 21.04, 20.20 a.u.

 SYSTEM =  unknown system                          
 POSCAR =  BCC W 5-layers                          

 Startparameter for this run:
   NWRITE =      2    write-flag & timer
   PREC   = normal    normal or accurate (medium, high low for compatibility)
   ISTART =      0    job   : 0-new  1-cont  2-samecut
   ICHARG =     11    charge: 1-file 2-atom 10-const
   ISPIN  =      1    spin polarized calculation?
   LNONCOLLINEAR =      F non collinear calculations
   LSORBIT =      F    spin-orbit coupling
   INIWAV =      1    electr: 0-lowe 1-rand  2-diag
   LASPH  =      F    aspherical Exc in radial PAW
   METAGGA=      F    non-selfconsistent MetaGGA calc.

 Electronic Relaxation 1
   ENCUT  =  600.0 eV  44.10 Ry    6.64 a.u.   6.31  6.31 31.56*2*pi/ulx,y,z
   ENINI  =  600.0     initial cutoff
   ENAUG  =  373.4 eV  augmentation charge cutoff
   NELM   =     60;   NELMIN=  2; NELMDL= -5     # of ELM steps 
   EDIFF  = 0.1E-05   stopping-criterion for ELM
   LREAL  =      F    real-space projection
   NLSPLINE    = F    spline interpolate recip. space projectors
   LCOMPAT=      F    compatible to vasp.4.4
   GGA_COMPAT  = T    GGA compatible to vasp.4.4-vasp.4.6
   LMAXPAW     = -100 max onsite density
   LMAXMIX     =    2 max onsite mixed and CHGCAR
   VOSKOWN=      0    Vosko Wilk Nusair interpolation
   ROPT   =    0.00000
 Ionic relaxation
   EDIFFG = 0.1E-04   stopping-criterion for IOM
   NSW    =      0    number of steps for IOM
   NBLOCK =      1;   KBLOCK =      1    inner block; outer block 
   IBRION =     -1    ionic relax: 0-MD 1-quasi-New 2-CG
   NFREE  =      0    steps in history (QN), initial steepest desc. (CG)
   ISIF   =      2    stress and relaxation
   IWAVPR =     10    prediction:  0-non 1-charg 2-wave 3-comb
   ISYM   =      2    0-nonsym 1-usesym 2-fastsym
   LCORR  =      T    Harris-Foulkes like correction to forces

   POTIM  = 0.5000    time-step for ionic-motion
   TEIN   =    0.0    initial temperature
   TEBEG  =    0.0;   TEEND  =   0.0 temperature during run
   SMASS  =  -3.00    Nose mass-parameter (am)
   estimated Nose-frequenzy (Omega)   =  0.10E-29 period in steps =****** mass=  -0.228E-27a.u.
   SCALEE = 1.0000    scale energy and forces
   NPACO  =    256;   APACO  = 16.0  distance and # of slots for P.C.
   PSTRESS=    0.0 pullay stress

  Mass of Ions in am
   POMASS = 183.85
  Ionic Valenz
   ZVAL   =   6.00
  Atomic Wigner-Seitz radii
   RWIGS  =  -1.00
  virtual crystal weights 
   VCA    =   1.00
   NELECT =      30.0000    total number of electrons
   NUPDOWN=      -1.0000    fix difference up-down

 DOS related values:
   EMIN   =  10.00;   EMAX   =-10.00  energy-range for DOS
   EFERMI =   0.00
   ISMEAR =    -5;   SIGMA  =   0.20  broadening in eV -4-tet -1-fermi 0-gaus

 Electronic relaxation 2 (details)
   IALGO  =     38    algorithm
   LDIAG  =      T    sub-space diagonalisation (order eigenvalues)
   LSUBROT=      F    optimize rotation matrix (better conditioning)
   TURBO    =      0    0=normal 1=particle mesh
   IRESTART =      0    0=no restart 2=restart with 2 vectors
   NREBOOT  =      0    no. of reboots
   NMIN     =      0    reboot dimension
   EREF     =   0.00    reference energy to select bands
   IMIX   =      4    mixing-type and parameters
     AMIX     =   0.40;   BMIX     =  1.00
     AMIX_MAG =   1.60;   BMIX_MAG =  1.00
     AMIN     =   0.10
     WC   =   100.;   INIMIX=   1;  MIXPRE=   1;  MAXMIX= -45

 Intra band minimization:
   WEIMIN = 0.0000     energy-eigenvalue tresh-hold
   EBREAK =  0.13E-07  absolut break condition
   DEPER  =   0.30     relativ break condition  

   TIME   =   0.40     timestep for ELM

  volume/ion in A,a.u.               =      31.55       212.94
  Fermi-wavevector in a.u.,A,eV,Ry     =   0.941394  1.778977 12.057795  0.886223
  Thomas-Fermi vector in A             =   2.068901
 
 Write flags
   LWAVE        =      T    write WAVECAR
   LDOWNSAMPLE  =      F    k-point downsampling of WAVECAR
   LCHARG       =      F    write CHGCAR
   LVTOT        =      F    write LOCPOT, total local potential
   LVHAR        =      F    write LOCPOT, Hartree potential only
   LELF         =      F    write electronic localiz. function (ELF)
   LORBIT       =      0    0 simple, 1 ext, 2 COOP (PROOUT), +10 PAW based schemes


 Dipole corrections
   LMONO  =      F    monopole corrections only (constant potential shift)
   LDIPOL =      F    correct potential (dipole corrections)
   IDIPOL =      0    1-x, 2-y, 3-z, 4-all directions 
   EPSILON=  1.0000000 bulk dielectric constant

 Exchange correlation treatment:
   GGA     =    --    GGA type
   LEXCH   =     2    internal setting for exchange type
   VOSKOWN=      0    Vosko Wilk Nusair interpolation
   LHFCALC =     F    Hartree Fock is set to
   LHFONE  =     F    Hartree Fock one center treatment
   AEXX    =    0.0000 exact exchange contribution

 Linear response parameters
   LEPSILON=     F    determine dielectric tensor
   LRPA    =     F    only Hartree local field effects (RPA)
   LNABLA  =     F    use nabla operator in PAW spheres
   LVEL    =     F    velocity operator in full k-point grid
   LINTERFAST=   F  fast interpolation
   KINTER  =     0    interpolate to denser k-point grid
   CSHIFT  =0.1000    complex shift for real part using Kramers Kronig
   OMEGAMAX=  -1.0    maximum frequency
   DEG_THRESHOLD= 0.2000000E-02 threshold for treating states as degnerate
   RTIME   =   -0.100 relaxation time in fs
  (WPLASMAI=    0.000 imaginary part of plasma frequency in eV, 0.658/RTIME)
   DFIELD  = 0.0000000 0.0000000 0.0000000 field for delta impulse in time
 
 Orbital magnetization related:
   ORBITALMAG=     F  switch on orbital magnetization
   LCHIMAG   =     F  perturbation theory with respect to B field
   DQ        =  0.001000  dq finite difference perturbation B field
   LLRAUG    =     F  two centre corrections for induced B field



--------------------------------------------------------------------------------------------------------


 Static calculation
 charge density and potential remain constant during run
 non-spin polarized calculation
 Variant of blocked Davidson
 Davidson routine will perform the subspace rotation
 perform sub-space diagonalisation
    after iterative eigenvector-optimisation
 no mixing
 using additional bands            4
 reciprocal scheme for non local part
 use partial core corrections
 calculate Harris-corrections to forces 
   (improved forces if not selfconsistent)
 use of overlap-Matrix (Vanderbilt PP)
 Fermi weights with tetrahedron method with Bloechl corrections


--------------------------------------------------------------------------------------------------------


  energy-cutoff  :      600.00
  volume of cell :      157.77
      direct lattice vectors                 reciprocal lattice vectors
     3.160000000  0.000000000  0.000000000     0.316455696  0.000000000  0.000000000
     0.000000000  3.160000000  0.000000000     0.000000000  0.316455696  0.000000000
     0.000000000  0.000000000 15.800000000     0.000000000  0.000000000  0.063291139

  length of vectors
     3.160000000  3.160000000 15.800000000     0.316455696  0.316455696  0.063291139


 
 k-points in units of 2pi/SCALE and weight: Gamma 20*20*4                           
   0.00000000  0.00000000  0.00000000       0.001
   0.05000000  0.00000000  0.00000000       0.003
   0.10000000  0.00000000  0.00000000       0.003
   0.15000000  0.00000000  0.00000000       0.003
   0.20000000  0.00000000  0.00000000       0.003
   0.25000000  0.00000000  0.00000000       0.003
   0.30000000  0.00000000  0.00000000       0.003
   0.35000000  0.00000000  0.00000000       0.003
   0.40000000  0.00000000  0.00000000       0.003
   0.45000000  0.00000000  0.00000000       0.003
   0.50000000  0.00000000  0.00000000       0.001
   0.05000000  0.05000000  0.00000000       0.003
   0.10000000  0.05000000  0.00000000       0.005
   0.15000000  0.05000000  0.00000000       0.005
   0.20000000  0.05000000  0.00000000       0.005
   0.25000000  0.05000000  0.00000000       0.005
   0.30000000  0.05000000  0.00000000       0.005
   0.35000000  0.05000000  0.00000000       0.005
   0.40000000  0.05000000  0.00000000       0.005
   0.45000000  0.05000000  0.00000000       0.005
   0.50000000  0.05000000  0.00000000       0.003
   0.10000000  0.10000000  0.00000000       0.003
   0.15000000  0.10000000  0.00000000       0.005
   0.20000000  0.10000000  0.00000000       0.005
   0.25000000  0.10000000  0.00000000       0.005
   0.30000000  0.10000000  0.00000000       0.005
   0.35000000  0.10000000  0.00000000       0.005
   0.40000000  0.10000000  0.00000000       0.005
   0.45000000  0.10000000  0.00000000       0.005
   0.50000000  0.10000000  0.00000000       0.003
   0.15000000  0.15000000  0.00000000       0.003
   0.20000000  0.15000000  0.00000000       0.005
   0.25000000  0.15000000  0.00000000       0.005
   0.30000000  0.15000000  0.00000000       0.005
   0.35000000  0.15000000  0.00000000       0.005
   0.40000000  0.15000000  0.00000000       0.005
   0.45000000  0.15000000  0.00000000       0.005
   0.50000000  0.15000000  0.00000000       0.003
   0.20000000  0.20000000  0.00000000       0.003
   0.25000000  0.20000000  0.00000000       0.005
   0.30000000  0.20000000  0.00000000       0.005
   0.35000000  0.20000000  0.00000000       0.005
   0.40000000  0.20000000  0.00000000       0.005
   0.45000000  0.20000000  0.00000000       0.005
   0.50000000  0.20000000  0.00000000       0.003
   0.25000000  0.25000000  0.00000000       0.003
   0.30000000  0.25000000  0.00000000       0.005
   0.35000000  0.25000000  0.00000000       0.005
   0.40000000  0.25000000  0.00000000       0.005
   0.45000000  0.25000000  0.00000000       0.005
   0.50000000  0.25000000  0.00000000       0.003
   0.30000000  0.30000000  0.00000000       0.003
   0.35000000  0.30000000  0.00000000       0.005
   0.40000000  0.30000000  0.00000000       0.005
   0.45000000  0.30000000  0.00000000       0.005
   0.50000000  0.30000000  0.00000000       0.003
   0.35000000  0.35000000  0.00000000       0.003
   0.40000000  0.35000000  0.00000000       0.005
   0.45000000  0.35000000  0.00000000       0.005
   0.50000000  0.35000000  0.00000000       0.003
   0.40000000  0.40000000  0.00000000       0.003
   0.45000000  0.40000000  0.00000000       0.005
   0.50000000  0.40000000  0.00000000       0.003
   0.45000000  0.45000000  0.00000000       0.003
   0.50000000  0.45000000  0.00000000       0.003
   0.50000000  0.50000000  0.00000000       0.001
   0.00000000  0.00000000  0.05000000       0.001
   0.05000000  0.00000000  0.05000000       0.005
   0.10000000  0.00000000  0.05000000       0.005
   0.15000000  0.00000000  0.05000000       0.005
   0.20000000  0.00000000  0.05000000       0.005
   0.25000000  0.00000000  0.05000000       0.005
   0.30000000  0.00000000  0.05000000       0.005
   0.35000000  0.00000000  0.05000000       0.005
   0.40000000  0.00000000  0.05000000       0.005
   0.45000000  0.00000000  0.05000000       0.005
   0.50000000  0.00000000  0.05000000       0.003
   0.05000000  0.05000000  0.05000000       0.005
   0.10000000  0.05000000  0.05000000       0.010
   0.15000000  0.05000000  0.05000000       0.010
   0.20000000  0.05000000  0.05000000       0.010
   0.25000000  0.05000000  0.05000000       0.010
   0.30000000  0.05000000  0.05000000       0.010
   0.35000000  0.05000000  0.05000000       0.010
   0.40000000  0.05000000  0.05000000       0.010
   0.45000000  0.05000000  0.05000000       0.010
   0.50000000  0.05000000  0.05000000       0.005
   0.10000000  0.10000000  0.05000000       0.005
   0.15000000  0.10000000  0.05000000       0.010
   0.20000000  0.10000000  0.05000000       0.010
   0.25000000  0.10000000  0.05000000       0.010
   0.30000000  0.10000000  0.05000000       0.010
   0.35000000  0.10000000  0.05000000       0.010
   0.40000000  0.10000000  0.05000000       0.010
   0.45000000  0.10000000  0.05000000       0.010
   0.50000000  0.10000000  0.05000000       0.005
   0.15000000  0.15000000  0.05000000       0.005
   0.20000000  0.15000000  0.05000000       0.010
   0.25000000  0.15000000  0.05000000       0.010
   0.30000000  0.15000000  0.05000000       0.010
   0.35000000  0.15000000  0.05000000       0.010
   0.40000000  0.15000000  0.05000000       0.010
   0.45000000  0.15000000  0.05000000       0.010
   0.50000000  0.15000000  0.05000000       0.005
   0.20000000  0.20000000  0.05000000       0.005
   0.25000000  0.20000000  0.05000000       0.010
   0.30000000  0.20000000  0.05000000       0.010
   0.35000000  0.20000000  0.05000000       0.010
   0.40000000  0.20000000  0.05000000       0.010
   0.45000000  0.20000000  0.05000000       0.010
   0.50000000  0.20000000  0.05000000       0.005
   0.25000000  0.25000000  0.05000000       0.005
   0.30000000  0.25000000  0.05000000       0.010
   0.35000000  0.25000000  0.05000000       0.010
   0.40000000  0.25000000  0.05000000       0.010
   0.45000000  0.25000000  0.05000000       0.010
   0.50000000  0.25000000  0.05000000       0.005
   0.30000000  0.30000000  0.05000000       0.005
   0.35000000  0.30000000  0.05000000       0.010
   0.40000000  0.30000000  0.05000000       0.010
   0.45000000  0.30000000  0.05000000       0.010
   0.50000000  0.30000000  0.05000000       0.005
   0.35000000  0.35000000  0.05000000       0.005
   0.40000000  0.35000000  0.05000000       0.010
   0.45000000  0.35000000  0.05000000       0.010
   0.50000000  0.35000000  0.05000000       0.005
   0.40000000  0.40000000  0.05000000       0.005
   0.45000000  0.40000000  0.05000000       0.010
   0.50000000  0.40000000  0.05000000       0.005
   0.45000000  0.45000000  0.05000000       0.005
   0.50000000  0.45000000  0.05000000       0.005
   0.50000000  0.50000000  0.05000000       0.001
   0.00000000  0.00000000  0.10000000       0.001
   0.05000000  0.00000000  0.10000000       0.003
   0.10000000  0.00000000  0.10000000       0.003
   0.15000000  0.00000000  0.10000000       0.003
   0.20000000  0.00000000  0.10000000       0.003
   0.25000000  0.00000000  0.10000000       0.003
   0.30000000  0.00000000  0.10000000       0.003
   0.35000000  0.00000000  0.10000000       0.003
   0.40000000  0.00000000  0.10000000       0.003
   0.45000000  0.00000000  0.10000000       0.003
   0.50000000  0.00000000  0.10000000       0.001
   0.05000000  0.05000000  0.10000000       0.003
   0.10000000  0.05000000  0.10000000       0.005
   0.15000000  0.05000000  0.10000000       0.005
   0.20000000  0.05000000  0.10000000       0.005
   0.25000000  0.05000000  0.10000000       0.005
   0.30000000  0.05000000  0.10000000       0.005
   0.35000000  0.05000000  0.10000000       0.005
   0.40000000  0.05000000  0.10000000       0.005
   0.45000000  0.05000000  0.10000000       0.005
   0.50000000  0.05000000  0.10000000       0.003
   0.10000000  0.10000000  0.10000000       0.003
   0.15000000  0.10000000  0.10000000       0.005
   0.20000000  0.10000000  0.10000000       0.005
   0.25000000  0.10000000  0.10000000       0.005
   0.30000000  0.10000000  0.10000000       0.005
   0.35000000  0.10000000  0.10000000       0.005
   0.40000000  0.10000000  0.10000000       0.005
   0.45000000  0.10000000  0.10000000       0.005
   0.50000000  0.10000000  0.10000000       0.003
   0.15000000  0.15000000  0.10000000       0.003
   0.20000000  0.15000000  0.10000000       0.005
   0.25000000  0.15000000  0.10000000       0.005
   0.30000000  0.15000000  0.10000000       0.005
   0.35000000  0.15000000  0.10000000       0.005
   0.40000000  0.15000000  0.10000000       0.005
   0.45000000  0.15000000  0.10000000       0.005
   0.50000000  0.15000000  0.10000000       0.003
   0.20000000  0.20000000  0.10000000       0.003
   0.25000000  0.20000000  0.10000000       0.005
   0.30000000  0.20000000  0.10000000       0.005
   0.35000000  0.20000000  0.10000000       0.005
   0.40000000  0.20000000  0.10000000       0.005
   0.45000000  0.20000000  0.10000000       0.005
   0.50000000  0.20000000  0.10000000       0.003
   0.25000000  0.25000000  0.10000000       0.003
   0.30000000  0.25000000  0.10000000       0.005
   0.35000000  0.25000000  0.10000000       0.005
   0.40000000  0.25000000  0.10000000       0.005
   0.45000000  0.25000000  0.10000000       0.005
   0.50000000  0.25000000  0.10000000       0.003
   0.30000000  0.30000000  0.10000000       0.003
   0.35000000  0.30000000  0.10000000       0.005
   0.40000000  0.30000000  0.10000000       0.005
   0.45000000  0.30000000  0.10000000       0.005
   0.50000000  0.30000000  0.10000000       0.003
   0.35000000  0.35000000  0.10000000       0.003
   0.40000000  0.35000000  0.10000000       0.005
   0.45000000  0.35000000  0.10000000       0.005
   0.50000000  0.35000000  0.10000000       0.003
   0.40000000  0.40000000  0.10000000       0.003
   0.45000000  0.40000000  0.10000000       0.005
   0.50000000  0.40000000  0.10000000       0.003
   0.45000000  0.45000000  0.10000000       0.003
   0.50000000  0.45000000  0.10000000       0.003
   0.50000000  0.50000000  0.10000000       0.001
 
 k-points in reciprocal lattice and weights: Gamma 20*20*4                           
   0.00000000  0.00000000  0.00000000       0.001
   0.05000000  0.00000000  0.00000000       0.003
   0.10000000  0.00000000  0.00000000       0.003
   0.15000000  0.00000000  0.00000000       0.003
   0.20000000  0.00000000  0.00000000       0.003
   0.25000000  0.00000000  0.00000000       0.003
   0.30000000  0.00000000  0.00000000       0.003
   0.35000000  0.00000000  0.00000000       0.003
   0.40000000  0.00000000  0.00000000       0.003
   0.45000000  0.00000000  0.00000000       0.003
   0.50000000  0.00000000  0.00000000       0.001
   0.05000000  0.05000000  0.00000000       0.003
   0.10000000  0.05000000  0.00000000       0.005
   0.15000000  0.05000000  0.00000000       0.005
   0.20000000  0.05000000  0.00000000       0.005
   0.25000000  0.05000000  0.00000000       0.005
   0.30000000  0.05000000  0.00000000       0.005
   0.35000000  0.05000000  0.00000000       0.005
   0.40000000  0.05000000  0.00000000       0.005
   0.45000000  0.05000000  0.00000000       0.005
   0.50000000  0.05000000  0.00000000       0.003
   0.10000000  0.10000000  0.00000000       0.003
   0.15000000  0.10000000  0.00000000       0.005
   0.20000000  0.10000000  0.00000000       0.005
   0.25000000  0.10000000  0.00000000       0.005
   0.30000000  0.10000000  0.00000000       0.005
   0.35000000  0.10000000  0.00000000       0.005
   0.40000000  0.10000000  0.00000000       0.005
   0.45000000  0.10000000  0.00000000       0.005
   0.50000000  0.10000000  0.00000000       0.003
   0.15000000  0.15000000  0.00000000       0.003
   0.20000000  0.15000000  0.00000000       0.005
   0.25000000  0.15000000  0.00000000       0.005
   0.30000000  0.15000000  0.00000000       0.005
   0.35000000  0.15000000  0.00000000       0.005
   0.40000000  0.15000000  0.00000000       0.005
   0.45000000  0.15000000  0.00000000       0.005
   0.50000000  0.15000000  0.00000000       0.003
   0.20000000  0.20000000  0.00000000       0.003
   0.25000000  0.20000000  0.00000000       0.005
   0.30000000  0.20000000  0.00000000       0.005
   0.35000000  0.20000000  0.00000000       0.005
   0.40000000  0.20000000  0.00000000       0.005
   0.45000000  0.20000000  0.00000000       0.005
   0.50000000  0.20000000  0.00000000       0.003
   0.25000000  0.25000000  0.00000000       0.003
   0.30000000  0.25000000  0.00000000       0.005
   0.35000000  0.25000000  0.00000000       0.005
   0.40000000  0.25000000  0.00000000       0.005
   0.45000000  0.25000000  0.00000000       0.005
   0.50000000  0.25000000  0.00000000       0.003
   0.30000000  0.30000000  0.00000000       0.003
   0.35000000  0.30000000  0.00000000       0.005
   0.40000000  0.30000000  0.00000000       0.005
   0.45000000  0.30000000  0.00000000       0.005
   0.50000000  0.30000000  0.00000000       0.003
   0.35000000  0.35000000  0.00000000       0.003
   0.40000000  0.35000000  0.00000000       0.005
   0.45000000  0.35000000  0.00000000       0.005
   0.50000000  0.35000000  0.00000000       0.003
   0.40000000  0.40000000  0.00000000       0.003
   0.45000000  0.40000000  0.00000000       0.005
   0.50000000  0.40000000  0.00000000       0.003
   0.45000000  0.45000000  0.00000000       0.003
   0.50000000  0.45000000  0.00000000       0.003
   0.50000000  0.50000000  0.00000000       0.001
   0.00000000  0.00000000  0.25000000       0.001
   0.05000000  0.00000000  0.25000000       0.005
   0.10000000  0.00000000  0.25000000       0.005
   0.15000000  0.00000000  0.25000000       0.005
   0.20000000  0.00000000  0.25000000       0.005
   0.25000000  0.00000000  0.25000000       0.005
   0.30000000  0.00000000  0.25000000       0.005
   0.35000000  0.00000000  0.25000000       0.005
   0.40000000  0.00000000  0.25000000       0.005
   0.45000000  0.00000000  0.25000000       0.005
   0.50000000  0.00000000  0.25000000       0.003
   0.05000000  0.05000000  0.25000000       0.005
   0.10000000  0.05000000  0.25000000       0.010
   0.15000000  0.05000000  0.25000000       0.010
   0.20000000  0.05000000  0.25000000       0.010
   0.25000000  0.05000000  0.25000000       0.010
   0.30000000  0.05000000  0.25000000       0.010
   0.35000000  0.05000000  0.25000000       0.010
   0.40000000  0.05000000  0.25000000       0.010
   0.45000000  0.05000000  0.25000000       0.010
   0.50000000  0.05000000  0.25000000       0.005
   0.10000000  0.10000000  0.25000000       0.005
   0.15000000  0.10000000  0.25000000       0.010
   0.20000000  0.10000000  0.25000000       0.010
   0.25000000  0.10000000  0.25000000       0.010
   0.30000000  0.10000000  0.25000000       0.010
   0.35000000  0.10000000  0.25000000       0.010
   0.40000000  0.10000000  0.25000000       0.010
   0.45000000  0.10000000  0.25000000       0.010
   0.50000000  0.10000000  0.25000000       0.005
   0.15000000  0.15000000  0.25000000       0.005
   0.20000000  0.15000000  0.25000000       0.010
   0.25000000  0.15000000  0.25000000       0.010
   0.30000000  0.15000000  0.25000000       0.010
   0.35000000  0.15000000  0.25000000       0.010
   0.40000000  0.15000000  0.25000000       0.010
   0.45000000  0.15000000  0.25000000       0.010
   0.50000000  0.15000000  0.25000000       0.005
   0.20000000  0.20000000  0.25000000       0.005
   0.25000000  0.20000000  0.25000000       0.010
   0.30000000  0.20000000  0.25000000       0.010
   0.35000000  0.20000000  0.25000000       0.010
   0.40000000  0.20000000  0.25000000       0.010
   0.45000000  0.20000000  0.25000000       0.010
   0.50000000  0.20000000  0.25000000       0.005
   0.25000000  0.25000000  0.25000000       0.005
   0.30000000  0.25000000  0.25000000       0.010
   0.35000000  0.25000000  0.25000000       0.010
   0.40000000  0.25000000  0.25000000       0.010
   0.45000000  0.25000000  0.25000000       0.010
   0.50000000  0.25000000  0.25000000       0.005
   0.30000000  0.30000000  0.25000000       0.005
   0.35000000  0.30000000  0.25000000       0.010
   0.40000000  0.30000000  0.25000000       0.010
   0.45000000  0.30000000  0.25000000       0.010
   0.50000000  0.30000000  0.25000000       0.005
   0.35000000  0.35000000  0.25000000       0.005
   0.40000000  0.35000000  0.25000000       0.010
   0.45000000  0.35000000  0.25000000       0.010
   0.50000000  0.35000000  0.25000000       0.005
   0.40000000  0.40000000  0.25000000       0.005
   0.45000000  0.40000000  0.25000000       0.010
   0.50000000  0.40000000  0.25000000       0.005
   0.45000000  0.45000000  0.25000000       0.005
   0.50000000  0.45000000  0.25000000       0.005
   0.50000000  0.50000000  0.25000000       0.001
   0.00000000  0.00000000  0.50000000       0.001
   0.05000000  0.00000000  0.50000000       0.003
   0.10000000  0.00000000  0.50000000       0.003
   0.15000000  0.00000000  0.50000000       0.003
   0.20000000  0.00000000  0.50000000       0.003
   0.25000000  0.00000000  0.50000000       0.003
   0.30000000  0.00000000  0.50000000       0.003
   0.35000000  0.00000000  0.50000000       0.003
   0.40000000  0.00000000  0.50000000       0.003
   0.45000000  0.00000000  0.50000000       0.003
   0.50000000  0.00000000  0.50000000       0.001
   0.05000000  0.05000000  0.50000000       0.003
   0.10000000  0.05000000  0.50000000       0.005
   0.15000000  0.05000000  0.50000000       0.005
   0.20000000  0.05000000  0.50000000       0.005
   0.25000000  0.05000000  0.50000000       0.005
   0.30000000  0.05000000  0.50000000       0.005
   0.35000000  0.05000000  0.50000000       0.005
   0.40000000  0.05000000  0.50000000       0.005
   0.45000000  0.05000000  0.50000000       0.005
   0.50000000  0.05000000  0.50000000       0.003
   0.10000000  0.10000000  0.50000000       0.003
   0.15000000  0.10000000  0.50000000       0.005
   0.20000000  0.10000000  0.50000000       0.005
   0.25000000  0.10000000  0.50000000       0.005
   0.30000000  0.10000000  0.50000000       0.005
   0.35000000  0.10000000  0.50000000       0.005
   0.40000000  0.10000000  0.50000000       0.005
   0.45000000  0.10000000  0.50000000       0.005
   0.50000000  0.10000000  0.50000000       0.003
   0.15000000  0.15000000  0.50000000       0.003
   0.20000000  0.15000000  0.50000000       0.005
   0.25000000  0.15000000  0.50000000       0.005
   0.30000000  0.15000000  0.50000000       0.005
   0.35000000  0.15000000  0.50000000       0.005
   0.40000000  0.15000000  0.50000000       0.005
   0.45000000  0.15000000  0.50000000       0.005
   0.50000000  0.15000000  0.50000000       0.003
   0.20000000  0.20000000  0.50000000       0.003
   0.25000000  0.20000000  0.50000000       0.005
   0.30000000  0.20000000  0.50000000       0.005
   0.35000000  0.20000000  0.50000000       0.005
   0.40000000  0.20000000  0.50000000       0.005
   0.45000000  0.20000000  0.50000000       0.005
   0.50000000  0.20000000  0.50000000       0.003
   0.25000000  0.25000000  0.50000000       0.003
   0.30000000  0.25000000  0.50000000       0.005
   0.35000000  0.25000000  0.50000000       0.005
   0.40000000  0.25000000  0.50000000       0.005
   0.45000000  0.25000000  0.50000000       0.005
   0.50000000  0.25000000  0.50000000       0.003
   0.30000000  0.30000000  0.50000000       0.003
   0.35000000  0.30000000  0.50000000       0.005
   0.40000000  0.30000000  0.50000000       0.005
   0.45000000  0.30000000  0.50000000       0.005
   0.50000000  0.30000000  0.50000000       0.003
   0.35000000  0.35000000  0.50000000       0.003
   0.40000000  0.35000000  0.50000000       0.005
   0.45000000  0.35000000  0.50000000       0.005
   0.50000000  0.35000000  0.50000000       0.003
   0.40000000  0.40000000  0.50000000       0.003
   0.45000000  0.40000000  0.50000000       0.005
   0.50000000  0.40000000  0.50000000       0.003
   0.45000000  0.45000000  0.50000000       0.003
   0.50000000  0.45000000  0.50000000       0.003
   0.50000000  0.50000000  0.50000000       0.001
 
 position of ions in fractional coordinates (direct lattice) 
   0.00000000  0.00000000  0.00000000
   0.50000000  0.50000000  0.10000000
   0.00000000  0.00000000  0.20000000
   0.50000000  0.50000000  0.30000000
   0.00000000  0.00000000  0.40000000
 
 position of ions in cartesian coordinates  (Angst):
   0.00000000  0.00000000  0.00000000
   1.58000000  1.58000000  1.58000000
   0.00000000  0.00000000  3.16000000
   1.58000000  1.58000000  4.74000000
   0.00000000  0.00000000  6.32000000
 


--------------------------------------------------------------------------------------------------------


 k-point  1 :   0.0000 0.0000 0.0000  plane waves:    5231
 k-point  2 :   0.0500 0.0000 0.0000  plane waves:    5247
 k-point  3 :   0.1000 0.0000 0.0000  plane waves:    5261
 k-point  4 :   0.1500 0.0000 0.0000  plane waves:    5263
 k-point  5 :   0.2000 0.0000 0.0000  plane waves:    5277
 k-point  6 :   0.2500 0.0000 0.0000  plane waves:    5295
 k-point  7 :   0.3000 0.0000 0.0000  plane waves:    5273
 k-point  8 :   0.3500 0.0000 0.0000  plane waves:    5288
 k-point  9 :   0.4000 0.0000 0.0000  plane waves:    5296
 k-point 10 :   0.4500 0.0000 0.0000  plane waves:    5296
 k-point 11 :   0.5000 0.0000 0.0000  plane waves:    5296
 k-point 12 :   0.0500 0.0500 0.0000  plane waves:    5249
 k-point 13 :   0.1000 0.0500 0.0000  plane waves:    5259
 k-point 14 :   0.1500 0.0500 0.0000  plane waves:    5272
 k-point 15 :   0.2000 0.0500 0.0000  plane waves:    5269
 k-point 16 :   0.2500 0.0500 0.0000  plane waves:    5273
 k-point 17 :   0.3000 0.0500 0.0000  plane waves:    5285
 k-point 18 :   0.3500 0.0500 0.0000  plane waves:    5284
 k-point 19 :   0.4000 0.0500 0.0000  plane waves:    5290
 k-point 20 :   0.4500 0.0500 0.0000  plane waves:    5287
 k-point 21 :   0.5000 0.0500 0.0000  plane waves:    5296
 k-point 22 :   0.1000 0.1000 0.0000  plane waves:    5271
 k-point 23 :   0.1500 0.1000 0.0000  plane waves:    5291
 k-point 24 :   0.2000 0.1000 0.0000  plane waves:    5275
 k-point 25 :   0.2500 0.1000 0.0000  plane waves:    5269
 k-point 26 :   0.3000 0.1000 0.0000  plane waves:    5266
 k-point 27 :   0.3500 0.1000 0.0000  plane waves:    5267
 k-point 28 :   0.4000 0.1000 0.0000  plane waves:    5283
 k-point 29 :   0.4500 0.1000 0.0000  plane waves:    5269
 k-point 30 :   0.5000 0.1000 0.0000  plane waves:    5278
 k-point 31 :   0.1500 0.1500 0.0000  plane waves:    5291
 k-point 32 :   0.2000 0.1500 0.0000  plane waves:    5281
 k-point 33 :   0.2500 0.1500 0.0000  plane waves:    5263
 k-point 34 :   0.3000 0.1500 0.0000  plane waves:    5262
 k-point 35 :   0.3500 0.1500 0.0000  plane waves:    5261
 k-point 36 :   0.4000 0.1500 0.0000  plane waves:    5260
 k-point 37 :   0.4500 0.1500 0.0000  plane waves:    5275
 k-point 38 :   0.5000 0.1500 0.0000  plane waves:    5276
 k-point 39 :   0.2000 0.2000 0.0000  plane waves:    5245
 k-point 40 :   0.2500 0.2000 0.0000  plane waves:    5261
 k-point 41 :   0.3000 0.2000 0.0000  plane waves:    5257
 k-point 42 :   0.3500 0.2000 0.0000  plane waves:    5275
 k-point 43 :   0.4000 0.2000 0.0000  plane waves:    5273
 k-point 44 :   0.4500 0.2000 0.0000  plane waves:    5279
 k-point 45 :   0.5000 0.2000 0.0000  plane waves:    5268
 k-point 46 :   0.2500 0.2500 0.0000  plane waves:    5263
 k-point 47 :   0.3000 0.2500 0.0000  plane waves:    5264
 k-point 48 :   0.3500 0.2500 0.0000  plane waves:    5271
 k-point 49 :   0.4000 0.2500 0.0000  plane waves:    5254
 k-point 50 :   0.4500 0.2500 0.0000  plane waves:    5265
 k-point 51 :   0.5000 0.2500 0.0000  plane waves:    5266
 k-point 52 :   0.3000 0.3000 0.0000  plane waves:    5263
 k-point 53 :   0.3500 0.3000 0.0000  plane waves:    5240
 k-point 54 :   0.4000 0.3000 0.0000  plane waves:    5245
 k-point 55 :   0.4500 0.3000 0.0000  plane waves:    5242
 k-point 56 :   0.5000 0.3000 0.0000  plane waves:    5242
 k-point 57 :   0.3500 0.3500 0.0000  plane waves:    5239
 k-point 58 :   0.4000 0.3500 0.0000  plane waves:    5247
 k-point 59 :   0.4500 0.3500 0.0000  plane waves:    5246
 k-point 60 :   0.5000 0.3500 0.0000  plane waves:    5250
 k-point 61 :   0.4000 0.4000 0.0000  plane waves:    5249
 k-point 62 :   0.4500 0.4000 0.0000  plane waves:    5253
 k-point 63 :   0.5000 0.4000 0.0000  plane waves:    5250
 k-point 64 :   0.4500 0.4500 0.0000  plane waves:    5237
 k-point 65 :   0.5000 0.4500 0.0000  plane waves:    5240
 k-point 66 :   0.5000 0.5000 0.0000  plane waves:    5248
 k-point 67 :   0.0000 0.0000 0.2500  plane waves:    5251
 k-point 68 :   0.0500 0.0000 0.2500  plane waves:    5255
 k-point 69 :   0.1000 0.0000 0.2500  plane waves:    5255
 k-point 70 :   0.1500 0.0000 0.2500  plane waves:    5274
 k-point 71 :   0.2000 0.0000 0.2500  plane waves:    5281
 k-point 72 :   0.2500 0.0000 0.2500  plane waves:    5279
 k-point 73 :   0.3000 0.0000 0.2500  plane waves:    5285
 k-point 74 :   0.3500 0.0000 0.2500  plane waves:    5289
 k-point 75 :   0.4000 0.0000 0.2500  plane waves:    5288
 k-point 76 :   0.4500 0.0000 0.2500  plane waves:    5298
 k-point 77 :   0.5000 0.0000 0.2500  plane waves:    5296
 k-point 78 :   0.0500 0.0500 0.2500  plane waves:    5250
 k-point 79 :   0.1000 0.0500 0.2500  plane waves:    5264
 k-point 80 :   0.1500 0.0500 0.2500  plane waves:    5267
 k-point 81 :   0.2000 0.0500 0.2500  plane waves:    5266
 k-point 82 :   0.2500 0.0500 0.2500  plane waves:    5276
 k-point 83 :   0.3000 0.0500 0.2500  plane waves:    5285
 k-point 84 :   0.3500 0.0500 0.2500  plane waves:    5280
 k-point 85 :   0.4000 0.0500 0.2500  plane waves:    5289
 k-point 86 :   0.4500 0.0500 0.2500  plane waves:    5294
 k-point 87 :   0.5000 0.0500 0.2500  plane waves:    5288
 k-point 88 :   0.1000 0.1000 0.2500  plane waves:    5280
 k-point 89 :   0.1500 0.1000 0.2500  plane waves:    5274
 k-point 90 :   0.2000 0.1000 0.2500  plane waves:    5268
 k-point 91 :   0.2500 0.1000 0.2500  plane waves:    5270
 k-point 92 :   0.3000 0.1000 0.2500  plane waves:    5277
 k-point 93 :   0.3500 0.1000 0.2500  plane waves:    5275
 k-point 94 :   0.4000 0.1000 0.2500  plane waves:    5282
 k-point 95 :   0.4500 0.1000 0.2500  plane waves:    5284
 k-point 96 :   0.5000 0.1000 0.2500  plane waves:    5282
 k-point 97 :   0.1500 0.1500 0.2500  plane waves:    5273
 k-point 98 :   0.2000 0.1500 0.2500  plane waves:    5279
 k-point 99 :   0.2500 0.1500 0.2500  plane waves:    5272
 k-point ** :   0.3000 0.1500 0.2500  plane waves:    5267
 k-point ** :   0.3500 0.1500 0.2500  plane waves:    5259
 k-point ** :   0.4000 0.1500 0.2500  plane waves:    5265
 k-point ** :   0.4500 0.1500 0.2500  plane waves:    5271
 k-point ** :   0.5000 0.1500 0.2500  plane waves:    5256
 k-point ** :   0.2000 0.2000 0.2500  plane waves:    5274
 k-point ** :   0.2500 0.2000 0.2500  plane waves:    5269
 k-point ** :   0.3000 0.2000 0.2500  plane waves:    5259
 k-point ** :   0.3500 0.2000 0.2500  plane waves:    5265
 k-point ** :   0.4000 0.2000 0.2500  plane waves:    5268
 k-point ** :   0.4500 0.2000 0.2500  plane waves:    5254
 k-point ** :   0.5000 0.2000 0.2500  plane waves:    5258
 k-point ** :   0.2500 0.2500 0.2500  plane waves:    5263
 k-point ** :   0.3000 0.2500 0.2500  plane waves:    5248
 k-point ** :   0.3500 0.2500 0.2500  plane waves:    5256
 k-point ** :   0.4000 0.2500 0.2500  plane waves:    5259
 k-point ** :   0.4500 0.2500 0.2500  plane waves:    5262
 k-point ** :   0.5000 0.2500 0.2500  plane waves:    5254
 k-point ** :   0.3000 0.3000 0.2500  plane waves:    5237
 k-point ** :   0.3500 0.3000 0.2500  plane waves:    5246
 k-point ** :   0.4000 0.3000 0.2500  plane waves:    5245
 k-point ** :   0.4500 0.3000 0.2500  plane waves:    5255
 k-point ** :   0.5000 0.3000 0.2500  plane waves:    5252
 k-point ** :   0.3500 0.3500 0.2500  plane waves:    5235
 k-point ** :   0.4000 0.3500 0.2500  plane waves:    5241
 k-point ** :   0.4500 0.3500 0.2500  plane waves:    5250
 k-point ** :   0.5000 0.3500 0.2500  plane waves:    5244
 k-point ** :   0.4000 0.4000 0.2500  plane waves:    5240
 k-point ** :   0.4500 0.4000 0.2500  plane waves:    5252
 k-point ** :   0.5000 0.4000 0.2500  plane waves:    5258
 k-point ** :   0.4500 0.4500 0.2500  plane waves:    5251
 k-point ** :   0.5000 0.4500 0.2500  plane waves:    5246
 k-point ** :   0.5000 0.5000 0.2500  plane waves:    5244
 k-point ** :   0.0000 0.0000 0.5000  plane waves:    5216
 k-point ** :   0.0500 0.0000 0.5000  plane waves:    5248
 k-point ** :   0.1000 0.0000 0.5000  plane waves:    5256
 k-point ** :   0.1500 0.0000 0.5000  plane waves:    5282
 k-point ** :   0.2000 0.0000 0.5000  plane waves:    5276
 k-point ** :   0.2500 0.0000 0.5000  plane waves:    5280
 k-point ** :   0.3000 0.0000 0.5000  plane waves:    5292
 k-point ** :   0.3500 0.0000 0.5000  plane waves:    5280
 k-point ** :   0.4000 0.0000 0.5000  plane waves:    5298
 k-point ** :   0.4500 0.0000 0.5000  plane waves:    5286
 k-point ** :   0.5000 0.0000 0.5000  plane waves:    5304
 k-point ** :   0.0500 0.0500 0.5000  plane waves:    5254
 k-point ** :   0.1000 0.0500 0.5000  plane waves:    5282
 k-point ** :   0.1500 0.0500 0.5000  plane waves:    5272
 k-point ** :   0.2000 0.0500 0.5000  plane waves:    5280
 k-point ** :   0.2500 0.0500 0.5000  plane waves:    5280
 k-point ** :   0.3000 0.0500 0.5000  plane waves:    5284
 k-point ** :   0.3500 0.0500 0.5000  plane waves:    5288
 k-point ** :   0.4000 0.0500 0.5000  plane waves:    5288
 k-point ** :   0.4500 0.0500 0.5000  plane waves:    5292
 k-point ** :   0.5000 0.0500 0.5000  plane waves:    5292
 k-point ** :   0.1000 0.1000 0.5000  plane waves:    5266
 k-point ** :   0.1500 0.1000 0.5000  plane waves:    5276
 k-point ** :   0.2000 0.1000 0.5000  plane waves:    5268
 k-point ** :   0.2500 0.1000 0.5000  plane waves:    5268
 k-point ** :   0.3000 0.1000 0.5000  plane waves:    5282
 k-point ** :   0.3500 0.1000 0.5000  plane waves:    5278
 k-point ** :   0.4000 0.1000 0.5000  plane waves:    5280
 k-point ** :   0.4500 0.1000 0.5000  plane waves:    5292
 k-point ** :   0.5000 0.1000 0.5000  plane waves:    5252
 k-point ** :   0.1500 0.1500 0.5000  plane waves:    5280
 k-point ** :   0.2000 0.1500 0.5000  plane waves:    5278
 k-point ** :   0.2500 0.1500 0.5000  plane waves:    5264
 k-point ** :   0.3000 0.1500 0.5000  plane waves:    5272
 k-point ** :   0.3500 0.1500 0.5000  plane waves:    5254
 k-point ** :   0.4000 0.1500 0.5000  plane waves:    5272
 k-point ** :   0.4500 0.1500 0.5000  plane waves:    5268
 k-point ** :   0.5000 0.1500 0.5000  plane waves:    5264
 k-point ** :   0.2000 0.2000 0.5000  plane waves:    5272
 k-point ** :   0.2500 0.2000 0.5000  plane waves:    5264
 k-point ** :   0.3000 0.2000 0.5000  plane waves:    5268
 k-point ** :   0.3500 0.2000 0.5000  plane waves:    5246
 k-point ** :   0.4000 0.2000 0.5000  plane waves:    5256
 k-point ** :   0.4500 0.2000 0.5000  plane waves:    5244
 k-point ** :   0.5000 0.2000 0.5000  plane waves:    5248
 k-point ** :   0.2500 0.2500 0.5000  plane waves:    5250
 k-point ** :   0.3000 0.2500 0.5000  plane waves:    5232
 k-point ** :   0.3500 0.2500 0.5000  plane waves:    5242
 k-point ** :   0.4000 0.2500 0.5000  plane waves:    5262
 k-point ** :   0.4500 0.2500 0.5000  plane waves:    5254
 k-point ** :   0.5000 0.2500 0.5000  plane waves:    5256
 k-point ** :   0.3000 0.3000 0.5000  plane waves:    5244
 k-point ** :   0.3500 0.3000 0.5000  plane waves:    5246
 k-point ** :   0.4000 0.3000 0.5000  plane waves:    5236
 k-point ** :   0.4500 0.3000 0.5000  plane waves:    5246
 k-point ** :   0.5000 0.3000 0.5000  plane waves:    5240
 k-point ** :   0.3500 0.3500 0.5000  plane waves:    5242
 k-point ** :   0.4000 0.3500 0.5000  plane waves:    5246
 k-point ** :   0.4500 0.3500 0.5000  plane waves:    5260
 k-point ** :   0.5000 0.3500 0.5000  plane waves:    5260
 k-point ** :   0.4000 0.4000 0.5000  plane waves:    5248
 k-point ** :   0.4500 0.4000 0.5000  plane waves:    5244
 k-point ** :   0.5000 0.4000 0.5000  plane waves:    5244
 k-point ** :   0.4500 0.4500 0.5000  plane waves:    5250
 k-point ** :   0.5000 0.4500 0.5000  plane waves:    5240
 k-point ** :   0.5000 0.5000 0.5000  plane waves:    5256

 maximum and minimum number of plane-waves per node :      5304     5216

 maximum number of plane-waves:      5304
 maximum index in each direction: 
   IXMAX=    6   IYMAX=    6   IZMAX=   31
   IXMIN=   -6   IYMIN=   -6   IZMIN=  -32


 serial   3D FFT for wavefunctions
 parallel 3D FFT for charge:
    minimum data exchange during FFTs selected (reduces bandwidth)


 total amount of memory used by VASP MPI-rank0   553091. kBytes
=======================================================================

   base      :      30000. kBytes
   nonl-proj :     151651. kBytes
   fftplans  :      20884. kBytes
   grid      :      25804. kBytes
   one-center:         77. kBytes
   wavefun   :     324675. kBytes
 
     INWAV:  cpu time    0.0001: real time    0.0003
 initial charge density was supplied:
 number of electron      30.0000001 magnetization 
 keeping initial charge density in first step


--------------------------------------------------------------------------------------------------------


 Maximum index for augmentation-charges        13477 (set IRDMAX)


--------------------------------------------------------------------------------------------------------


 First call to EWALD:  gamma=   0.328
 Maximum number of real-space cells 4x 4x 1
 Maximum number of reciprocal cells 2x 2x 7

    FEWALD:  cpu time    0.0014: real time    0.0014


--------------------------------------- Iteration      1(   1)  ---------------------------------------


    POTLOK:  cpu time    0.0552: real time    0.0584
    SETDIJ:  cpu time    0.0138: real time    0.0139
     EDDAV:  cpu time   20.2843: real time   20.3537
 BZINTS: Fermi energy: 12.088943; 30.000000 electrons
         Band energy: 158.668554;  BLOECHL correction: -0.149077
       DOS:  cpu time    0.0868: real time    0.0878
    --------------------------------------------
      LOOP:  cpu time   20.4402: real time   20.5139

 eigenvalue-minimisations  :  7524
 total energy-change (2. order) : 0.1271577E+03  (-0.1278031E+04)
 number of electron      30.0000001 magnetization 
 augmentation part       30.0000001 magnetization 

 Free energy of the ion-electron system (eV)
  ---------------------------------------------------
  alpha Z        PSCENC =       110.60728398
  Ewald energy   TEWEN  =      1319.42101824
  -Hartree energ DENC   =     -2540.01703233
  -exchange      EXHF   =         0.00000000
  -V(xc)+E(xc)   XCENC  =      -236.30648985
  PAW double counting   =      1120.75045550     -838.64837968
  entropy T*S    EENTRO =         0.00000000
  eigenvalues    EBANDS =       158.66855352
  atomic energy  EATOM  =      1032.68232307
  Solvation  Ediel_sol  =         0.00000000
  ---------------------------------------------------
  free energy    TOTEN  =       127.15773244 eV

  energy without entropy =      127.15773244  energy(sigma->0) =      127.15773244


--------------------------------------------------------------------------------------------------------




--------------------------------------- Iteration      1(   2)  ---------------------------------------


     EDDAV:  cpu time   26.3556: real time   26.4366
 BZINTS: Fermi energy:  2.918901; 30.000000 electrons
         Band energy: -15.151684;  BLOECHL correction: -0.080638
       DOS:  cpu time    0.0856: real time    0.0858
    --------------------------------------------
      LOOP:  cpu time   26.4411: real time   26.5223

 eigenvalue-minimisations  : 10257
 total energy-change (2. order) :-0.1738202E+03  (-0.1668503E+03)
 number of electron      30.0000001 magnetization 
 augmentation part       30.0000001 magnetization 

 Free energy of the ion-electron system (eV)
  ---------------------------------------------------
  alpha Z        PSCENC =       110.60728398
  Ewald energy   TEWEN  =      1319.42101824
  -Hartree energ DENC   =     -2540.01703233
  -exchange      EXHF   =         0.00000000
  -V(xc)+E(xc)   XCENC  =      -236.30648985
  PAW double counting   =      1120.75045550     -838.64837968
  entropy T*S    EENTRO =         0.00000000
  eigenvalues    EBANDS =       -15.15168362
  atomic energy  EATOM  =      1032.68232307
  Solvation  Ediel_sol  =         0.00000000
  ---------------------------------------------------
  free energy    TOTEN  =       -46.66250470 eV

  energy without entropy =      -46.66250470  energy(sigma->0) =      -46.66250470


--------------------------------------------------------------------------------------------------------




--------------------------------------- Iteration      1(   3)  ---------------------------------------


     EDDAV:  cpu time   28.0447: real time   28.1302
 BZINTS: Fermi energy:  1.861503; 30.000000 electrons
         Band energy: -32.241203;  BLOECHL correction: -0.024123
       DOS:  cpu time    0.0860: real time    0.0863
    --------------------------------------------
      LOOP:  cpu time   28.1307: real time   28.2165

 eigenvalue-minimisations  : 11114
 total energy-change (2. order) :-0.1708952E+02  (-0.1620018E+02)
 number of electron      30.0000001 magnetization 
 augmentation part       30.0000001 magnetization 

 Free energy of the ion-electron system (eV)
  ---------------------------------------------------
  alpha Z        PSCENC =       110.60728398
  Ewald energy   TEWEN  =      1319.42101824
  -Hartree energ DENC   =     -2540.01703233
  -exchange      EXHF   =         0.00000000
  -V(xc)+E(xc)   XCENC  =      -236.30648985
  PAW double counting   =      1120.75045550     -838.64837968
  entropy T*S    EENTRO =         0.00000000
  eigenvalues    EBANDS =       -32.24120280
  atomic energy  EATOM  =      1032.68232307
  Solvation  Ediel_sol  =         0.00000000
  ---------------------------------------------------
  free energy    TOTEN  =       -63.75202388 eV

  energy without entropy =      -63.75202388  energy(sigma->0) =      -63.75202388


--------------------------------------------------------------------------------------------------------




--------------------------------------- Iteration      1(   4)  ---------------------------------------


     EDDAV:  cpu time   31.2636: real time   31.3597
 BZINTS: Fermi energy:  1.754443; 30.000000 electrons
         Band energy: -33.362383;  BLOECHL correction: -0.019488
       DOS:  cpu time    0.0796: real time    0.0798
    --------------------------------------------
      LOOP:  cpu time   31.3432: real time   31.4396

 eigenvalue-minimisations  : 12762
 total energy-change (2. order) :-0.1121180E+01  (-0.1068634E+01)
 number of electron      30.0000001 magnetization 
 augmentation part       30.0000001 magnetization 

 Free energy of the ion-electron system (eV)
  ---------------------------------------------------
  alpha Z        PSCENC =       110.60728398
  Ewald energy   TEWEN  =      1319.42101824
  -Hartree energ DENC   =     -2540.01703233
  -exchange      EXHF   =         0.00000000
  -V(xc)+E(xc)   XCENC  =      -236.30648985
  PAW double counting   =      1120.75045550     -838.64837968
  entropy T*S    EENTRO =         0.00000000
  eigenvalues    EBANDS =       -33.36238268
  atomic energy  EATOM  =      1032.68232307
  Solvation  Ediel_sol  =         0.00000000
  ---------------------------------------------------
  free energy    TOTEN  =       -64.87320376 eV

  energy without entropy =      -64.87320376  energy(sigma->0) =      -64.87320376


--------------------------------------------------------------------------------------------------------




--------------------------------------- Iteration      1(   5)  ---------------------------------------


     EDDAV:  cpu time   29.4768: real time   29.5679
 BZINTS: Fermi energy:  1.742729; 30.000000 electrons
         Band energy: -33.412750;  BLOECHL correction: -0.019351
       DOS:  cpu time    0.0861: real time    0.0863
    --------------------------------------------
      LOOP:  cpu time   29.5629: real time   29.6542

 eigenvalue-minimisations  : 11852
 total energy-change (2. order) :-0.5036708E-01  (-0.4821903E-01)
 number of electron      30.0000001 magnetization 
 augmentation part       30.0000001 magnetization 

 Free energy of the ion-electron system (eV)
  ---------------------------------------------------
  alpha Z        PSCENC =       110.60728398
  Ewald energy   TEWEN  =      1319.42101824
  -Hartree energ DENC   =     -2540.01703233
  -exchange      EXHF   =         0.00000000
  -V(xc)+E(xc)   XCENC  =      -236.30648985
  PAW double counting   =      1120.75045550     -838.64837968
  entropy T*S    EENTRO =         0.00000000
  eigenvalues    EBANDS =       -33.41274975
  atomic energy  EATOM  =      1032.68232307
  Solvation  Ediel_sol  =         0.00000000
  ---------------------------------------------------
  free energy    TOTEN  =       -64.92357083 eV

  energy without entropy =      -64.92357083  energy(sigma->0) =      -64.92357083


--------------------------------------------------------------------------------------------------------




--------------------------------------- Iteration      1(   6)  ---------------------------------------


     EDDAV:  cpu time   32.0678: real time   32.1649
 BZINTS: Fermi energy:  1.741128; 30.000000 electrons
         Band energy: -33.416083;  BLOECHL correction: -0.019307
       DOS:  cpu time    0.0821: real time    0.0823
    --------------------------------------------
      LOOP:  cpu time   32.1499: real time   32.2472

 eigenvalue-minimisations  : 13157
 total energy-change (2. order) :-0.3333157E-02  (-0.3205100E-02)
 number of electron      30.0000001 magnetization 
 augmentation part       30.0000001 magnetization 

 Free energy of the ion-electron system (eV)
  ---------------------------------------------------
  alpha Z        PSCENC =       110.60728398
  Ewald energy   TEWEN  =      1319.42101824
  -Hartree energ DENC   =     -2540.01703233
  -exchange      EXHF   =         0.00000000
  -V(xc)+E(xc)   XCENC  =      -236.30648985
  PAW double counting   =      1120.75045550     -838.64837968
  entropy T*S    EENTRO =         0.00000000
  eigenvalues    EBANDS =       -33.41608291
  atomic energy  EATOM  =      1032.68232307
  Solvation  Ediel_sol  =         0.00000000
  ---------------------------------------------------
  free energy    TOTEN  =       -64.92690399 eV

  energy without entropy =      -64.92690399  energy(sigma->0) =      -64.92690399


--------------------------------------------------------------------------------------------------------




--------------------------------------- Iteration      1(   7)  ---------------------------------------


     EDDAV:  cpu time   29.9665: real time   30.0571
 BZINTS: Fermi energy:  1.740862; 30.000000 electrons
         Band energy: -33.416365;  BLOECHL correction: -0.019306
       DOS:  cpu time    0.0819: real time    0.0821
    --------------------------------------------
      LOOP:  cpu time   30.0484: real time   30.1393

 eigenvalue-minimisations  : 12092
 total energy-change (2. order) :-0.2822602E-03  (-0.2644679E-03)
 number of electron      30.0000001 magnetization 
 augmentation part       30.0000001 magnetization 

 Free energy of the ion-electron system (eV)
  ---------------------------------------------------
  alpha Z        PSCENC =       110.60728398
  Ewald energy   TEWEN  =      1319.42101824
  -Hartree energ DENC   =     -2540.01703233
  -exchange      EXHF   =         0.00000000
  -V(xc)+E(xc)   XCENC  =      -236.30648985
  PAW double counting   =      1120.75045550     -838.64837968
  entropy T*S    EENTRO =         0.00000000
  eigenvalues    EBANDS =       -33.41636517
  atomic energy  EATOM  =      1032.68232307
  Solvation  Ediel_sol  =         0.00000000
  ---------------------------------------------------
  free energy    TOTEN  =       -64.92718625 eV

  energy without entropy =      -64.92718625  energy(sigma->0) =      -64.92718625


--------------------------------------------------------------------------------------------------------




--------------------------------------- Iteration      1(   8)  ---------------------------------------


     EDDAV:  cpu time   29.4591: real time   29.5456
 BZINTS: Fermi energy:  1.740816; 30.000000 electrons
         Band energy: -33.416395;  BLOECHL correction: -0.019305
       DOS:  cpu time    0.0842: real time    0.0844
    --------------------------------------------
      LOOP:  cpu time   29.5433: real time   29.6300

 eigenvalue-minimisations  : 12048
 total energy-change (2. order) :-0.2940835E-04  (-0.2674919E-04)
 number of electron      30.0000001 magnetization 
 augmentation part       30.0000001 magnetization 

 Free energy of the ion-electron system (eV)
  ---------------------------------------------------
  alpha Z        PSCENC =       110.60728398
  Ewald energy   TEWEN  =      1319.42101824
  -Hartree energ DENC   =     -2540.01703233
  -exchange      EXHF   =         0.00000000
[...]
 k-point   187 :       0.4500    0.3000    0.5000
  band No.  band energies     occupation 
      1      -3.4773      2.00000
      2      -3.1035      2.00000
      3      -2.3253      2.00000
      4      -2.1202      2.00000
      5      -2.0077      2.00000
      6      -1.3550      2.00000
      7      -1.1078      2.00000
      8      -1.0326      2.00000
      9      -0.6370      2.00000
     10      -0.6091      2.00000
     11      -0.3593      2.00000
     12       0.1001      2.00000
     13       0.4152      2.00000
     14       1.6566      1.44088
     15       1.8453      0.02044
     16       2.6239      0.00000
     17       2.7503      0.00000
     18       3.1868      0.00000
     19       3.4490      0.00000

 k-point   188 :       0.5000    0.3000    0.5000
  band No.  band energies     occupation 
      1      -3.3759      2.00000
      2      -3.2168      2.00000
      3      -2.3333      2.00000
      4      -2.1505      2.00000
      5      -2.0136      2.00000
      6      -1.3778      2.00000
      7      -1.1100      2.00000
      8      -1.0607      2.00000
      9      -0.5949      2.00000
     10      -0.5497      2.00000
     11      -0.3752      2.00000
     12       0.1863      2.00000
     13       0.5085      2.00000
     14       1.6449      1.44973
     15       1.8665     -0.01958
     16       2.7672      0.00000
     17       2.8464      0.00000
     18       3.2265      0.00000
     19       3.4720      0.00000

 k-point   189 :       0.3500    0.3500    0.5000
  band No.  band energies     occupation 
      1      -3.7145      2.00000
      2      -2.9349      2.00000
      3      -2.1564      2.00000
      4      -1.8609      2.00000
      5      -1.8271      2.00000
      6      -1.4662      2.00000
      7      -1.2359      2.00000
      8      -0.9260      2.00000
      9      -0.7276      2.00000
     10      -0.5517      2.00000
     11      -0.4380      2.00000
     12      -0.2160      2.00000
     13      -0.1261      2.00000
     14       1.8971      0.10388
     15       2.0553     -0.21061
     16       2.1951      0.00000
     17       2.2217      0.00000
     18       3.0380      0.00000
     19       3.3340      0.00000

 k-point   190 :       0.4000    0.3500    0.5000
  band No.  band energies     occupation 
      1      -3.6387      2.00000
      2      -3.1323      2.00000
      3      -2.1737      2.00000
      4      -1.8758      2.00000
      5      -1.7469      2.00000
      6      -1.4170      2.00000
      7      -1.2843      2.00000
      8      -0.9643      2.00000
      9      -0.7629      2.00000
     10      -0.5737      2.00000
     11      -0.2898      2.00000
     12      -0.0803      2.00000
     13       0.1361      2.00000
     14       2.1282     -0.15055
     15       2.2044     -0.04970
     16       2.5372      0.00000
     17       2.6561      0.00000
     18       3.1740      0.00000
     19       3.4328      0.00000

 k-point   191 :       0.4500    0.3500    0.5000
  band No.  band energies     occupation 
      1      -3.5696      2.00000
      2      -3.2892      2.00000
      3      -2.1884      2.00000
      4      -1.9842      2.00000
      5      -1.7052      2.00000
      6      -1.3627      2.00000
      7      -1.3335      2.00000
      8      -0.9926      2.00000
      9      -0.8552      2.00000
     10      -0.4581      2.00000
     11      -0.2991      2.00000
     12       0.1705      2.00000
     13       0.3593      2.00000
     14       2.2491     -0.14624
     15       2.2514      0.00000
     16       2.8967      0.00000
     17       3.0681      0.00000
     18       3.2900      0.00000
     19       3.5204      0.00000

 k-point   192 :       0.5000    0.3500    0.5000
  band No.  band energies     occupation 
      1      -3.5233      2.00000
      2      -3.3673      2.00000
      3      -2.1872      2.00000
      4      -2.0334      2.00000
      5      -1.6871      2.00000
      6      -1.4017      2.00000
      7      -1.3034      2.00000
      8      -1.0242      2.00000
      9      -0.8785      2.00000
     10      -0.3982      2.00000
     11      -0.3096      2.00000
     12       0.3133      2.00000
     13       0.4077      2.00000
     14       2.2625     -0.14179
     15       2.2896      0.00000
     16       3.0622      0.00000
     17       3.2002      0.00000
     18       3.3364      0.00000
     19       3.5371      0.00000

 k-point   193 :       0.4000    0.4000    0.5000
  band No.  band energies     occupation 
      1      -3.6528      2.00000
      2      -3.3121      2.00000
      3      -2.1932      2.00000
      4      -1.7193      2.00000
      5      -1.6102      2.00000
      6      -1.6083      2.00000
      7      -1.2703      2.00000
      8      -0.9425      2.00000
      9      -0.8446      2.00000
     10      -0.5985      2.00000
     11      -0.3145      2.00000
     12       0.1266      2.00000
     13       0.3869      2.00000
     14       2.5655      0.00000
     15       2.7754      0.00000
     16       2.7879      0.00000
     17       2.8774      0.00000
     18       3.3132      0.00000
     19       3.5207      0.00000

 k-point   194 :       0.4500    0.4000    0.5000
  band No.  band energies     occupation 
      1      -3.6541      2.00000
      2      -3.4404      2.00000
      3      -2.1989      2.00000
      4      -1.8228      2.00000
      5      -1.5566      2.00000
      6      -1.5208      2.00000
      7      -1.3192      2.00000
      8      -1.1234      2.00000
      9      -0.7839      2.00000
     10      -0.4997      2.00000
     11      -0.4025      2.00000
     12       0.4042      2.00000
     13       0.5851      2.00000
     14       2.7899      0.00000
     15       2.9454      0.00000
     16       3.1386      0.00000
     17       3.3453      0.00000
     18       3.4601      0.00000
     19       3.5824      0.00000

 k-point   195 :       0.5000    0.4000    0.5000
  band No.  band energies     occupation 
      1      -3.6475      2.00000
      2      -3.4923      2.00000
      3      -2.1956      2.00000
      4      -1.8788      2.00000
      5      -1.5120      2.00000
      6      -1.4559      2.00000
      7      -1.3820      2.00000
      8      -1.2082      2.00000
      9      -0.7786      2.00000
     10      -0.4363      2.00000
     11      -0.4310      2.00000
     12       0.5441      2.00000
     13       0.6306      2.00000
     14       2.8460      0.00000
     15       2.9934      0.00000
     16       3.3312      0.00000
     17       3.4471      0.00000
     18       3.5944      0.00000
     19       3.6068      0.00000

 k-point   196 :       0.4500    0.4500    0.5000
  band No.  band energies     occupation 
      1      -3.7090      2.00000
      2      -3.5388      2.00000
      3      -2.1899      2.00000
      4      -1.7467      2.00000
      5      -1.7019      2.00000
      6      -1.4164      2.00000
      7      -1.3289      2.00000
      8      -1.2938      2.00000
      9      -0.5987      2.00000
     10      -0.5683      2.00000
     11      -0.5186      2.00000
     12       0.6776      2.00000
     13       0.7798      2.00000
     14       3.2803      0.00000
     15       3.3338      0.00000
     16       3.4161      0.00000
     17       3.5829      0.00000
     18       3.6369      0.00000
     19       3.7919      0.00000

 k-point   197 :       0.5000    0.4500    0.5000
  band No.  band energies     occupation 
      1      -3.7275      2.00000
      2      -3.5731      2.00000
      3      -2.1797      2.00000
      4      -1.7890      2.00000
      5      -1.6713      2.00000
      6      -1.4256      2.00000
      7      -1.3365      2.00000
      8      -1.3331      2.00000
      9      -0.6317      2.00000
     10      -0.5743      2.00000
     11      -0.4757      2.00000
     12       0.8115      2.00000
     13       0.8301      2.00000
     14       3.3738      0.00000
     15       3.4516      0.00000
     16       3.5370      0.00000
     17       3.6579      0.00000
     18       3.8059      0.00000
     19       4.0077      0.00000

 k-point   198 :       0.5000    0.5000    0.5000
  band No.  band energies     occupation 
      1      -3.7549      2.00000
      2      -3.6009      2.00000
      3      -2.1663      2.00000
      4      -1.7342      2.00000
      5      -1.7342      2.00000
      6      -1.5305      2.00000
      7      -1.3019      2.00000
      8      -1.3019      2.00000
      9      -0.7194      2.00000
     10      -0.4917      2.00000
     11      -0.4917      2.00000
     12       0.9132      2.00000
     13       0.9132      2.00000
     14       3.4922      0.00000
     15       3.6178      0.00000
     16       3.6178      0.00000
     17       3.6733      0.00000
     18       4.2632      0.00000
     19       4.2649      0.00000


--------------------------------------------------------------------------------------------------------


 soft charge-density along one line, spin component           1
         0         1         2         3         4         5         6         7         8         9
 total charge-density along one line
 
 pseudopotential strength for first ion, spin component:           1
 -7.944   0.000   0.000   0.000  -0.000   0.000  -0.000   0.000  -0.000   0.000   0.028   0.000   0.000   0.000  -0.000   0.000
  0.000   0.000  -7.976   0.000  -0.000   0.000   0.000   0.000   0.000   0.000   0.000   0.000   0.025   0.000  -0.000   0.000
 -0.000   0.000  -0.000   0.000  -7.983   0.000   0.000   0.000  -0.000   0.000  -0.000   0.000  -0.000   0.000   0.025   0.000
 -0.000   0.000   0.000   0.000   0.000   0.000  -7.976   0.000   0.000   0.000  -0.000   0.000   0.000   0.000   0.000   0.000
 -0.000   0.000   0.000   0.000  -0.000   0.000   0.000   0.000  -7.943   0.000  -0.000   0.000   0.000   0.000  -0.000   0.000
  0.028   0.000   0.000   0.000  -0.000   0.000  -0.000   0.000  -0.000   0.000   0.077   0.000   0.000   0.000  -0.000   0.000
  0.000   0.000   0.025   0.000  -0.000   0.000   0.000   0.000   0.000   0.000   0.000   0.000   0.077   0.000  -0.000   0.000
 -0.000   0.000  -0.000   0.000   0.025   0.000   0.000   0.000  -0.000   0.000  -0.000   0.000  -0.000   0.000   0.077   0.000
 -0.000   0.000   0.000   0.000   0.000   0.000   0.025   0.000   0.000   0.000  -0.000   0.000   0.000   0.000   0.000   0.000
 -0.000   0.000   0.000   0.000  -0.000   0.000   0.000   0.000   0.028   0.000   0.000   0.000   0.000   0.000   0.000   0.000
 -0.000   0.000   0.000   0.000   0.016   0.000  -0.000   0.000   0.000   0.000  -0.000   0.000   0.000   0.000   0.001   0.000
  0.000   0.000  -0.000   0.000  -0.002   0.000   0.000   0.000  -0.000   0.000   0.000   0.000  -0.000   0.000  -0.000   0.000
  0.000   0.000  -0.025   0.000   0.000   0.000   0.000   0.000   0.000   0.000   0.000   0.000  -0.001   0.000   0.000   0.000
  0.000   0.000  -0.000   0.000  -0.043   0.000   0.000   0.000  -0.000   0.000  -0.000   0.000  -0.000   0.000  -0.001   0.000
 -0.000   0.000   0.000   0.000  -0.000   0.000  -0.025   0.000   0.000   0.000  -0.000   0.000  -0.000   0.000  -0.000   0.000
 -0.000   0.000   0.021   0.000  -0.000   0.000  -0.000   0.000  -0.000   0.000  -0.000   0.000   0.001   0.000  -0.000   0.000
 -0.000   0.000   0.000   0.000   0.031   0.000  -0.000   0.000   0.000   0.000   0.000   0.000   0.000   0.000   0.001   0.000
  0.000   0.000  -0.000   0.000   0.000   0.000   0.021   0.000  -0.000   0.000   0.000   0.000   0.000   0.000   0.000   0.000
 total augmentation occupancy for first ion, spin component:           1
  1.000   0.000   0.000   0.000   0.000   0.000   0.000   0.000   0.000   0.000   0.000   0.000   0.000   0.000   0.000   0.000
  0.000   1.000   0.000   0.000   0.000   0.000   0.000   0.000   0.000   0.000   0.000   0.000   0.000   0.000   0.000   0.000
  0.000   0.000   1.000   0.000   0.000   0.000   0.000   0.000   0.000   0.000   0.000   0.000   0.000   0.000   0.000   0.000
  0.000   0.000   0.000   1.000   0.000   0.000   0.000   0.000   0.000   0.000   0.000   0.000   0.000   0.000   0.000   0.000
  0.000   0.000   0.000   0.000   1.000   0.000   0.000   0.000   0.000   0.000   0.000   0.000   0.000   0.000   0.000   0.000
  0.000   0.000   0.000   0.000   0.000   0.000   0.000   0.000   0.000   0.000   0.000   0.000   0.000   0.000   0.000   0.000
  0.000   0.000   0.000   0.000   0.000   0.000   0.000   0.000   0.000   0.000   0.000   0.000   0.000   0.000   0.000   0.000
  0.000   0.000   0.000   0.000   0.000   0.000   0.000   0.000   0.000   0.000   0.000   0.000   0.000   0.000   0.000   0.000
  0.000   0.000   0.000   0.000   0.000   0.000   0.000   0.000   0.000   0.000   0.000   0.000   0.000   0.000   0.000   0.000
  0.000   0.000   0.000   0.000   0.000   0.000   0.000   0.000   0.000   0.000   0.000   0.000   0.000   0.000   0.000   0.000
  0.000   0.000   0.000   0.000   0.000   0.000   0.000   0.000   0.000   0.000   1.000   0.000   0.000   0.000   0.000   0.000
  0.000   0.000   0.000   0.000   0.000   0.000   0.000   0.000   0.000   0.000   0.000   0.000   0.000   0.000   0.000   0.000
  0.000   0.000   0.000   0.000   0.000   0.000   0.000   0.000   0.000   0.000   0.000   0.000   0.000   0.000   0.000   0.000
  0.000   0.000   0.000   0.000   0.000   0.000   0.000   0.000   0.000   0.000   0.000   0.000   0.000   0.000   0.000   0.000
  0.000   0.000   0.000   0.000   0.000   0.000   0.000   0.000   0.000   0.000   0.000   0.000   0.000   0.000   0.000   0.000
  0.000   0.000   0.000   0.000   0.000   0.000   0.000   0.000   0.000   0.000   0.000   0.000   0.000   0.000   0.000   0.000
  0.000   0.000   0.000   0.000   0.000   0.000   0.000   0.000   0.000   0.000   0.000   0.000   0.000   0.000   0.000   0.000
  0.000   0.000   0.000   0.000   0.000   0.000   0.000   0.000   0.000   0.000   0.000   0.000   0.000   0.000   0.000   0.000


------------------------ aborting loop because EDIFF is reached ----------------------------------------


    CHARGE:  cpu time    1.8833: real time    1.8882
    FORLOC:  cpu time    0.0224: real time    0.0224
    FORNL :  cpu time   13.7909: real time   13.8262
    STRESS:  cpu time   11.4965: real time   11.5264
    FORCOR:  cpu time    0.0711: real time    0.0713
    FORHAR:  cpu time    0.0595: real time    0.0597
    OFIELD:  cpu time    0.0009: real time    0.0009

  FORCE on cell =-STRESS in cart. coord.  units (eV):
  Direction    XX          YY          ZZ          XY          YZ          ZX
  --------------------------------------------------------------------------------------
  Alpha Z   110.60728   110.60728   110.60728
  Ewald    2279.68535  2279.68535 -3239.94969     0.00000     0.00000     0.00000
  Hartree  2527.82590  2527.82590 -2515.08976    -0.00000    -0.00000    -0.00000
  E(xc)    -132.88504  -132.88504  -131.73272     0.00000    -0.00000     0.00000
  Local   -5143.78309 -5143.78309  5423.90533     0.00000    -0.00000     0.00000
  n-local   -75.41122   -62.77855   -74.30490     3.82754    -0.00720    -0.00071
  augment    26.10417    26.10417    26.15189     0.00000     0.00000     0.00000
  Kinetic   371.09580   404.53807   390.65603     2.41052     0.00477     0.00006
  Fock        0.00000     0.00000     0.00000     0.00000     0.00000     0.00000
  -------------------------------------------------------------------------------------
  Total     -13.72336   -13.72336    -9.75653     0.00000    -0.00000     0.00000
  in kB    -139.36056  -139.36056   -99.07747     0.00000    -0.00000     0.00000
  external pressure =     -125.93 kB  Pullay stress =        0.00 kB


 VOLUME and BASIS-vectors are now :
 -----------------------------------------------------------------------------
  energy-cutoff  :      600.00
  volume of cell :      157.77
      direct lattice vectors                 reciprocal lattice vectors
     3.160000000  0.000000000  0.000000000     0.316455696  0.000000000  0.000000000
     0.000000000  3.160000000  0.000000000     0.000000000  0.316455696  0.000000000
     0.000000000  0.000000000 15.800000000     0.000000000  0.000000000  0.063291139

  length of vectors
     3.160000000  3.160000000 15.800000000     0.316455696  0.316455696  0.063291139


 FORCES acting on ions
    electron-ion (+dipol)            ewald-force                    non-local-force                 convergence-correction
 -----------------------------------------------------------------------------------------------
   -.116E-14 0.269E-14 0.621E+03   0.195E-14 0.846E-16 -.614E+03   0.000E+00 0.271E-19 -.456E+01   -.228E-13 0.282E-13 -.846E-01
   -.329E-14 -.801E-14 0.327E+03   -.118E-14 0.891E-15 -.329E+03   0.678E-20 0.000E+00 -.432E-01   0.492E-14 -.155E-13 -.872E-01
   0.132E-14 0.337E-14 0.247E-05   0.194E-14 -.139E-14 -.101E-10   0.000E+00 -.265E-22 -.847E-21   -.622E-15 0.845E-14 -.299E-06
   -.632E-14 -.413E-13 -.327E+03   0.580E-15 -.465E-15 0.329E+03   0.000E+00 0.000E+00 0.432E-01   0.183E-14 0.478E-14 0.872E-01
   0.133E-14 0.558E-14 -.621E+03   -.189E-14 0.500E-15 0.614E+03   0.000E+00 0.271E-19 0.456E+01   0.891E-15 0.783E-14 0.846E-01
 -----------------------------------------------------------------------------------------------
   -.811E-14 -.377E-13 -.798E-05   0.140E-14 -.384E-15 -.227E-12   0.678E-20 0.542E-19 0.000E+00   -.158E-13 0.337E-13 -.648E-06
 
 
 POSITION                                       TOTAL-FORCE (eV/Angst)
 -----------------------------------------------------------------------------------
      0.00000      0.00000      0.00000        -0.000000      0.000000      2.359301
      1.58000      1.58000      1.58000         0.000000      0.000000     -1.600705
      0.00000      0.00000      3.16000         0.000000     -0.000000     -0.000000
      1.58000      1.58000      4.74000         0.000000     -0.000000      1.600705
      0.00000      0.00000      6.32000        -0.000000     -0.000000     -2.359301
 -----------------------------------------------------------------------------------
    total drift:                               -0.000000     -0.000000     -0.000009


--------------------------------------------------------------------------------------------------------



  FREE ENERGIE OF THE ION-ELECTRON SYSTEM (eV)
  ---------------------------------------------------
  free  energy   TOTEN  =       -64.92721988 eV

  energy  without entropy=      -64.92721988  energy(sigma->0) =      -64.92721988
 


--------------------------------------------------------------------------------------------------------


    POTLOK:  cpu time    0.0598: real time    0.0600


--------------------------------------------------------------------------------------------------------


 writing wavefunctions
     LOOP+:  cpu time  301.3049: real time  302.2163
    4ORBIT:  cpu time    0.0000: real time    0.0000
 BZINTS: Fermi energy:  1.740805; 30.000000 electrons
         Band energy: -33.416399;  BLOECHL correction: -0.019305

 total amount of memory used by VASP MPI-rank0   553091. kBytes
=======================================================================

   base      :      30000. kBytes
   nonl-proj :     151651. kBytes
   fftplans  :      20884. kBytes
   grid      :      25804. kBytes
   one-center:         77. kBytes
   wavefun   :     324675. kBytes
 
  
  
 General timing and accounting informations for this job:
 ========================================================
  
                  Total CPU time used (sec):      305.216
                            User time (sec):      304.507
                          System time (sec):        0.709
                         Elapsed time (sec):      306.459
  
                   Maximum memory used (kb):      613660.
                   Average memory used (kb):           0.
  
                          Minor page faults:        91545
                          Major page faults:           68
                 Voluntary context switches:          485
