 running on    1 total cores
 distrk:  each k-point on    1 cores,    1 groups
 distr:  one band on    1 cores,    1 groups
 using from now: INCAR     
 vasp.5.4.4.18Apr17-6-g9f103f2a35 (build May 20 2018 16:52:39) complex          
  
 POSCAR found type information on POSCAR  W 
 POSCAR found :  1 types and       5 ions
 scaLAPACK will be used
 LDA part: xc-table for Ceperly-Alder, standard interpolation
 POSCAR, INCAR and KPOINTS ok, starting setup
 FFT: planning ...
 WAVECAR not read
 reading imaginary part of occupancies ...
 charge-density read from file: unknown                                 
 entering main loop
       N       E                     dE             d eps       ncg     rms          rms(c)
DAV:   1     0.127157732443E+03    0.12716E+03   -0.12780E+04  7524   0.144E+03
DAV:   2    -0.466625047012E+02   -0.17382E+03   -0.16685E+03 10257   0.271E+02
DAV:   3    -0.637520238783E+02   -0.17090E+02   -0.16200E+02 11114   0.713E+01
DAV:   4    -0.648732037551E+02   -0.11212E+01   -0.10686E+01 12762   0.167E+01
DAV:   5    -0.649235708310E+02   -0.50367E-01   -0.48219E-01 11852   0.303E+00
DAV:   6    -0.649269039877E+02   -0.33332E-02   -0.32051E-02 13157   0.603E-01
DAV:   7    -0.649271862479E+02   -0.28226E-03   -0.26447E-03 12092   0.116E-01
DAV:   8    -0.649272156562E+02   -0.29408E-04   -0.26749E-04 12048   0.264E-02
DAV:   9    -0.649272193558E+02   -0.36996E-05   -0.31555E-05  9532   0.650E-03
DAV:  10    -0.649272198754E+02   -0.51954E-06   -0.39845E-06  8096   0.211E-03
   1 F= -.64927220E+02 E0= -.64927220E+02  d E =0.000000E+00
 writing wavefunctions
