<?xml version="1.0" encoding="ISO-8859-1"?>
<modeling>
 <generator>
  <i name="program" type="string">vasp </i>
  <i name="version" type="string">5.4.4.18Apr17-6-g9f103f2a35  </i>
  <i name="subversion" type="string">(build May 20 2018 16:52:39) complex            parallel </i>
  <i name="platform" type="string">LinuxIFC </i>
  <i name="date" type="string">2022 11 15 </i>
  <i name="time" type="string">15:07:02 </i>
 </generator>
 <incar>
  <i type="string" name="PREC">normal</i>
  <i type="int" name="ICHARG">    11</i>
  <i name="EDIFF">      0.00000100</i>
  <i name="ENCUT">    600.00000000</i>
  <i type="int" name="ISMEAR">    -5</i>
  <i type="logical" name="LCHARG"> F  </i>
  <v type="int" name="KPOINT_BSE">    -1     0     0     0</v>
 </incar>
 <structure name="primitive_cell" >
  <crystal>
   <varray name="basis" >
    <v>       3.16000000       0.00000000       0.00000000 </v>
    <v>       0.00000000       3.16000000       0.00000000 </v>
    <v>       0.00000000       0.00000000      15.80000000 </v>
   </varray>
   <i name="volume">    157.77248000 </i>
   <varray name="rec_basis" >
    <v>       0.31645570       0.00000000       0.00000000 </v>
    <v>       0.00000000       0.31645570       0.00000000 </v>
    <v>       0.00000000       0.00000000       0.06329114 </v>
   </varray>
  </crystal>
  <varray name="positions" >
   <v>       0.00000000       0.00000000       0.00000000 </v>
   <v>      -0.50000000      -0.50000000       0.10000000 </v>
   <v>       0.00000000       0.00000000       0.20000000 </v>
   <v>      -0.50000000      -0.50000000       0.30000000 </v>
   <v>       0.00000000       0.00000000       0.40000000 </v>
  </varray>
 </structure>
 <varray name="primitive_index" >
  <v type="int" >        1 </v>
  <v type="int" >        2 </v>
  <v type="int" >        3 </v>
  <v type="int" >        4 </v>
  <v type="int" >        5 </v>
 </varray>
 <kpoints>
  <generation param="Gamma">
   <v type="int" name="divisions">      20       20        4 </v>
   <v name="usershift">      0.00000000       0.00000000       0.00000000 </v>
   <v name="genvec1">      0.05000000       0.00000000       0.00000000 </v>
   <v name="genvec2">      0.00000000       0.05000000       0.00000000 </v>
   <v name="genvec3">      0.00000000       0.00000000       0.25000000 </v>
   <v name="shift">      0.00000000       0.00000000       0.00000000 </v>
  </generation>
  <varray name="kpointlist" >
   <v>       0.00000000       0.00000000       0.00000000 </v>
   <v>       0.05000000       0.00000000       0.00000000 </v>
   <v>       0.10000000       0.00000000       0.00000000 </v>
   <v>       0.15000000       0.00000000       0.00000000 </v>
   <v>       0.20000000       0.00000000       0.00000000 </v>
   <v>       0.25000000       0.00000000       0.00000000 </v>
   <v>       0.30000000       0.00000000       0.00000000 </v>
   <v>       0.35000000       0.00000000       0.00000000 </v>
   <v>       0.40000000       0.00000000       0.00000000 </v>
   <v>       0.45000000       0.00000000       0.00000000 </v>
   <v>       0.50000000       0.00000000       0.00000000 </v>
   <v>       0.05000000       0.05000000       0.00000000 </v>
   <v>       0.10000000       0.05000000       0.00000000 </v>
   <v>       0.15000000       0.05000000       0.00000000 </v>
   <v>       0.20000000       0.05000000       0.00000000 </v>
   <v>       0.25000000       0.05000000       0.00000000 </v>
   <v>       0.30000000       0.05000000       0.00000000 </v>
   <v>       0.35000000       0.05000000       0.00000000 </v>
   <v>       0.40000000       0.05000000       0.00000000 </v>
   <v>       0.45000000       0.05000000       0.00000000 </v>
   <v>       0.50000000       0.05000000       0.00000000 </v>
   <v>       0.10000000       0.10000000       0.00000000 </v>
   <v>       0.15000000       0.10000000       0.00000000 </v>
   <v>       0.20000000       0.10000000       0.00000000 </v>
   <v>       0.25000000       0.10000000       0.00000000 </v>
   <v>       0.30000000       0.10000000       0.00000000 </v>
   <v>       0.35000000       0.10000000       0.00000000 </v>
   <v>       0.40000000       0.10000000       0.00000000 </v>
   <v>       0.45000000       0.10000000       0.00000000 </v>
   <v>       0.50000000       0.10000000       0.00000000 </v>
   <v>       0.15000000       0.15000000       0.00000000 </v>
   <v>       0.20000000       0.15000000       0.00000000 </v>
   <v>       0.25000000       0.15000000       0.00000000 </v>
   <v>       0.30000000       0.15000000       0.00000000 </v>
   <v>       0.35000000       0.15000000       0.00000000 </v>
   <v>       0.40000000       0.15000000       0.00000000 </v>
   <v>       0.45000000       0.15000000       0.00000000 </v>
   <v>       0.50000000       0.15000000       0.00000000 </v>
   <v>       0.20000000       0.20000000       0.00000000 </v>
   <v>       0.25000000       0.20000000       0.00000000 </v>
   <v>       0.30000000       0.20000000       0.00000000 </v>
   <v>       0.35000000       0.20000000       0.00000000 </v>
   <v>       0.40000000       0.20000000       0.00000000 </v>
   <v>       0.45000000       0.20000000       0.00000000 </v>
   <v>       0.50000000       0.20000000       0.00000000 </v>
   <v>       0.25000000       0.25000000       0.00000000 </v>
   <v>       0.30000000       0.25000000       0.00000000 </v>
   <v>       0.35000000       0.25000000       0.00000000 </v>
   <v>       0.40000000       0.25000000       0.00000000 </v>
   <v>       0.45000000       0.25000000       0.00000000 </v>
   <v>       0.50000000       0.25000000       0.00000000 </v>
   <v>       0.30000000       0.30000000       0.00000000 </v>
   <v>       0.35000000       0.30000000       0.00000000 </v>
   <v>       0.40000000       0.30000000       0.00000000 </v>
   <v>       0.45000000       0.30000000       0.00000000 </v>
   <v>       0.50000000       0.30000000       0.00000000 </v>
   <v>       0.35000000       0.35000000       0.00000000 </v>
   <v>       0.40000000       0.35000000       0.00000000 </v>
   <v>       0.45000000       0.35000000       0.00000000 </v>
   <v>       0.50000000       0.35000000       0.00000000 </v>
   <v>       0.40000000       0.40000000       0.00000000 </v>
   <v>       0.45000000       0.40000000       0.00000000 </v>
   <v>       0.50000000       0.40000000       0.00000000 </v>
   <v>       0.45000000       0.45000000       0.00000000 </v>
   <v>       0.50000000       0.45000000       0.00000000 </v>
   <v>       0.50000000       0.50000000       0.00000000 </v>
   <v>       0.00000000       0.00000000       0.25000000 </v>
   <v>       0.05000000       0.00000000       0.25000000 </v>
   <v>       0.10000000       0.00000000       0.25000000 </v>
   <v>       0.15000000       0.00000000       0.25000000 </v>
   <v>       0.20000000       0.00000000       0.25000000 </v>
   <v>       0.25000000       0.00000000       0.25000000 </v>
   <v>       0.30000000       0.00000000       0.25000000 </v>
   <v>       0.35000000       0.00000000       0.25000000 </v>
   <v>       0.40000000       0.00000000       0.25000000 </v>
   <v>       0.45000000       0.00000000       0.25000000 </v>
   <v>       0.50000000       0.00000000       0.25000000 </v>
   <v>       0.05000000       0.05000000       0.25000000 </v>
   <v>       0.10000000       0.05000000       0.25000000 </v>
   <v>       0.15000000       0.05000000       0.25000000 </v>
   <v>       0.20000000       0.05000000       0.25000000 </v>
   <v>       0.25000000       0.05000000       0.25000000 </v>
   <v>       0.30000000       0.05000000       0.25000000 </v>
   <v>       0.35000000       0.05000000       0.25000000 </v>
   <v>       0.40000000       0.05000000       0.25000000 </v>
   <v>       0.45000000       0.05000000       0.25000000 </v>
   <v>       0.50000000       0.05000000       0.25000000 </v>
   <v>       0.10000000       0.10000000       0.25000000 </v>
   <v>       0.15000000       0.10000000       0.25000000 </v>
   <v>       0.20000000       0.10000000       0.25000000 </v>
   <v>       0.25000000       0.10000000       0.25000000 </v>
   <v>       0.30000000       0.10000000       0.25000000 </v>
   <v>       0.35000000       0.10000000       0.25000000 </v>
   <v>       0.40000000       0.10000000       0.25000000 </v>
   <v>       0.45000000       0.10000000       0.25000000 </v>
   <v>       0.50000000       0.10000000       0.25000000 </v>
   <v>       0.15000000       0.15000000       0.25000000 </v>
   <v>       0.20000000       0.15000000       0.25000000 </v>
   <v>       0.25000000       0.15000000       0.25000000 </v>
   <v>       0.30000000       0.15000000       0.25000000 </v>
   <v>       0.35000000       0.15000000       0.25000000 </v>
   <v>       0.40000000       0.15000000       0.25000000 </v>
   <v>       0.45000000       0.15000000       0.25000000 </v>
   <v>       0.50000000       0.15000000       0.25000000 </v>
   <v>       0.20000000       0.20000000       0.25000000 </v>
   <v>       0.25000000       0.20000000       0.25000000 </v>
   <v>       0.30000000       0.20000000       0.25000000 </v>
   <v>       0.35000000       0.20000000       0.25000000 </v>
   <v>       0.40000000       0.20000000       0.25000000 </v>
   <v>       0.45000000       0.20000000       0.25000000 </v>
   <v>       0.50000000       0.20000000       0.25000000 </v>
   <v>       0.25000000       0.25000000       0.25000000 </v>
   <v>       0.30000000       0.25000000       0.25000000 </v>
   <v>       0.35000000       0.25000000       0.25000000 </v>
   <v>       0.40000000       0.25000000       0.25000000 </v>
   <v>       0.45000000       0.25000000       0.25000000 </v>
   <v>       0.50000000       0.25000000       0.25000000 </v>
   <v>       0.30000000       0.30000000       0.25000000 </v>
   <v>       0.35000000       0.30000000       0.25000000 </v>
   <v>       0.40000000       0.30000000       0.25000000 </v>
   <v>       0.45000000       0.30000000       0.25000000 </v>
   <v>       0.50000000       0.30000000       0.25000000 </v>
   <v>       0.35000000       0.35000000       0.25000000 </v>
   <v>       0.40000000       0.35000000       0.25000000 </v>
   <v>       0.45000000       0.35000000       0.25000000 </v>
   <v>       0.50000000       0.35000000       0.25000000 </v>
   <v>       0.40000000       0.40000000       0.25000000 </v>
   <v>       0.45000000       0.40000000       0.25000000 </v>
   <v>       0.50000000       0.40000000       0.25000000 </v>
   <v>       0.45000000       0.45000000       0.25000000 </v>
   <v>       0.50000000       0.45000000       0.25000000 </v>
   <v>       0.50000000       0.50000000       0.25000000 </v>
   <v>       0.00000000       0.00000000       0.50000000 </v>
   <v>       0.05000000       0.00000000       0.50000000 </v>
   <v>       0.10000000       0.00000000       0.50000000 </v>
   <v>       0.15000000       0.00000000       0.50000000 </v>
   <v>       0.20000000       0.00000000       0.50000000 </v>
   <v>       0.25000000       0.00000000       0.50000000 </v>
   <v>       0.30000000       0.00000000       0.50000000 </v>
   <v>       0.35000000       0.00000000       0.50000000 </v>
   <v>       0.40000000       0.00000000       0.50000000 </v>
   <v>       0.45000000       0.00000000       0.50000000 </v>
   <v>       0.50000000       0.00000000       0.50000000 </v>
   <v>       0.05000000       0.05000000       0.50000000 </v>
   <v>       0.10000000       0.05000000       0.50000000 </v>
   <v>       0.15000000       0.05000000       0.50000000 </v>
   <v>       0.20000000       0.05000000       0.50000000 </v>
   <v>       0.25000000       0.05000000       0.50000000 </v>
   <v>       0.30000000       0.05000000       0.50000000 </v>
   <v>       0.35000000       0.05000000       0.50000000 </v>
   <v>       0.40000000       0.05000000       0.50000000 </v>
   <v>       0.45000000       0.05000000       0.50000000 </v>
   <v>       0.50000000       0.05000000       0.50000000 </v>
   <v>       0.10000000       0.10000000       0.50000000 </v>
   <v>       0.15000000       0.10000000       0.50000000 </v>
   <v>       0.20000000       0.10000000       0.50000000 </v>
   <v>       0.25000000       0.10000000       0.50000000 </v>
   <v>       0.30000000       0.10000000       0.50000000 </v>
   <v>       0.35000000       0.10000000       0.50000000 </v>
   <v>       0.40000000       0.10000000       0.50000000 </v>
   <v>       0.45000000       0.10000000       0.50000000 </v>
   <v>       0.50000000       0.10000000       0.50000000 </v>
   <v>       0.15000000       0.15000000       0.50000000 </v>
   <v>       0.20000000       0.15000000       0.50000000 </v>
   <v>       0.25000000       0.15000000       0.50000000 </v>
   <v>       0.30000000       0.15000000       0.50000000 </v>
   <v>       0.35000000       0.15000000       0.50000000 </v>
   <v>       0.40000000       0.15000000       0.50000000 </v>
   <v>       0.45000000       0.15000000       0.50000000 </v>
   <v>       0.50000000       0.15000000       0.50000000 </v>
   <v>       0.20000000       0.20000000       0.50000000 </v>
   <v>       0.25000000       0.20000000       0.50000000 </v>
   <v>       0.30000000       0.20000000       0.50000000 </v>
   <v>       0.35000000       0.20000000       0.50000000 </v>
   <v>       0.40000000       0.20000000       0.50000000 </v>
   <v>       0.45000000       0.20000000       0.50000000 </v>
   <v>       0.50000000       0.20000000       0.50000000 </v>
   <v>       0.25000000       0.25000000       0.50000000 </v>
   <v>       0.30000000       0.25000000       0.50000000 </v>
   <v>       0.35000000       0.25000000       0.50000000 </v>
   <v>       0.40000000       0.25000000       0.50000000 </v>
   <v>       0.45000000       0.25000000       0.50000000 </v>
   <v>       0.50000000       0.25000000       0.50000000 </v>
   <v>       0.30000000       0.30000000       0.50000000 </v>
   <v>       0.35000000       0.30000000       0.50000000 </v>
   <v>       0.40000000       0.30000000       0.50000000 </v>
   <v>       0.45000000       0.30000000       0.50000000 </v>
   <v>       0.50000000       0.30000000       0.50000000 </v>
   <v>       0.35000000       0.35000000       0.50000000 </v>
   <v>       0.40000000       0.35000000       0.50000000 </v>
   <v>       0.45000000       0.35000000       0.50000000 </v>
   <v>       0.50000000       0.35000000       0.50000000 </v>
   <v>       0.40000000       0.40000000       0.50000000 </v>
   <v>       0.45000000       0.40000000       0.50000000 </v>
   <v>       0.50000000       0.40000000       0.50000000 </v>
   <v>       0.45000000       0.45000000       0.50000000 </v>
   <v>       0.50000000       0.45000000       0.50000000 </v>
   <v>       0.50000000       0.50000000       0.50000000 </v>
  </varray>
  <varray name="weights" >
   <v>       0.00062500 </v>
   <v>       0.00250000 </v>
   <v>       0.00250000 </v>
   <v>       0.00250000 </v>
   <v>       0.00250000 </v>
   <v>       0.00250000 </v>
   <v>       0.00250000 </v>
   <v>       0.00250000 </v>
   <v>       0.00250000 </v>
   <v>       0.00250000 </v>
   <v>       0.00125000 </v>
   <v>       0.00250000 </v>
   <v>       0.00500000 </v>
   <v>       0.00500000 </v>
   <v>       0.00500000 </v>
   <v>       0.00500000 </v>
   <v>       0.00500000 </v>
   <v>       0.00500000 </v>
   <v>       0.00500000 </v>
   <v>       0.00500000 </v>
   <v>       0.00250000 </v>
   <v>       0.00250000 </v>
   <v>       0.00500000 </v>
   <v>       0.00500000 </v>
   <v>       0.00500000 </v>
   <v>       0.00500000 </v>
   <v>       0.00500000 </v>
   <v>       0.00500000 </v>
   <v>       0.00500000 </v>
   <v>       0.00250000 </v>
   <v>       0.00250000 </v>
   <v>       0.00500000 </v>
   <v>       0.00500000 </v>
   <v>       0.00500000 </v>
   <v>       0.00500000 </v>
   <v>       0.00500000 </v>
   <v>       0.00500000 </v>
   <v>       0.00250000 </v>
   <v>       0.00250000 </v>
   <v>       0.00500000 </v>
   <v>       0.00500000 </v>
   <v>       0.00500000 </v>
   <v>       0.00500000 </v>
   <v>       0.00500000 </v>
   <v>       0.00250000 </v>
   <v>       0.00250000 </v>
   <v>       0.00500000 </v>
   <v>       0.00500000 </v>
   <v>       0.00500000 </v>
   <v>       0.00500000 </v>
   <v>       0.00250000 </v>
   <v>       0.00250000 </v>
   <v>       0.00500000 </v>
   <v>       0.00500000 </v>
   <v>       0.00500000 </v>
   <v>       0.00250000 </v>
   <v>       0.00250000 </v>
   <v>       0.00500000 </v>
   <v>       0.00500000 </v>
   <v>       0.00250000 </v>
   <v>       0.00250000 </v>
   <v>       0.00500000 </v>
   <v>       0.00250000 </v>
   <v>       0.00250000 </v>
   <v>       0.00250000 </v>
   <v>       0.00062500 </v>
   <v>       0.00125000 </v>
   <v>       0.00500000 </v>
   <v>       0.00500000 </v>
   <v>       0.00500000 </v>
   <v>       0.00500000 </v>
   <v>       0.00500000 </v>
   <v>       0.00500000 </v>
   <v>       0.00500000 </v>
   <v>       0.00500000 </v>
   <v>       0.00500000 </v>
   <v>       0.00250000 </v>
   <v>       0.00500000 </v>
   <v>       0.01000000 </v>
   <v>       0.01000000 </v>
   <v>       0.01000000 </v>
   <v>       0.01000000 </v>
   <v>       0.01000000 </v>
   <v>       0.01000000 </v>
   <v>       0.01000000 </v>
   <v>       0.01000000 </v>
   <v>       0.00500000 </v>
   <v>       0.00500000 </v>
   <v>       0.01000000 </v>
   <v>       0.01000000 </v>
   <v>       0.01000000 </v>
   <v>       0.01000000 </v>
   <v>       0.01000000 </v>
   <v>       0.01000000 </v>
   <v>       0.01000000 </v>
   <v>       0.00500000 </v>
   <v>       0.00500000 </v>
   <v>       0.01000000 </v>
   <v>       0.01000000 </v>
   <v>       0.01000000 </v>
   <v>       0.01000000 </v>
   <v>       0.01000000 </v>
   <v>       0.01000000 </v>
   <v>       0.00500000 </v>
   <v>       0.00500000 </v>
   <v>       0.01000000 </v>
   <v>       0.01000000 </v>
   <v>       0.01000000 </v>
   <v>       0.01000000 </v>
   <v>       0.01000000 </v>
   <v>       0.00500000 </v>
   <v>       0.00500000 </v>
   <v>       0.01000000 </v>
   <v>       0.01000000 </v>
   <v>       0.01000000 </v>
   <v>       0.01000000 </v>
   <v>       0.00500000 </v>
   <v>       0.00500000 </v>
   <v>       0.01000000 </v>
   <v>       0.01000000 </v>
   <v>       0.01000000 </v>
   <v>       0.00500000 </v>
   <v>       0.00500000 </v>
   <v>       0.01000000 </v>
   <v>       0.01000000 </v>
   <v>       0.00500000 </v>
   <v>       0.00500000 </v>
   <v>       0.01000000 </v>
   <v>       0.00500000 </v>
   <v>       0.00500000 </v>
   <v>       0.00500000 </v>
   <v>       0.00125000 </v>
   <v>       0.00062500 </v>
   <v>       0.00250000 </v>
   <v>       0.00250000 </v>
   <v>       0.00250000 </v>
   <v>       0.00250000 </v>
   <v>       0.00250000 </v>
   <v>       0.00250000 </v>
   <v>       0.00250000 </v>
   <v>       0.00250000 </v>
   <v>       0.00250000 </v>
   <v>       0.00125000 </v>
   <v>       0.00250000 </v>
   <v>       0.00500000 </v>
   <v>       0.00500000 </v>
   <v>       0.00500000 </v>
   <v>       0.00500000 </v>
   <v>       0.00500000 </v>
   <v>       0.00500000 </v>
   <v>       0.00500000 </v>
   <v>       0.00500000 </v>
   <v>       0.00250000 </v>
   <v>       0.00250000 </v>
   <v>       0.00500000 </v>
   <v>       0.00500000 </v>
   <v>       0.00500000 </v>
   <v>       0.00500000 </v>
   <v>       0.00500000 </v>
   <v>       0.00500000 </v>
   <v>       0.00500000 </v>
   <v>       0.00250000 </v>
   <v>       0.00250000 </v>
   <v>       0.00500000 </v>
   <v>       0.00500000 </v>
   <v>       0.00500000 </v>
   <v>       0.00500000 </v>
   <v>       0.00500000 </v>
   <v>       0.00500000 </v>
   <v>       0.00250000 </v>
   <v>       0.00250000 </v>
   <v>       0.00500000 </v>
   <v>       0.00500000 </v>
   <v>       0.00500000 </v>
   <v>       0.00500000 </v>
   <v>       0.00500000 </v>
   <v>       0.00250000 </v>
   <v>       0.00250000 </v>
   <v>       0.00500000 </v>
   <v>       0.00500000 </v>
   <v>       0.00500000 </v>
   <v>       0.00500000 </v>
   <v>       0.00250000 </v>
   <v>       0.00250000 </v>
   <v>       0.00500000 </v>
   <v>       0.00500000 </v>
   <v>       0.00500000 </v>
   <v>       0.00250000 </v>
   <v>       0.00250000 </v>
   <v>       0.00500000 </v>
   <v>       0.00500000 </v>
   <v>       0.00250000 </v>
   <v>       0.00250000 </v>
   <v>       0.00500000 </v>
   <v>       0.00250000 </v>
   <v>       0.00250000 </v>
   <v>       0.00250000 </v>
   <v>       0.00062500 </v>
  </varray>
  <varray name="tetrahedronlist"  type="int" >
   <v type="int" >        4        1        2       12       67 </v>
   <v type="int" >        4        2       12       67       68 </v>
   <v type="int" >        4       12       67       68       78 </v>
   <v type="int" >        4        2        3       13       68 </v>
   <v type="int" >        4        2       12       13       68 </v>
   <v type="int" >        4       12       13       68       78 </v>
   <v type="int" >        4        3       13       68       69 </v>
   <v type="int" >        4       13       68       69       79 </v>
   <v type="int" >        4       13       68       78       79 </v>
   <v type="int" >        4        3        4       14       69 </v>
   <v type="int" >        4        3       13       14       69 </v>
   <v type="int" >        4       13       14       69       79 </v>
   <v type="int" >        4        4       14       69       70 </v>
   <v type="int" >        4       14       69       70       80 </v>
   <v type="int" >        4       14       69       79       80 </v>
   <v type="int" >        4        4        5       15       70 </v>
   <v type="int" >        4        4       14       15       70 </v>
   <v type="int" >        4       14       15       70       80 </v>
   <v type="int" >        4        5       15       70       71 </v>
   <v type="int" >        4       15       70       71       81 </v>
   <v type="int" >        4       15       70       80       81 </v>
   <v type="int" >        4        5        6       16       71 </v>
   <v type="int" >        4        5       15       16       71 </v>
   <v type="int" >        4       15       16       71       81 </v>
   <v type="int" >        4        6       16       71       72 </v>
   <v type="int" >        4       16       71       72       82 </v>
   <v type="int" >        4       16       71       81       82 </v>
   <v type="int" >        4        6        7       17       72 </v>
   <v type="int" >        4        6       16       17       72 </v>
   <v type="int" >        4       16       17       72       82 </v>
   <v type="int" >        4        7       17       72       73 </v>
   <v type="int" >        4       17       72       73       83 </v>
   <v type="int" >        4       17       72       82       83 </v>
   <v type="int" >        4        7        8       18       73 </v>
   <v type="int" >        4        7       17       18       73 </v>
   <v type="int" >        4       17       18       73       83 </v>
   <v type="int" >        4        8       18       73       74 </v>
   <v type="int" >        4       18       73       74       84 </v>
   <v type="int" >        4       18       73       83       84 </v>
   <v type="int" >        4        8        9       19       74 </v>
   <v type="int" >        4        8       18       19       74 </v>
   <v type="int" >        4       18       19       74       84 </v>
   <v type="int" >        4        9       19       74       75 </v>
   <v type="int" >        4       19       74       75       85 </v>
   <v type="int" >        4       19       74       84       85 </v>
   <v type="int" >        4        9       10       20       75 </v>
   <v type="int" >        4        9       19       20       75 </v>
   <v type="int" >        4       19       20       75       85 </v>
   <v type="int" >        4       10       20       75       76 </v>
   <v type="int" >        4       20       75       76       86 </v>
   <v type="int" >        4       20       75       85       86 </v>
   <v type="int" >        4       10       11       21       76 </v>
   <v type="int" >        4       10       20       21       76 </v>
   <v type="int" >        4       20       21       76       86 </v>
   <v type="int" >        4       11       21       76       77 </v>
   <v type="int" >        4       21       76       77       87 </v>
   <v type="int" >        4       21       76       86       87 </v>
   <v type="int" >        4       10       11       20       77 </v>
   <v type="int" >        4       11       20       21       77 </v>
   <v type="int" >        4       20       21       77       87 </v>
   <v type="int" >        4       10       20       76       77 </v>
   <v type="int" >        4       20       76       77       86 </v>
   <v type="int" >        4       20       77       86       87 </v>
   <v type="int" >        4        9       10       19       76 </v>
   <v type="int" >        4       10       19       20       76 </v>
   <v type="int" >        4       19       20       76       86 </v>
   <v type="int" >        4        9       19       75       76 </v>
   <v type="int" >        4       19       75       76       85 </v>
   <v type="int" >        4       19       76       85       86 </v>
   <v type="int" >        4        8        9       18       75 </v>
   <v type="int" >        4        9       18       19       75 </v>
   <v type="int" >        4       18       19       75       85 </v>
   <v type="int" >        4        8       18       74       75 </v>
   <v type="int" >        4       18       74       75       84 </v>
   <v type="int" >        4       18       75       84       85 </v>
   <v type="int" >        4        7        8       17       74 </v>
   <v type="int" >        4        8       17       18       74 </v>
   <v type="int" >        4       17       18       74       84 </v>
   <v type="int" >        4        7       17       73       74 </v>
   <v type="int" >        4       17       73       74       83 </v>
   <v type="int" >        4       17       74       83       84 </v>
   <v type="int" >        4        6        7       16       73 </v>
   <v type="int" >        4        7       16       17       73 </v>
   <v type="int" >        4       16       17       73       83 </v>
   <v type="int" >        4        6       16       72       73 </v>
   <v type="int" >        4       16       72       73       82 </v>
   <v type="int" >        4       16       73       82       83 </v>
   <v type="int" >        4        5        6       15       72 </v>
   <v type="int" >        4        6       15       16       72 </v>
   <v type="int" >        4       15       16       72       82 </v>
   <v type="int" >        4        5       15       71       72 </v>
   <v type="int" >        4       15       71       72       81 </v>
   <v type="int" >        4       15       72       81       82 </v>
   <v type="int" >        4        4        5       14       71 </v>
   <v type="int" >        4        5       14       15       71 </v>
   <v type="int" >        4       14       15       71       81 </v>
   <v type="int" >        4        4       14       70       71 </v>
   <v type="int" >        4       14       70       71       80 </v>
   <v type="int" >        4       14       71       80       81 </v>
   <v type="int" >        4        3        4       13       70 </v>
   <v type="int" >        4        4       13       14       70 </v>
   <v type="int" >        4       13       14       70       80 </v>
   <v type="int" >        4        3       13       69       70 </v>
   <v type="int" >        4       13       69       70       79 </v>
   <v type="int" >        4       13       70       79       80 </v>
   <v type="int" >        4        2        3       12       69 </v>
   <v type="int" >        4        3       12       13       69 </v>
   <v type="int" >        4       12       13       69       79 </v>
   <v type="int" >        4        2       12       68       69 </v>
   <v type="int" >        4       12       68       69       78 </v>
   <v type="int" >        4       12       69       78       79 </v>
   <v type="int" >        4        1        2        2       68 </v>
   <v type="int" >        4        2        2       12       68 </v>
   <v type="int" >        4        2       12       68       78 </v>
   <v type="int" >        4        1        2       67       68 </v>
   <v type="int" >        4        2       67       68       68 </v>
   <v type="int" >        4        2       68       68       78 </v>
   <v type="int" >        4       12       13       22       78 </v>
   <v type="int" >        4       13       22       78       79 </v>
   <v type="int" >        4       22       78       79       88 </v>
   <v type="int" >        4       13       14       23       79 </v>
   <v type="int" >        4       13       22       23       79 </v>
   <v type="int" >        4       22       23       79       88 </v>
   <v type="int" >        4       14       23       79       80 </v>
   <v type="int" >        4       23       79       80       89 </v>
   <v type="int" >        4       23       79       88       89 </v>
   <v type="int" >        4       14       15       24       80 </v>
   <v type="int" >        4       14       23       24       80 </v>
   <v type="int" >        4       23       24       80       89 </v>
   <v type="int" >        4       15       24       80       81 </v>
   <v type="int" >        4       24       80       81       90 </v>
   <v type="int" >        4       24       80       89       90 </v>
   <v type="int" >        4       15       16       25       81 </v>
   <v type="int" >        4       15       24       25       81 </v>
   <v type="int" >        4       24       25       81       90 </v>
   <v type="int" >        4       16       25       81       82 </v>
   <v type="int" >        4       25       81       82       91 </v>
   <v type="int" >        4       25       81       90       91 </v>
   <v type="int" >        4       16       17       26       82 </v>
   <v type="int" >        4       16       25       26       82 </v>
   <v type="int" >        4       25       26       82       91 </v>
   <v type="int" >        4       17       26       82       83 </v>
   <v type="int" >        4       26       82       83       92 </v>
   <v type="int" >        4       26       82       91       92 </v>
   <v type="int" >        4       17       18       27       83 </v>
   <v type="int" >        4       17       26       27       83 </v>
   <v type="int" >        4       26       27       83       92 </v>
   <v type="int" >        4       18       27       83       84 </v>
   <v type="int" >        4       27       83       84       93 </v>
   <v type="int" >        4       27       83       92       93 </v>
   <v type="int" >        4       18       19       28       84 </v>
   <v type="int" >        4       18       27       28       84 </v>
   <v type="int" >        4       27       28       84       93 </v>
   <v type="int" >        4       19       28       84       85 </v>
   <v type="int" >        4       28       84       85       94 </v>
   <v type="int" >        4       28       84       93       94 </v>
   <v type="int" >        4       19       20       29       85 </v>
   <v type="int" >        4       19       28       29       85 </v>
   <v type="int" >        4       28       29       85       94 </v>
   <v type="int" >        4       20       29       85       86 </v>
   <v type="int" >        4       29       85       86       95 </v>
   <v type="int" >        4       29       85       94       95 </v>
   <v type="int" >        4       20       21       30       86 </v>
   <v type="int" >        4       20       29       30       86 </v>
   <v type="int" >        4       29       30       86       95 </v>
   <v type="int" >        4       21       30       86       87 </v>
   <v type="int" >        4       30       86       87       96 </v>
   <v type="int" >        4       30       86       95       96 </v>
   <v type="int" >        4       20       21       29       87 </v>
   <v type="int" >        4       21       29       30       87 </v>
   <v type="int" >        4       29       30       87       96 </v>
   <v type="int" >        4       20       29       86       87 </v>
   <v type="int" >        4       29       86       87       95 </v>
   <v type="int" >        4       29       87       95       96 </v>
   <v type="int" >        4       19       20       28       86 </v>
   <v type="int" >        4       20       28       29       86 </v>
   <v type="int" >        4       28       29       86       95 </v>
   <v type="int" >        4       19       28       85       86 </v>
   <v type="int" >        4       28       85       86       94 </v>
   <v type="int" >        4       28       86       94       95 </v>
   <v type="int" >        4       18       19       27       85 </v>
   <v type="int" >        4       19       27       28       85 </v>
   <v type="int" >        4       27       28       85       94 </v>
   <v type="int" >        4       18       27       84       85 </v>
   <v type="int" >        4       27       84       85       93 </v>
   <v type="int" >        4       27       85       93       94 </v>
   <v type="int" >        4       17       18       26       84 </v>
   <v type="int" >        4       18       26       27       84 </v>
   <v type="int" >        4       26       27       84       93 </v>
   <v type="int" >        4       17       26       83       84 </v>
   <v type="int" >        4       26       83       84       92 </v>
   <v type="int" >        4       26       84       92       93 </v>
   <v type="int" >        4       16       17       25       83 </v>
   <v type="int" >        4       17       25       26       83 </v>
   <v type="int" >        4       25       26       83       92 </v>
   <v type="int" >        4       16       25       82       83 </v>
   <v type="int" >        4       25       82       83       91 </v>
   <v type="int" >        4       25       83       91       92 </v>
   <v type="int" >        4       15       16       24       82 </v>
   <v type="int" >        4       16       24       25       82 </v>
   <v type="int" >        4       24       25       82       91 </v>
   <v type="int" >        4       15       24       81       82 </v>
   <v type="int" >        4       24       81       82       90 </v>
   <v type="int" >        4       24       82       90       91 </v>
   <v type="int" >        4       14       15       23       81 </v>
   <v type="int" >        4       15       23       24       81 </v>
   <v type="int" >        4       23       24       81       90 </v>
   <v type="int" >        4       14       23       80       81 </v>
   <v type="int" >        4       23       80       81       89 </v>
   <v type="int" >        4       23       81       89       90 </v>
   <v type="int" >        4       13       14       22       80 </v>
   <v type="int" >        4       14       22       23       80 </v>
   <v type="int" >        4       22       23       80       89 </v>
   <v type="int" >        4       13       22       79       80 </v>
   <v type="int" >        4       22       79       80       88 </v>
   <v type="int" >        4       22       80       88       89 </v>
   <v type="int" >        4       12       13       13       79 </v>
   <v type="int" >        4       13       13       22       79 </v>
   <v type="int" >        4       13       22       79       88 </v>
   <v type="int" >        4       12       13       78       79 </v>
   <v type="int" >        4       13       78       79       79 </v>
   <v type="int" >        4       13       79       79       88 </v>
   <v type="int" >        4        2        3       12       78 </v>
   <v type="int" >        4        3       12       13       78 </v>
   <v type="int" >        4        3       13       78       79 </v>
   <v type="int" >        4        2        3       68       78 </v>
   <v type="int" >        4        3       68       69       78 </v>
   <v type="int" >        4        3       69       78       79 </v>
   <v type="int" >        4       22       23       31       88 </v>
   <v type="int" >        4       23       31       88       89 </v>
   <v type="int" >        4       31       88       89       97 </v>
   <v type="int" >        4       23       24       32       89 </v>
   <v type="int" >        4       23       31       32       89 </v>
   <v type="int" >        4       31       32       89       97 </v>
   <v type="int" >        4       24       32       89       90 </v>
   <v type="int" >        4       32       89       90       98 </v>
   <v type="int" >        4       32       89       97       98 </v>
   <v type="int" >        4       24       25       33       90 </v>
   <v type="int" >        4       24       32       33       90 </v>
   <v type="int" >        4       32       33       90       98 </v>
   <v type="int" >        4       25       33       90       91 </v>
   <v type="int" >        4       33       90       91       99 </v>
   <v type="int" >        4       33       90       98       99 </v>
   <v type="int" >        4       25       26       34       91 </v>
   <v type="int" >        4       25       33       34       91 </v>
   <v type="int" >        4       33       34       91       99 </v>
   <v type="int" >        4       26       34       91       92 </v>
   <v type="int" >        4       34       91       92      100 </v>
   <v type="int" >        4       34       91       99      100 </v>
   <v type="int" >        4       26       27       35       92 </v>
   <v type="int" >        4       26       34       35       92 </v>
   <v type="int" >        4       34       35       92      100 </v>
   <v type="int" >        4       27       35       92       93 </v>
   <v type="int" >        4       35       92       93      101 </v>
   <v type="int" >        4       35       92      100      101 </v>
   <v type="int" >        4       27       28       36       93 </v>
   <v type="int" >        4       27       35       36       93 </v>
   <v type="int" >        4       35       36       93      101 </v>
   <v type="int" >        4       28       36       93       94 </v>
   <v type="int" >        4       36       93       94      102 </v>
   <v type="int" >        4       36       93      101      102 </v>
   <v type="int" >        4       28       29       37       94 </v>
   <v type="int" >        4       28       36       37       94 </v>
   <v type="int" >        4       36       37       94      102 </v>
   <v type="int" >        4       29       37       94       95 </v>
   <v type="int" >        4       37       94       95      103 </v>
   <v type="int" >        4       37       94      102      103 </v>
   <v type="int" >        4       29       30       38       95 </v>
   <v type="int" >        4       29       37       38       95 </v>
   <v type="int" >        4       37       38       95      103 </v>
   <v type="int" >        4       30       38       95       96 </v>
   <v type="int" >        4       38       95       96      104 </v>
   <v type="int" >        4       38       95      103      104 </v>
   <v type="int" >        4       29       30       37       96 </v>
   <v type="int" >        4       30       37       38       96 </v>
   <v type="int" >        4       37       38       96      104 </v>
   <v type="int" >        4       29       37       95       96 </v>
   <v type="int" >        4       37       95       96      103 </v>
   <v type="int" >        4       37       96      103      104 </v>
   <v type="int" >        4       28       29       36       95 </v>
   <v type="int" >        4       29       36       37       95 </v>
   <v type="int" >        4       36       37       95      103 </v>
   <v type="int" >        4       28       36       94       95 </v>
   <v type="int" >        4       36       94       95      102 </v>
   <v type="int" >        4       36       95      102      103 </v>
   <v type="int" >        4       27       28       35       94 </v>
   <v type="int" >        4       28       35       36       94 </v>
   <v type="int" >        4       35       36       94      102 </v>
   <v type="int" >        4       27       35       93       94 </v>
   <v type="int" >        4       35       93       94      101 </v>
   <v type="int" >        4       35       94      101      102 </v>
   <v type="int" >        4       26       27       34       93 </v>
   <v type="int" >        4       27       34       35       93 </v>
   <v type="int" >        4       34       35       93      101 </v>
   <v type="int" >        4       26       34       92       93 </v>
   <v type="int" >        4       34       92       93      100 </v>
   <v type="int" >        4       34       93      100      101 </v>
   <v type="int" >        4       25       26       33       92 </v>
   <v type="int" >        4       26       33       34       92 </v>
   <v type="int" >        4       33       34       92      100 </v>
   <v type="int" >        4       25       33       91       92 </v>
   <v type="int" >        4       33       91       92       99 </v>
   <v type="int" >        4       33       92       99      100 </v>
   <v type="int" >        4       24       25       32       91 </v>
   <v type="int" >        4       25       32       33       91 </v>
   <v type="int" >        4       32       33       91       99 </v>
   <v type="int" >        4       24       32       90       91 </v>
   <v type="int" >        4       32       90       91       98 </v>
   <v type="int" >        4       32       91       98       99 </v>
   <v type="int" >        4       23       24       31       90 </v>
   <v type="int" >        4       24       31       32       90 </v>
   <v type="int" >        4       31       32       90       98 </v>
   <v type="int" >        4       23       31       89       90 </v>
   <v type="int" >        4       31       89       90       97 </v>
   <v type="int" >        4       31       90       97       98 </v>
   <v type="int" >        4       22       23       23       89 </v>
   <v type="int" >        4       23       23       31       89 </v>
   <v type="int" >        4       23       31       89       97 </v>
   <v type="int" >        4       22       23       88       89 </v>
   <v type="int" >        4       23       88       89       89 </v>
   <v type="int" >        4       23       89       89       97 </v>
   <v type="int" >        4       13       14       22       88 </v>
   <v type="int" >        4       14       22       23       88 </v>
   <v type="int" >        4       14       23       88       89 </v>
   <v type="int" >        4       13       14       79       88 </v>
   <v type="int" >        4       14       79       80       88 </v>
   <v type="int" >        4       14       80       88       89 </v>
   <v type="int" >        4        3        4       13       79 </v>
   <v type="int" >        4        4       13       14       79 </v>
   <v type="int" >        4        4       14       79       80 </v>
   <v type="int" >        4        3        4       69       79 </v>
   <v type="int" >        4        4       69       70       79 </v>
   <v type="int" >        4        4       70       79       80 </v>
   <v type="int" >        4       31       32       39       97 </v>
   <v type="int" >        4       32       39       97       98 </v>
   <v type="int" >        4       39       97       98      105 </v>
   <v type="int" >        4       32       33       40       98 </v>
   <v type="int" >        4       32       39       40       98 </v>
   <v type="int" >        4       39       40       98      105 </v>
   <v type="int" >        4       33       40       98       99 </v>
   <v type="int" >        4       40       98       99      106 </v>
   <v type="int" >        4       40       98      105      106 </v>
   <v type="int" >        4       33       34       41       99 </v>
   <v type="int" >        4       33       40       41       99 </v>
   <v type="int" >        4       40       41       99      106 </v>
   <v type="int" >        4       34       41       99      100 </v>
   <v type="int" >        4       41       99      100      107 </v>
   <v type="int" >        4       41       99      106      107 </v>
   <v type="int" >        4       34       35       42      100 </v>
   <v type="int" >        4       34       41       42      100 </v>
   <v type="int" >        4       41       42      100      107 </v>
   <v type="int" >        4       35       42      100      101 </v>
   <v type="int" >        4       42      100      101      108 </v>
   <v type="int" >        4       42      100      107      108 </v>
   <v type="int" >        4       35       36       43      101 </v>
   <v type="int" >        4       35       42       43      101 </v>
   <v type="int" >        4       42       43      101      108 </v>
   <v type="int" >        4       36       43      101      102 </v>
   <v type="int" >        4       43      101      102      109 </v>
   <v type="int" >        4       43      101      108      109 </v>
   <v type="int" >        4       36       37       44      102 </v>
   <v type="int" >        4       36       43       44      102 </v>
   <v type="int" >        4       43       44      102      109 </v>
   <v type="int" >        4       37       44      102      103 </v>
   <v type="int" >        4       44      102      103      110 </v>
   <v type="int" >        4       44      102      109      110 </v>
   <v type="int" >        4       37       38       45      103 </v>
   <v type="int" >        4       37       44       45      103 </v>
   <v type="int" >        4       44       45      103      110 </v>
   <v type="int" >        4       38       45      103      104 </v>
   <v type="int" >        4       45      103      104      111 </v>
   <v type="int" >        4       45      103      110      111 </v>
   <v type="int" >        4       37       38       44      104 </v>
   <v type="int" >        4       38       44       45      104 </v>
   <v type="int" >        4       44       45      104      111 </v>
   <v type="int" >        4       37       44      103      104 </v>
   <v type="int" >        4       44      103      104      110 </v>
   <v type="int" >        4       44      104      110      111 </v>
   <v type="int" >        4       36       37       43      103 </v>
   <v type="int" >        4       37       43       44      103 </v>
   <v type="int" >        4       43       44      103      110 </v>
   <v type="int" >        4       36       43      102      103 </v>
   <v type="int" >        4       43      102      103      109 </v>
   <v type="int" >        4       43      103      109      110 </v>
   <v type="int" >        4       35       36       42      102 </v>
   <v type="int" >        4       36       42       43      102 </v>
   <v type="int" >        4       42       43      102      109 </v>
   <v type="int" >        4       35       42      101      102 </v>
   <v type="int" >        4       42      101      102      108 </v>
   <v type="int" >        4       42      102      108      109 </v>
   <v type="int" >        4       34       35       41      101 </v>
   <v type="int" >        4       35       41       42      101 </v>
   <v type="int" >        4       41       42      101      108 </v>
   <v type="int" >        4       34       41      100      101 </v>
   <v type="int" >        4       41      100      101      107 </v>
   <v type="int" >        4       41      101      107      108 </v>
   <v type="int" >        4       33       34       40      100 </v>
   <v type="int" >        4       34       40       41      100 </v>
   <v type="int" >        4       40       41      100      107 </v>
   <v type="int" >        4       33       40       99      100 </v>
   <v type="int" >        4       40       99      100      106 </v>
   <v type="int" >        4       40      100      106      107 </v>
   <v type="int" >        4       32       33       39       99 </v>
   <v type="int" >        4       33       39       40       99 </v>
   <v type="int" >        4       39       40       99      106 </v>
   <v type="int" >        4       32       39       98       99 </v>
   <v type="int" >        4       39       98       99      105 </v>
   <v type="int" >        4       39       99      105      106 </v>
   <v type="int" >        4       31       32       32       98 </v>
   <v type="int" >        4       32       32       39       98 </v>
   <v type="int" >        4       32       39       98      105 </v>
   <v type="int" >        4       31       32       97       98 </v>
   <v type="int" >        4       32       97       98       98 </v>
   <v type="int" >        4       32       98       98      105 </v>
   <v type="int" >        4       23       24       31       97 </v>
   <v type="int" >        4       24       31       32       97 </v>
   <v type="int" >        4       24       32       97       98 </v>
   <v type="int" >        4       23       24       89       97 </v>
   <v type="int" >        4       24       89       90       97 </v>
   <v type="int" >        4       24       90       97       98 </v>
   <v type="int" >        4       14       15       23       89 </v>
   <v type="int" >        4       15       23       24       89 </v>
   <v type="int" >        4       15       24       89       90 </v>
   <v type="int" >        4       14       15       80       89 </v>
   <v type="int" >        4       15       80       81       89 </v>
   <v type="int" >        4       15       81       89       90 </v>
   <v type="int" >        4        4        5       14       80 </v>
   <v type="int" >        4        5       14       15       80 </v>
   <v type="int" >        4        5       15       80       81 </v>
   <v type="int" >        4        4        5       70       80 </v>
   <v type="int" >        4        5       70       71       80 </v>
   <v type="int" >        4        5       71       80       81 </v>
   <v type="int" >        4       39       40       46      105 </v>
   <v type="int" >        4       40       46      105      106 </v>
   <v type="int" >        4       46      105      106      112 </v>
   <v type="int" >        4       40       41       47      106 </v>
   <v type="int" >        4       40       46       47      106 </v>
   <v type="int" >        4       46       47      106      112 </v>
   <v type="int" >        4       41       47      106      107 </v>
   <v type="int" >        4       47      106      107      113 </v>
   <v type="int" >        4       47      106      112      113 </v>
   <v type="int" >        4       41       42       48      107 </v>
   <v type="int" >        4       41       47       48      107 </v>
   <v type="int" >        4       47       48      107      113 </v>
   <v type="int" >        4       42       48      107      108 </v>
   <v type="int" >        4       48      107      108      114 </v>
   <v type="int" >        4       48      107      113      114 </v>
   <v type="int" >        4       42       43       49      108 </v>
   <v type="int" >        4       42       48       49      108 </v>
   <v type="int" >        4       48       49      108      114 </v>
   <v type="int" >        4       43       49      108      109 </v>
   <v type="int" >        4       49      108      109      115 </v>
   <v type="int" >        4       49      108      114      115 </v>
   <v type="int" >        4       43       44       50      109 </v>
   <v type="int" >        4       43       49       50      109 </v>
   <v type="int" >        4       49       50      109      115 </v>
   <v type="int" >        4       44       50      109      110 </v>
   <v type="int" >        4       50      109      110      116 </v>
   <v type="int" >        4       50      109      115      116 </v>
   <v type="int" >        4       44       45       51      110 </v>
   <v type="int" >        4       44       50       51      110 </v>
   <v type="int" >        4       50       51      110      116 </v>
   <v type="int" >        4       45       51      110      111 </v>
   <v type="int" >        4       51      110      111      117 </v>
   <v type="int" >        4       51      110      116      117 </v>
   <v type="int" >        4       44       45       50      111 </v>
   <v type="int" >        4       45       50       51      111 </v>
   <v type="int" >        4       50       51      111      117 </v>
   <v type="int" >        4       44       50      110      111 </v>
   <v type="int" >        4       50      110      111      116 </v>
   <v type="int" >        4       50      111      116      117 </v>
   <v type="int" >        4       43       44       49      110 </v>
   <v type="int" >        4       44       49       50      110 </v>
   <v type="int" >        4       49       50      110      116 </v>
   <v type="int" >        4       43       49      109      110 </v>
   <v type="int" >        4       49      109      110      115 </v>
   <v type="int" >        4       49      110      115      116 </v>
   <v type="int" >        4       42       43       48      109 </v>
   <v type="int" >        4       43       48       49      109 </v>
   <v type="int" >        4       48       49      109      115 </v>
   <v type="int" >        4       42       48      108      109 </v>
   <v type="int" >        4       48      108      109      114 </v>
   <v type="int" >        4       48      109      114      115 </v>
   <v type="int" >        4       41       42       47      108 </v>
   <v type="int" >        4       42       47       48      108 </v>
   <v type="int" >        4       47       48      108      114 </v>
   <v type="int" >        4       41       47      107      108 </v>
   <v type="int" >        4       47      107      108      113 </v>
   <v type="int" >        4       47      108      113      114 </v>
   <v type="int" >        4       40       41       46      107 </v>
   <v type="int" >        4       41       46       47      107 </v>
   <v type="int" >        4       46       47      107      113 </v>
   <v type="int" >        4       40       46      106      107 </v>
   <v type="int" >        4       46      106      107      112 </v>
   <v type="int" >        4       46      107      112      113 </v>
   <v type="int" >        4       39       40       40      106 </v>
   <v type="int" >        4       40       40       46      106 </v>
   <v type="int" >        4       40       46      106      112 </v>
   <v type="int" >        4       39       40      105      106 </v>
   <v type="int" >        4       40      105      106      106 </v>
   <v type="int" >        4       40      106      106      112 </v>
   <v type="int" >        4       32       33       39      105 </v>
   <v type="int" >        4       33       39       40      105 </v>
   <v type="int" >        4       33       40      105      106 </v>
   <v type="int" >        4       32       33       98      105 </v>
   <v type="int" >        4       33       98       99      105 </v>
   <v type="int" >        4       33       99      105      106 </v>
   <v type="int" >        4       24       25       32       98 </v>
   <v type="int" >        4       25       32       33       98 </v>
   <v type="int" >        4       25       33       98       99 </v>
   <v type="int" >        4       24       25       90       98 </v>
   <v type="int" >        4       25       90       91       98 </v>
   <v type="int" >        4       25       91       98       99 </v>
   <v type="int" >        4       15       16       24       90 </v>
   <v type="int" >        4       16       24       25       90 </v>
   <v type="int" >        4       16       25       90       91 </v>
   <v type="int" >        4       15       16       81       90 </v>
   <v type="int" >        4       16       81       82       90 </v>
   <v type="int" >        4       16       82       90       91 </v>
   <v type="int" >        4        5        6       15       81 </v>
   <v type="int" >        4        6       15       16       81 </v>
   <v type="int" >        4        6       16       81       82 </v>
   <v type="int" >        4        5        6       71       81 </v>
   <v type="int" >        4        6       71       72       81 </v>
   <v type="int" >        4        6       72       81       82 </v>
   <v type="int" >        4       46       47       52      112 </v>
   <v type="int" >        4       47       52      112      113 </v>
   <v type="int" >        4       52      112      113      118 </v>
   <v type="int" >        4       47       48       53      113 </v>
   <v type="int" >        4       47       52       53      113 </v>
   <v type="int" >        4       52       53      113      118 </v>
   <v type="int" >        4       48       53      113      114 </v>
   <v type="int" >        4       53      113      114      119 </v>
   <v type="int" >        4       53      113      118      119 </v>
   <v type="int" >        4       48       49       54      114 </v>
   <v type="int" >        4       48       53       54      114 </v>
   <v type="int" >        4       53       54      114      119 </v>
   <v type="int" >        4       49       54      114      115 </v>
   <v type="int" >        4       54      114      115      120 </v>
   <v type="int" >        4       54      114      119      120 </v>
   <v type="int" >        4       49       50       55      115 </v>
   <v type="int" >        4       49       54       55      115 </v>
   <v type="int" >        4       54       55      115      120 </v>
   <v type="int" >        4       50       55      115      116 </v>
   <v type="int" >        4       55      115      116      121 </v>
   <v type="int" >        4       55      115      120      121 </v>
   <v type="int" >        4       50       51       56      116 </v>
   <v type="int" >        4       50       55       56      116 </v>
   <v type="int" >        4       55       56      116      121 </v>
   <v type="int" >        4       51       56      116      117 </v>
   <v type="int" >        4       56      116      117      122 </v>
   <v type="int" >        4       56      116      121      122 </v>
   <v type="int" >        4       50       51       55      117 </v>
   <v type="int" >        4       51       55       56      117 </v>
   <v type="int" >        4       55       56      117      122 </v>
   <v type="int" >        4       50       55      116      117 </v>
   <v type="int" >        4       55      116      117      121 </v>
   <v type="int" >        4       55      117      121      122 </v>
   <v type="int" >        4       49       50       54      116 </v>
   <v type="int" >        4       50       54       55      116 </v>
   <v type="int" >        4       54       55      116      121 </v>
   <v type="int" >        4       49       54      115      116 </v>
   <v type="int" >        4       54      115      116      120 </v>
   <v type="int" >        4       54      116      120      121 </v>
   <v type="int" >        4       48       49       53      115 </v>
   <v type="int" >        4       49       53       54      115 </v>
   <v type="int" >        4       53       54      115      120 </v>
   <v type="int" >        4       48       53      114      115 </v>
   <v type="int" >        4       53      114      115      119 </v>
   <v type="int" >        4       53      115      119      120 </v>
   <v type="int" >        4       47       48       52      114 </v>
   <v type="int" >        4       48       52       53      114 </v>
   <v type="int" >        4       52       53      114      119 </v>
   <v type="int" >        4       47       52      113      114 </v>
   <v type="int" >        4       52      113      114      118 </v>
   <v type="int" >        4       52      114      118      119 </v>
   <v type="int" >        4       46       47       47      113 </v>
   <v type="int" >        4       47       47       52      113 </v>
   <v type="int" >        4       47       52      113      118 </v>
   <v type="int" >        4       46       47      112      113 </v>
   <v type="int" >        4       47      112      113      113 </v>
   <v type="int" >        4       47      113      113      118 </v>
   <v type="int" >        4       40       41       46      112 </v>
   <v type="int" >        4       41       46       47      112 </v>
   <v type="int" >        4       41       47      112      113 </v>
   <v type="int" >        4       40       41      106      112 </v>
   <v type="int" >        4       41      106      107      112 </v>
   <v type="int" >        4       41      107      112      113 </v>
   <v type="int" >        4       33       34       40      106 </v>
   <v type="int" >        4       34       40       41      106 </v>
   <v type="int" >        4       34       41      106      107 </v>
   <v type="int" >        4       33       34       99      106 </v>
   <v type="int" >        4       34       99      100      106 </v>
   <v type="int" >        4       34      100      106      107 </v>
   <v type="int" >        4       25       26       33       99 </v>
   <v type="int" >        4       26       33       34       99 </v>
   <v type="int" >        4       26       34       99      100 </v>
   <v type="int" >        4       25       26       91       99 </v>
   <v type="int" >        4       26       91       92       99 </v>
   <v type="int" >        4       26       92       99      100 </v>
   <v type="int" >        4       16       17       25       91 </v>
   <v type="int" >        4       17       25       26       91 </v>
   <v type="int" >        4       17       26       91       92 </v>
   <v type="int" >        4       16       17       82       91 </v>
   <v type="int" >        4       17       82       83       91 </v>
   <v type="int" >        4       17       83       91       92 </v>
   <v type="int" >        4        6        7       16       82 </v>
   <v type="int" >        4        7       16       17       82 </v>
   <v type="int" >        4        7       17       82       83 </v>
   <v type="int" >        4        6        7       72       82 </v>
   <v type="int" >        4        7       72       73       82 </v>
   <v type="int" >        4        7       73       82       83 </v>
   <v type="int" >        4       52       53       57      118 </v>
   <v type="int" >        4       53       57      118      119 </v>
   <v type="int" >        4       57      118      119      123 </v>
   <v type="int" >        4       53       54       58      119 </v>
   <v type="int" >        4       53       57       58      119 </v>
   <v type="int" >        4       57       58      119      123 </v>
   <v type="int" >        4       54       58      119      120 </v>
   <v type="int" >        4       58      119      120      124 </v>
   <v type="int" >        4       58      119      123      124 </v>
   <v type="int" >        4       54       55       59      120 </v>
   <v type="int" >        4       54       58       59      120 </v>
   <v type="int" >        4       58       59      120      124 </v>
   <v type="int" >        4       55       59      120      121 </v>
   <v type="int" >        4       59      120      121      125 </v>
   <v type="int" >        4       59      120      124      125 </v>
   <v type="int" >        4       55       56       60      121 </v>
   <v type="int" >        4       55       59       60      121 </v>
   <v type="int" >        4       59       60      121      125 </v>
   <v type="int" >        4       56       60      121      122 </v>
   <v type="int" >        4       60      121      122      126 </v>
   <v type="int" >        4       60      121      125      126 </v>
   <v type="int" >        4       55       56       59      122 </v>
   <v type="int" >        4       56       59       60      122 </v>
   <v type="int" >        4       59       60      122      126 </v>
   <v type="int" >        4       55       59      121      122 </v>
   <v type="int" >        4       59      121      122      125 </v>
   <v type="int" >        4       59      122      125      126 </v>
   <v type="int" >        4       54       55       58      121 </v>
   <v type="int" >        4       55       58       59      121 </v>
   <v type="int" >        4       58       59      121      125 </v>
   <v type="int" >        4       54       58      120      121 </v>
   <v type="int" >        4       58      120      121      124 </v>
   <v type="int" >        4       58      121      124      125 </v>
   <v type="int" >        4       53       54       57      120 </v>
   <v type="int" >        4       54       57       58      120 </v>
   <v type="int" >        4       57       58      120      124 </v>
   <v type="int" >        4       53       57      119      120 </v>
   <v type="int" >        4       57      119      120      123 </v>
   <v type="int" >        4       57      120      123      124 </v>
   <v type="int" >        4       52       53       53      119 </v>
   <v type="int" >        4       53       53       57      119 </v>
   <v type="int" >        4       53       57      119      123 </v>
   <v type="int" >        4       52       53      118      119 </v>
   <v type="int" >        4       53      118      119      119 </v>
   <v type="int" >        4       53      119      119      123 </v>
   <v type="int" >        4       47       48       52      118 </v>
   <v type="int" >        4       48       52       53      118 </v>
   <v type="int" >        4       48       53      118      119 </v>
   <v type="int" >        4       47       48      113      118 </v>
   <v type="int" >        4       48      113      114      118 </v>
   <v type="int" >        4       48      114      118      119 </v>
   <v type="int" >        4       41       42       47      113 </v>
   <v type="int" >        4       42       47       48      113 </v>
   <v type="int" >        4       42       48      113      114 </v>
   <v type="int" >        4       41       42      107      113 </v>
   <v type="int" >        4       42      107      108      113 </v>
   <v type="int" >        4       42      108      113      114 </v>
   <v type="int" >        4       34       35       41      107 </v>
   <v type="int" >        4       35       41       42      107 </v>
   <v type="int" >        4       35       42      107      108 </v>
   <v type="int" >        4       34       35      100      107 </v>
   <v type="int" >        4       35      100      101      107 </v>
   <v type="int" >        4       35      101      107      108 </v>
   <v type="int" >        4       26       27       34      100 </v>
   <v type="int" >        4       27       34       35      100 </v>
   <v type="int" >        4       27       35      100      101 </v>
   <v type="int" >        4       26       27       92      100 </v>
   <v type="int" >        4       27       92       93      100 </v>
   <v type="int" >        4       27       93      100      101 </v>
   <v type="int" >        4       17       18       26       92 </v>
   <v type="int" >        4       18       26       27       92 </v>
   <v type="int" >        4       18       27       92       93 </v>
   <v type="int" >        4       17       18       83       92 </v>
   <v type="int" >        4       18       83       84       92 </v>
   <v type="int" >        4       18       84       92       93 </v>
   <v type="int" >        4        7        8       17       83 </v>
   <v type="int" >        4        8       17       18       83 </v>
   <v type="int" >        4        8       18       83       84 </v>
   <v type="int" >        4        7        8       73       83 </v>
   <v type="int" >        4        8       73       74       83 </v>
   <v type="int" >        4        8       74       83       84 </v>
   <v type="int" >        4       57       58       61      123 </v>
   <v type="int" >        4       58       61      123      124 </v>
   <v type="int" >        4       61      123      124      127 </v>
   <v type="int" >        4       58       59       62      124 </v>
   <v type="int" >        4       58       61       62      124 </v>
   <v type="int" >        4       61       62      124      127 </v>
   <v type="int" >        4       59       62      124      125 </v>
   <v type="int" >        4       62      124      125      128 </v>
   <v type="int" >        4       62      124      127      128 </v>
   <v type="int" >        4       59       60       63      125 </v>
   <v type="int" >        4       59       62       63      125 </v>
   <v type="int" >        4       62       63      125      128 </v>
   <v type="int" >        4       60       63      125      126 </v>
   <v type="int" >        4       63      125      126      129 </v>
   <v type="int" >        4       63      125      128      129 </v>
   <v type="int" >        4       59       60       62      126 </v>
   <v type="int" >        4       60       62       63      126 </v>
   <v type="int" >        4       62       63      126      129 </v>
   <v type="int" >        4       59       62      125      126 </v>
   <v type="int" >        4       62      125      126      128 </v>
   <v type="int" >        4       62      126      128      129 </v>
   <v type="int" >        4       58       59       61      125 </v>
   <v type="int" >        4       59       61       62      125 </v>
   <v type="int" >        4       61       62      125      128 </v>
   <v type="int" >        4       58       61      124      125 </v>
   <v type="int" >        4       61      124      125      127 </v>
   <v type="int" >        4       61      125      127      128 </v>
   <v type="int" >        4       57       58       58      124 </v>
   <v type="int" >        4       58       58       61      124 </v>
   <v type="int" >        4       58       61      124      127 </v>
   <v type="int" >        4       57       58      123      124 </v>
   <v type="int" >        4       58      123      124      124 </v>
   <v type="int" >        4       58      124      124      127 </v>
   <v type="int" >        4       53       54       57      123 </v>
   <v type="int" >        4       54       57       58      123 </v>
   <v type="int" >        4       54       58      123      124 </v>
   <v type="int" >        4       53       54      119      123 </v>
   <v type="int" >        4       54      119      120      123 </v>
   <v type="int" >        4       54      120      123      124 </v>
   <v type="int" >        4       48       49       53      119 </v>
   <v type="int" >        4       49       53       54      119 </v>
   <v type="int" >        4       49       54      119      120 </v>
   <v type="int" >        4       48       49      114      119 </v>
   <v type="int" >        4       49      114      115      119 </v>
   <v type="int" >        4       49      115      119      120 </v>
   <v type="int" >        4       42       43       48      114 </v>
   <v type="int" >        4       43       48       49      114 </v>
   <v type="int" >        4       43       49      114      115 </v>
   <v type="int" >        4       42       43      108      114 </v>
   <v type="int" >        4       43      108      109      114 </v>
   <v type="int" >        4       43      109      114      115 </v>
   <v type="int" >        4       35       36       42      108 </v>
   <v type="int" >        4       36       42       43      108 </v>
   <v type="int" >        4       36       43      108      109 </v>
   <v type="int" >        4       35       36      101      108 </v>
   <v type="int" >        4       36      101      102      108 </v>
   <v type="int" >        4       36      102      108      109 </v>
   <v type="int" >        4       27       28       35      101 </v>
   <v type="int" >        4       28       35       36      101 </v>
   <v type="int" >        4       28       36      101      102 </v>
   <v type="int" >        4       27       28       93      101 </v>
   <v type="int" >        4       28       93       94      101 </v>
   <v type="int" >        4       28       94      101      102 </v>
   <v type="int" >        4       18       19       27       93 </v>
   <v type="int" >        4       19       27       28       93 </v>
   <v type="int" >        4       19       28       93       94 </v>
   <v type="int" >        4       18       19       84       93 </v>
   <v type="int" >        4       19       84       85       93 </v>
   <v type="int" >        4       19       85       93       94 </v>
   <v type="int" >        4        8        9       18       84 </v>
   <v type="int" >        4        9       18       19       84 </v>
   <v type="int" >        4        9       19       84       85 </v>
   <v type="int" >        4        8        9       74       84 </v>
   <v type="int" >        4        9       74       75       84 </v>
   <v type="int" >        4        9       75       84       85 </v>
   <v type="int" >        4       61       62       64      127 </v>
   <v type="int" >        4       62       64      127      128 </v>
   <v type="int" >        4       64      127      128      130 </v>
   <v type="int" >        4       62       63       65      128 </v>
   <v type="int" >        4       62       64       65      128 </v>
   <v type="int" >        4       64       65      128      130 </v>
   <v type="int" >        4       63       65      128      129 </v>
   <v type="int" >        4       65      128      129      131 </v>
   <v type="int" >        4       65      128      130      131 </v>
   <v type="int" >        4       62       63       64      129 </v>
   <v type="int" >        4       63       64       65      129 </v>
   <v type="int" >        4       64       65      129      131 </v>
   <v type="int" >        4       62       64      128      129 </v>
   <v type="int" >        4       64      128      129      130 </v>
   <v type="int" >        4       64      129      130      131 </v>
   <v type="int" >        4       61       62       62      128 </v>
   <v type="int" >        4       62       62       64      128 </v>
   <v type="int" >        4       62       64      128      130 </v>
   <v type="int" >        4       61       62      127      128 </v>
   <v type="int" >        4       62      127      128      128 </v>
   <v type="int" >        4       62      128      128      130 </v>
   <v type="int" >        4       58       59       61      127 </v>
   <v type="int" >        4       59       61       62      127 </v>
   <v type="int" >        4       59       62      127      128 </v>
   <v type="int" >        4       58       59      124      127 </v>
   <v type="int" >        4       59      124      125      127 </v>
   <v type="int" >        4       59      125      127      128 </v>
   <v type="int" >        4       54       55       58      124 </v>
   <v type="int" >        4       55       58       59      124 </v>
   <v type="int" >        4       55       59      124      125 </v>
   <v type="int" >        4       54       55      120      124 </v>
   <v type="int" >        4       55      120      121      124 </v>
   <v type="int" >        4       55      121      124      125 </v>
   <v type="int" >        4       49       50       54      120 </v>
   <v type="int" >        4       50       54       55      120 </v>
   <v type="int" >        4       50       55      120      121 </v>
   <v type="int" >        4       49       50      115      120 </v>
   <v type="int" >        4       50      115      116      120 </v>
   <v type="int" >        4       50      116      120      121 </v>
   <v type="int" >        4       43       44       49      115 </v>
   <v type="int" >        4       44       49       50      115 </v>
   <v type="int" >        4       44       50      115      116 </v>
   <v type="int" >        4       43       44      109      115 </v>
   <v type="int" >        4       44      109      110      115 </v>
   <v type="int" >        4       44      110      115      116 </v>
   <v type="int" >        4       36       37       43      109 </v>
   <v type="int" >        4       37       43       44      109 </v>
   <v type="int" >        4       37       44      109      110 </v>
   <v type="int" >        4       36       37      102      109 </v>
   <v type="int" >        4       37      102      103      109 </v>
   <v type="int" >        4       37      103      109      110 </v>
   <v type="int" >        4       28       29       36      102 </v>
   <v type="int" >        4       29       36       37      102 </v>
   <v type="int" >        4       29       37      102      103 </v>
   <v type="int" >        4       28       29       94      102 </v>
   <v type="int" >        4       29       94       95      102 </v>
   <v type="int" >        4       29       95      102      103 </v>
   <v type="int" >        4       19       20       28       94 </v>
   <v type="int" >        4       20       28       29       94 </v>
   <v type="int" >        4       20       29       94       95 </v>
   <v type="int" >        4       19       20       85       94 </v>
   <v type="int" >        4       20       85       86       94 </v>
   <v type="int" >        4       20       86       94       95 </v>
   <v type="int" >        4        9       10       19       85 </v>
   <v type="int" >        4       10       19       20       85 </v>
   <v type="int" >        4       10       20       85       86 </v>
   <v type="int" >        4        9       10       75       85 </v>
   <v type="int" >        4       10       75       76       85 </v>
   <v type="int" >        4       10       76       85       86 </v>
   <v type="int" >        4       64       65       66      130 </v>
   <v type="int" >        4       65       66      130      131 </v>
   <v type="int" >        4       66      130      131      132 </v>
   <v type="int" >        4       64       65       65      131 </v>
   <v type="int" >        4       65       65       66      131 </v>
   <v type="int" >        4       65       66      131      132 </v>
   <v type="int" >        4       64       65      130      131 </v>
   <v type="int" >        4       65      130      131      131 </v>
   <v type="int" >        4       65      131      131      132 </v>
   <v type="int" >        4       62       63       64      130 </v>
   <v type="int" >        4       63       64       65      130 </v>
   <v type="int" >        4       63       65      130      131 </v>
   <v type="int" >        4       62       63      128      130 </v>
   <v type="int" >        4       63      128      129      130 </v>
   <v type="int" >        4       63      129      130      131 </v>
   <v type="int" >        4       59       60       62      128 </v>
   <v type="int" >        4       60       62       63      128 </v>
   <v type="int" >        4       60       63      128      129 </v>
   <v type="int" >        4       59       60      125      128 </v>
   <v type="int" >        4       60      125      126      128 </v>
   <v type="int" >        4       60      126      128      129 </v>
[...]
       <r>    3.3132    0.0000 </r>
       <r>    3.5207    0.0000 </r>
      </set>
      <set comment="kpoint 194">
       <r>   -3.6541    1.0000 </r>
       <r>   -3.4404    1.0000 </r>
       <r>   -2.1989    1.0000 </r>
       <r>   -1.8228    1.0000 </r>
       <r>   -1.5566    1.0000 </r>
       <r>   -1.5208    1.0000 </r>
       <r>   -1.3192    1.0000 </r>
       <r>   -1.1234    1.0000 </r>
       <r>   -0.7839    1.0000 </r>
       <r>   -0.4997    1.0000 </r>
       <r>   -0.4025    1.0000 </r>
       <r>    0.4042    1.0000 </r>
       <r>    0.5851    1.0000 </r>
       <r>    2.7899    0.0000 </r>
       <r>    2.9454    0.0000 </r>
       <r>    3.1386    0.0000 </r>
       <r>    3.3453    0.0000 </r>
       <r>    3.4601    0.0000 </r>
       <r>    3.5824    0.0000 </r>
      </set>
      <set comment="kpoint 195">
       <r>   -3.6475    1.0000 </r>
       <r>   -3.4923    1.0000 </r>
       <r>   -2.1956    1.0000 </r>
       <r>   -1.8788    1.0000 </r>
       <r>   -1.5120    1.0000 </r>
       <r>   -1.4559    1.0000 </r>
       <r>   -1.3820    1.0000 </r>
       <r>   -1.2082    1.0000 </r>
       <r>   -0.7786    1.0000 </r>
       <r>   -0.4363    1.0000 </r>
       <r>   -0.4310    1.0000 </r>
       <r>    0.5441    1.0000 </r>
       <r>    0.6306    1.0000 </r>
       <r>    2.8460    0.0000 </r>
       <r>    2.9934    0.0000 </r>
       <r>    3.3312    0.0000 </r>
       <r>    3.4471    0.0000 </r>
       <r>    3.5944    0.0000 </r>
       <r>    3.6068    0.0000 </r>
      </set>
      <set comment="kpoint 196">
       <r>   -3.7090    1.0000 </r>
       <r>   -3.5388    1.0000 </r>
       <r>   -2.1899    1.0000 </r>
       <r>   -1.7467    1.0000 </r>
       <r>   -1.7019    1.0000 </r>
       <r>   -1.4164    1.0000 </r>
       <r>   -1.3289    1.0000 </r>
       <r>   -1.2938    1.0000 </r>
       <r>   -0.5987    1.0000 </r>
       <r>   -0.5683    1.0000 </r>
       <r>   -0.5186    1.0000 </r>
       <r>    0.6776    1.0000 </r>
       <r>    0.7798    1.0000 </r>
       <r>    3.2803    0.0000 </r>
       <r>    3.3338    0.0000 </r>
       <r>    3.4161    0.0000 </r>
       <r>    3.5829    0.0000 </r>
       <r>    3.6369    0.0000 </r>
       <r>    3.7919    0.0000 </r>
      </set>
      <set comment="kpoint 197">
       <r>   -3.7275    1.0000 </r>
       <r>   -3.5731    1.0000 </r>
       <r>   -2.1797    1.0000 </r>
       <r>   -1.7890    1.0000 </r>
       <r>   -1.6713    1.0000 </r>
       <r>   -1.4256    1.0000 </r>
       <r>   -1.3365    1.0000 </r>
       <r>   -1.3331    1.0000 </r>
       <r>   -0.6317    1.0000 </r>
       <r>   -0.5743    1.0000 </r>
       <r>   -0.4757    1.0000 </r>
       <r>    0.8115    1.0000 </r>
       <r>    0.8301    1.0000 </r>
       <r>    3.3738    0.0000 </r>
       <r>    3.4516    0.0000 </r>
       <r>    3.5370    0.0000 </r>
       <r>    3.6579    0.0000 </r>
       <r>    3.8059    0.0000 </r>
       <r>    4.0077    0.0000 </r>
      </set>
      <set comment="kpoint 198">
       <r>   -3.7549    1.0000 </r>
       <r>   -3.6009    1.0000 </r>
       <r>   -2.1663    1.0000 </r>
       <r>   -1.7342    1.0000 </r>
       <r>   -1.7342    1.0000 </r>
       <r>   -1.5305    1.0000 </r>
       <r>   -1.3019    1.0000 </r>
       <r>   -1.3019    1.0000 </r>
       <r>   -0.7194    1.0000 </r>
       <r>   -0.4917    1.0000 </r>
       <r>   -0.4917    1.0000 </r>
       <r>    0.9132    1.0000 </r>
       <r>    0.9132    1.0000 </r>
       <r>    3.4922    0.0000 </r>
       <r>    3.6178    0.0000 </r>
       <r>    3.6178    0.0000 </r>
       <r>    3.6733    0.0000 </r>
       <r>    4.2632    0.0000 </r>
       <r>    4.2649    0.0000 </r>
      </set>
     </set>
    </set>
   </array>
  </eigenvalues>
  <separator name="orbital magnetization" >
   <v name="MAGDIPOLOUT">      0.00000000      0.00000000      0.00000000</v>
  </separator>
  <dos>
   <i name="efermi">      1.74080548 </i>
   <total>
    <array>
     <dimension dim="1">gridpoints</dimension>
     <dimension dim="2">spin</dimension>
     <field>energy</field>
     <field>total</field>
     <field>integrated</field>
     <set>
      <set comment="spin 1">
       <r>    -8.9851     0.0000     0.0000 </r>
       <r>    -8.9342     0.0000     0.0000 </r>
       <r>    -8.8833     0.0000     0.0000 </r>
       <r>    -8.8324     0.0000     0.0000 </r>
       <r>    -8.7815     0.0000     0.0000 </r>
       <r>    -8.7305     0.0000     0.0000 </r>
       <r>    -8.6796     0.0000     0.0000 </r>
       <r>    -8.6287     0.0000     0.0000 </r>
       <r>    -8.5778     0.0000     0.0000 </r>
       <r>    -8.5268     0.0000     0.0000 </r>
       <r>    -8.4759     0.0000     0.0000 </r>
       <r>    -8.4250     0.0000     0.0000 </r>
       <r>    -8.3741     0.0000     0.0000 </r>
       <r>    -8.3232     0.0000     0.0000 </r>
       <r>    -8.2722     0.0000     0.0000 </r>
       <r>    -8.2213     0.0000     0.0000 </r>
       <r>    -8.1704     0.0000     0.0000 </r>
       <r>    -8.1195     0.0000     0.0000 </r>
       <r>    -8.0686     0.0000     0.0000 </r>
       <r>    -8.0176     0.0000     0.0000 </r>
       <r>    -7.9667     0.0000     0.0000 </r>
       <r>    -7.9158     0.0000     0.0000 </r>
       <r>    -7.8649     0.0000     0.0000 </r>
       <r>    -7.8139     0.0000     0.0000 </r>
       <r>    -7.7630     0.0000     0.0000 </r>
       <r>    -7.7121     0.0000     0.0000 </r>
       <r>    -7.6612     0.0000     0.0000 </r>
       <r>    -7.6103     0.0000     0.0000 </r>
       <r>    -7.5593     0.0000     0.0000 </r>
       <r>    -7.5084     0.0000     0.0000 </r>
       <r>    -7.4575     0.0000     0.0000 </r>
       <r>    -7.4066     0.0000     0.0000 </r>
       <r>    -7.3557     0.0000     0.0000 </r>
       <r>    -7.3047     0.0000     0.0000 </r>
       <r>    -7.2538     0.0000     0.0000 </r>
       <r>    -7.2029     0.0000     0.0000 </r>
       <r>    -7.1520     0.0000     0.0000 </r>
       <r>    -7.1011     0.0000     0.0000 </r>
       <r>    -7.0501     0.0000     0.0000 </r>
       <r>    -6.9992     0.0000     0.0000 </r>
       <r>    -6.9483     0.2374     0.0044 </r>
       <r>    -6.8974     0.2924     0.0205 </r>
       <r>    -6.8464     0.2633     0.0337 </r>
       <r>    -6.7955     0.3013     0.0481 </r>
       <r>    -6.7446     0.3056     0.0640 </r>
       <r>    -6.6937     0.2757     0.0785 </r>
       <r>    -6.6428     0.2846     0.0928 </r>
       <r>    -6.5918     0.2934     0.1075 </r>
       <r>    -6.5409     0.3031     0.1227 </r>
       <r>    -6.4900     0.3134     0.1385 </r>
       <r>    -6.4391     0.2947     0.1539 </r>
       <r>    -6.3882     0.2972     0.1690 </r>
       <r>    -6.3372     0.2996     0.1842 </r>
       <r>    -6.2863     0.3020     0.1995 </r>
       <r>    -6.2354     0.3106     0.2151 </r>
       <r>    -6.1845     0.3183     0.2311 </r>
       <r>    -6.1335     0.3237     0.2475 </r>
       <r>    -6.0826     0.3140     0.2637 </r>
       <r>    -6.0317     0.3150     0.2797 </r>
       <r>    -5.9808     0.3183     0.2959 </r>
       <r>    -5.9299     0.3218     0.3122 </r>
       <r>    -5.8789     0.3266     0.3287 </r>
       <r>    -5.8280     0.3314     0.3454 </r>
       <r>    -5.7771     0.3363     0.3624 </r>
       <r>    -5.7262     0.3411     0.3797 </r>
       <r>    -5.6753     0.3418     0.3971 </r>
       <r>    -5.6243     0.3434     0.4145 </r>
       <r>    -5.5734     0.3467     0.4321 </r>
       <r>    -5.5225     0.3501     0.4498 </r>
       <r>    -5.4716     0.3540     0.4677 </r>
       <r>    -5.4207     0.3581     0.4859 </r>
       <r>    -5.3697     0.3621     0.5042 </r>
       <r>    -5.3188     0.3691     0.5228 </r>
       <r>    -5.2679     0.3756     0.5418 </r>
       <r>    -5.2170     0.3809     0.5611 </r>
       <r>    -5.1660     0.3857     0.5806 </r>
       <r>    -5.1151     0.3907     0.6003 </r>
       <r>    -5.0642     0.8060     0.6275 </r>
       <r>    -5.0133     0.7409     0.6686 </r>
       <r>    -4.9624     0.8189     0.7083 </r>
       <r>    -4.9114     0.8221     0.7509 </r>
       <r>    -4.8605     0.8218     0.7923 </r>
       <r>    -4.8096     0.8504     0.8349 </r>
       <r>    -4.7587     0.8775     0.8789 </r>
       <r>    -4.7078     0.8848     0.9237 </r>
       <r>    -4.6568     0.9107     0.9694 </r>
       <r>    -4.6059     0.9438     1.0166 </r>
       <r>    -4.5550     0.9690     1.0654 </r>
       <r>    -4.5041     0.9992     1.1155 </r>
       <r>    -4.4531     1.0303     1.1671 </r>
       <r>    -4.4022     1.0613     1.2204 </r>
       <r>    -4.3513     1.0841     1.2751 </r>
       <r>    -4.3004     1.1974     1.3324 </r>
       <r>    -4.2495     1.2877     1.3960 </r>
       <r>    -4.1985     1.3598     1.4634 </r>
       <r>    -4.1476     1.5163     1.5358 </r>
       <r>    -4.0967     1.6587     1.6174 </r>
       <r>    -4.0458     2.6328     1.7180 </r>
       <r>    -3.9949     3.3743     1.8915 </r>
       <r>    -3.9439     2.1367     2.0259 </r>
       <r>    -3.8930     2.0369     2.1318 </r>
       <r>    -3.8421     1.9285     2.2331 </r>
       <r>    -3.7912     1.7285     2.3274 </r>
       <r>    -3.7403     2.1381     2.4172 </r>
       <r>    -3.6893     2.6638     2.5425 </r>
       <r>    -3.6384     2.8217     2.7121 </r>
       <r>    -3.5875     2.6191     2.8447 </r>
       <r>    -3.5366     2.7799     2.9909 </r>
       <r>    -3.4856     2.6659     3.1251 </r>
       <r>    -3.4347     2.9343     3.2745 </r>
       <r>    -3.3838     4.5518     3.4743 </r>
       <r>    -3.3329     4.8820     3.7112 </r>
       <r>    -3.2820     4.8513     3.9711 </r>
       <r>    -3.2310     3.5054     4.1802 </r>
       <r>    -3.1801     3.2923     4.3524 </r>
       <r>    -3.1292     3.3643     4.5210 </r>
       <r>    -3.0783     3.0531     4.6855 </r>
       <r>    -3.0274     3.0256     4.8422 </r>
       <r>    -2.9764     2.7029     4.9880 </r>
       <r>    -2.9255     3.0509     5.1402 </r>
       <r>    -2.8746     3.0838     5.2932 </r>
       <r>    -2.8237     3.0952     5.4493 </r>
       <r>    -2.7727     3.2329     5.6103 </r>
       <r>    -2.7218     3.1245     5.7797 </r>
       <r>    -2.6709     2.4605     5.9106 </r>
       <r>    -2.6200     2.4287     6.0345 </r>
       <r>    -2.5691     2.4039     6.1578 </r>
       <r>    -2.5181     2.4893     6.2778 </r>
       <r>    -2.4672     4.7001     6.4757 </r>
       <r>    -2.4163     5.9985     6.7384 </r>
       <r>    -2.3654     8.3727     7.1491 </r>
       <r>    -2.3145     9.3432     7.5993 </r>
       <r>    -2.2635     7.8825     8.0258 </r>
       <r>    -2.2126     7.3871     8.4239 </r>
       <r>    -2.1617     5.6858     8.9493 </r>
       <r>    -2.1108     5.0466     9.2082 </r>
       <r>    -2.0599     5.7292     9.4958 </r>
       <r>    -2.0089     4.8055     9.7622 </r>
       <r>    -1.9580     4.0997     9.9863 </r>
       <r>    -1.9071     4.0304    10.2003 </r>
       <r>    -1.8562     3.7094    10.4007 </r>
       <r>    -1.8052     3.7979    10.5868 </r>
       <r>    -1.7543     3.0275    10.7662 </r>
       <r>    -1.7034     2.5059    10.8915 </r>
       <r>    -1.6525     2.4088    11.0252 </r>
       <r>    -1.6016     2.2092    11.1405 </r>
       <r>    -1.5506     2.2345    11.2584 </r>
       <r>    -1.4997     2.5300    11.3744 </r>
       <r>    -1.4488     3.4188    11.5231 </r>
       <r>    -1.3979     3.2652    11.6973 </r>
       <r>    -1.3470     6.8093    11.9764 </r>
       <r>    -1.2960    10.3465    12.4927 </r>
       <r>    -1.2451     7.4278    12.9481 </r>
       <r>    -1.1942     6.3285    13.3189 </r>
       <r>    -1.1433     6.5546    13.6742 </r>
       <r>    -1.0923     9.2613    14.0776 </r>
       <r>    -1.0414     6.6644    14.5085 </r>
       <r>    -0.9905     5.3855    14.8662 </r>
       <r>    -0.9396     4.5429    15.1214 </r>
       <r>    -0.8887     5.2452    15.3492 </r>
       <r>    -0.8377     5.4832    15.6225 </r>
       <r>    -0.7868     6.0702    15.9253 </r>
       <r>    -0.7359     5.2352    16.1919 </r>
       <r>    -0.6850     6.2153    16.4954 </r>
       <r>    -0.6341     8.6764    16.8743 </r>
       <r>    -0.5831     6.9566    17.2342 </r>
       <r>    -0.5322     7.0012    17.6071 </r>
       <r>    -0.4813     7.9704    17.9852 </r>
       <r>    -0.4304     8.2951    18.3875 </r>
       <r>    -0.3795     6.2398    18.7554 </r>
       <r>    -0.3285     7.7216    19.1242 </r>
       <r>    -0.2776     4.4043    19.4507 </r>
       <r>    -0.2267     4.2324    19.6702 </r>
       <r>    -0.1758     4.8876    19.8981 </r>
       <r>    -0.1248     5.5189    20.1805 </r>
       <r>    -0.0739     6.8084    20.4938 </r>
       <r>    -0.0230     6.0139    20.8164 </r>
       <r>     0.0279     5.6580    21.1092 </r>
       <r>     0.0788     5.5196    21.3923 </r>
       <r>     0.1298     5.9840    21.6843 </r>
       <r>     0.1807     6.3199    22.0019 </r>
       <r>     0.2316     5.5680    22.3054 </r>
       <r>     0.2825     5.2361    22.5733 </r>
       <r>     0.3334     5.5578    22.8572 </r>
       <r>     0.3844     4.9193    23.1203 </r>
       <r>     0.4353     4.8650    23.3705 </r>
       <r>     0.4862     5.2833    23.6322 </r>
       <r>     0.5371     5.2733    23.8925 </r>
       <r>     0.5881     4.6087    24.1383 </r>
       <r>     0.6390     3.4354    24.3508 </r>
       <r>     0.6899     2.8580    24.5099 </r>
       <r>     0.7408     3.2708    24.6618 </r>
       <r>     0.7917     4.8521    24.8568 </r>
       <r>     0.8427     3.6721    25.0770 </r>
       <r>     0.8936     3.9260    25.2642 </r>
       <r>     0.9445     5.0547    25.4851 </r>
       <r>     0.9954     4.2211    25.7182 </r>
       <r>     1.0463     5.4162    25.9558 </r>
       <r>     1.0973     4.0840    26.2176 </r>
       <r>     1.1482     4.6167    26.4515 </r>
       <r>     1.1991     3.9986    26.6616 </r>
       <r>     1.2500     6.8842    26.9200 </r>
       <r>     1.3010     7.5882    27.3195 </r>
       <r>     1.3519     7.6155    27.7216 </r>
       <r>     1.4028     5.7134    28.0897 </r>
       <r>     1.4537     3.6568    28.3448 </r>
       <r>     1.5046     3.7945    28.5121 </r>
       <r>     1.5556     3.5064    28.7089 </r>
       <r>     1.6065     5.8808    28.9476 </r>
       <r>     1.6574    10.1264    29.3347 </r>
       <r>     1.7083     7.6883    29.7809 </r>
       <r>     1.7592     6.2261    30.1143 </r>
       <r>     1.8102     6.0123    30.4363 </r>
       <r>     1.8611     5.8221    30.7310 </r>
       <r>     1.9120     5.9061    31.0542 </r>
       <r>     1.9629     4.7667    31.3115 </r>
       <r>     2.0138     5.2708    31.5733 </r>
       <r>     2.0648     4.2949    31.8132 </r>
       <r>     2.1157     3.7487    32.0253 </r>
       <r>     2.1666     3.5151    32.2092 </r>
       <r>     2.2175     3.4354    32.3853 </r>
       <r>     2.2685     3.7534    32.5676 </r>
       <r>     2.3194     4.0447    32.7563 </r>
       <r>     2.3703     3.1627    32.9357 </r>
       <r>     2.4212     4.1128    33.1276 </r>
       <r>     2.4721     3.3286    33.3108 </r>
       <r>     2.5231     2.9039    33.4673 </r>
       <r>     2.5740     4.6297    33.6490 </r>
       <r>     2.6249     7.1283    33.9691 </r>
       <r>     2.6758     4.9656    34.2755 </r>
       <r>     2.7267     6.6632    34.6421 </r>
       <r>     2.7777     4.9985    34.9345 </r>
       <r>     2.8286     4.3907    35.1699 </r>
       <r>     2.8795     4.2566    35.3885 </r>
       <r>     2.9304     3.5867    35.5844 </r>
       <r>     2.9814     4.1263    35.7795 </r>
       <r>     3.0323     4.9600    36.0072 </r>
       <r>     3.0832     5.0157    36.2609 </r>
       <r>     3.1341     7.9211    36.5580 </r>
       <r>     3.1850     4.3860    36.9131 </r>
       <r>     3.2360     2.6223    37.0767 </r>
       <r>     3.2869     2.3405    37.2026 </r>
       <r>     3.3378     2.0235    37.3127 </r>
       <r>     3.3887     2.2387    37.4225 </r>
       <r>     3.4396     3.1758    37.5490 </r>
       <r>     3.4906     2.0446    37.6828 </r>
       <r>     3.5415     1.7333    37.7785 </r>
       <r>     3.5924     1.0605    37.8534 </r>
       <r>     3.6433     0.7436    37.8935 </r>
       <r>     3.6942     0.3547    37.9250 </r>
       <r>     3.7452     0.2856    37.9413 </r>
       <r>     3.7961     0.2190    37.9541 </r>
       <r>     3.8470     0.1623    37.9631 </r>
       <r>     3.8979     0.1481    37.9710 </r>
       <r>     3.9489     0.1339    37.9782 </r>
       <r>     3.9998     0.1197    37.9847 </r>
       <r>     4.0507     0.0908    37.9899 </r>
       <r>     4.1016     0.0700    37.9940 </r>
       <r>     4.1525     0.0492    37.9970 </r>
       <r>     4.2035     0.0285    37.9990 </r>
       <r>     4.2544     0.0078    37.9999 </r>
       <r>     4.3053     0.0000    38.0000 </r>
       <r>     4.3562     0.0000    38.0000 </r>
       <r>     4.4071     0.0000    38.0000 </r>
       <r>     4.4581     0.0000    38.0000 </r>
       <r>     4.5090     0.0000    38.0000 </r>
       <r>     4.5599     0.0000    38.0000 </r>
       <r>     4.6108     0.0000    38.0000 </r>
       <r>     4.6618     0.0000    38.0000 </r>
       <r>     4.7127     0.0000    38.0000 </r>
       <r>     4.7636     0.0000    38.0000 </r>
       <r>     4.8145     0.0000    38.0000 </r>
       <r>     4.8654     0.0000    38.0000 </r>
       <r>     4.9164     0.0000    38.0000 </r>
       <r>     4.9673     0.0000    38.0000 </r>
       <r>     5.0182     0.0000    38.0000 </r>
       <r>     5.0691     0.0000    38.0000 </r>
       <r>     5.1200     0.0000    38.0000 </r>
       <r>     5.1710     0.0000    38.0000 </r>
       <r>     5.2219     0.0000    38.0000 </r>
       <r>     5.2728     0.0000    38.0000 </r>
       <r>     5.3237     0.0000    38.0000 </r>
       <r>     5.3746     0.0000    38.0000 </r>
       <r>     5.4256     0.0000    38.0000 </r>
       <r>     5.4765     0.0000    38.0000 </r>
       <r>     5.5274     0.0000    38.0000 </r>
       <r>     5.5783     0.0000    38.0000 </r>
       <r>     5.6293     0.0000    38.0000 </r>
       <r>     5.6802     0.0000    38.0000 </r>
       <r>     5.7311     0.0000    38.0000 </r>
       <r>     5.7820     0.0000    38.0000 </r>
       <r>     5.8329     0.0000    38.0000 </r>
       <r>     5.8839     0.0000    38.0000 </r>
       <r>     5.9348     0.0000    38.0000 </r>
       <r>     5.9857     0.0000    38.0000 </r>
       <r>     6.0366     0.0000    38.0000 </r>
       <r>     6.0875     0.0000    38.0000 </r>
       <r>     6.1385     0.0000    38.0000 </r>
       <r>     6.1894     0.0000    38.0000 </r>
       <r>     6.2403     0.0000    38.0000 </r>
       <r>     6.2912     0.0000    38.0000 </r>
      </set>
     </set>
    </array>
   </total>
  </dos>
 </calculation>
 <structure name="finalpos" >
  <crystal>
   <varray name="basis" >
    <v>       3.16000000       0.00000000       0.00000000 </v>
    <v>       0.00000000       3.16000000       0.00000000 </v>
    <v>       0.00000000       0.00000000      15.80000000 </v>
   </varray>
   <i name="volume">    157.77248000 </i>
   <varray name="rec_basis" >
    <v>       0.31645570       0.00000000       0.00000000 </v>
    <v>       0.00000000       0.31645570       0.00000000 </v>
    <v>       0.00000000       0.00000000       0.06329114 </v>
   </varray>
  </crystal>
  <varray name="positions" >
   <v>       0.00000000       0.00000000       0.00000000 </v>
   <v>       0.50000000       0.50000000       0.10000000 </v>
   <v>       0.00000000       0.00000000       0.20000000 </v>
   <v>       0.50000000       0.50000000       0.30000000 </v>
   <v>       0.00000000       0.00000000       0.40000000 </v>
  </varray>
 </structure>
</modeling>
