unknown system                          
           1
     3.160000    0.000000    0.000000
     0.000000    3.160000    0.000000
     0.000000    0.000000   15.800000
   W 
   5
Direct configuration=     1
   0.00000000  0.00000000  0.00000000
   0.50000000  0.50000000  0.10000000
   0.00000000  0.00000000  0.20000000
   0.50000000  0.50000000  0.30000000
   0.00000000  0.00000000  0.40000000
