   4   4   1   0
  0.9063964E+01  0.5107186E-09  0.5107186E-09  0.5107186E-09  0.5000000E-15
  1.000000000000000E-004
  CAR 
 NiO_af2                                 
     16.54386212    -17.10842065  301      4.90578099      1.00000000
    -17.108  0.0000E+00  0.0000E+00  0.0000E+00  0.0000E+00
    -16.996  0.0000E+00  0.0000E+00  0.0000E+00  0.0000E+00
    -16.884  0.0000E+00  0.0000E+00  0.0000E+00  0.0000E+00
    -16.772  0.0000E+00  0.0000E+00  0.0000E+00  0.0000E+00
    -16.660  0.0000E+00  0.0000E+00  0.0000E+00  0.0000E+00
    -16.548  0.0000E+00  0.0000E+00  0.0000E+00  0.0000E+00
    -16.435  0.0000E+00  0.0000E+00  0.0000E+00  0.0000E+00
    -16.323  0.0000E+00  0.0000E+00  0.0000E+00  0.0000E+00
    -16.211  0.0000E+00  0.0000E+00  0.0000E+00  0.0000E+00
    -16.099  0.0000E+00  0.0000E+00  0.0000E+00  0.0000E+00
    -15.987  0.0000E+00  0.0000E+00  0.0000E+00  0.0000E+00
    -15.875  0.0000E+00  0.0000E+00  0.0000E+00  0.0000E+00
    -15.762  0.0000E+00  0.0000E+00  0.0000E+00  0.0000E+00
    -15.650  0.0000E+00  0.0000E+00  0.0000E+00  0.0000E+00
    -15.538  0.0000E+00  0.0000E+00  0.0000E+00  0.0000E+00
    -15.426  0.0000E+00  0.0000E+00  0.0000E+00  0.0000E+00
    -15.314  0.0000E+00  0.0000E+00  0.0000E+00  0.0000E+00
    -15.201  0.0000E+00  0.0000E+00  0.0000E+00  0.0000E+00
    -15.089  0.5108E-01  0.5108E-01  0.4105E-03  0.4105E-03
    -14.977  0.1545E+00  0.1545E+00  0.1275E-01  0.1275E-01
    -14.865  0.2261E+00  0.2261E+00  0.3431E-01  0.3431E-01
    -14.753  0.2947E+00  0.2947E+00  0.6360E-01  0.6360E-01
    -14.641  0.3679E+00  0.3679E+00  0.1007E+00  0.1007E+00
    -14.528  0.4481E+00  0.4481E+00  0.1463E+00  0.1463E+00
    -14.416  0.5333E+00  0.5333E+00  0.2015E+00  0.2015E+00
    -14.304  0.6486E+00  0.6486E+00  0.2680E+00  0.2680E+00
    -14.192  0.7943E+00  0.7943E+00  0.3490E+00  0.3490E+00
    -14.080  0.9963E+00  0.9963E+00  0.4485E+00  0.4485E+00
    -13.968  0.1289E+01  0.1289E+01  0.5754E+00  0.5754E+00
    -13.855  0.1808E+01  0.1808E+01  0.7465E+00  0.7465E+00
    -13.743  0.3112E+01  0.3112E+01  0.1008E+01  0.1008E+01
    -13.631  0.6176E+01  0.6176E+01  0.1527E+01  0.1527E+01
    -13.519  0.0000E+00  0.0000E+00  0.2000E+01  0.2000E+01
    -13.407  0.0000E+00  0.0000E+00  0.2000E+01  0.2000E+01
    -13.294  0.0000E+00  0.0000E+00  0.2000E+01  0.2000E+01
    -13.182  0.0000E+00  0.0000E+00  0.2000E+01  0.2000E+01
    -13.070  0.0000E+00  0.0000E+00  0.2000E+01  0.2000E+01
    -12.958  0.0000E+00  0.0000E+00  0.2000E+01  0.2000E+01
    -12.846  0.0000E+00  0.0000E+00  0.2000E+01  0.2000E+01
    -12.734  0.0000E+00  0.0000E+00  0.2000E+01  0.2000E+01
    -12.621  0.0000E+00  0.0000E+00  0.2000E+01  0.2000E+01
    -12.509  0.0000E+00  0.0000E+00  0.2000E+01  0.2000E+01
    -12.397  0.0000E+00  0.0000E+00  0.2000E+01  0.2000E+01
    -12.285  0.0000E+00  0.0000E+00  0.2000E+01  0.2000E+01
    -12.173  0.0000E+00  0.0000E+00  0.2000E+01  0.2000E+01
    -12.061  0.0000E+00  0.0000E+00  0.2000E+01  0.2000E+01
    -11.948  0.0000E+00  0.0000E+00  0.2000E+01  0.2000E+01
    -11.836  0.0000E+00  0.0000E+00  0.2000E+01  0.2000E+01
    -11.724  0.0000E+00  0.0000E+00  0.2000E+01  0.2000E+01
    -11.612  0.0000E+00  0.0000E+00  0.2000E+01  0.2000E+01
    -11.500  0.0000E+00  0.0000E+00  0.2000E+01  0.2000E+01
    -11.388  0.0000E+00  0.0000E+00  0.2000E+01  0.2000E+01
    -11.275  0.0000E+00  0.0000E+00  0.2000E+01  0.2000E+01
    -11.163  0.0000E+00  0.0000E+00  0.2000E+01  0.2000E+01
    -11.051  0.0000E+00  0.0000E+00  0.2000E+01  0.2000E+01
    -10.939  0.0000E+00  0.0000E+00  0.2000E+01  0.2000E+01
    -10.827  0.0000E+00  0.0000E+00  0.2000E+01  0.2000E+01
    -10.714  0.0000E+00  0.0000E+00  0.2000E+01  0.2000E+01
    -10.602  0.0000E+00  0.0000E+00  0.2000E+01  0.2000E+01
    -10.490  0.0000E+00  0.0000E+00  0.2000E+01  0.2000E+01
    -10.378  0.0000E+00  0.0000E+00  0.2000E+01  0.2000E+01
    -10.266  0.0000E+00  0.0000E+00  0.2000E+01  0.2000E+01
    -10.154  0.0000E+00  0.0000E+00  0.2000E+01  0.2000E+01
    -10.041  0.0000E+00  0.0000E+00  0.2000E+01  0.2000E+01
     -9.929  0.0000E+00  0.0000E+00  0.2000E+01  0.2000E+01
     -9.817  0.0000E+00  0.0000E+00  0.2000E+01  0.2000E+01
     -9.705  0.0000E+00  0.0000E+00  0.2000E+01  0.2000E+01
     -9.593  0.0000E+00  0.0000E+00  0.2000E+01  0.2000E+01
     -9.481  0.0000E+00  0.0000E+00  0.2000E+01  0.2000E+01
     -9.368  0.0000E+00  0.0000E+00  0.2000E+01  0.2000E+01
     -9.256  0.0000E+00  0.0000E+00  0.2000E+01  0.2000E+01
     -9.144  0.0000E+00  0.0000E+00  0.2000E+01  0.2000E+01
     -9.032  0.0000E+00  0.0000E+00  0.2000E+01  0.2000E+01
     -8.920  0.0000E+00  0.0000E+00  0.2000E+01  0.2000E+01
     -8.808  0.0000E+00  0.0000E+00  0.2000E+01  0.2000E+01
     -8.695  0.0000E+00  0.0000E+00  0.2000E+01  0.2000E+01
     -8.583  0.0000E+00  0.0000E+00  0.2000E+01  0.2000E+01
     -8.471  0.0000E+00  0.0000E+00  0.2000E+01  0.2000E+01
     -8.359  0.0000E+00  0.0000E+00  0.2000E+01  0.2000E+01
     -8.247  0.0000E+00  0.0000E+00  0.2000E+01  0.2000E+01
     -8.134  0.0000E+00  0.0000E+00  0.2000E+01  0.2000E+01
     -8.022  0.0000E+00  0.0000E+00  0.2000E+01  0.2000E+01
     -7.910  0.0000E+00  0.0000E+00  0.2000E+01  0.2000E+01
     -7.798  0.0000E+00  0.0000E+00  0.2000E+01  0.2000E+01
     -7.686  0.0000E+00  0.0000E+00  0.2000E+01  0.2000E+01
     -7.574  0.0000E+00  0.0000E+00  0.2000E+01  0.2000E+01
     -7.461  0.0000E+00  0.0000E+00  0.2000E+01  0.2000E+01
     -7.349  0.0000E+00  0.0000E+00  0.2000E+01  0.2000E+01
     -7.237  0.0000E+00  0.0000E+00  0.2000E+01  0.2000E+01
     -7.125  0.0000E+00  0.0000E+00  0.2000E+01  0.2000E+01
     -7.013  0.0000E+00  0.0000E+00  0.2000E+01  0.2000E+01
     -6.901  0.0000E+00  0.0000E+00  0.2000E+01  0.2000E+01
     -6.788  0.0000E+00  0.0000E+00  0.2000E+01  0.2000E+01
     -6.676  0.0000E+00  0.0000E+00  0.2000E+01  0.2000E+01
     -6.564  0.0000E+00  0.0000E+00  0.2000E+01  0.2000E+01
     -6.452  0.0000E+00  0.0000E+00  0.2000E+01  0.2000E+01
     -6.340  0.0000E+00  0.0000E+00  0.2000E+01  0.2000E+01
     -6.228  0.0000E+00  0.0000E+00  0.2000E+01  0.2000E+01
     -6.115  0.0000E+00  0.0000E+00  0.2000E+01  0.2000E+01
     -6.003  0.0000E+00  0.0000E+00  0.2000E+01  0.2000E+01
     -5.891  0.0000E+00  0.0000E+00  0.2000E+01  0.2000E+01
     -5.779  0.0000E+00  0.0000E+00  0.2000E+01  0.2000E+01
     -5.667  0.0000E+00  0.0000E+00  0.2000E+01  0.2000E+01
     -5.554  0.0000E+00  0.0000E+00  0.2000E+01  0.2000E+01
     -5.442  0.0000E+00  0.0000E+00  0.2000E+01  0.2000E+01
     -5.330  0.0000E+00  0.0000E+00  0.2000E+01  0.2000E+01
     -5.218  0.0000E+00  0.0000E+00  0.2000E+01  0.2000E+01
     -5.106  0.0000E+00  0.0000E+00  0.2000E+01  0.2000E+01
     -4.994  0.0000E+00  0.0000E+00  0.2000E+01  0.2000E+01
     -4.881  0.0000E+00  0.0000E+00  0.2000E+01  0.2000E+01
     -4.769  0.0000E+00  0.0000E+00  0.2000E+01  0.2000E+01
     -4.657  0.0000E+00  0.0000E+00  0.2000E+01  0.2000E+01
     -4.545  0.0000E+00  0.0000E+00  0.2000E+01  0.2000E+01
     -4.433  0.0000E+00  0.0000E+00  0.2000E+01  0.2000E+01
     -4.321  0.0000E+00  0.0000E+00  0.2000E+01  0.2000E+01
     -4.208  0.0000E+00  0.0000E+00  0.2000E+01  0.2000E+01
     -4.096  0.0000E+00  0.0000E+00  0.2000E+01  0.2000E+01
     -3.984  0.0000E+00  0.0000E+00  0.2000E+01  0.2000E+01
     -3.872  0.0000E+00  0.0000E+00  0.2000E+01  0.2000E+01
     -3.760  0.0000E+00  0.0000E+00  0.2000E+01  0.2000E+01
     -3.648  0.0000E+00  0.0000E+00  0.2000E+01  0.2000E+01
     -3.535  0.0000E+00  0.0000E+00  0.2000E+01  0.2000E+01
     -3.423  0.0000E+00  0.0000E+00  0.2000E+01  0.2000E+01
     -3.311  0.0000E+00  0.0000E+00  0.2000E+01  0.2000E+01
     -3.199  0.0000E+00  0.0000E+00  0.2000E+01  0.2000E+01
     -3.087  0.0000E+00  0.0000E+00  0.2000E+01  0.2000E+01
     -2.974  0.0000E+00  0.0000E+00  0.2000E+01  0.2000E+01
     -2.862  0.1671E+00  0.1671E+00  0.2010E+01  0.2010E+01
     -2.750  0.2702E+00  0.2702E+00  0.2035E+01  0.2035E+01
     -2.638  0.3548E+00  0.3548E+00  0.2070E+01  0.2070E+01
     -2.526  0.4434E+00  0.4434E+00  0.2115E+01  0.2115E+01
     -2.414  0.5343E+00  0.5343E+00  0.2170E+01  0.2170E+01
     -2.301  0.6427E+00  0.6427E+00  0.2236E+01  0.2236E+01
     -2.189  0.7846E+00  0.7846E+00  0.2315E+01  0.2315E+01
     -2.077  0.9846E+00  0.9846E+00  0.2413E+01  0.2413E+01
     -1.965  0.1530E+01  0.1530E+01  0.2551E+01  0.2551E+01
     -1.853  0.1740E+01  0.1740E+01  0.2729E+01  0.2729E+01
     -1.741  0.2238E+01  0.2238E+01  0.2942E+01  0.2942E+01
     -1.628  0.2150E+01  0.2150E+01  0.3245E+01  0.3245E+01
     -1.516  0.1319E+01  0.1319E+01  0.3438E+01  0.3438E+01
     -1.404  0.1037E+01  0.1037E+01  0.3566E+01  0.3566E+01
     -1.292  0.7700E+00  0.7700E+00  0.3668E+01  0.3668E+01
     -1.180  0.4468E+00  0.4468E+00  0.3734E+01  0.3734E+01
     -1.067  0.4315E+00  0.4315E+00  0.3779E+01  0.3779E+01
     -0.955  0.6210E+00  0.6210E+00  0.3836E+01  0.3836E+01
     -0.843  0.1084E+01  0.1084E+01  0.3930E+01  0.3930E+01
     -0.731  0.1347E+01  0.1347E+01  0.4061E+01  0.4061E+01
     -0.619  0.1583E+01  0.1583E+01  0.4221E+01  0.4221E+01
     -0.507  0.1702E+01  0.1702E+01  0.4400E+01  0.4400E+01
     -0.394  0.1773E+01  0.1773E+01  0.4595E+01  0.4595E+01
     -0.282  0.2340E+01  0.2340E+01  0.4820E+01  0.4820E+01
     -0.170  0.4615E+01  0.4615E+01  0.5195E+01  0.5195E+01
     -0.058  0.3909E+01  0.3909E+01  0.5787E+01  0.5787E+01
      0.054  0.2810E+01  0.2810E+01  0.6167E+01  0.6167E+01
      0.166  0.2185E+01  0.2185E+01  0.6440E+01  0.6440E+01
      0.279  0.1801E+01  0.1801E+01  0.6664E+01  0.6664E+01
      0.391  0.1739E+01  0.1739E+01  0.6855E+01  0.6855E+01
      0.503  0.1554E+01  0.1554E+01  0.7042E+01  0.7042E+01
      0.615  0.1641E+01  0.1641E+01  0.7222E+01  0.7222E+01
      0.727  0.1479E+01  0.1479E+01  0.7395E+01  0.7395E+01
      0.839  0.1408E+01  0.1408E+01  0.7555E+01  0.7555E+01
      0.952  0.8654E+00  0.8654E+00  0.7685E+01  0.7685E+01
      1.064  0.6081E+00  0.6081E+00  0.7765E+01  0.7765E+01
      1.176  0.4635E+00  0.4635E+00  0.7825E+01  0.7825E+01
      1.288  0.3602E+00  0.3602E+00  0.7871E+01  0.7871E+01
      1.400  0.2827E+00  0.2827E+00  0.7907E+01  0.7907E+01
      1.513  0.2177E+00  0.2177E+00  0.7935E+01  0.7935E+01
      1.625  0.1660E+00  0.1660E+00  0.7956E+01  0.7956E+01
      1.737  0.1244E+00  0.1244E+00  0.7972E+01  0.7972E+01
      1.849  0.8994E-01  0.8994E-01  0.7984E+01  0.7984E+01
      1.961  0.9279E-01  0.9279E-01  0.7993E+01  0.7993E+01
      2.073  0.1682E+00  0.1682E+00  0.8008E+01  0.8008E+01
      2.186  0.2377E+00  0.2377E+00  0.8031E+01  0.8031E+01
      2.298  0.3541E+00  0.3541E+00  0.8063E+01  0.8063E+01
      2.410  0.5280E+00  0.5280E+00  0.8112E+01  0.8112E+01
      2.522  0.7827E+00  0.7827E+00  0.8185E+01  0.8185E+01
      2.634  0.1272E+01  0.1272E+01  0.8296E+01  0.8296E+01
      2.746  0.2391E+01  0.2391E+01  0.8500E+01  0.8500E+01
      2.859  0.1944E+01  0.1944E+01  0.8775E+01  0.8775E+01
      2.971  0.1936E+01  0.1936E+01  0.8991E+01  0.8991E+01
      3.083  0.2082E+01  0.2082E+01  0.9212E+01  0.9212E+01
      3.195  0.2538E+01  0.2538E+01  0.9461E+01  0.9461E+01
      3.307  0.7028E+01  0.7028E+01  0.1005E+02  0.1005E+02
      3.419  0.6546E+01  0.6546E+01  0.1060E+02  0.1060E+02
      3.532  0.1806E+01  0.1806E+01  0.1096E+02  0.1096E+02
      3.644  0.6166E+00  0.6166E+00  0.1105E+02  0.1105E+02
      3.756  0.2499E+01  0.2499E+01  0.1121E+02  0.1121E+02
      3.868  0.4876E+01  0.4876E+01  0.1164E+02  0.1164E+02
      3.980  0.5484E+01  0.5484E+01  0.1223E+02  0.1223E+02
      4.093  0.2966E+01  0.2966E+01  0.1272E+02  0.1272E+02
      4.205  0.3326E+01  0.3326E+01  0.1309E+02  0.1309E+02
      4.317  0.3941E+01  0.3941E+01  0.1353E+02  0.1353E+02
      4.429  0.5409E+01  0.5409E+01  0.1418E+02  0.1418E+02
      4.541  0.5591E+01  0.5591E+01  0.1491E+02  0.1491E+02
      4.653  0.6035E+01  0.6035E+01  0.1569E+02  0.1569E+02
      4.766  0.7037E+00  0.7037E+00  0.1598E+02  0.1598E+02
      4.878  0.0000E+00  0.0000E+00  0.1600E+02  0.1600E+02
      4.990  0.0000E+00  0.0000E+00  0.1600E+02  0.1600E+02
      5.102  0.0000E+00  0.0000E+00  0.1600E+02  0.1600E+02
      5.214  0.0000E+00  0.0000E+00  0.1600E+02  0.1600E+02
      5.326  0.8635E-01  0.8635E-01  0.1600E+02  0.1600E+02
      5.439  0.2766E+00  0.2766E+00  0.1602E+02  0.1602E+02
      5.551  0.4508E+00  0.4508E+00  0.1606E+02  0.1606E+02
      5.663  0.1347E+01  0.1347E+01  0.1616E+02  0.1616E+02
      5.775  0.2400E+01  0.2400E+01  0.1637E+02  0.1637E+02
      5.887  0.2873E+01  0.2873E+01  0.1673E+02  0.1673E+02
      5.999  0.1832E+01  0.1832E+01  0.1692E+02  0.1692E+02
      6.112  0.2509E+01  0.2509E+01  0.1718E+02  0.1718E+02
      6.224  0.1860E+01  0.1860E+01  0.1741E+02  0.1741E+02
      6.336  0.1723E+01  0.1723E+01  0.1761E+02  0.1761E+02
      6.448  0.1637E+01  0.1637E+01  0.1780E+02  0.1780E+02
      6.560  0.1029E+01  0.1029E+01  0.1797E+02  0.1797E+02
      6.673  0.0000E+00  0.0000E+00  0.1800E+02  0.1800E+02
      6.785  0.0000E+00  0.0000E+00  0.1800E+02  0.1800E+02
      6.897  0.0000E+00  0.0000E+00  0.1800E+02  0.1800E+02
      7.009  0.4675E-02  0.4675E-02  0.1800E+02  0.1800E+02
      7.121  0.1046E-01  0.1046E-01  0.1800E+02  0.1800E+02
      7.233  0.1401E-01  0.1401E-01  0.1800E+02  0.1800E+02
      7.346  0.1752E-01  0.1752E-01  0.1800E+02  0.1800E+02
      7.458  0.2112E-01  0.2112E-01  0.1801E+02  0.1801E+02
      7.570  0.2396E-01  0.2396E-01  0.1801E+02  0.1801E+02
      7.682  0.2715E-01  0.2715E-01  0.1801E+02  0.1801E+02
      7.794  0.3048E-01  0.3048E-01  0.1802E+02  0.1802E+02
      7.906  0.3395E-01  0.3395E-01  0.1802E+02  0.1802E+02
      8.019  0.3749E-01  0.3749E-01  0.1802E+02  0.1802E+02
      8.131  0.4115E-01  0.4115E-01  0.1803E+02  0.1803E+02
      8.243  0.4491E-01  0.4491E-01  0.1803E+02  0.1803E+02
      8.355  0.4878E-01  0.4878E-01  0.1804E+02  0.1804E+02
      8.467  0.5287E-01  0.5287E-01  0.1804E+02  0.1804E+02
      8.579  0.5727E-01  0.5727E-01  0.1805E+02  0.1805E+02
      8.692  0.6199E-01  0.6199E-01  0.1806E+02  0.1806E+02
      8.804  0.6699E-01  0.6699E-01  0.1806E+02  0.1806E+02
      8.916  0.7212E-01  0.7212E-01  0.1807E+02  0.1807E+02
      9.028  0.7735E-01  0.7735E-01  0.1808E+02  0.1808E+02
      9.140  0.8293E-01  0.8293E-01  0.1809E+02  0.1809E+02
      9.253  0.8933E-01  0.8933E-01  0.1810E+02  0.1810E+02
      9.365  0.9606E-01  0.9606E-01  0.1811E+02  0.1811E+02
      9.477  0.1039E+00  0.1039E+00  0.1812E+02  0.1812E+02
      9.589  0.1114E+00  0.1114E+00  0.1813E+02  0.1813E+02
      9.701  0.1168E+00  0.1168E+00  0.1814E+02  0.1814E+02
      9.813  0.1268E+00  0.1268E+00  0.1816E+02  0.1816E+02
      9.926  0.1350E+00  0.1350E+00  0.1817E+02  0.1817E+02
     10.038  0.1459E+00  0.1459E+00  0.1819E+02  0.1819E+02
     10.150  0.1582E+00  0.1582E+00  0.1821E+02  0.1821E+02
     10.262  0.1703E+00  0.1703E+00  0.1822E+02  0.1822E+02
     10.374  0.1827E+00  0.1827E+00  0.1824E+02  0.1824E+02
     10.486  0.1986E+00  0.1986E+00  0.1826E+02  0.1826E+02
     10.599  0.2184E+00  0.2184E+00  0.1829E+02  0.1829E+02
     10.711  0.2390E+00  0.2390E+00  0.1831E+02  0.1831E+02
     10.823  0.2683E+00  0.2683E+00  0.1834E+02  0.1834E+02
     10.935  0.3430E+00  0.3430E+00  0.1838E+02  0.1838E+02
     11.047  0.3772E+00  0.3772E+00  0.1842E+02  0.1842E+02
     11.159  0.3800E+00  0.3800E+00  0.1846E+02  0.1846E+02
     11.272  0.3905E+00  0.3905E+00  0.1850E+02  0.1850E+02
     11.384  0.4008E+00  0.4008E+00  0.1855E+02  0.1855E+02
     11.496  0.4058E+00  0.4058E+00  0.1859E+02  0.1859E+02
     11.608  0.4265E+00  0.4265E+00  0.1864E+02  0.1864E+02
     11.720  0.5240E+00  0.5240E+00  0.1869E+02  0.1869E+02
     11.833  0.6177E+00  0.6177E+00  0.1876E+02  0.1876E+02
     11.945  0.6705E+00  0.6705E+00  0.1883E+02  0.1883E+02
     12.057  0.6611E+00  0.6611E+00  0.1891E+02  0.1891E+02
     12.169  0.6421E+00  0.6421E+00  0.1898E+02  0.1898E+02
     12.281  0.6310E+00  0.6309E+00  0.1905E+02  0.1905E+02
     12.393  0.6166E+00  0.6166E+00  0.1912E+02  0.1912E+02
     12.506  0.6040E+00  0.6040E+00  0.1919E+02  0.1919E+02
     12.618  0.5853E+00  0.5853E+00  0.1925E+02  0.1925E+02
     12.730  0.5690E+00  0.5690E+00  0.1932E+02  0.1932E+02
     12.842  0.5381E+00  0.5381E+00  0.1938E+02  0.1938E+02
     12.954  0.5276E+00  0.5276E+00  0.1944E+02  0.1944E+02
     13.066  0.5161E+00  0.5160E+00  0.1950E+02  0.1950E+02
     13.179  0.5029E+00  0.5031E+00  0.1956E+02  0.1956E+02
     13.291  0.4708E+00  0.4708E+00  0.1961E+02  0.1961E+02
     13.403  0.4534E+00  0.4534E+00  0.1966E+02  0.1966E+02
     13.515  0.4376E+00  0.4375E+00  0.1971E+02  0.1971E+02
     13.627  0.4224E+00  0.4221E+00  0.1976E+02  0.1976E+02
     13.740  0.4178E+00  0.4182E+00  0.1981E+02  0.1981E+02
     13.852  0.4050E+00  0.4058E+00  0.1985E+02  0.1985E+02
     13.964  0.4411E+00  0.4424E+00  0.1990E+02  0.1990E+02
     14.076  0.3622E+00  0.3642E+00  0.1995E+02  0.1995E+02
     14.188  0.2101E+00  0.2093E+00  0.1998E+02  0.1998E+02
     14.300  0.6299E-01  0.6286E-01  0.2000E+02  0.2000E+02
     14.413  0.1084E-01  0.1249E-01  0.2000E+02  0.2000E+02
     14.525  0.5882E-03  0.0000E+00  0.2000E+02  0.2000E+02
     14.637  0.0000E+00  0.0000E+00  0.2000E+02  0.2000E+02
     14.749  0.0000E+00  0.0000E+00  0.2000E+02  0.2000E+02
     14.861  0.0000E+00  0.0000E+00  0.2000E+02  0.2000E+02
     14.973  0.0000E+00  0.0000E+00  0.2000E+02  0.2000E+02
     15.086  0.0000E+00  0.0000E+00  0.2000E+02  0.2000E+02
     15.198  0.0000E+00  0.0000E+00  0.2000E+02  0.2000E+02
     15.310  0.0000E+00  0.0000E+00  0.2000E+02  0.2000E+02
     15.422  0.0000E+00  0.0000E+00  0.2000E+02  0.2000E+02
     15.534  0.0000E+00  0.0000E+00  0.2000E+02  0.2000E+02
     15.646  0.0000E+00  0.0000E+00  0.2000E+02  0.2000E+02
     15.759  0.0000E+00  0.0000E+00  0.2000E+02  0.2000E+02
     15.871  0.0000E+00  0.0000E+00  0.2000E+02  0.2000E+02
     15.983  0.0000E+00  0.0000E+00  0.2000E+02  0.2000E+02
     16.095  0.0000E+00  0.0000E+00  0.2000E+02  0.2000E+02
     16.207  0.0000E+00  0.0000E+00  0.2000E+02  0.2000E+02
     16.320  0.0000E+00  0.0000E+00  0.2000E+02  0.2000E+02
     16.432  0.0000E+00  0.0000E+00  0.2000E+02  0.2000E+02
     16.544  0.0000E+00  0.0000E+00  0.2000E+02  0.2000E+02
     16.54386212    -17.10842065  301      4.90578099      1.00000000
    -17.108  0.0000E+00  0.0000E+00  0.0000E+00  0.0000E+00  0.0000E+00  0.0000E+00  0.0000E+00  0.0000E+00  0.0000E+00  0.0000E+00  0.0000E+00  0.0000E+00  0.0000E+00  0.0000E+00  0.0000E+00  0.0000E+00  0.0000E+00  0.0000E+00
    -16.996  0.0000E+00  0.0000E+00  0.0000E+00  0.0000E+00  0.0000E+00  0.0000E+00  0.0000E+00  0.0000E+00  0.0000E+00  0.0000E+00  0.0000E+00  0.0000E+00  0.0000E+00  0.0000E+00  0.0000E+00  0.0000E+00  0.0000E+00  0.0000E+00
    -16.884  0.0000E+00  0.0000E+00  0.0000E+00  0.0000E+00  0.0000E+00  0.0000E+00  0.0000E+00  0.0000E+00  0.0000E+00  0.0000E+00  0.0000E+00  0.0000E+00  0.0000E+00  0.0000E+00  0.0000E+00  0.0000E+00  0.0000E+00  0.0000E+00
    -16.772  0.0000E+00  0.0000E+00  0.0000E+00  0.0000E+00  0.0000E+00  0.0000E+00  0.0000E+00  0.0000E+00  0.0000E+00  0.0000E+00  0.0000E+00  0.0000E+00  0.0000E+00  0.0000E+00  0.0000E+00  0.0000E+00  0.0000E+00  0.0000E+00
    -16.660  0.0000E+00  0.0000E+00  0.0000E+00  0.0000E+00  0.0000E+00  0.0000E+00  0.0000E+00  0.0000E+00  0.0000E+00  0.0000E+00  0.0000E+00  0.0000E+00  0.0000E+00  0.0000E+00  0.0000E+00  0.0000E+00  0.0000E+00  0.0000E+00
    -16.548  0.0000E+00  0.0000E+00  0.0000E+00  0.0000E+00  0.0000E+00  0.0000E+00  0.0000E+00  0.0000E+00  0.0000E+00  0.0000E+00  0.0000E+00  0.0000E+00  0.0000E+00  0.0000E+00  0.0000E+00  0.0000E+00  0.0000E+00  0.0000E+00
    -16.435  0.0000E+00  0.0000E+00  0.0000E+00  0.0000E+00  0.0000E+00  0.0000E+00  0.0000E+00  0.0000E+00  0.0000E+00  0.0000E+00  0.0000E+00  0.0000E+00  0.0000E+00  0.0000E+00  0.0000E+00  0.0000E+00  0.0000E+00  0.0000E+00
    -16.323  0.0000E+00  0.0000E+00  0.0000E+00  0.0000E+00  0.0000E+00  0.0000E+00  0.0000E+00  0.0000E+00  0.0000E+00  0.0000E+00  0.0000E+00  0.0000E+00  0.0000E+00  0.0000E+00  0.0000E+00  0.0000E+00  0.0000E+00  0.0000E+00
    -16.211  0.0000E+00  0.0000E+00  0.0000E+00  0.0000E+00  0.0000E+00  0.0000E+00  0.0000E+00  0.0000E+00  0.0000E+00  0.0000E+00  0.0000E+00  0.0000E+00  0.0000E+00  0.0000E+00  0.0000E+00  0.0000E+00  0.0000E+00  0.0000E+00
    -16.099  0.0000E+00  0.0000E+00  0.0000E+00  0.0000E+00  0.0000E+00  0.0000E+00  0.0000E+00  0.0000E+00  0.0000E+00  0.0000E+00  0.0000E+00  0.0000E+00  0.0000E+00  0.0000E+00  0.0000E+00  0.0000E+00  0.0000E+00  0.0000E+00
    -15.987  0.0000E+00  0.0000E+00  0.0000E+00  0.0000E+00  0.0000E+00  0.0000E+00  0.0000E+00  0.0000E+00  0.0000E+00  0.0000E+00  0.0000E+00  0.0000E+00  0.0000E+00  0.0000E+00  0.0000E+00  0.0000E+00  0.0000E+00  0.0000E+00
    -15.875  0.0000E+00  0.0000E+00  0.0000E+00  0.0000E+00  0.0000E+00  0.0000E+00  0.0000E+00  0.0000E+00  0.0000E+00  0.0000E+00  0.0000E+00  0.0000E+00  0.0000E+00  0.0000E+00  0.0000E+00  0.0000E+00  0.0000E+00  0.0000E+00
    -15.762  0.0000E+00  0.0000E+00  0.0000E+00  0.0000E+00  0.0000E+00  0.0000E+00  0.0000E+00  0.0000E+00  0.0000E+00  0.0000E+00  0.0000E+00  0.0000E+00  0.0000E+00  0.0000E+00  0.0000E+00  0.0000E+00  0.0000E+00  0.0000E+00
    -15.650  0.0000E+00  0.0000E+00  0.0000E+00  0.0000E+00  0.0000E+00  0.0000E+00  0.0000E+00  0.0000E+00  0.0000E+00  0.0000E+00  0.0000E+00  0.0000E+00  0.0000E+00  0.0000E+00  0.0000E+00  0.0000E+00  0.0000E+00  0.0000E+00
    -15.538  0.0000E+00  0.0000E+00  0.0000E+00  0.0000E+00  0.0000E+00  0.0000E+00  0.0000E+00  0.0000E+00  0.0000E+00  0.0000E+00  0.0000E+00  0.0000E+00  0.0000E+00  0.0000E+00  0.0000E+00  0.0000E+00  0.0000E+00  0.0000E+00
    -15.426  0.0000E+00  0.0000E+00  0.0000E+00  0.0000E+00  0.0000E+00  0.0000E+00  0.0000E+00  0.0000E+00  0.0000E+00  0.0000E+00  0.0000E+00  0.0000E+00  0.0000E+00  0.0000E+00  0.0000E+00  0.0000E+00  0.0000E+00  0.0000E+00
    -15.314  0.0000E+00  0.0000E+00  0.0000E+00  0.0000E+00  0.0000E+00  0.0000E+00  0.0000E+00  0.0000E+00  0.0000E+00  0.0000E+00  0.0000E+00  0.0000E+00  0.0000E+00  0.0000E+00  0.0000E+00  0.0000E+00  0.0000E+00  0.0000E+00
    -15.201  0.0000E+00  0.0000E+00  0.0000E+00  0.0000E+00  0.0000E+00  0.0000E+00  0.0000E+00  0.0000E+00  0.0000E+00  0.0000E+00  0.0000E+00  0.0000E+00  0.0000E+00  0.0000E+00  0.0000E+00  0.0000E+00  0.0000E+00  0.0000E+00
    -15.089  0.3017E-02  0.2981E-02  0.5140E-05  0.5131E-05  0.3450E-05  0.3413E-05  0.1586E-04  0.1577E-04  0.1541E-08  0.1942E-08  0.7770E-09  0.7920E-09  0.3157E-07  0.3000E-07  0.5845E-09  0.2152E-08  0.7376E-07  0.6948E-07
    -14.977  0.8435E-02  0.8326E-02  0.1250E-03  0.1249E-03  0.5313E-04  0.5246E-04  0.2783E-03  0.2774E-03  0.1466E-06  0.1304E-06  0.3885E-07  0.4356E-07  0.3819E-05  0.3617E-05  0.6021E-07  0.7285E-07  0.6780E-05  0.6371E-05
    -14.865  0.1135E-01  0.1119E-01  0.3273E-03  0.3275E-03  0.1358E-03  0.1343E-03  0.7283E-03  0.7257E-03  0.6305E-06  0.5807E-06  0.1656E-06  0.1741E-06  0.1885E-04  0.1787E-04  0.2499E-06  0.2748E-06  0.3329E-04  0.3124E-04
    -14.753  0.1352E-01  0.1331E-01  0.6056E-03  0.6066E-03  0.2594E-03  0.2571E-03  0.1328E-02  0.1323E-02  0.1538E-05  0.1437E-05  0.4209E-06  0.4316E-06  0.5323E-04  0.5041E-04  0.6078E-06  0.6434E-06  0.9225E-04  0.8640E-04
    -14.641  0.1528E-01  0.1501E-01  0.9366E-03  0.9407E-03  0.4258E-03  0.4239E-03  0.2118E-02  0.2110E-02  0.3006E-05  0.2830E-05  0.7462E-06  0.7542E-06  0.1179E-03  0.1117E-03  0.1273E-05  0.1314E-05  0.2048E-03  0.1915E-03
    -14.528  0.1665E-01  0.1621E-01  0.1423E-02  0.1444E-02  0.6508E-03  0.6624E-03  0.3015E-02  0.3017E-02  0.5113E-05  0.4817E-05  0.1397E-05  0.1368E-05  0.2260E-03  0.2152E-03  0.2156E-05  0.2165E-05  0.4029E-03  0.3765E-03
    -14.416  0.1732E-01  0.1692E-01  0.2009E-02  0.2022E-02  0.1005E-02  0.9961E-03  0.4019E-02  0.3995E-02  0.7557E-05  0.7229E-05  0.2345E-05  0.2351E-05  0.4098E-03  0.3947E-03  0.3124E-05  0.3194E-05  0.7194E-03  0.6713E-03
    -14.304  0.1807E-01  0.1792E-01  0.2782E-02  0.2752E-02  0.1971E-02  0.1921E-02  0.4852E-02  0.4788E-02  0.9316E-05  0.8997E-05  0.4772E-05  0.4773E-05  0.7504E-03  0.7083E-03  0.4634E-05  0.4732E-05  0.1172E-02  0.1081E-02
    -14.192  0.1844E-01  0.1835E-01  0.3827E-02  0.3781E-02  0.3293E-02  0.3235E-02  0.5713E-02  0.5632E-02  0.1115E-04  0.1079E-04  0.8263E-05  0.8146E-05  0.1391E-02  0.1293E-02  0.6221E-05  0.6265E-05  0.1880E-02  0.1724E-02
    -14.080  0.1858E-01  0.1849E-01  0.5332E-02  0.5267E-02  0.5133E-02  0.5093E-02  0.6696E-02  0.6629E-02  0.1328E-04  0.1284E-04  0.1273E-04  0.1245E-04  0.2631E-02  0.2404E-02  0.7947E-05  0.7945E-05  0.2857E-02  0.2597E-02
    -13.968  0.1819E-01  0.1835E-01  0.7436E-02  0.7289E-02  0.7606E-02  0.7640E-02  0.8024E-02  0.7996E-02  0.1493E-04  0.1445E-04  0.1765E-04  0.1718E-04  0.4906E-02  0.4370E-02  0.9947E-05  0.9910E-05  0.4473E-02  0.4029E-02
    -13.855  0.1762E-01  0.1748E-01  0.1114E-01  0.1103E-01  0.1181E-01  0.1190E-01  0.9955E-02  0.1003E-01  0.1591E-04  0.1541E-04  0.2422E-04  0.2363E-04  0.9645E-02  0.8674E-02  0.1161E-04  0.1152E-04  0.7277E-02  0.6487E-02
    -13.743  0.1637E-01  0.1563E-01  0.2063E-01  0.2090E-01  0.2042E-01  0.2118E-01  0.1580E-01  0.1666E-01  0.1749E-04  0.1652E-04  0.3170E-04  0.3087E-04  0.2222E-01  0.1947E-01  0.1272E-04  0.1210E-04  0.1424E-01  0.1171E-01
    -13.631  0.1388E-01  0.1422E-01  0.3065E-01  0.3042E-01  0.2871E-01  0.2689E-01  0.2613E-01  0.2394E-01  0.2259E-04  0.2222E-04  0.3181E-04  0.3182E-04  0.7762E-01  0.7335E-01  0.1570E-04  0.1614E-04  0.3685E-01  0.3540E-01
    -13.519  0.0000E+00  0.0000E+00  0.0000E+00  0.0000E+00  0.0000E+00  0.0000E+00  0.0000E+00  0.0000E+00  0.0000E+00  0.0000E+00  0.0000E+00  0.0000E+00  0.0000E+00  0.0000E+00  0.0000E+00  0.0000E+00  0.0000E+00  0.0000E+00
    -13.407  0.0000E+00  0.0000E+00  0.0000E+00  0.0000E+00  0.0000E+00  0.0000E+00  0.0000E+00  0.0000E+00  0.0000E+00  0.0000E+00  0.0000E+00  0.0000E+00  0.0000E+00  0.0000E+00  0.0000E+00  0.0000E+00  0.0000E+00  0.0000E+00
    -13.294  0.0000E+00  0.0000E+00  0.0000E+00  0.0000E+00  0.0000E+00  0.0000E+00  0.0000E+00  0.0000E+00  0.0000E+00  0.0000E+00  0.0000E+00  0.0000E+00  0.0000E+00  0.0000E+00  0.0000E+00  0.0000E+00  0.0000E+00  0.0000E+00
    -13.182  0.0000E+00  0.0000E+00  0.0000E+00  0.0000E+00  0.0000E+00  0.0000E+00  0.0000E+00  0.0000E+00  0.0000E+00  0.0000E+00  0.0000E+00  0.0000E+00  0.0000E+00  0.0000E+00  0.0000E+00  0.0000E+00  0.0000E+00  0.0000E+00
    -13.070  0.0000E+00  0.0000E+00  0.0000E+00  0.0000E+00  0.0000E+00  0.0000E+00  0.0000E+00  0.0000E+00  0.0000E+00  0.0000E+00  0.0000E+00  0.0000E+00  0.0000E+00  0.0000E+00  0.0000E+00  0.0000E+00  0.0000E+00  0.0000E+00
    -12.958  0.0000E+00  0.0000E+00  0.0000E+00  0.0000E+00  0.0000E+00  0.0000E+00  0.0000E+00  0.0000E+00  0.0000E+00  0.0000E+00  0.0000E+00  0.0000E+00  0.0000E+00  0.0000E+00  0.0000E+00  0.0000E+00  0.0000E+00  0.0000E+00
    -12.846  0.0000E+00  0.0000E+00  0.0000E+00  0.0000E+00  0.0000E+00  0.0000E+00  0.0000E+00  0.0000E+00  0.0000E+00  0.0000E+00  0.0000E+00  0.0000E+00  0.0000E+00  0.0000E+00  0.0000E+00  0.0000E+00  0.0000E+00  0.0000E+00
    -12.734  0.0000E+00  0.0000E+00  0.0000E+00  0.0000E+00  0.0000E+00  0.0000E+00  0.0000E+00  0.0000E+00  0.0000E+00  0.0000E+00  0.0000E+00  0.0000E+00  0.0000E+00  0.0000E+00  0.0000E+00  0.0000E+00  0.0000E+00  0.0000E+00
    -12.621  0.0000E+00  0.0000E+00  0.0000E+00  0.0000E+00  0.0000E+00  0.0000E+00  0.0000E+00  0.0000E+00  0.0000E+00  0.0000E+00  0.0000E+00  0.0000E+00  0.0000E+00  0.0000E+00  0.0000E+00  0.0000E+00  0.0000E+00  0.0000E+00
    -12.509  0.0000E+00  0.0000E+00  0.0000E+00  0.0000E+00  0.0000E+00  0.0000E+00  0.0000E+00  0.0000E+00  0.0000E+00  0.0000E+00  0.0000E+00  0.0000E+00  0.0000E+00  0.0000E+00  0.0000E+00  0.0000E+00  0.0000E+00  0.0000E+00
    -12.397  0.0000E+00  0.0000E+00  0.0000E+00  0.0000E+00  0.0000E+00  0.0000E+00  0.0000E+00  0.0000E+00  0.0000E+00  0.0000E+00  0.0000E+00  0.0000E+00  0.0000E+00  0.0000E+00  0.0000E+00  0.0000E+00  0.0000E+00  0.0000E+00
    -12.285  0.0000E+00  0.0000E+00  0.0000E+00  0.0000E+00  0.0000E+00  0.0000E+00  0.0000E+00  0.0000E+00  0.0000E+00  0.0000E+00  0.0000E+00  0.0000E+00  0.0000E+00  0.0000E+00  0.0000E+00  0.0000E+00  0.0000E+00  0.0000E+00
    -12.173  0.0000E+00  0.0000E+00  0.0000E+00  0.0000E+00  0.0000E+00  0.0000E+00  0.0000E+00  0.0000E+00  0.0000E+00  0.0000E+00  0.0000E+00  0.0000E+00  0.0000E+00  0.0000E+00  0.0000E+00  0.0000E+00  0.0000E+00  0.0000E+00
    -12.061  0.0000E+00  0.0000E+00  0.0000E+00  0.0000E+00  0.0000E+00  0.0000E+00  0.0000E+00  0.0000E+00  0.0000E+00  0.0000E+00  0.0000E+00  0.0000E+00  0.0000E+00  0.0000E+00  0.0000E+00  0.0000E+00  0.0000E+00  0.0000E+00
    -11.948  0.0000E+00  0.0000E+00  0.0000E+00  0.0000E+00  0.0000E+00  0.0000E+00  0.0000E+00  0.0000E+00  0.0000E+00  0.0000E+00  0.0000E+00  0.0000E+00  0.0000E+00  0.0000E+00  0.0000E+00  0.0000E+00  0.0000E+00  0.0000E+00
    -11.836  0.0000E+00  0.0000E+00  0.0000E+00  0.0000E+00  0.0000E+00  0.0000E+00  0.0000E+00  0.0000E+00  0.0000E+00  0.0000E+00  0.0000E+00  0.0000E+00  0.0000E+00  0.0000E+00  0.0000E+00  0.0000E+00  0.0000E+00  0.0000E+00
    -11.724  0.0000E+00  0.0000E+00  0.0000E+00  0.0000E+00  0.0000E+00  0.0000E+00  0.0000E+00  0.0000E+00  0.0000E+00  0.0000E+00  0.0000E+00  0.0000E+00  0.0000E+00  0.0000E+00  0.0000E+00  0.0000E+00  0.0000E+00  0.0000E+00
    -11.612  0.0000E+00  0.0000E+00  0.0000E+00  0.0000E+00  0.0000E+00  0.0000E+00  0.0000E+00  0.0000E+00  0.0000E+00  0.0000E+00  0.0000E+00  0.0000E+00  0.0000E+00  0.0000E+00  0.0000E+00  0.0000E+00  0.0000E+00  0.0000E+00
    -11.500  0.0000E+00  0.0000E+00  0.0000E+00  0.0000E+00  0.0000E+00  0.0000E+00  0.0000E+00  0.0000E+00  0.0000E+00  0.0000E+00  0.0000E+00  0.0000E+00  0.0000E+00  0.0000E+00  0.0000E+00  0.0000E+00  0.0000E+00  0.0000E+00