    4    4    1    2
  0.9063964E+01  0.5107186E-09  0.5107186E-09  0.5107186E-09  0.5000000E-15
  1.000000000000000E-004
  CAR 
 NiO_af2                                 
     32    770     20
 
  0.2500000E-01  0.2500000E-01  0.2500000E-01  0.2500000E-03
    1      -15.108421    -15.108421   1.000000   1.000000
    2      -13.715177    -13.715177   1.000000   1.000000
    3       -2.957677     -2.957677   1.000000   1.000000
    4       -0.267141     -0.267141   1.000000   1.000000
    5       -0.267141     -0.267141   1.000000   1.000000
    6        2.231744      2.231744   1.000000   1.000000
    7        2.234896      2.234896   1.000000   1.000000
    8        2.234896      2.234896   1.000000   1.000000
    9        2.698264      2.698264   1.000000   1.000000
   10        2.698264      2.698264   1.000000   1.000000
   11        2.780299      2.780299   1.000000   1.000000
   12        3.356001      3.356001   1.000000   1.000000
   13        3.356001      3.356001   1.000000   1.000000
   14        4.066728      4.066728   1.000000   1.000000
   15        4.066728      4.066728   1.000000   1.000000
   16        4.357532      4.357532   1.000000   1.000000
   17        6.576238      6.576238   0.000000   0.000000
   18        6.576238      6.576238   0.000000   0.000000
   19        6.921657      6.921657   0.000000   0.000000
   20       10.902301     10.902301   0.000000   0.000000
 
  0.7500000E-01  0.2500000E-01  0.2500000E-01  0.7500000E-03
    1      -15.079488    -15.079488   1.000000   1.000000
    2      -13.714680    -13.714680   1.000000   1.000000
    3       -2.905642     -2.905642   1.000000   1.000000
    4       -0.277730     -0.277730   1.000000   1.000000
    5       -0.260694     -0.260694   1.000000   1.000000
    6        1.840664      1.840664   1.000000   1.000000
    7        2.097664      2.097664   1.000000   1.000000
    8        2.108497      2.108497   1.000000   1.000000
    9        2.714126      2.714126   1.000000   1.000000
   10        2.829300      2.829300   1.000000   1.000000
   11        2.875460      2.875460   1.000000   1.000000
   12        3.354879      3.354879   1.000000   1.000000
   13        3.575799      3.575800   1.000000   1.000000
   14        4.073802      4.073802   1.000000   1.000000
   15        4.091899      4.091899   1.000000   1.000000
   16        4.350130      4.350130   1.000000   1.000000
   17        6.450313      6.450313   0.000000   0.000000
   18        6.569180      6.569180   0.000000   0.000000
   19        7.114550      7.114550   0.000000   0.000000
   20       11.065870     11.065871   0.000000   0.000000
 
  0.1250000E+00  0.2500000E-01  0.2500000E-01  0.7500000E-03
    1      -14.999364    -14.999364   1.000000   1.000000
    2      -13.704540    -13.704540   1.000000   1.000000
    3       -2.768989     -2.768988   1.000000   1.000000
    4       -0.322745     -0.322745   1.000000   1.000000
    5       -0.241079     -0.241079   1.000000   1.000000
    6        1.198724      1.198724   1.000000   1.000000
    7        1.837900      1.837901   1.000000   1.000000
    8        1.840312      1.840312   1.000000   1.000000
    9        2.703407      2.703407   1.000000   1.000000
   10        2.999533      2.999533   1.000000   1.000000
   11        3.037455      3.037455   1.000000   1.000000
   12        3.417603      3.417603   1.000000   1.000000
   13        3.812464      3.812464   1.000000   1.000000
   14        4.116118      4.116118   1.000000   1.000000
   15        4.179120      4.179120   1.000000   1.000000
   16        4.343391      4.343391   1.000000   1.000000
   17        6.170007      6.170007   0.000000   0.000000
   18        6.525787      6.525787   0.000000   0.000000
   19        7.616164      7.616164   0.000000   0.000000
   20       11.507957     11.507957   0.000000   0.000000
 
  0.1750000E+00  0.2500000E-01  0.2500000E-01  0.7500000E-03
    1      -14.873201    -14.873201   1.000000   1.000000
    2      -13.685255    -13.685255   1.000000   1.000000
    3       -2.560000     -2.560000   1.000000   1.000000
    4       -0.412007     -0.412007   1.000000   1.000000
    5       -0.207820     -0.207820   1.000000   1.000000
    6        0.520302      0.520302   1.000000   1.000000
    7        1.523775      1.523776   1.000000   1.000000
    8        1.564945      1.564945   1.000000   1.000000
    9        2.683794      2.683794   1.000000   1.000000
   10        3.108625      3.108625   1.000000   1.000000
   11        3.167120      3.167120   1.000000   1.000000
   12        3.533676      3.533676   1.000000   1.000000
   13        3.914390      3.914390   1.000000   1.000000
   14        4.200904      4.200904   1.000000   1.000000
   15        4.278331      4.278331   1.000000   1.000000
   16        4.398102      4.398101   1.000000   1.000000
   17        5.853670      5.853670   0.000000   0.000000
   18        6.455063      6.455063   0.000000   0.000000
   19        8.317308      8.317308   0.000000   0.000000
   20       12.127795     12.127794   0.000000   0.000000
 
  0.2250000E+00  0.2500000E-01  0.2500000E-01  0.7500000E-03
    1      -14.708971    -14.708971   1.000000   1.000000
    2      -13.660229    -13.660229   1.000000   1.000000
    3       -2.300611     -2.300611   1.000000   1.000000
    4       -0.550570     -0.550570   1.000000   1.000000
    5       -0.170411     -0.170411   1.000000   1.000000
    6       -0.124752     -0.124752   1.000000   1.000000
    7        1.199269      1.199269   1.000000   1.000000
    8        1.302770      1.302770   1.000000   1.000000
    9        2.662820      2.662820   1.000000   1.000000
   10        3.169669      3.169669   1.000000   1.000000
   11        3.274141      3.274141   1.000000   1.000000
   12        3.667141      3.667141   1.000000   1.000000
   13        3.930037      3.930037   1.000000   1.000000
   14        4.304184      4.304184   1.000000   1.000000
   15        4.320807      4.320807   1.000000   1.000000
   16        4.491545      4.491545   1.000000   1.000000
   17        5.634263      5.634263   0.000000   0.000000
   18        6.362414      6.362414   0.000000   0.000000
   19        9.109383      9.109383   0.000000   0.000000
   20       12.832287     12.832286   0.000000   0.000000
 
  0.2750000E+00  0.2500000E-01  0.2500000E-01  0.7500000E-03
    1      -14.519963    -14.519963   1.000000   1.000000
    2      -13.631558    -13.631558   1.000000   1.000000
    3       -2.019451     -2.019451   1.000000   1.000000
    4       -0.759735     -0.759735   1.000000   1.000000
    5       -0.674224     -0.674224   1.000000   1.000000
    6       -0.131107     -0.131108   1.000000   1.000000
    7        0.877978      0.877978   1.000000   1.000000
    8        1.065725      1.065726   1.000000   1.000000
    9        2.644155      2.644155   1.000000   1.000000
   10        3.207903      3.207903   1.000000   1.000000
   11        3.377623      3.377623   1.000000   1.000000
   12        3.804067      3.804067   1.000000   1.000000
   13        3.892918      3.892919   1.000000   1.000000
   14        4.310361      4.310361   1.000000   1.000000
   15        4.449448      4.449448   1.000000   1.000000
   16        4.496495      4.496495   1.000000   1.000000
   17        5.598564      5.598564   0.000000   0.000000
   18        6.259973      6.259973   0.000000   0.000000
   19        9.908764      9.908764   0.000000   0.000000
   20       13.538763     13.538605   0.000000   0.000000
 
  0.3250000E+00  0.2500000E-01  0.2500000E-01  0.7500000E-03
    1      -14.318929    -14.318929   1.000000   1.000000
    2      -13.604107    -13.604107   1.000000   1.000000
    3       -1.767574     -1.767574   1.000000   1.000000
    4       -1.197161     -1.197161   1.000000   1.000000
    5       -0.899493     -0.899493   1.000000   1.000000
    6       -0.093065     -0.093065   1.000000   1.000000
    7        0.574616      0.574616   1.000000   1.000000
    8        0.858683      0.858683   1.000000   1.000000
    9        2.631208      2.631208   1.000000   1.000000
   10        3.236141      3.236141   1.000000   1.000000
   11        3.479802      3.479802   1.000000   1.000000
   12        3.825621      3.825621   1.000000   1.000000
   13        3.947787      3.947787   1.000000   1.000000
   14        4.257049      4.257049   1.000000   1.000000
   15        4.529663      4.529663   1.000000   1.000000
   16        4.556850      4.556850   1.000000   1.000000
   17        5.679184      5.679184   0.000000   0.000000
   18        6.155851      6.155851   0.000000   0.000000
   19       10.666420     10.666420   0.000000   0.000000
   20       14.143403     14.137670   0.000000   0.000000
 
  0.3750000E+00  0.2500000E-01  0.2500000E-01  0.7500000E-03
    1      -14.121671    -14.121671   1.000000   1.000000
    2      -13.586421    -13.586421   1.000000   1.000000
    3       -1.654918     -1.654918   1.000000   1.000000
    4       -1.557638     -1.557638   1.000000   1.000000
    5       -0.983034     -0.983034   1.000000   1.000000
    6       -0.058921     -0.058921   1.000000   1.000000
    7        0.296888      0.296888   1.000000   1.000000
    8        0.686400      0.686400   1.000000   1.000000
    9        2.625904      2.625904   1.000000   1.000000
   10        3.260846      3.260846   1.000000   1.000000
   11        3.552077      3.552077   1.000000   1.000000
   12        3.750957      3.750957   1.000000   1.000000
   13        4.098073      4.098073   1.000000   1.000000
   14        4.242911      4.242911   1.000000   1.000000
   15        4.593339      4.593339   1.000000   1.000000
   16        4.624439      4.624439   1.000000   1.000000
   17        5.773265      5.773265   0.000000   0.000000
   18        6.058606      6.058606   0.000000   0.000000
   19       11.345237     11.345237   0.000000   0.000000
   20       14.180287     14.175362   0.000000   0.000000
 
  0.4250000E+00  0.2500000E-01  0.2500000E-01  0.7500000E-03
    1      -13.942169    -13.942169   1.000000   1.000000
    2      -13.589235    -13.589235   1.000000   1.000000
    3       -1.799553     -1.799553   1.000000   1.000000
    4       -1.741367     -1.741367   1.000000   1.000000
    5       -0.878089     -0.878089   1.000000   1.000000
    6       -0.027795     -0.027795   1.000000   1.000000
    7        0.047230      0.047230   1.000000   1.000000
    8        0.553632      0.553633   1.000000   1.000000
    9        2.628337      2.628337   1.000000   1.000000
   10        3.282610      3.282610   1.000000   1.000000
   11        3.575188      3.575188   1.000000   1.000000
   12        3.687493      3.687493   1.000000   1.000000
   13        4.249502      4.249502   1.000000   1.000000
   14        4.324373      4.324373   1.000000   1.000000
   15        4.641079      4.641079   1.000000   1.000000
   16        4.645124      4.645124   1.000000   1.000000
   17        5.837259      5.837259   0.000000   0.000000
   18        5.974745      5.974745   0.000000   0.000000
   19       11.934623     11.934623   0.000000   0.000000
   20       13.765315     13.765163   0.000000   0.000000
 
  0.4750000E+00  0.2500000E-01  0.2500000E-01  0.7500000E-03
    1      -13.794981    -13.794981   1.000000   1.000000
    2      -13.620802    -13.620802   1.000000   1.000000
    3       -1.931816     -1.931816   1.000000   1.000000
    4       -1.864159     -1.864159   1.000000   1.000000
    5       -0.706601     -0.706601   1.000000   1.000000
    6       -0.176998     -0.176998   1.000000   1.000000
    7        0.000087      0.000087   1.000000   1.000000
    8        0.459463      0.459463   1.000000   1.000000
    9        2.636702      2.636702   1.000000   1.000000
   10        3.298680      3.298680   1.000000   1.000000
   11        3.572827      3.572827   1.000000   1.000000
   12        3.644942      3.644942   1.000000   1.000000
   13        4.387242      4.387242   1.000000   1.000000
   14        4.447132      4.447132   1.000000   1.000000
   15        4.623928      4.623928   1.000000   1.000000
   16        4.647703      4.647703   1.000000   1.000000
   17        5.872287      5.872287   0.000000   0.000000
   18        5.912733      5.912733   0.000000   0.000000
   19       12.426857     12.426861   0.000000   0.000000
   20       13.318807     13.318834   0.000000   0.000000
 
 -0.4750000E+00  0.2500000E-01  0.2500000E-01  0.7500000E-03
    1      -13.693737    -13.693737   1.000000   1.000000
    2      -13.680967    -13.680967   1.000000   1.000000
    3       -2.013098     -2.013098   1.000000   1.000000
    4       -1.858558     -1.858558   1.000000   1.000000
    5       -0.589318     -0.589318   1.000000   1.000000
    6       -0.329410     -0.329410   1.000000   1.000000
    7        0.023086      0.023086   1.000000   1.000000
    8        0.411998      0.411998   1.000000   1.000000
    9        2.648357      2.648357   1.000000   1.000000
   10        3.305379      3.305379   1.000000   1.000000
   11        3.565147      3.565147   1.000000   1.000000
   12        3.629912      3.629912   1.000000   1.000000
   13        4.459282      4.459282   1.000000   1.000000
   14        4.516261      4.516261   1.000000   1.000000
   15        4.608260      4.608260   1.000000   1.000000
   16        4.623451      4.623451   1.000000   1.000000
   17        5.877791      5.877791   0.000000   0.000000
   18        5.900779      5.900779   0.000000   0.000000
   19       12.791755     12.791696   0.000000   0.000000
   20       12.916953     12.916928   0.000000   0.000000
 
 -0.4250000E+00  0.2500000E-01  0.2500000E-01  0.7500000E-03
    1      -13.800622    -13.800622   1.000000   1.000000
    2      -13.615187    -13.615187   1.000000   1.000000
    3       -2.002123     -2.002123   1.000000   1.000000
    4       -1.739981     -1.739981   1.000000   1.000000
    5       -0.722115     -0.722115   1.000000   1.000000
    6       -0.234313     -0.234313   1.000000   1.000000
    7        0.029962      0.029962   1.000000   1.000000
    8        0.419234      0.419234   1.000000   1.000000
    9        2.659964      2.659964   1.000000   1.000000
   10        3.300514      3.300514   1.000000   1.000000
   11        3.558784      3.558784   1.000000   1.000000
   12        3.643512      3.643512   1.000000   1.000000
   13        4.393226      4.393226   1.000000   1.000000
   14        4.439630      4.439630   1.000000   1.000000
   15        4.634327      4.634327   1.000000   1.000000
   16        4.665504      4.665504   1.000000   1.000000
   17        5.872320      5.872320   0.000000   0.000000
   18        5.927588      5.927588   0.000000   0.000000
   19       12.355007     12.355007   0.000000   0.000000
   20       13.242516     13.242529   0.000000   0.000000
 
 -0.3750000E+00  0.2500000E-01  0.2500000E-01  0.7500000E-03
    1      -13.951026    -13.951026   1.000000   1.000000
    2      -13.580814    -13.580814   1.000000   1.000000
    3       -1.864387     -1.864387   1.000000   1.000000
    4       -1.561087     -1.561087   1.000000   1.000000
    5       -0.952380     -0.952380   1.000000   1.000000
    6       -0.034876     -0.034876   1.000000   1.000000
    7        0.016716      0.016716   1.000000   1.000000
    8        0.487396      0.487396   1.000000   1.000000
    9        2.670670      2.670670   1.000000   1.000000
   10        3.284960      3.284960   1.000000   1.000000
   11        3.548885      3.548885   1.000000   1.000000
   12        3.683266      3.683265   1.000000   1.000000
   13        4.274158      4.274158   1.000000   1.000000
   14        4.326136      4.326135   1.000000   1.000000
   15        4.618920      4.618920   1.000000   1.000000
   16        4.709411      4.709411   1.000000   1.000000
   17        5.901126      5.901126   0.000000   0.000000
   18        5.928715      5.928715   0.000000   0.000000
   19       11.815329     11.815329   0.000000   0.000000
   20       13.593660     13.593669   0.000000   0.000000
 
 -0.3250000E+00  0.2500000E-01  0.2500000E-01  0.7500000E-03
    1      -14.133092    -14.133092   1.000000   1.000000
    2      -13.575495    -13.575495   1.000000   1.000000
    3       -1.599084     -1.599084   1.000000   1.000000
    4       -1.464464     -1.464464   1.000000   1.000000
    5       -1.099410     -1.099410   1.000000   1.000000
    6       -0.013096     -0.013096   1.000000   1.000000
    7        0.202014      0.202014   1.000000   1.000000
    8        0.611596      0.611596   1.000000   1.000000
    9        2.681298      2.681298   1.000000   1.000000
   10        3.260607      3.260607   1.000000   1.000000
   11        3.513595      3.513595   1.000000   1.000000
   12        3.743350      3.743350   1.000000   1.000000
   13        4.141207      4.141207   1.000000   1.000000
   14        4.272640      4.272639   1.000000   1.000000
   15        4.568810      4.568810   1.000000   1.000000
   16        4.701307      4.701307   1.000000   1.000000
   17        5.880368      5.880368   0.000000   0.000000
   18        5.962971      5.962971   0.000000   0.000000
   19       11.197759     11.197759   0.000000   0.000000
   20       13.918350     13.918506   0.000000   0.000000
 
 -0.2750000E+00  0.2500000E-01  0.2500000E-01  0.7500000E-03
    1      -14.332826    -14.332826   1.000000   1.000000
    2      -13.588869    -13.588869   1.000000   1.000000
    3       -1.698797     -1.698797   1.000000   1.000000
    4       -1.185987     -1.185987   1.000000   1.000000
    5       -0.952838     -0.952838   1.000000   1.000000
    6       -0.055620     -0.055620   1.000000   1.000000
    7        0.474041      0.474041   1.000000   1.000000
    8        0.783754      0.783754   1.000000   1.000000
    9        2.693787      2.693787   1.000000   1.000000
   10        3.227916      3.227916   1.000000   1.000000
   11        3.436669      3.436669   1.000000   1.000000
   12        3.813232      3.813232   1.000000   1.000000
   13        4.008646      4.008646   1.000000   1.000000
   14        4.312072      4.312072   1.000000   1.000000
   15        4.514837      4.514837   1.000000   1.000000
   16        4.636375      4.636375   1.000000   1.000000
   17        5.786503      5.786503   0.000000   0.000000
   18        6.052275      6.052275   0.000000   0.000000
   19       10.503726     10.503726   0.000000   0.000000
   20       14.112989     14.113776   0.000000   0.000000
 
 -0.2250000E+00  0.2500000E-01  0.2500000E-01  0.7500000E-03
    1      -14.534556    -14.534556   1.000000   1.000000
    2      -13.613417    -13.613417   1.000000   1.000000
    3       -2.013520     -2.013520   1.000000   1.000000
    4       -0.762979     -0.762979   1.000000   1.000000
    5       -0.649065     -0.649065   1.000000   1.000000
    6       -0.102494     -0.102494   1.000000   1.000000
    7        0.777853      0.777853   1.000000   1.000000
    8        0.996676      0.996676   1.000000   1.000000
    9        2.708279      2.708279   1.000000   1.000000
   10        3.185073      3.185073   1.000000   1.000000
   11        3.335059      3.335059   1.000000   1.000000
   12        3.877229      3.877229   1.000000   1.000000
   13        3.883525      3.883525   1.000000   1.000000
   14        4.340346      4.340346   1.000000   1.000000
   15        4.524169      4.524169   1.000000   1.000000
   16        4.530110      4.530110   1.000000   1.000000
   17        5.696853      5.696853   0.000000   0.000000
   18        6.160851      6.160851   0.000000   0.000000
   19        9.749671      9.749671   0.000000   0.000000
   20       13.613889     13.612941   0.000000   0.000000
 
 -0.1750000E+00  0.2500000E-01  0.2500000E-01  0.7500000E-03
    1      -14.723328    -14.723328   1.000000   1.000000
    2      -13.642030    -13.642030   1.000000   1.000000
    3       -2.323227     -2.323227   1.000000   1.000000
    4       -0.576007     -0.576007   1.000000   1.000000
    5       -0.150983     -0.150983   1.000000   1.000000
    6       -0.040357     -0.040357   1.000000   1.000000
    7        1.105683      1.105683   1.000000   1.000000
    8        1.243195      1.243195   1.000000   1.000000
    9        2.723946      2.723946   1.000000   1.000000
   10        3.125816      3.125816   1.000000   1.000000
   11        3.227161      3.227161   1.000000   1.000000
   12        3.765745      3.765745   1.000000   1.000000
   13        3.919695      3.919695   1.000000   1.000000
   14        4.311709      4.311709   1.000000   1.000000
   15        4.384513      4.384513   1.000000   1.000000
   16        4.539412      4.539411   1.000000   1.000000
   17        5.725220      5.725220   0.000000   0.000000
   18        6.275769      6.275769   0.000000   0.000000
   19        8.964064      8.964064   0.000000   0.000000
   20       12.880264     12.880231   0.000000   0.000000
 
 -0.1250000E+00  0.2500000E-01  0.2500000E-01  0.7500000E-03
    1      -14.885093    -14.885093   1.000000   1.000000
    2      -13.668726    -13.668726   1.000000   1.000000
    3       -2.590922     -2.590922   1.000000   1.000000
    4       -0.439217     -0.439217   1.000000   1.000000
    5       -0.195782     -0.195782   1.000000   1.000000
    6        0.636854      0.636854   1.000000   1.000000
    7        1.445682      1.445682   1.000000   1.000000
    8        1.519387      1.519387   1.000000   1.000000
    9        2.738359      2.738359   1.000000   1.000000
   10        3.044118      3.044118   1.000000   1.000000
   11        3.112969      3.112969   1.000000   1.000000
   12        3.646499      3.646499   1.000000   1.000000
   13        3.921096      3.921096   1.000000   1.000000
   14        4.249912      4.249912   1.000000   1.000000
   15        4.273770      4.273769   1.000000   1.000000
   16        4.413501      4.413500   1.000000   1.000000
   17        5.938613      5.938613   0.000000   0.000000
   18        6.386329      6.386329   0.000000   0.000000
   19        8.200513      8.200513   0.000000   0.000000
   20       12.154470     12.154470   0.000000   0.000000
 
 -0.7500000E-01  0.2500000E-01  0.2500000E-01  0.7500000E-03
    1      -15.008565    -15.008565   1.000000   1.000000
    2      -13.691650    -13.691650   1.000000   1.000000
    3       -2.795660     -2.795660   1.000000   1.000000
    4       -0.345496     -0.345496   1.000000   1.000000
    5       -0.234418     -0.234418   1.000000   1.000000
    6        1.330359      1.330359   1.000000   1.000000
    7        1.784036      1.784036   1.000000   1.000000
    8        1.807804      1.807804   1.000000   1.000000
    9        2.747861      2.747861   1.000000   1.000000
   10        2.930658      2.930658   1.000000   1.000000
   11        2.983256      2.983256   1.000000   1.000000
   12        3.521768      3.521768   1.000000   1.000000
   13        3.812599      3.812599   1.000000   1.000000
   14        4.141511      4.141511   1.000000   1.000000
   15        4.148620      4.148620   1.000000   1.000000
   16        4.352029      4.352029   1.000000   1.000000
   17        6.238530      6.238530   0.000000   0.000000
   18        6.478624      6.478624   0.000000   0.000000
   19        7.537745      7.537745   0.000000   0.000000
   20       11.520320     11.520320   0.000000   0.000000
 
 -0.2500000E-01  0.2500000E-01  0.2500000E-01  0.7500000E-03
    1      -15.084259    -15.084259   1.000000   1.000000
    2      -13.707916    -13.707916   1.000000   1.000000
    3       -2.920773     -2.920773   1.000000   1.000000
    4       -0.291083     -0.291083   1.000000   1.000000
    5       -0.258952     -0.258952   1.000000   1.000000
    6        1.949650      1.949650   1.000000   1.000000
    7        2.082825      2.082825   1.000000   1.000000
    8        2.089073      2.089074   1.000000   1.000000
    9        2.747955      2.747955   1.000000   1.000000
   10        2.785668      2.785668   1.000000   1.000000
   11        2.840020      2.840020   1.000000   1.000000
   12        3.415328      3.415328   1.000000   1.000000
   13        3.518465      3.518465   1.000000   1.000000
   14        4.074939      4.074939   1.000000   1.000000
   15        4.090066      4.090066   1.000000   1.000000
   16        4.355232      4.355232   1.000000   1.000000
   17        6.488371      6.488371   0.000000   0.000000
   18        6.544520      6.544520   0.000000   0.000000
   19        7.079080      7.079080   0.000000   0.000000
   20       11.069341     11.069341   0.000000   0.000000
 
  0.7500000E-01  0.7500000E-01  0.2500000E-01  0.7500000E-03
    1      -15.074647    -15.074647   1.000000   1.000000
    2      -13.722079    -13.722079   1.000000   1.000000
    3       -2.890054     -2.890054   1.000000   1.000000
    4       -0.287730     -0.287730   1.000000   1.000000
    5       -0.240145     -0.240145   1.000000   1.000000
    6        1.887498      1.887498   1.000000   1.000000
    7        1.997398      1.997398   1.000000   1.000000
    8        2.051159      2.051159   1.000000   1.000000
    9        2.748797      2.748797   1.000000   1.000000
   10        2.783942      2.783942   1.000000   1.000000
   11        2.866529      2.866529   1.000000   1.000000
   12        3.497034      3.497034   1.000000   1.000000
   13        3.542105      3.542105   1.000000   1.000000
   14        4.055529      4.055529   1.000000   1.000000
   15        4.105972      4.105972   1.000000   1.000000
   16        4.347352      4.347352   1.000000   1.000000
   17        6.499186      6.499186   0.000000   0.000000
   18        6.503798      6.503798   0.000000   0.000000
   19        7.139062      7.139062   0.000000   0.000000
   20       11.063107     11.063106   0.000000   0.000000
 
  0.1250000E+00  0.7500000E-01  0.2500000E-01  0.1500000E-02
    1      -15.017991    -15.017991   1.000000   1.000000
    2      -13.718590    -13.718590   1.000000   1.000000
    3       -2.788090     -2.788090   1.000000   1.000000
    4       -0.312057     -0.312057   1.000000   1.000000
    5       -0.220148     -0.220148   1.000000   1.000000
    6        1.376747      1.376746   1.000000   1.000000
    7        1.807364      1.807364   1.000000   1.000000
    8        1.883374      1.883371   1.000000   1.000000
    9        2.740586      2.740586   1.000000   1.000000
   10        2.915865      2.915865   1.000000   1.000000
   11        2.974825      2.974825   1.000000   1.000000
   12        3.512012      3.512012   1.000000   1.000000
   13        3.770895      3.770895   1.000000   1.000000
   14        4.073501      4.073501   1.000000   1.000000
   15        4.182026      4.182026   1.000000   1.000000
   16        4.342516      4.342516   1.000000   1.000000
   17        6.270203      6.270203   0.000000   0.000000
   18        6.499425      6.499425   0.000000   0.000000
   19        7.490728      7.490728   0.000000   0.000000
   20       11.361146     11.361146   0.000000   0.000000
 
  0.1750000E+00  0.7500000E-01  0.2500000E-01  0.1500000E-02
    1      -14.912782    -14.912782   1.000000   1.000000
    2      -13.706233    -13.706233   1.000000   1.000000
    3       -2.612294     -2.612294   1.000000   1.000000
    4       -0.363842     -0.363842   1.000000   1.000000
    5       -0.204955     -0.204955   1.000000   1.000000
    6        0.730908      0.730908   1.000000   1.000000
    7        1.542538      1.542538   1.000000   1.000000
    8        1.667774      1.667774   1.000000   1.000000
    9        2.714368      2.714368   1.000000   1.000000
   10        3.089406      3.089406   1.000000   1.000000
   11        3.097124      3.097124   1.000000   1.000000
   12        3.523888      3.523888   1.000000   1.000000
   13        3.890866      3.890866   1.000000   1.000000
   14        4.118437      4.118437   1.000000   1.000000
   15        4.325150      4.325150   1.000000   1.000000
   16        4.367650      4.367650   1.000000   1.000000
   17        5.956941      5.956941   0.000000   0.000000
   18        6.458039      6.458039   0.000000   0.000000
   19        8.098230      8.098230   0.000000   0.000000
   20       11.878673     11.878674   0.000000   0.000000
 
  0.2250000E+00  0.7500000E-01  0.2500000E-01  0.1500000E-02
    1      -14.766088    -14.766088   1.000000   1.000000
    2      -13.684997    -13.684997   1.000000   1.000000
    3       -2.380859     -2.380859   1.000000   1.000000
    4       -0.461510     -0.461510   1.000000   1.000000
    5       -0.190518     -0.190518   1.000000   1.000000
    6        0.094943      0.094943   1.000000   1.000000
    7        1.271225      1.271225   1.000000   1.000000
    8        1.413387      1.413386   1.000000   1.000000
    9        2.688445      2.688445   1.000000   1.000000
   10        3.174588      3.174588   1.000000   1.000000
   11        3.238517      3.238517   1.000000   1.000000
   12        3.572028      3.572028   1.000000   1.000000
   13        3.945071      3.945071   1.000000   1.000000
   14        4.165262      4.165262   1.000000   1.000000
   15        4.366017      4.366018   1.000000   1.000000
   16        4.498749      4.498749   1.000000   1.000000
   17        5.690587      5.690587   0.000000   0.000000
   18        6.389861      6.389861   0.000000   0.000000
   19        8.848776      8.848776   0.000000   0.000000
   20       12.520245     12.520244   0.000000   0.000000
 
  0.2750000E+00  0.7500000E-01  0.2500000E-01  0.1500000E-02
    1      -14.589487    -14.589487   1.000000   1.000000
    2      -13.657587    -13.657587   1.000000   1.000000
    3       -2.121881     -2.121881   1.000000   1.000000
    4       -0.624426     -0.624426   1.000000   1.000000
    5       -0.488829     -0.488829   1.000000   1.000000
    6       -0.155919     -0.155919   1.000000   1.000000