       N       E                     dE             d eps       ncg     rms          rms(c)
DAV:   1     0.208363319009E+03    0.20836E+03   -0.14292E+04 63400   0.184E+03
DAV:   2    -0.226941853731E+01   -0.21063E+03   -0.19962E+03 63856   0.369E+02
DAV:   3    -0.228171215174E+02   -0.20548E+02   -0.19467E+02 70856   0.128E+02
DAV:   4    -0.233530933329E+02   -0.53597E+00   -0.53447E+00 67724   0.222E+01
DAV:   5    -0.233619112360E+02   -0.88179E-02   -0.88152E-02 70204   0.267E+00
DAV:   6    -0.233621359809E+02   -0.22474E-03   -0.22472E-03 68660   0.393E-01
DAV:   7    -0.233621426268E+02   -0.66459E-05   -0.66453E-05 46540   0.639E-02
   1 F= -.23362143E+02 E0= -.23362143E+02  d E =0.000000E+00  mag=     0.0000
