   2   2   0   0
  0.2039117E+02  0.3863632E-09  0.3863632E-09  0.3863632E-09  0.5000000E-15
  1.000000000000000E-004
  CAR 
 Si                                      
     17.50977947     -8.27169879  301      5.66687861      1.00000000
     -8.272  0.0000E+00  0.0000E+00
     -8.186  0.0000E+00  0.0000E+00
     -8.100  0.0000E+00  0.0000E+00
     -8.014  0.0000E+00  0.0000E+00
     -7.928 -0.2300E-29 -0.1977E-30
     -7.842 -0.2328E-26 -0.2003E-27
     -7.756 -0.1592E-23 -0.1370E-24
     -7.670 -0.7506E-21 -0.6464E-22
     -7.584 -0.2440E-18 -0.2104E-19
     -7.498 -0.5470E-16 -0.4721E-17
     -7.412 -0.8186E-14 -0.7082E-15
     -7.326 -0.8662E-12 -0.7515E-13
     -7.240 -0.6291E-10 -0.5481E-11
     -7.155 -0.3132E-08 -0.2746E-09
     -7.069 -0.1066E-06 -0.9436E-08
     -6.983 -0.2471E-05 -0.2218E-06
     -6.897 -0.3875E-04 -0.3552E-05
     -6.811 -0.4067E-03 -0.3850E-04
     -6.725 -0.2802E-02 -0.2793E-03
     -6.639 -0.1214E-01 -0.1323E-02
     -6.553 -0.2927E-01 -0.3838E-02
     -6.467 -0.1694E-01 -0.5294E-02
     -6.381  0.1169E+00  0.4755E-02
     -6.295  0.4020E+00  0.3930E-01
     -6.209  0.6679E+00  0.9670E-01
     -6.123  0.7121E+00  0.1579E+00
     -6.037  0.5699E+00  0.2069E+00
     -5.951  0.4179E+00  0.2428E+00
     -5.865  0.3356E+00  0.2716E+00
     -5.779  0.2992E+00  0.2974E+00
     -5.694  0.2776E+00  0.3212E+00
     -5.608  0.2602E+00  0.3436E+00
     -5.522  0.2454E+00  0.3647E+00
     -5.436  0.2331E+00  0.3847E+00
     -5.350  0.2227E+00  0.4038E+00
     -5.264  0.2139E+00  0.4222E+00
     -5.178  0.2064E+00  0.4399E+00
     -5.092  0.2000E+00  0.4571E+00
     -5.006  0.1945E+00  0.4738E+00
     -4.920  0.1899E+00  0.4902E+00
     -4.834  0.1861E+00  0.5062E+00
     -4.748  0.1830E+00  0.5219E+00
     -4.662  0.1808E+00  0.5374E+00
     -4.576  0.1793E+00  0.5528E+00
     -4.490  0.1780E+00  0.5681E+00
     -4.404  0.1749E+00  0.5832E+00
     -4.319  0.1695E+00  0.5977E+00
     -4.233  0.1801E+00  0.6132E+00
     -4.147  0.2606E+00  0.6356E+00
     -4.061  0.4420E+00  0.6736E+00
     -3.975  0.6232E+00  0.7271E+00
     -3.889  0.6468E+00  0.7827E+00
     -3.803  0.5146E+00  0.8269E+00
     -3.717  0.3692E+00  0.8587E+00
     -3.631  0.2921E+00  0.8838E+00
     -3.545  0.2622E+00  0.9063E+00
     -3.459  0.2475E+00  0.9276E+00
     -3.373  0.2355E+00  0.9478E+00
     -3.287  0.2239E+00  0.9671E+00
     -3.201  0.2156E+00  0.9856E+00
     -3.115  0.2074E+00  0.1003E+01
     -3.029  0.2001E+00  0.1021E+01
     -2.944  0.1958E+00  0.1037E+01
     -2.858  0.1897E+00  0.1054E+01
     -2.772  0.1839E+00  0.1070E+01
     -2.686  0.1719E+00  0.1084E+01
     -2.600  0.1198E+00  0.1095E+01
     -2.514 -0.4084E-02  0.1094E+01
     -2.428 -0.6443E-01  0.1089E+01
     -2.342  0.5359E+00  0.1135E+01
     -2.256  0.2472E+01  0.1347E+01
     -2.170  0.5055E+01  0.1782E+01
     -2.084  0.6113E+01  0.2307E+01
     -1.998  0.4581E+01  0.2701E+01
     -1.912  0.1991E+01  0.2872E+01
     -1.826  0.3307E+00  0.2900E+01
     -1.740 -0.8064E-01  0.2893E+01
     -1.654  0.1187E-01  0.2894E+01
     -1.569  0.1030E+00  0.2903E+01
     -1.483  0.1968E+00  0.2920E+01
     -1.397  0.4803E+00  0.2961E+01
     -1.311  0.9543E+00  0.3043E+01
     -1.225  0.1291E+01  0.3154E+01
     -1.139  0.1166E+01  0.3254E+01
     -1.053  0.6857E+00  0.3313E+01
     -0.967  0.2560E+00  0.3335E+01
     -0.881  0.8901E-01  0.3343E+01
     -0.795  0.8466E-01  0.3350E+01
     -0.709  0.9960E-01  0.3359E+01
     -0.623  0.1056E+00  0.3368E+01
     -0.537  0.1120E+00  0.3378E+01
     -0.451  0.1084E+00  0.3387E+01
     -0.365  0.1008E+00  0.3396E+01
     -0.279  0.1032E+00  0.3404E+01
     -0.194  0.1057E+00  0.3413E+01
     -0.108  0.9844E-01  0.3422E+01
     -0.022  0.9518E-01  0.3430E+01
      0.064  0.1021E+00  0.3439E+01
      0.150  0.9938E-01  0.3447E+01
      0.236  0.8974E-01  0.3455E+01
      0.322  0.9608E-01  0.3463E+01
      0.408  0.1011E+00  0.3472E+01
      0.494  0.8857E-01  0.3480E+01
      0.580  0.8811E-01  0.3487E+01
      0.666  0.1001E+00  0.3496E+01
      0.752  0.9246E-01  0.3504E+01
      0.838  0.8278E-01  0.3511E+01
      0.924  0.9469E-01  0.3519E+01
      1.010  0.9672E-01  0.3527E+01
      1.096  0.7961E-01  0.3534E+01
      1.182  0.7544E-01  0.3541E+01
      1.267  0.7608E-01  0.3547E+01
      1.353  0.7980E-01  0.3554E+01
      1.439  0.1590E+00  0.3568E+01
      1.525  0.3248E+00  0.3596E+01
      1.611  0.5211E+00  0.3640E+01
      1.697  0.9021E+00  0.3718E+01
      1.783  0.1635E+01  0.3858E+01
      1.869  0.2321E+01  0.4058E+01
      1.955  0.2399E+01  0.4264E+01
      2.041  0.1991E+01  0.4435E+01
      2.127  0.1603E+01  0.4573E+01
      2.213  0.1405E+01  0.4694E+01
      2.299  0.1314E+01  0.4807E+01
      2.385  0.1287E+01  0.4917E+01
      2.471  0.1330E+01  0.5032E+01
      2.557  0.1506E+01  0.5161E+01
      2.642  0.1901E+01  0.5324E+01
      2.728  0.2302E+01  0.5522E+01
      2.814  0.2209E+01  0.5712E+01
      2.900  0.1559E+01  0.5846E+01
      2.986  0.9074E+00  0.5924E+01
      3.072  0.6189E+00  0.5977E+01
      3.158  0.5567E+00  0.6025E+01
      3.244  0.5346E+00  0.6071E+01
      3.330  0.5325E+00  0.6117E+01
      3.416  0.5386E+00  0.6163E+01
      3.502  0.5184E+00  0.6208E+01
      3.588  0.4978E+00  0.6250E+01
      3.674  0.5072E+00  0.6294E+01
      3.760  0.5135E+00  0.6338E+01
      3.846  0.4987E+00  0.6381E+01
      3.932  0.4966E+00  0.6424E+01
      4.017  0.5071E+00  0.6467E+01
      4.103  0.5213E+00  0.6512E+01
      4.189  0.6497E+00  0.6568E+01
      4.275  0.1020E+01  0.6655E+01
      4.361  0.1470E+01  0.6782E+01
      4.447  0.1617E+01  0.6921E+01
      4.533  0.1372E+01  0.7039E+01
      4.619  0.1027E+01  0.7127E+01
      4.705  0.8168E+00  0.7197E+01
      4.791  0.7380E+00  0.7260E+01
      4.877  0.7138E+00  0.7322E+01
      4.963  0.7028E+00  0.7382E+01
      5.049  0.6948E+00  0.7442E+01
      5.135  0.6958E+00  0.7502E+01
      5.221  0.7261E+00  0.7564E+01
      5.307  0.8389E+00  0.7636E+01
      5.392  0.1073E+01  0.7728E+01
      5.478  0.1279E+01  0.7838E+01
      5.564  0.1153E+01  0.7937E+01
      5.650  0.6633E+00  0.7994E+01
      5.736  0.1751E+00  0.8009E+01
      5.822 -0.4368E-01  0.8006E+01
      5.908 -0.7221E-01  0.8000E+01
      5.994 -0.6376E-01  0.7994E+01
      6.080 -0.1938E-01  0.7992E+01
      6.166  0.1874E+00  0.8008E+01
      6.252  0.6543E+00  0.8065E+01
      6.338  0.1259E+01  0.8173E+01
      6.424  0.1651E+01  0.8315E+01
      6.510  0.1595E+01  0.8452E+01
      6.596  0.1260E+01  0.8560E+01
      6.682  0.9567E+00  0.8642E+01
      6.767  0.7904E+00  0.8710E+01
      6.853  0.7403E+00  0.8774E+01
      6.939  0.8335E+00  0.8846E+01
      7.025  0.1063E+01  0.8937E+01
      7.111  0.1257E+01  0.9045E+01
      7.197  0.1251E+01  0.9152E+01
      7.283  0.1102E+01  0.9247E+01
      7.369  0.9639E+00  0.9330E+01
      7.455  0.8909E+00  0.9407E+01
      7.541  0.8576E+00  0.9480E+01
      7.627  0.8370E+00  0.9552E+01
      7.713  0.8185E+00  0.9623E+01
      7.799  0.7954E+00  0.9691E+01
      7.885  0.7858E+00  0.9758E+01
      7.971  0.8855E+00  0.9835E+01
      8.057  0.1220E+01  0.9939E+01
      8.143  0.1679E+01  0.1008E+02
      8.228  0.1858E+01  0.1024E+02
      8.314  0.1584E+01  0.1038E+02
      8.400  0.1167E+01  0.1048E+02
      8.486  0.9381E+00  0.1056E+02
      8.572  0.9907E+00  0.1065E+02
      8.658  0.1288E+01  0.1076E+02
      8.744  0.1694E+01  0.1090E+02
      8.830  0.2105E+01  0.1108E+02
      8.916  0.2592E+01  0.1131E+02
      9.002  0.3065E+01  0.1157E+02
      9.088  0.3091E+01  0.1183E+02
      9.174  0.2459E+01  0.1205E+02
      9.260  0.1576E+01  0.1218E+02
      9.346  0.1001E+01  0.1227E+02
      9.432  0.8413E+00  0.1234E+02
      9.518  0.8526E+00  0.1241E+02
      9.603  0.9008E+00  0.1249E+02
      9.689  0.1023E+01  0.1258E+02
      9.775  0.1190E+01  0.1268E+02
      9.861  0.1232E+01  0.1279E+02
      9.947  0.1004E+01  0.1287E+02
     10.033  0.5877E+00  0.1292E+02
     10.119  0.2441E+00  0.1294E+02
     10.205  0.1182E+00  0.1295E+02
     10.291  0.1457E+00  0.1297E+02
     10.377  0.2837E+00  0.1299E+02
     10.463  0.5695E+00  0.1304E+02
     10.549  0.8823E+00  0.1312E+02
     10.635  0.9814E+00  0.1320E+02
     10.721  0.8558E+00  0.1327E+02
     10.807  0.7106E+00  0.1333E+02
     10.893  0.6488E+00  0.1339E+02
     10.978  0.6261E+00  0.1344E+02
     11.064  0.6104E+00  0.1350E+02
     11.150  0.6045E+00  0.1355E+02
     11.236  0.6009E+00  0.1360E+02
     11.322  0.5932E+00  0.1365E+02
     11.408  0.5843E+00  0.1370E+02
     11.494  0.5782E+00  0.1375E+02
     11.580  0.5717E+00  0.1380E+02
     11.666  0.5690E+00  0.1385E+02
     11.752  0.5687E+00  0.1390E+02
     11.838  0.5631E+00  0.1395E+02
     11.924  0.5658E+00  0.1400E+02
     12.010  0.5704E+00  0.1404E+02
     12.096  0.5566E+00  0.1409E+02
     12.182  0.5356E+00  0.1414E+02
     12.268  0.5360E+00  0.1418E+02
     12.353  0.5435E+00  0.1423E+02
     12.439  0.5016E+00  0.1427E+02
     12.525  0.4402E+00  0.1431E+02
     12.611  0.4306E+00  0.1435E+02
     12.697  0.4445E+00  0.1439E+02
     12.783  0.4346E+00  0.1442E+02
     12.869  0.4219E+00  0.1446E+02
     12.955  0.4328E+00  0.1450E+02
     13.041  0.4273E+00  0.1453E+02
     13.127  0.4126E+00  0.1457E+02
     13.213  0.5431E+00  0.1462E+02
     13.299  0.8677E+00  0.1469E+02
     13.385  0.1160E+01  0.1479E+02
     13.471  0.1195E+01  0.1489E+02
     13.557  0.1013E+01  0.1498E+02
     13.643  0.7867E+00  0.1505E+02
     13.728  0.5755E+00  0.1510E+02
     13.814  0.4093E+00  0.1513E+02
     13.900  0.3415E+00  0.1516E+02
     13.986  0.3277E+00  0.1519E+02
     14.072  0.3133E+00  0.1522E+02
     14.158  0.3212E+00  0.1525E+02
     14.244  0.3477E+00  0.1527E+02
     14.330  0.3482E+00  0.1530E+02
     14.416  0.3281E+00  0.1533E+02
     14.502  0.3387E+00  0.1536E+02
     14.588  0.3671E+00  0.1539E+02
     14.674  0.3639E+00  0.1542E+02
     14.760  0.3544E+00  0.1546E+02
     14.846  0.3767E+00  0.1549E+02
     14.932  0.4015E+00  0.1552E+02
     15.018  0.4053E+00  0.1556E+02
     15.104  0.4229E+00  0.1559E+02
     15.189  0.4751E+00  0.1563E+02
     15.275  0.5842E+00  0.1568E+02
     15.361  0.8109E+00  0.1575E+02
     15.447  0.1064E+01  0.1585E+02
     15.533  0.1042E+01  0.1594E+02
     15.619  0.6492E+00  0.1599E+02
     15.705  0.1988E+00  0.1601E+02
     15.791 -0.2188E-01  0.1601E+02
     15.877 -0.4629E-01  0.1600E+02
     15.963 -0.1980E-01  0.1600E+02
     16.049 -0.4662E-02  0.1600E+02
     16.135 -0.6879E-03  0.1600E+02
     16.221 -0.6648E-04  0.1600E+02
     16.307 -0.4295E-05  0.1600E+02
     16.393 -0.1876E-06  0.1600E+02
     16.479 -0.5573E-08  0.1600E+02
     16.564 -0.1131E-09  0.1600E+02
     16.650 -0.1572E-11  0.1600E+02
     16.736 -0.1509E-13  0.1600E+02
     16.822  0.0000E+00  0.1600E+02
     16.908  0.0000E+00  0.1600E+02
     16.994  0.0000E+00  0.1600E+02
     17.080  0.0000E+00  0.1600E+02
     17.166  0.0000E+00  0.1600E+02
     17.252  0.0000E+00  0.1600E+02
     17.338  0.0000E+00  0.1600E+02
     17.424  0.0000E+00  0.1600E+02
     17.510  0.0000E+00  0.1600E+02
