    2    2    1    1
  0.2039117E+02  0.3863631E-09  0.3863631E-09  0.3863631E-09  0.5000000E-15
  1.000000000000000E-004
  CAR 
 Si                                      
      8    150      8
 
  0.5000000E+00  0.2500000E+00  0.7500000E+00  0.6666667E-02
    1       -2.057969   1.000000
    2       -2.057967   1.000000
    3        1.804060   1.000000
    4        1.804069   1.000000
    5        9.874161  -0.000000
    6        9.874201  -0.000000
    7       10.521842  -0.000000
    8       10.521859  -0.000000
 
  0.5000000E+00  0.2586207E+00  0.7413793E+00  0.6666667E-02
    1       -2.168866   1.000000
    2       -1.948338   1.000000
    3        1.726811   1.000000
    4        1.890227   1.000000
    5        9.779671  -0.000000
    6        9.932458  -0.000000
    7       10.457745  -0.000000
    8       10.632813  -0.000000
 
  0.5000000E+00  0.2672414E+00  0.7327586E+00  0.6666667E-02
    1       -2.280073   1.000000
    2       -1.841081   1.000000
    3        1.659756   1.000000
    4        1.984127   1.000000
    5        9.672985  -0.000000
    6        9.922863  -0.000000
    7       10.472046  -0.000000
    8       10.766656  -0.000000
 
  0.5000000E+00  0.2758621E+00  0.7241379E+00  0.6666667E-02
    1       -2.390973   1.000000
    2       -1.737492   1.000000
    3        1.604167   1.000000
    4        2.084586   1.000000
    5        9.563145  -0.000000
    6        9.850557  -0.000000
    7       10.558133  -0.000000
    8       10.912544  -0.000000
 
  0.5000000E+00  0.2844828E+00  0.7155172E+00  0.6666667E-02
    1       -2.500609   1.000000
    2       -1.638995   1.000000
    3        1.561668   1.000000
    4        2.190874   1.000000
    5        9.456963  -0.000000
    6        9.748993  -0.000000
    7       10.684225  -0.000000
    8       11.067147  -0.000000
 
  0.5000000E+00  0.2931034E+00  0.7068966E+00  0.6666667E-02
    1       -2.608288   1.000000
    2       -1.546786   1.000000
    3        1.534067   1.000000
    4        2.302312   1.000000
    5        9.355897  -0.000000
    6        9.636545  -0.000000
    7       10.833427  -0.000000
    8       11.228083   0.000000
 
  0.5000000E+00  0.3017241E+00  0.6982759E+00  0.6666667E-02
    1       -2.713683   1.000000
    2       -1.462700   1.000000
    3        1.522588   1.000000
    4        2.417335   1.000000
    5        9.260283  -0.000000
    6        9.520224  -0.000000
    7       10.994689  -0.000000
    8       11.393804   0.000000
 
  0.5000000E+00  0.3103448E+00  0.6896552E+00  0.6666667E-02
    1       -2.816368   1.000000
    2       -1.387895   1.000000
    3        1.528693   1.000000
    4        2.535486   1.000000
    5        9.171301  -0.000000
    6        9.404724  -0.000000
    7       11.165761   0.000000
    8       11.563804   0.000000
 
  0.5000000E+00  0.3189655E+00  0.6810345E+00  0.6666667E-02
    1       -2.915976   1.000000
    2       -1.323510   1.000000
    3        1.553490   1.000000
    4        2.655954   1.000000
    5        9.089439  -0.000000
    6        9.290847  -0.000000
    7       11.344858   0.000000
    8       11.737381   0.000000
 
  0.5000000E+00  0.3275862E+00  0.6724138E+00  0.6666667E-02
    1       -3.012203   1.000000
    2       -1.270181   1.000000
    3        1.597809   1.000000
    4        2.777998   1.000000
    5        9.014115  -0.000000
    6        9.179255  -0.000000
    7       11.531709   0.000000
    8       11.913924   0.000000
 
  0.5000000E+00  0.3362069E+00  0.6637931E+00  0.6666667E-02
    1       -3.104794   1.000000
    2       -1.228276   1.000000
    3        1.661531   1.000000
    4        2.900698   1.000000
    5        8.947664  -0.000000
    6        9.070251  -0.000000
    7       11.724030   0.000000
    8       12.092855   0.000000
 
  0.5000000E+00  0.3448276E+00  0.6551724E+00  0.6666667E-02
    1       -3.193571   1.000000
    2       -1.197337   1.000000
    3        1.744300   1.000000
    4        3.023286   1.000000
    5        8.889445  -0.000000
    6        8.963958  -0.000000
    7       11.921005   0.000000
    8       12.273295   0.000000
 
  0.5000000E+00  0.3534483E+00  0.6465517E+00  0.6666667E-02
    1       -3.278256   1.000000
    2       -1.176719   1.000000
    3        1.845376   1.000000
    4        3.144980   1.000000
    5        8.839704  -0.000000
    6        8.859945  -0.000000
    7       12.106927   0.000000
    8       12.290061   0.000000
 
  0.5000000E+00  0.3620690E+00  0.6379310E+00  0.6666667E-02
    1       -3.358730   1.000000
    2       -1.165215   1.000000
    3        1.963337   1.000000
    4        3.264922   1.000000
    5        8.757986  -0.000000
    6        8.798689  -0.000000
    7       11.919434   0.000000
    8       12.353553   0.000000
 
  0.5000000E+00  0.3706897E+00  0.6293103E+00  0.6666667E-02
    1       -3.434832   1.000000
    2       -1.161393   1.000000
    3        2.096767   1.000000
    4        3.383059   1.000000
    5        8.659305  -0.000000
    6        8.767416  -0.000000
    7       11.599621   0.000000
    8       12.570985   0.000000
 
  0.5000000E+00  0.3793103E+00  0.6206897E+00  0.6666667E-02
    1       -3.506487   1.000000
    2       -1.164007   1.000000
    3        2.243579   1.000000
    4        3.496964   1.000000
    5        8.559590  -0.000000
    6        8.744289  -0.000000
    7       11.284010   0.000000
    8       12.795385   0.000000
 
  0.5000000E+00  0.3879310E+00  0.6120690E+00  0.6666667E-02
    1       -3.573637   1.000000
    2       -1.171688   1.000000
    3        2.401957   1.000000
    4        3.606487   1.000000
    5        8.459534  -0.000000
    6        8.729023  -0.000000
    7       10.976237  -0.000000
    8       13.019295   0.000000
 
  0.5000000E+00  0.3965517E+00  0.6034483E+00  0.6666667E-02
    1       -3.636042   1.000000
    2       -1.182921   1.000000
    3        2.570423   1.000000
    4        3.710963   1.000000
    5        8.358054  -0.000000
    6        8.723584  -0.000000
    7       10.683365  -0.000000
    8       13.259147   0.000000
 
  0.5000000E+00  0.4051724E+00  0.5948276E+00  0.6666667E-02
    1       -3.693700   1.000000
    2       -1.196651   1.000000
    3        2.747094   1.000000
    4        3.809933   1.000000
    5        8.253498  -0.000000
    6        8.726563  -0.000000
    7       10.406201  -0.000000
    8       13.467612   0.000000
 
  0.5000000E+00  0.4137931E+00  0.5862069E+00  0.6666667E-02
    1       -3.746537   1.000000
    2       -1.211804   1.000000
    3        2.930262   1.000000
    4        3.902142   1.000000
    5        8.144455  -0.000000
    6        8.739299  -0.000000
    7       10.147295  -0.000000
    8       13.569079   0.000000
 
  0.5000000E+00  0.4224138E+00  0.5775862E+00  0.6666667E-02
    1       -3.794507   1.000000
    2       -1.227712   1.000000
    3        3.117151   1.000000
    4        3.986821   1.000000
    5        8.028328  -0.000000
    6        8.757129  -0.000000
    7        9.910065  -0.000000
    8       13.651888   0.000000
 
  0.5000000E+00  0.4310345E+00  0.5689655E+00  0.6666667E-02
    1       -3.837551   1.000000
    2       -1.243550   1.000000
    3        3.305894   1.000000
    4        4.063673   1.000000
    5        7.904183  -0.000000
    6        8.780831  -0.000000
    7        9.697680  -0.000000
    8       13.670810   0.000000
 
  0.5000000E+00  0.4396552E+00  0.5603448E+00  0.6666667E-02
    1       -3.875625   1.000000
    2       -1.258741   1.000000
    3        3.493951   1.000000
    4        4.132234   1.000000
    5        7.771642  -0.000000
    6        8.807535  -0.000000
    7        9.512344  -0.000000
    8       13.660492   0.000000
 
  0.5000000E+00  0.4482759E+00  0.5517241E+00  0.6666667E-02
    1       -3.908696   1.000000
    2       -1.272759   1.000000
    3        3.677629   1.000000
    4        4.192141   1.000000
    5        7.632468  -0.000000
    6        8.838268  -0.000000
    7        9.356192  -0.000000
    8       13.616871   0.000000
 
  0.5000000E+00  0.4568966E+00  0.5431034E+00  0.6666667E-02
    1       -3.936729   1.000000
    2       -1.285158   1.000000
    3        3.853302   1.000000
    4        4.243270   1.000000
    5        7.490855  -0.000000
    6        8.869913  -0.000000
    7        9.230665  -0.000000
    8       13.554136   0.000000
 
  0.5000000E+00  0.4655172E+00  0.5344828E+00  0.6666667E-02
    1       -3.959701   1.000000
    2       -1.295763   1.000000
    3        4.014345   1.000000
    4        4.285132   1.000000
    5        7.353227  -0.000000
    6        8.899858  -0.000000
    7        9.130557  -0.000000
    8       13.485642   0.000000
 
  0.5000000E+00  0.4741379E+00  0.5258621E+00  0.6666667E-02
    1       -3.977589   1.000000
    2       -1.304256   1.000000
    3        4.154154   1.000000
    4        4.317769   1.000000
    5        7.228687  -0.000000
    6        8.926105  -0.000000
    7        9.055798  -0.000000
    8       13.422227   0.000000
 
  0.5000000E+00  0.4827586E+00  0.5172414E+00  0.6666667E-02
    1       -3.990380   1.000000
    2       -1.310453   1.000000
    3        4.264119   1.000000
    4        4.341116   1.000000
    5        7.127872  -0.000000
    6        8.946589  -0.000000
    7        9.004224  -0.000000
    8       13.371745   0.000000
 
  0.5000000E+00  0.4913793E+00  0.5086207E+00  0.6666667E-02
    1       -3.998061   1.000000
    2       -1.314227   1.000000
    3        4.335139   1.000000
    4        4.355141   1.000000
    5        7.061607  -0.000000
    6        8.959613  -0.000000
    7        8.974033  -0.000000
    8       13.339445   0.000000
 
  0.5000000E+00  0.5000000E+00  0.5000000E+00  0.6666667E-02
    1       -4.000118   1.000000
    2       -1.315263   1.000000
    3        4.360561   1.000000
    4        4.360561   1.000000
    5        7.038716  -0.000000
    6        8.964833  -0.000000
    7        8.964833  -0.000000
    8       13.328777   0.000000
 
  0.5000000E+00  0.5000000E+00  0.5000000E+00  0.6666667E-02
    1       -4.000118   1.000000
    2       -1.315263   1.000000
    3        4.360561   1.000000
    4        4.360561   1.000000
    5        7.038716  -0.000000
    6        8.964833  -0.000000
    7        8.964833  -0.000000
    8       13.328777   0.000000
 
  0.4827586E+00  0.4827586E+00  0.4827586E+00  0.6666667E-02
    1       -4.016955   1.000000
    2       -1.291946   1.000000
    3        4.361953   1.000000
    4        4.361953   1.000000
    5        7.040853  -0.000000
    6        8.966255  -0.000000
    7        8.966255  -0.000000
    8       13.331852   0.000000
 
  0.4655172E+00  0.4655172E+00  0.4655172E+00  0.6666667E-02
    1       -4.064114   1.000000
    2       -1.223103   1.000000
    3        4.368312   1.000000
    4        4.368312   1.000000
    5        7.048260  -0.000000
    6        8.972919  -0.000000
    7        8.972919  -0.000000
    8       13.342152   0.000000
 
  0.4482759E+00  0.4482759E+00  0.4482759E+00  0.6666667E-02
    1       -4.137656   1.000000
    2       -1.113445   1.000000
    3        4.378899   1.000000
    4        4.378899   1.000000
    5        7.060593  -0.000000
    6        8.983786  -0.000000
    7        8.983786  -0.000000
    8       13.358684   0.000000
 
  0.4310345E+00  0.4310345E+00  0.4310345E+00  0.6666667E-02
    1       -4.231823   1.000000
    2       -0.968771   1.000000
    3        4.393705   1.000000
    4        4.393705   1.000000
    5        7.077826  -0.000000
    6        8.998420  -0.000000
    7        8.998420  -0.000000
    8       13.380344   0.000000
 
  0.4137931E+00  0.4137931E+00  0.4137931E+00  0.6666667E-02
    1       -4.340859   1.000000
    2       -0.794840   1.000000
    3        4.412736   1.000000
    4        4.412736   1.000000
    5        7.101287  -0.000000
    6        9.016202  -0.000000
    7        9.016202  -0.000000
    8       13.405368   0.000000
 
  0.3965517E+00  0.3965517E+00  0.3965517E+00  0.6666667E-02
    1       -4.459769   1.000000
    2       -0.596844   1.000000
    3        4.435934   1.000000
    4        4.435934   1.000000
    5        7.128129  -0.000000
    6        9.036276  -0.000000
    7        9.036276  -0.000000
    8       13.430098   0.000000
 
  0.3793103E+00  0.3793103E+00  0.3793103E+00  0.6666667E-02
    1       -4.584542   1.000000
    2       -0.378860   1.000000
    3        4.463286   1.000000
    4        4.463286   1.000000
    5        7.159719  -0.000000
    6        9.057578  -0.000000
    7        9.057578  -0.000000
    8       13.449083   0.000000
 
  0.3620690E+00  0.3620690E+00  0.3620690E+00  0.6666667E-02
    1       -4.712044   1.000000
    2       -0.144109   1.000000
    3        4.494752   1.000000
    4        4.494752   1.000000
    5        7.195970  -0.000000
    6        9.078785  -0.000000
    7        9.078785  -0.000000
    8       13.451889   0.000000
 
  0.3448276E+00  0.3448276E+00  0.3448276E+00  0.6666667E-02
    1       -4.839914   1.000000
    2        0.104901   1.000000
    3        4.530202   1.000000
    4        4.530202   1.000000
    5        7.236746  -0.000000
    6        9.096792  -0.000000
    7        9.096792  -0.000000
    8       13.422012   0.000000
 
  0.3275862E+00  0.3275862E+00  0.3275862E+00  0.6666667E-02
    1       -4.966361   1.000000
    2        0.366213   1.000000
    3        4.569710   1.000000
    4        4.569710   1.000000
    5        7.281963  -0.000000
    6        9.112770  -0.000000
    7        9.112770  -0.000000
    8       13.337942   0.000000
 
  0.3103448E+00  0.3103448E+00  0.3103448E+00  0.6666667E-02
    1       -5.089914   1.000000
    2        0.639586   1.000000
    3        4.613258   1.000000
    4        4.613258   1.000000
    5        7.331461  -0.000000
    6        9.123214  -0.000000
    7        9.123214  -0.000000
    8       13.186799   0.000000
 
  0.2931034E+00  0.2931034E+00  0.2931034E+00  0.6666667E-02
    1       -5.209801   1.000000
    2        0.921150   1.000000
    3        4.660412   1.000000
    4        4.660412   1.000000
    5        7.384937  -0.000000
    6        9.125833  -0.000000
    7        9.125833  -0.000000
    8       12.979097   0.000000
 
  0.2758621E+00  0.2758621E+00  0.2758621E+00  0.6666667E-02
    1       -5.325096   1.000000
    2        1.211069   1.000000
    3        4.711157   1.000000
    4        4.711157   1.000000
    5        7.442171  -0.000000
    6        9.118529  -0.000000
    7        9.118529  -0.000000
    8       12.722908   0.000000
 
  0.2586207E+00  0.2586207E+00  0.2586207E+00  0.6666667E-02
    1       -5.435161   1.000000
    2        1.508373   1.000000
    3        4.765285   1.000000
    4        4.765285   1.000000
    5        7.502836  -0.000000
    6        9.099423  -0.000000
    7        9.099423  -0.000000
    8       12.446259   0.000000
 
  0.2413793E+00  0.2413793E+00  0.2413793E+00  0.6666667E-02
    1       -5.539588   1.000000
    2        1.812114   1.000000
    3        4.822559   1.000000
    4        4.822559   1.000000
    5        7.564961  -0.000000
    6        9.068024  -0.000000
    7        9.068024  -0.000000
    8       12.152229   0.000000
 
  0.2241379E+00  0.2241379E+00  0.2241379E+00  0.6666667E-02
    1       -5.637820   1.000000
    2        2.121421   1.000000
    3        4.882575   1.000000
    4        4.882575   1.000000
    5        7.630307  -0.000000
    6        9.021944  -0.000000
    7        9.021944  -0.000000
    8       11.850353   0.000000
 
  0.2068966E+00  0.2068966E+00  0.2068966E+00  0.6666667E-02
    1       -5.729628   1.000000
    2        2.435321   1.000000
    3        4.944962   1.000002
    4        4.944962   1.000002
    5        7.698308  -0.000000
    6        8.962581  -0.000000
    7        8.962581  -0.000000
    8       11.544422   0.000000
 
  0.1896552E+00  0.1896552E+00  0.1896552E+00  0.6666667E-02
    1       -5.814774   1.000000
    2        2.752736   1.000000
    3        5.009193   1.000017
    4        5.009193   1.000017
    5        7.767475  -0.000000
    6        8.891306  -0.000000
    7        8.891306  -0.000000
    8       11.234942   0.000000
 
  0.1724138E+00  0.1724138E+00  0.1724138E+00  0.6666667E-02
    1       -5.893048   1.000000
    2        3.072436   1.000000
    3        5.074624   1.000116
    4        5.074624   1.000116
    5        7.836892  -0.000000
    6        8.810313  -0.000000
    7        8.810313  -0.000000
    8       10.923582  -0.000000
 
  0.1551724E+00  0.1551724E+00  0.1551724E+00  0.6666667E-02
    1       -5.964240   1.000000
    2        3.393635   1.000000
    3        5.141065   1.000638
    4        5.141065   1.000638
    5        7.905900  -0.000000
    6        8.723403  -0.000000
    7        8.723403  -0.000000
    8       10.612238  -0.000000
 
  0.1379310E+00  0.1379310E+00  0.1379310E+00  0.6666667E-02
    1       -6.028268   1.000000
    2        3.712972   1.000000
    3        5.206321   1.002670
    4        5.206321   1.002670
    5        7.972198  -0.000000
    6        8.631740  -0.000000
    7        8.631740  -0.000000
    8       10.302473  -0.000000
 
  0.1206897E+00  0.1206897E+00  0.1206897E+00  0.6666667E-02
    1       -6.084956   1.000000
    2        4.028586   1.000000
    3        5.270869   1.008522
    4        5.270869   1.008522
    5        8.034549  -0.000000
    6        8.540026  -0.000000
    7        8.540026  -0.000000
    8        9.997426  -0.000000
 
  0.1034483E+00  0.1034483E+00  0.1034483E+00  0.6666667E-02
    1       -6.134235   1.000000
    2        4.338402   1.000000
    3        5.331357   1.019533
    4        5.331357   1.019533
    5        8.091273  -0.000000
    6        8.451118  -0.000000
    7        8.451118  -0.000000
    8        9.701032  -0.000000
 
  0.8620690E-01  0.8620690E-01  0.8620690E-01  0.6666667E-02
    1       -6.176167   1.000000
    2        4.634163   1.000000
    3        5.386221   1.031651
    4        5.386221   1.031651
    5        8.138434  -0.000000
    6        8.367859  -0.000000
    7        8.367859  -0.000000
    8        9.419377  -0.000000
 
  0.6896552E-01  0.6896552E-01  0.6896552E-01  0.6666667E-02
    1       -6.210500   1.000000
    2        4.910261   1.000001
    3        5.435406   1.034692
    4        5.435406   1.034692
    5        8.172604  -0.000000
    6        8.294616  -0.000000
    7        8.294616  -0.000000
    8        9.162617  -0.000000
 
  0.5172414E-01  0.5172414E-01  0.5172414E-01  0.6666667E-02
    1       -6.237248   1.000000
    2        5.155527   1.000895
    3        5.476277   1.019538
    4        5.476277   1.019538
    5        8.188601  -0.000000
    6        8.233889  -0.000000
    7        8.233889  -0.000000
    8        8.945055  -0.000000
 
  0.3448276E-01  0.3448276E-01  0.3448276E-01  0.6666667E-02
    1       -6.256375   1.000000
    2        5.354285   1.024780
    3        5.507050   0.989828
    4        5.507050   0.989828
    5        8.182659  -0.000000
    6        8.188333  -0.000000
    7        8.188333  -0.000000
    8        8.784669  -0.000000
 
  0.1724138E-01  0.1724138E-01  0.1724138E-01  0.6666667E-02
    1       -6.267878   1.000000
    2        5.485872   1.012259
    3        5.526208   0.961039
    4        5.526208   0.961039
    5        8.160072  -0.000000
    6        8.160072  -0.000000
    7        8.162057  -0.000000
    8        8.692610  -0.000000
 
  0.0000000E+00  0.0000000E+00  0.0000000E+00  0.6666667E-02
    1       -6.271699   1.000000
    2        5.532700   0.949298
    3        5.532715   0.949269
    4        5.532715   0.949269
    5        8.150474  -0.000000
    6        8.150490  -0.000000
    7        8.150490  -0.000000
    8        8.664114  -0.000000
 
  0.0000000E+00  0.0000000E+00  0.0000000E+00  0.6666667E-02
    1       -6.271699   1.000000
    2        5.532700   0.949298
    3        5.532715   0.949269
    4        5.532715   0.949269
    5        8.150474  -0.000000
    6        8.150490  -0.000000
    7        8.150490  -0.000000
    8        8.664114  -0.000000
 
  0.1724138E-01  0.0000000E+00  0.1724138E-01  0.6666667E-02
    1       -6.266602   1.000000
    2        5.495507   1.003197
    3        5.511323   0.984142
    4        5.511333   0.984128
    5        8.137789  -0.000000
    6        8.178176  -0.000000
    7        8.178186  -0.000000
    8        8.700584  -0.000000
 
  0.3448276E-01  0.0000000E+00  0.3448276E-01  0.6666667E-02
    1       -6.251290   1.000000
    2        5.388972   1.032148
    3        5.449852   1.031856
    4        5.449862   1.031853
    5        8.100440  -0.000000
    6        8.258588  -0.000000
    7        8.258598  -0.000000
    8        8.804324  -0.000000
 
  0.5172414E-01  0.0000000E+00  0.5172414E-01  0.6666667E-02
    1       -6.225677   1.000000
    2        5.226317   1.003934
    3        5.355887   1.025150
    4        5.355896   1.025152
    5        8.040647  -0.000000
    6        8.385446  -0.000000
    7        8.385456  -0.000000
    8        8.961349  -0.000000
 
  0.6896552E-01  0.0000000E+00  0.6896552E-01  0.6666667E-02
    1       -6.189965   1.000000
    2        5.019832   1.000024
    3        5.236005   1.004705
    4        5.236015   1.004706
    5        7.961157  -0.000000
    6        8.549359  -0.000000
    7        8.549369  -0.000000
    8        9.152918  -0.000000
 
  0.8620690E-01  0.0000000E+00  0.8620690E-01  0.6666667E-02
    1       -6.144102   1.000000
    2        4.782241   1.000000
    3        5.098908   1.000222
    4        5.098917   1.000222
    5        7.865681  -0.000000
    6        8.742711  -0.000000
    7        8.742722  -0.000000
    8        9.359983  -0.000000
 
  0.1034483E+00  0.0000000E+00  0.1034483E+00  0.6666667E-02
    1       -6.088112   1.000000
    2        4.523654   1.000000
    3        4.951065   1.000003
    4        4.951074   1.000003
    5        7.757946  -0.000000
    6        8.959296  -0.000000
    7        8.959306  -0.000000
    8        9.561260  -0.000000
 
  0.1206897E+00  0.0000000E+00  0.1206897E+00  0.6666667E-02
    1       -6.022108   1.000000
    2        4.249535   1.000000
    3        4.795499   1.000000
    4        4.795509   1.000000
    5        7.640820  -0.000000
    6        9.192904  -0.000000
    7        9.192915  -0.000000
    8        9.730021  -0.000000
 
  0.1379310E+00  0.0000000E+00  0.1379310E+00  0.6666667E-02
    1       -5.945971   1.000000
    2        3.965592   1.000000
    3        4.639435   1.000000
    4        4.639444   1.000000
    5        7.518850  -0.000000
    6        9.441919  -0.000000
    7        9.441930  -0.000000
    8        9.833169  -0.000000
 
  0.1551724E+00  0.0000000E+00  0.1551724E+00  0.6666667E-02
    1       -5.859837   1.000000
    2        3.673725   1.000000
    3        4.483582   1.000000
    4        4.483592   1.000000
    5        7.394173  -0.000000
    6        9.701129  -0.000000
    7        9.701140  -0.000000
    8        9.840203  -0.000000
 
  0.1724138E+00  0.0000000E+00  0.1724138E+00  0.6666667E-02
    1       -5.763768   1.000000
    2        3.377281   1.000000
    3        4.330152   1.000000
    4        4.330161   1.000000
    5        7.269194  -0.000000
    6        9.748219  -0.000000
    7        9.971026  -0.000000
    8        9.971037  -0.000000
 
  0.1896552E+00  0.0000000E+00  0.1896552E+00  0.6666667E-02
    1       -5.657858   1.000000
    2        3.077223   1.000000
    3        4.180479   1.000000
    4        4.180488   1.000000
    5        7.145940  -0.000000
    6        9.579482  -0.000000
    7       10.248745  -0.000000
    8       10.248756  -0.000000
 
  0.2068966E+00  0.0000000E+00  0.2068966E+00  0.6666667E-02
    1       -5.542161   1.000000
    2        2.774683   1.000000
    3        4.035688   1.000000
    4        4.035697   1.000000
    5        7.026187  -0.000000
    6        9.365411  -0.000000
    7       10.534476  -0.000000
    8       10.534488  -0.000000
 
  0.2241379E+00  0.0000000E+00  0.2241379E+00  0.6666667E-02
    1       -5.416766   1.000000
    2        2.470389   1.000000
    3        3.896454   1.000000
    4        3.896463   1.000000
    5        6.911226  -0.000000
    6        9.125884  -0.000000
    7       10.823306  -0.000000
    8       10.823318  -0.000000
 
  0.2413793E+00  0.0000000E+00  0.2413793E+00  0.6666667E-02
    1       -5.281769   1.000000
    2        2.165218   1.000000
    3        3.763845   1.000000
    4        3.763854   1.000000
    5        6.802339  -0.000000
    6        8.876985  -0.000000
    7       11.117998  -0.000000
    8       11.118010  -0.000000
 
  0.2586207E+00  0.0000000E+00  0.2586207E+00  0.6666667E-02
    1       -5.137280   1.000000
    2        1.859639   1.000000
    3        3.638196   1.000000
    4        3.638205   1.000000
    5        6.700544  -0.000000
    6        8.627539  -0.000000
    7       11.416923   0.000000
    8       11.416936   0.000000
 
  0.2758621E+00  0.0000000E+00  0.2758621E+00  0.6666667E-02
    1       -4.983314   1.000000
    2        1.554191   1.000000
    3        3.520068   1.000000
    4        3.520077   1.000000
    5        6.607423  -0.000000
    6        8.383513  -0.000000
    7       11.723776   0.000000
    8       11.723789   0.000000
 
  0.2931034E+00  0.0000000E+00  0.2931034E+00  0.6666667E-02
    1       -4.820236   1.000000
    2        1.249229   1.000000
    3        3.409548   1.000000
    4        3.409557   1.000000
    5        6.522284  -0.000000
    6        8.147544  -0.000000
    7       12.029798   0.000000
    8       12.029811   0.000000
 
  0.3103448E+00  0.0000000E+00  0.3103448E+00  0.6666667E-02
    1       -4.648060   1.000000
    2        0.945246   1.000000
    3        3.307064   1.000000
    4        3.307073   1.000000
    5        6.446507  -0.000000
    6        7.922375  -0.000000
    7       12.338887   0.000000
    8       12.338901   0.000000
 
  0.3275862E+00  0.0000000E+00  0.3275862E+00  0.6666667E-02
    1       -4.466987   1.000000
    2        0.642580   1.000000
    3        3.211967   1.000000
    4        3.211976   1.000000
    5        6.380661  -0.000003
    6        7.708954  -0.000000
    7       12.650355   0.000000
    8       12.650368   0.000000
 
  0.3448276E+00  0.0000000E+00  0.3448276E+00  0.6666667E-02
    1       -4.276684   1.000000
    2        0.341847   1.000000
    3        3.126338   1.000000
    4        3.126346   1.000000
    5        6.326475  -0.000016
    6        7.509427  -0.000000
    7       12.965214   0.000000
    8       12.965228   0.000000
 
  0.3620690E+00  0.0000000E+00  0.3620690E+00  0.6666667E-02
    1       -4.078221   1.000000
    2        0.043404   1.000000
    3        3.049277   1.000000
    4        3.049286   1.000000
    5        6.282000  -0.000061
    6        7.323908  -0.000000
    7       13.281914   0.000000
    8       13.281981   0.000000
 
  0.3793103E+00  0.0000000E+00  0.3793103E+00  0.6666667E-02
    1       -3.871380   1.000000
    2       -0.252305   1.000000
    3        2.980994   1.000000
    4        2.981003   1.000000
    5        6.248842  -0.000153
    6        7.152806  -0.000000
    7       13.600453   0.000000
    8       13.600477   0.000000
 
  0.3965517E+00  0.0000000E+00  0.3965517E+00  0.6666667E-02
    1       -3.656407   1.000000
    2       -0.545652   1.000000
    3        2.921422   1.000000
    4        2.921431   1.000000
    5        6.227260  -0.000271
    6        6.994897  -0.000000
    7       13.918691   0.000000
    8       13.918709   0.000000
 
  0.4137931E+00  0.0000000E+00  0.4137931E+00  0.6666667E-02
    1       -3.433482   1.000000
    2       -0.834569   1.000000
    3        2.871038   1.000000
    4        2.871047   1.000000
    5        6.217843  -0.000344
    6        6.853226  -0.000000
    7       14.238281   0.000000
    8       14.238296   0.000000
 
  0.4310345E+00  0.0000000E+00  0.4310345E+00  0.6666667E-02
    1       -3.202827   1.000000
    2       -1.119317   1.000000
    3        2.829880   1.000000
    4        2.829889   1.000000
    5        6.221649  -0.000313
    6        6.726536  -0.000000
    7       14.562807   0.000000
    8       14.562819   0.000000
 
  0.4482759E+00  0.0000000E+00  0.4482759E+00  0.6666667E-02
    1       -2.964868   1.000000
    2       -1.399680   1.000000
    3        2.797671   1.000000
    4        2.797679   1.000000
    5        6.237330  -0.000208
    6        6.614233  -0.000000
    7       14.872309   0.000000
    8       14.872322   0.000000
 
  0.4655172E+00  0.0000000E+00  0.4655172E+00  0.6666667E-02
    1       -2.719811   1.000000
    2       -1.675117   1.000000
    3        2.774625   1.000000
    4        2.774634   1.000000
    5        6.266044  -0.000096
    6        6.516425  -0.000000
    7       15.162552   0.000000
    8       15.162562   0.000000
 
  0.4827586E+00  0.0000000E+00  0.4827586E+00  0.6666667E-02
    1       -2.467902   1.000000
    2       -1.945199   1.000000
    3        2.761212   1.000000
    4        2.761220   1.000000
    5        6.309067  -0.000027
    6        6.433724  -0.000000
    7       15.406354   0.000000
    8       15.406380   0.000000
 
  0.5000000E+00  0.0000000E+00  0.5000000E+00  0.6666667E-02
    1       -2.209599   1.000000
    2       -2.209598   1.000000
    3        2.756602   1.000000
    4        2.756610   1.000000
    5        6.364669  -0.000005
    6        6.364688  -0.000005
    7       15.509165   0.000000
    8       15.509414   0.000000
 
  0.5000000E+00  0.0000000E+00  0.5000000E+00  0.6666667E-02
    1       -2.209599   1.000000
    2       -2.209598   1.000000
    3        2.756602   1.000000
    4        2.756610   1.000000
    5        6.364669  -0.000005
    6        6.364688  -0.000005
    7       15.509188   0.000000
    8       15.509779   0.000000
 