 vasp.5.4.4.18Apr17-6-g9f103f2a35 (build May 20 2018 16:52:39) complex          
  
 executed on             LinuxIFC date 2022.10.31  01:19:53
 running on    1 total cores
 distrk:  each k-point on    1 cores,    1 groups
 distr:  one band on NCORES_PER_BAND=   1 cores,    1 groups


--------------------------------------------------------------------------------------------------------


 INCAR:
 POTCAR:    PAW Si                                
 POTCAR:    PAW Si                                
   VRHFIN =Si: s2p2                                                             
   LEXCH  = 91                                                                  
   EATOM  =   103.3076 eV,    7.5929 Ry                                         
                                                                                
   TITEL  = PAW Si                                                              
   LULTRA =        F    use ultrasoft PP ?                                      
   IUNSCR =        1    unscreen: 0-lin 1-nonlin 2-no                           
   RPACOR =    1.500    partial core radius                                     
   POMASS =   28.085; ZVAL   =    4.000    mass and valenz                      
   RCORE  =    1.900    outmost cutoff radius                                   
   RWIGS  =    2.480; RWIGS  =    1.312    wigner-seitz radius (au A)           
   ENMAX  =  245.435; ENMIN  =  184.076 eV                                      
   ICORE  =        2    local potential                                         
   LCOR   =        T    correct aug charges                                     
   LPAW   =        T    paw PP                                                  
   EAUG   =  322.069                                                            
   DEXC   =    -.001                                                            
   RMAX   =    2.943    core radius for proj-oper                               
   RAUG   =    1.300    factor for augmentation sphere                          
   RDEP   =    1.993    core radius for depl-charge                             
   QCUT   =   -4.247; QGAM   =    8.494    optimization parameters              
                                                                                
   Description                                                                  
     l     E      TYP  RCUT    TYP  RCUT                                        
     0   .000     23  1.900                                                     
     0   .000     23  1.900                                                     
     1   .000     23  1.900                                                     
     1   .000     23  1.900                                                     
     2   .000      7  1.900                                                     
  local pseudopotential read in
  partial core-charges read in
  atomic valenz-charges read in
  non local Contribution for L=           0  read in
    real space projection operators read in
  non local Contribution for L=           0  read in
    real space projection operators read in
  non local Contribution for L=           1  read in
    real space projection operators read in
  non local Contribution for L=           1  read in
    real space projection operators read in
    PAW grid and wavefunctions read in
 
   number of l-projection  operators is LMAX  =           4
   number of lm-projection operators is LMMAX =           8
 
  PAW Si                                :
 energy of atom  1       EATOM= -103.3076
 kinetic energy error for atom=    0.0057 (will be added to EATOM!!)
 
 
 POSCAR: Si                                      
  positions in direct lattice
  No initial velocities read in
 exchange correlation table for  LEXCH =        7
   RHO(1)=    0.500       N(1)  =     2000
   RHO(2)=  100.500       N(2)  =     4000
 


--------------------------------------------------------------------------------------------------------


 ion  position               nearest neighbor table
   1  0.000  0.000  0.000-   2 2.37   2 2.37   2 2.37   2 2.37
   2  0.250  0.250  0.250-   1 2.37   1 2.37   1 2.37   1 2.37
 
  LATTYP: Found a face centered cubic cell.
 ALAT       =     5.4640000000
  
  Lattice vectors:
  
 A1 = (   0.0000000000,   2.7320000000,   2.7320000000)
 A2 = (   2.7320000000,   0.0000000000,   2.7320000000)
 A3 = (   2.7320000000,   2.7320000000,   0.0000000000)


Analysis of symmetry for initial positions (statically):
=====================================================================
 Subroutine PRICEL returns:
 Original cell was already a primitive cell.
 

 Routine SETGRP: Setting up the symmetry group for a 
 face centered cubic supercell.


 Subroutine GETGRP returns: Found 48 space group operations
 (whereof 24 operations were pure point group operations)
 out of a pool of 48 trial point group operations.


The static configuration has the point symmetry T_d .
 The point group associated with its full space group is O_h .


Analysis of symmetry for dynamics (positions and initial velocities):
=====================================================================
 Subroutine PRICEL returns:
 Original cell was already a primitive cell.
 

 Routine SETGRP: Setting up the symmetry group for a 
 face centered cubic supercell.


 Subroutine GETGRP returns: Found 48 space group operations
 (whereof 24 operations were pure point group operations)
 out of a pool of 48 trial point group operations.


The dynamic configuration has the point symmetry T_d .
 The point group associated with its full space group is O_h .


 Subroutine INISYM returns: Found 48 space group operations
 (whereof 24 operations are pure point group operations),
 and found     1 'primitive' translations

 
 
 KPOINTS: K-points along high symmetry lines for F
  interpolating k-points between supplied coordinates
  k-points in reciprocal lattice
Space group operators:
 irot       det(A)        alpha          n_x          n_y          n_z        tau_x        tau_y        tau_z
    1     1.000000     0.000000     1.000000     0.000000     0.000000     0.000000     0.000000     0.000000
    2     1.000000   120.000000    -0.577350    -0.577350    -0.577350     0.000000     0.000000     0.000000
    3     1.000000   120.000000     0.577350     0.577350     0.577350     0.000000     0.000000     0.000000
    4    -1.000000    90.000000     0.000000     0.000000    -1.000000     0.000000     0.000000     0.000000
    5    -1.000000   180.000000     0.000000     0.707107     0.707107     0.000000     0.000000     0.000000
    6    -1.000000    90.000000     0.000000     1.000000     0.000000     0.000000     0.000000     0.000000
    7     1.000000   180.000000     0.000000     0.000000     1.000000     0.000000     0.000000     0.000000
    8     1.000000   120.000000    -0.577350     0.577350     0.577350     0.000000     0.000000     0.000000
    9     1.000000   120.000000    -0.577350     0.577350    -0.577350     0.000000     0.000000     0.000000
   10    -1.000000    90.000000     0.000000     0.000000     1.000000     0.000000     0.000000     0.000000
   11    -1.000000    90.000000    -1.000000     0.000000     0.000000     0.000000     0.000000     0.000000
   12    -1.000000   180.000000     0.707107     0.000000     0.707107     0.000000     0.000000     0.000000
   13     1.000000   120.000000     0.577350    -0.577350     0.577350     0.000000     0.000000     0.000000
   14     1.000000   120.000000    -0.577350    -0.577350     0.577350     0.000000     0.000000     0.000000
   15     1.000000   180.000000     1.000000     0.000000     0.000000     0.000000     0.000000     0.000000
   16    -1.000000    90.000000     0.000000    -1.000000     0.000000     0.000000     0.000000     0.000000
   17    -1.000000   180.000000     0.707107     0.707107     0.000000     0.000000     0.000000     0.000000
   18    -1.000000    90.000000     1.000000     0.000000     0.000000     0.000000     0.000000     0.000000
   19     1.000000   120.000000     0.577350    -0.577350    -0.577350     0.000000     0.000000     0.000000
   20     1.000000   180.000000     0.000000     1.000000     0.000000     0.000000     0.000000     0.000000
   21     1.000000   120.000000     0.577350     0.577350    -0.577350     0.000000     0.000000     0.000000
   22    -1.000000   180.000000     0.000000    -0.707107     0.707107     0.000000     0.000000     0.000000
   23    -1.000000   180.000000     0.707107    -0.707107     0.000000     0.000000     0.000000     0.000000
   24    -1.000000   180.000000     0.707107     0.000000    -0.707107     0.000000     0.000000     0.000000
   25    -1.000000     0.000000     1.000000     0.000000     0.000000     0.250000     0.250000     0.250000
   26    -1.000000   120.000000    -0.577350    -0.577350    -0.577350     0.250000     0.250000     0.250000
   27    -1.000000   120.000000     0.577350     0.577350     0.577350     0.250000     0.250000     0.250000
   28     1.000000    90.000000     0.000000     0.000000    -1.000000     0.250000     0.250000     0.250000
   29     1.000000   180.000000     0.000000     0.707107     0.707107     0.250000     0.250000     0.250000
   30     1.000000    90.000000     0.000000     1.000000     0.000000     0.250000     0.250000     0.250000
   31    -1.000000   180.000000     0.000000     0.000000     1.000000     0.250000     0.250000     0.250000
   32    -1.000000   120.000000    -0.577350     0.577350     0.577350     0.250000     0.250000     0.250000
   33    -1.000000   120.000000    -0.577350     0.577350    -0.577350     0.250000     0.250000     0.250000
   34     1.000000    90.000000     0.000000     0.000000     1.000000     0.250000     0.250000     0.250000
   35     1.000000    90.000000    -1.000000     0.000000     0.000000     0.250000     0.250000     0.250000
   36     1.000000   180.000000     0.707107     0.000000     0.707107     0.250000     0.250000     0.250000
   37    -1.000000   120.000000     0.577350    -0.577350     0.577350     0.250000     0.250000     0.250000
   38    -1.000000   120.000000    -0.577350    -0.577350     0.577350     0.250000     0.250000     0.250000
   39    -1.000000   180.000000     1.000000     0.000000     0.000000     0.250000     0.250000     0.250000
   40     1.000000    90.000000     0.000000    -1.000000     0.000000     0.250000     0.250000     0.250000
   41     1.000000   180.000000     0.707107     0.707107     0.000000     0.250000     0.250000     0.250000
   42     1.000000    90.000000     1.000000     0.000000     0.000000     0.250000     0.250000     0.250000
   43    -1.000000   120.000000     0.577350    -0.577350    -0.577350     0.250000     0.250000     0.250000
   44    -1.000000   180.000000     0.000000     1.000000     0.000000     0.250000     0.250000     0.250000
   45    -1.000000   120.000000     0.577350     0.577350    -0.577350     0.250000     0.250000     0.250000
   46     1.000000   180.000000     0.000000    -0.707107     0.707107     0.250000     0.250000     0.250000
   47     1.000000   180.000000     0.707107    -0.707107     0.000000     0.250000     0.250000     0.250000
   48     1.000000   180.000000     0.707107     0.000000    -0.707107     0.250000     0.250000     0.250000


--------------------------------------------------------------------------------------------------------




 Dimension of arrays:
   k-points           NKPTS =    150   k-points in BZ     NKDIM =    150   number of bands    NBANDS=      8
   number of dos      NEDOS =    301   number of ions     NIONS =      2
   non local maximal  LDIM  =      4   non local SUM 2l+1 LMDIM =      8
   total plane-waves  NPLWV =   4096
   max r-space proj   IRMAX =      1   max aug-charges    IRDMAX=   3557
   dimension x,y,z NGX =    16 NGY =   16 NGZ =   16
   dimension x,y,z NGXF=    32 NGYF=   32 NGZF=   32
   support grid    NGXF=    32 NGYF=   32 NGZF=   32
   ions per type =               2
   NGX,Y,Z   is equivalent  to a cutoff of   6.88,  6.88,  6.88 a.u.
   NGXF,Y,Z  is equivalent  to a cutoff of  13.77, 13.77, 13.77 a.u.

 SYSTEM =  Si                                      
 POSCAR =  Si                                      

 Startparameter for this run:
   NWRITE =      2    write-flag & timer
   PREC   = normal    normal or accurate (medium, high low for compatibility)
   ISTART =      0    job   : 0-new  1-cont  2-samecut
   ICHARG =     11    charge: 1-file 2-atom 10-const
   ISPIN  =      1    spin polarized calculation?
   LNONCOLLINEAR =      F non collinear calculations
   LSORBIT =      F    spin-orbit coupling
   INIWAV =      1    electr: 0-lowe 1-rand  2-diag
   LASPH  =      F    aspherical Exc in radial PAW
   METAGGA=      F    non-selfconsistent MetaGGA calc.

 Electronic Relaxation 1
   ENCUT  =  245.4 eV  18.04 Ry    4.25 a.u.   4.94  4.94  4.94*2*pi/ulx,y,z
   ENINI  =  245.4     initial cutoff
   ENAUG  =  322.1 eV  augmentation charge cutoff
   NELM   =     60;   NELMIN=  2; NELMDL=  0     # of ELM steps 
   EDIFF  = 0.1E-05   stopping-criterion for ELM
   LREAL  =      F    real-space projection
   NLSPLINE    = F    spline interpolate recip. space projectors
   LCOMPAT=      F    compatible to vasp.4.4
   GGA_COMPAT  = T    GGA compatible to vasp.4.4-vasp.4.6
   LMAXPAW     = -100 max onsite density
   LMAXMIX     =    2 max onsite mixed and CHGCAR
   VOSKOWN=      0    Vosko Wilk Nusair interpolation
   ROPT   =    0.00000
 Ionic relaxation
   EDIFFG = 0.1E-04   stopping-criterion for IOM
   NSW    =      0    number of steps for IOM
   NBLOCK =      1;   KBLOCK =      1    inner block; outer block 
   IBRION =     -1    ionic relax: 0-MD 1-quasi-New 2-CG
   NFREE  =      0    steps in history (QN), initial steepest desc. (CG)
   ISIF   =      2    stress and relaxation
   IWAVPR =     10    prediction:  0-non 1-charg 2-wave 3-comb
   ISYM   =      2    0-nonsym 1-usesym 2-fastsym
   LCORR  =      T    Harris-Foulkes like correction to forces

   POTIM  = 0.5000    time-step for ionic-motion
   TEIN   =    0.0    initial temperature
   TEBEG  =    0.0;   TEEND  =   0.0 temperature during run
   SMASS  =  -3.00    Nose mass-parameter (am)
   estimated Nose-frequenzy (Omega)   =  0.10E-29 period in steps =****** mass=  -0.341E-27a.u.
   SCALEE = 1.0000    scale energy and forces
   NPACO  =    256;   APACO  = 16.0  distance and # of slots for P.C.
   PSTRESS=    0.0 pullay stress

  Mass of Ions in am
   POMASS =  28.09
  Ionic Valenz
   ZVAL   =   4.00
  Atomic Wigner-Seitz radii
   RWIGS  =  -1.00
  virtual crystal weights 
   VCA    =   1.00
   NELECT =       8.0000    total number of electrons
   NUPDOWN=      -1.0000    fix difference up-down

 DOS related values:
   EMIN   =  10.00;   EMAX   =-10.00  energy-range for DOS
   EFERMI =   0.00
   ISMEAR =     1;   SIGMA  =   0.20  broadening in eV -4-tet -1-fermi 0-gaus

 Electronic relaxation 2 (details)
   IALGO  =     38    algorithm
   LDIAG  =      T    sub-space diagonalisation (order eigenvalues)
   LSUBROT=      F    optimize rotation matrix (better conditioning)
   TURBO    =      0    0=normal 1=particle mesh
   IRESTART =      0    0=no restart 2=restart with 2 vectors
   NREBOOT  =      0    no. of reboots
   NMIN     =      0    reboot dimension
   EREF     =   0.00    reference energy to select bands
   IMIX   =      4    mixing-type and parameters
     AMIX     =   0.40;   BMIX     =  1.00
     AMIX_MAG =   1.60;   BMIX_MAG =  1.00
     AMIN     =   0.10
     WC   =   100.;   INIMIX=   1;  MIXPRE=   1;  MAXMIX= -45

 Intra band minimization:
   WEIMIN = 0.0000     energy-eigenvalue tresh-hold
   EBREAK =  0.31E-07  absolut break condition
   DEPER  =   0.30     relativ break condition  

   TIME   =   0.40     timestep for ELM

  volume/ion in A,a.u.               =      20.39       137.61
  Fermi-wavevector in a.u.,A,eV,Ry     =   0.951220  1.797544 12.310807  0.904819
  Thomas-Fermi vector in A             =   2.079669
 
 Write flags
   LWAVE        =      F    write WAVECAR
   LDOWNSAMPLE  =      F    k-point downsampling of WAVECAR
   LCHARG       =      F    write CHGCAR
   LVTOT        =      F    write LOCPOT, total local potential
   LVHAR        =      F    write LOCPOT, Hartree potential only
   LELF         =      F    write electronic localiz. function (ELF)
   LORBIT       =      0    0 simple, 1 ext, 2 COOP (PROOUT), +10 PAW based schemes


 Dipole corrections
   LMONO  =      F    monopole corrections only (constant potential shift)
   LDIPOL =      F    correct potential (dipole corrections)
   IDIPOL =      0    1-x, 2-y, 3-z, 4-all directions 
   EPSILON=  1.0000000 bulk dielectric constant

 Exchange correlation treatment:
   GGA     =    --    GGA type
   LEXCH   =     7    internal setting for exchange type
   VOSKOWN=      0    Vosko Wilk Nusair interpolation
   LHFCALC =     F    Hartree Fock is set to
   LHFONE  =     F    Hartree Fock one center treatment
   AEXX    =    0.0000 exact exchange contribution

 Linear response parameters
   LEPSILON=     F    determine dielectric tensor
   LRPA    =     F    only Hartree local field effects (RPA)
   LNABLA  =     F    use nabla operator in PAW spheres
   LVEL    =     F    velocity operator in full k-point grid
   LINTERFAST=   F  fast interpolation
   KINTER  =     0    interpolate to denser k-point grid
   CSHIFT  =0.1000    complex shift for real part using Kramers Kronig
   OMEGAMAX=  -1.0    maximum frequency
   DEG_THRESHOLD= 0.2000000E-02 threshold for treating states as degnerate
   RTIME   =   -0.100 relaxation time in fs
  (WPLASMAI=    0.000 imaginary part of plasma frequency in eV, 0.658/RTIME)
   DFIELD  = 0.0000000 0.0000000 0.0000000 field for delta impulse in time
 
 Orbital magnetization related:
   ORBITALMAG=     F  switch on orbital magnetization
   LCHIMAG   =     F  perturbation theory with respect to B field
   DQ        =  0.001000  dq finite difference perturbation B field
   LLRAUG    =     F  two centre corrections for induced B field



--------------------------------------------------------------------------------------------------------


 Static calculation
 charge density and potential remain constant during run
 non-spin polarized calculation
 Variant of blocked Davidson
 Davidson routine will perform the subspace rotation
 perform sub-space diagonalisation
    after iterative eigenvector-optimisation
 no mixing
 using additional bands            4
 reciprocal scheme for non local part
 use partial core corrections
 calculate Harris-corrections to forces 
   (improved forces if not selfconsistent)
 use gradient corrections 
 WARNING: stress and forces are not correct
  (second derivative of E(xc) not defined)
 use of overlap-Matrix (Vanderbilt PP)
 Methfessel and Paxton  Order N= 1 SIGMA  =   0.20


--------------------------------------------------------------------------------------------------------


  energy-cutoff  :      245.44
  volume of cell :       40.78
      direct lattice vectors                 reciprocal lattice vectors
     0.000000000  2.732000000  2.732000000    -0.183016105  0.183016105  0.183016105
     2.732000000  0.000000000  2.732000000     0.183016105 -0.183016105  0.183016105
     2.732000000  2.732000000  0.000000000     0.183016105  0.183016105 -0.183016105

  length of vectors
     3.863631452  3.863631452  3.863631452     0.316993193  0.316993193  0.316993193


 
 k-points in units of 2pi/SCALE and weight: K-points along high symmetry lines for F
   0.50000000  1.00000000  0.00000000       0.007
   0.50000000  0.98275862  0.01724138       0.007
   0.50000000  0.96551724  0.03448276       0.007
   0.50000000  0.94827586  0.05172414       0.007
   0.50000000  0.93103448  0.06896552       0.007
   0.50000000  0.91379310  0.08620690       0.007
   0.50000000  0.89655172  0.10344828       0.007
   0.50000000  0.87931034  0.12068966       0.007
   0.50000000  0.86206897  0.13793103       0.007
   0.50000000  0.84482759  0.15517241       0.007
   0.50000000  0.82758621  0.17241379       0.007
   0.50000000  0.81034483  0.18965517       0.007
   0.50000000  0.79310345  0.20689655       0.007
   0.50000000  0.77586207  0.22413793       0.007
   0.50000000  0.75862069  0.24137931       0.007
   0.50000000  0.74137931  0.25862069       0.007
   0.50000000  0.72413793  0.27586207       0.007
   0.50000000  0.70689655  0.29310345       0.007
   0.50000000  0.68965517  0.31034483       0.007
   0.50000000  0.67241379  0.32758621       0.007
   0.50000000  0.65517241  0.34482759       0.007
   0.50000000  0.63793103  0.36206897       0.007
   0.50000000  0.62068966  0.37931034       0.007
   0.50000000  0.60344828  0.39655172       0.007
   0.50000000  0.58620690  0.41379310       0.007
   0.50000000  0.56896552  0.43103448       0.007
   0.50000000  0.55172414  0.44827586       0.007
   0.50000000  0.53448276  0.46551724       0.007
   0.50000000  0.51724138  0.48275862       0.007
   0.50000000  0.50000000  0.50000000       0.007
   0.50000000  0.50000000  0.50000000       0.007
   0.48275862  0.48275862  0.48275862       0.007
   0.46551724  0.46551724  0.46551724       0.007
   0.44827586  0.44827586  0.44827586       0.007
   0.43103448  0.43103448  0.43103448       0.007
   0.41379310  0.41379310  0.41379310       0.007
   0.39655172  0.39655172  0.39655172       0.007
   0.37931034  0.37931034  0.37931034       0.007
   0.36206897  0.36206897  0.36206897       0.007
   0.34482759  0.34482759  0.34482759       0.007
   0.32758621  0.32758621  0.32758621       0.007
   0.31034483  0.31034483  0.31034483       0.007
   0.29310345  0.29310345  0.29310345       0.007
   0.27586207  0.27586207  0.27586207       0.007
   0.25862069  0.25862069  0.25862069       0.007
   0.24137931  0.24137931  0.24137931       0.007
   0.22413793  0.22413793  0.22413793       0.007
   0.20689655  0.20689655  0.20689655       0.007
   0.18965517  0.18965517  0.18965517       0.007
   0.17241379  0.17241379  0.17241379       0.007
   0.15517241  0.15517241  0.15517241       0.007
   0.13793103  0.13793103  0.13793103       0.007
   0.12068966  0.12068966  0.12068966       0.007
   0.10344828  0.10344828  0.10344828       0.007
   0.08620690  0.08620690  0.08620690       0.007
   0.06896552  0.06896552  0.06896552       0.007
   0.05172414  0.05172414  0.05172414       0.007
   0.03448276  0.03448276  0.03448276       0.007
   0.01724138  0.01724138  0.01724138       0.007
   0.00000000  0.00000000  0.00000000       0.007
   0.00000000  0.00000000  0.00000000       0.007
   0.00000000  0.03448276  0.00000000       0.007
   0.00000000  0.06896552  0.00000000       0.007
   0.00000000  0.10344828  0.00000000       0.007
   0.00000000  0.13793103  0.00000000       0.007
   0.00000000  0.17241379  0.00000000       0.007
   0.00000000  0.20689655  0.00000000       0.007
   0.00000000  0.24137931  0.00000000       0.007
   0.00000000  0.27586207  0.00000000       0.007
   0.00000000  0.31034483  0.00000000       0.007
   0.00000000  0.34482759  0.00000000       0.007
   0.00000000  0.37931034  0.00000000       0.007
   0.00000000  0.41379310  0.00000000       0.007
   0.00000000  0.44827586  0.00000000       0.007
   0.00000000  0.48275862  0.00000000       0.007
   0.00000000  0.51724138  0.00000000       0.007
   0.00000000  0.55172414  0.00000000       0.007
   0.00000000  0.58620690  0.00000000       0.007
   0.00000000  0.62068966  0.00000000       0.007
   0.00000000  0.65517241  0.00000000       0.007
   0.00000000  0.68965517  0.00000000       0.007
   0.00000000  0.72413793  0.00000000       0.007
   0.00000000  0.75862069  0.00000000       0.007
   0.00000000  0.79310345  0.00000000       0.007
   0.00000000  0.82758621  0.00000000       0.007
   0.00000000  0.86206897  0.00000000       0.007
   0.00000000  0.89655172  0.00000000       0.007
   0.00000000  0.93103448  0.00000000       0.007
   0.00000000  0.96551724  0.00000000       0.007
   0.00000000  1.00000000  0.00000000       0.007
   0.00000000  1.00000000  0.00000000       0.007
   0.01724138  1.00000000  0.00000000       0.007
   0.03448276  1.00000000 -0.00000000       0.007
   0.05172414  1.00000000  0.00000000       0.007
   0.06896552  1.00000000  0.00000000       0.007
   0.08620690  1.00000000  0.00000000       0.007
   0.10344828  1.00000000  0.00000000       0.007
   0.12068966  1.00000000  0.00000000       0.007
   0.13793103  1.00000000  0.00000000       0.007
   0.15517241  1.00000000  0.00000000       0.007
   0.17241379  1.00000000  0.00000000       0.007
   0.18965517  1.00000000 -0.00000000       0.007
   0.20689655  1.00000000  0.00000000       0.007
   0.22413793  1.00000000  0.00000000       0.007
   0.24137931  1.00000000  0.00000000       0.007
   0.25862069  1.00000000  0.00000000       0.007
   0.27586207  1.00000000 -0.00000000       0.007
   0.29310345  1.00000000 -0.00000000       0.007
   0.31034483  1.00000000  0.00000000       0.007
   0.32758621  1.00000000  0.00000000       0.007
   0.34482759  1.00000000  0.00000000       0.007
   0.36206897  1.00000000  0.00000000       0.007
   0.37931034  1.00000000  0.00000000       0.007
   0.39655172  1.00000000  0.00000000       0.007
   0.41379310  1.00000000  0.00000000       0.007
   0.43103448  1.00000000  0.00000000       0.007
   0.44827586  1.00000000  0.00000000       0.007
   0.46551724  1.00000000  0.00000000       0.007
   0.48275862  1.00000000  0.00000000       0.007
   0.50000000  1.00000000  0.00000000       0.007
   0.50000000  1.00000000  0.00000000       0.007
   0.48275862  1.00000000  0.00000000       0.007
   0.46551724  1.00000000  0.00000000       0.007
   0.44827586  1.00000000  0.00000000       0.007
   0.43103448  1.00000000 -0.00000000       0.007
   0.41379310  1.00000000  0.00000000       0.007
   0.39655172  1.00000000  0.00000000       0.007
   0.37931034  1.00000000  0.00000000       0.007
   0.36206897  1.00000000  0.00000000       0.007
   0.34482759  1.00000000  0.00000000       0.007
   0.32758621  1.00000000  0.00000000       0.007
   0.31034483  1.00000000  0.00000000       0.007
   0.29310345  1.00000000  0.00000000       0.007
   0.27586207  1.00000000 -0.00000000       0.007
   0.25862069  1.00000000  0.00000000       0.007
   0.24137931  1.00000000  0.00000000       0.007
   0.22413793  1.00000000  0.00000000       0.007
   0.20689655  1.00000000  0.00000000       0.007
   0.18965517  1.00000000 -0.00000000       0.007
   0.17241379  1.00000000  0.00000000       0.007
   0.15517241  1.00000000  0.00000000       0.007
   0.13793103  1.00000000  0.00000000       0.007
   0.12068966  1.00000000  0.00000000       0.007
   0.10344828  1.00000000  0.00000000       0.007
   0.08620690  1.00000000  0.00000000       0.007
   0.06896552  1.00000000  0.00000000       0.007
   0.05172414  1.00000000  0.00000000       0.007
   0.03448276  1.00000000 -0.00000000       0.007
   0.01724138  1.00000000  0.00000000       0.007
   0.00000000  1.00000000  0.00000000       0.007
 
 k-points in reciprocal lattice and weights: K-points along high symmetry lines for F
   0.50000000  0.25000000  0.75000000       0.007
   0.50000000  0.25862069  0.74137931       0.007
   0.50000000  0.26724138  0.73275862       0.007
   0.50000000  0.27586207  0.72413793       0.007
   0.50000000  0.28448276  0.71551724       0.007
   0.50000000  0.29310345  0.70689655       0.007
   0.50000000  0.30172414  0.69827586       0.007
   0.50000000  0.31034483  0.68965517       0.007
   0.50000000  0.31896552  0.68103448       0.007
   0.50000000  0.32758621  0.67241379       0.007
   0.50000000  0.33620690  0.66379310       0.007
   0.50000000  0.34482759  0.65517241       0.007
   0.50000000  0.35344828  0.64655172       0.007
   0.50000000  0.36206897  0.63793103       0.007
   0.50000000  0.37068966  0.62931034       0.007
   0.50000000  0.37931034  0.62068966       0.007
   0.50000000  0.38793103  0.61206897       0.007
   0.50000000  0.39655172  0.60344828       0.007
   0.50000000  0.40517241  0.59482759       0.007
   0.50000000  0.41379310  0.58620690       0.007
   0.50000000  0.42241379  0.57758621       0.007
   0.50000000  0.43103448  0.56896552       0.007
   0.50000000  0.43965517  0.56034483       0.007
   0.50000000  0.44827586  0.55172414       0.007
   0.50000000  0.45689655  0.54310345       0.007
   0.50000000  0.46551724  0.53448276       0.007
   0.50000000  0.47413793  0.52586207       0.007
   0.50000000  0.48275862  0.51724138       0.007
   0.50000000  0.49137931  0.50862069       0.007
   0.50000000  0.50000000  0.50000000       0.007
   0.50000000  0.50000000  0.50000000       0.007
   0.48275862  0.48275862  0.48275862       0.007
   0.46551724  0.46551724  0.46551724       0.007
   0.44827586  0.44827586  0.44827586       0.007
   0.43103448  0.43103448  0.43103448       0.007
   0.41379310  0.41379310  0.41379310       0.007
   0.39655172  0.39655172  0.39655172       0.007
   0.37931034  0.37931034  0.37931034       0.007
   0.36206897  0.36206897  0.36206897       0.007
   0.34482759  0.34482759  0.34482759       0.007
   0.32758621  0.32758621  0.32758621       0.007
   0.31034483  0.31034483  0.31034483       0.007
   0.29310345  0.29310345  0.29310345       0.007
   0.27586207  0.27586207  0.27586207       0.007
   0.25862069  0.25862069  0.25862069       0.007
   0.24137931  0.24137931  0.24137931       0.007
   0.22413793  0.22413793  0.22413793       0.007
   0.20689655  0.20689655  0.20689655       0.007
   0.18965517  0.18965517  0.18965517       0.007
   0.17241379  0.17241379  0.17241379       0.007
   0.15517241  0.15517241  0.15517241       0.007
   0.13793103  0.13793103  0.13793103       0.007
   0.12068966  0.12068966  0.12068966       0.007
   0.10344828  0.10344828  0.10344828       0.007
   0.08620690  0.08620690  0.08620690       0.007
   0.06896552  0.06896552  0.06896552       0.007
   0.05172414  0.05172414  0.05172414       0.007
   0.03448276  0.03448276  0.03448276       0.007
   0.01724138  0.01724138  0.01724138       0.007
   0.00000000  0.00000000  0.00000000       0.007
   0.00000000  0.00000000  0.00000000       0.007
   0.01724138  0.00000000  0.01724138       0.007
   0.03448276  0.00000000  0.03448276       0.007
   0.05172414  0.00000000  0.05172414       0.007
   0.06896552  0.00000000  0.06896552       0.007
   0.08620690  0.00000000  0.08620690       0.007
   0.10344828  0.00000000  0.10344828       0.007
   0.12068966  0.00000000  0.12068966       0.007
   0.13793103  0.00000000  0.13793103       0.007
   0.15517241  0.00000000  0.15517241       0.007
   0.17241379  0.00000000  0.17241379       0.007
   0.18965517  0.00000000  0.18965517       0.007
   0.20689655  0.00000000  0.20689655       0.007
   0.22413793  0.00000000  0.22413793       0.007
   0.24137931  0.00000000  0.24137931       0.007
   0.25862069  0.00000000  0.25862069       0.007
   0.27586207  0.00000000  0.27586207       0.007
   0.29310345  0.00000000  0.29310345       0.007
   0.31034483  0.00000000  0.31034483       0.007
   0.32758621  0.00000000  0.32758621       0.007
   0.34482759  0.00000000  0.34482759       0.007
   0.36206897  0.00000000  0.36206897       0.007
   0.37931034  0.00000000  0.37931034       0.007
   0.39655172  0.00000000  0.39655172       0.007
   0.41379310  0.00000000  0.41379310       0.007
   0.43103448  0.00000000  0.43103448       0.007
   0.44827586  0.00000000  0.44827586       0.007
   0.46551724  0.00000000  0.46551724       0.007
   0.48275862  0.00000000  0.48275862       0.007
   0.50000000  0.00000000  0.50000000       0.007
   0.50000000  0.00000000  0.50000000       0.007
   0.50000000  0.00862069  0.50862069       0.007
   0.50000000  0.01724138  0.51724138       0.007
   0.50000000  0.02586207  0.52586207       0.007
   0.50000000  0.03448276  0.53448276       0.007
   0.50000000  0.04310345  0.54310345       0.007
   0.50000000  0.05172414  0.55172414       0.007
   0.50000000  0.06034483  0.56034483       0.007
   0.50000000  0.06896552  0.56896552       0.007
   0.50000000  0.07758621  0.57758621       0.007
   0.50000000  0.08620690  0.58620690       0.007
   0.50000000  0.09482759  0.59482759       0.007
   0.50000000  0.10344828  0.60344828       0.007
   0.50000000  0.11206897  0.61206897       0.007
   0.50000000  0.12068966  0.62068966       0.007
   0.50000000  0.12931034  0.62931034       0.007
   0.50000000  0.13793103  0.63793103       0.007
   0.50000000  0.14655172  0.64655172       0.007
   0.50000000  0.15517241  0.65517241       0.007
   0.50000000  0.16379310  0.66379310       0.007
   0.50000000  0.17241379  0.67241379       0.007
   0.50000000  0.18103448  0.68103448       0.007
   0.50000000  0.18965517  0.68965517       0.007
   0.50000000  0.19827586  0.69827586       0.007
   0.50000000  0.20689655  0.70689655       0.007
   0.50000000  0.21551724  0.71551724       0.007
   0.50000000  0.22413793  0.72413793       0.007
   0.50000000  0.23275862  0.73275862       0.007
   0.50000000  0.24137931  0.74137931       0.007
   0.50000000  0.25000000  0.75000000       0.007
   0.50000000  0.25000000  0.75000000       0.007
   0.50000000  0.24137931  0.74137931       0.007
   0.50000000  0.23275862  0.73275862       0.007
   0.50000000  0.22413793  0.72413793       0.007
   0.50000000  0.21551724  0.71551724       0.007
   0.50000000  0.20689655  0.70689655       0.007
   0.50000000  0.19827586  0.69827586       0.007
   0.50000000  0.18965517  0.68965517       0.007
   0.50000000  0.18103448  0.68103448       0.007
   0.50000000  0.17241379  0.67241379       0.007
   0.50000000  0.16379310  0.66379310       0.007
   0.50000000  0.15517241  0.65517241       0.007
   0.50000000  0.14655172  0.64655172       0.007
   0.50000000  0.13793103  0.63793103       0.007
   0.50000000  0.12931034  0.62931034       0.007
   0.50000000  0.12068966  0.62068966       0.007
   0.50000000  0.11206897  0.61206897       0.007
   0.50000000  0.10344828  0.60344828       0.007
   0.50000000  0.09482759  0.59482759       0.007
   0.50000000  0.08620690  0.58620690       0.007
   0.50000000  0.07758621  0.57758621       0.007
   0.50000000  0.06896552  0.56896552       0.007
   0.50000000  0.06034483  0.56034483       0.007
   0.50000000  0.05172414  0.55172414       0.007
   0.50000000  0.04310345  0.54310345       0.007
   0.50000000  0.03448276  0.53448276       0.007
   0.50000000  0.02586207  0.52586207       0.007
   0.50000000  0.01724138  0.51724138       0.007
   0.50000000  0.00862069  0.50862069       0.007
   0.50000000  0.00000000  0.50000000       0.007
 
 position of ions in fractional coordinates (direct lattice) 
   0.00000000  0.00000000  0.00000000
   0.25000000  0.25000000  0.25000000
 
 position of ions in cartesian coordinates  (Angst):
   0.00000000  0.00000000  0.00000000
   1.36600000  1.36600000  1.36600000
 


--------------------------------------------------------------------------------------------------------


 k-point  1 :   0.5000 0.2500 0.7500  plane waves:     360
 k-point  2 :   0.5000 0.2586 0.7414  plane waves:     360
 k-point  3 :   0.5000 0.2672 0.7328  plane waves:     360
 k-point  4 :   0.5000 0.2759 0.7241  plane waves:     366
 k-point  5 :   0.5000 0.2845 0.7155  plane waves:     368
 k-point  6 :   0.5000 0.2931 0.7069  plane waves:     364
 k-point  7 :   0.5000 0.3017 0.6983  plane waves:     366
 k-point  8 :   0.5000 0.3103 0.6897  plane waves:     366
 k-point  9 :   0.5000 0.3190 0.6810  plane waves:     366
 k-point 10 :   0.5000 0.3276 0.6724  plane waves:     366
 k-point 11 :   0.5000 0.3362 0.6638  plane waves:     366
 k-point 12 :   0.5000 0.3448 0.6552  plane waves:     366
 k-point 13 :   0.5000 0.3534 0.6466  plane waves:     366
 k-point 14 :   0.5000 0.3621 0.6379  plane waves:     366
 k-point 15 :   0.5000 0.3707 0.6293  plane waves:     358
 k-point 16 :   0.5000 0.3793 0.6207  plane waves:     358
 k-point 17 :   0.5000 0.3879 0.6121  plane waves:     362
 k-point 18 :   0.5000 0.3966 0.6034  plane waves:     362
 k-point 19 :   0.5000 0.4052 0.5948  plane waves:     360
 k-point 20 :   0.5000 0.4138 0.5862  plane waves:     358
 k-point 21 :   0.5000 0.4224 0.5776  plane waves:     358
 k-point 22 :   0.5000 0.4310 0.5690  plane waves:     358
 k-point 23 :   0.5000 0.4397 0.5603  plane waves:     358
 k-point 24 :   0.5000 0.4483 0.5517  plane waves:     358
 k-point 25 :   0.5000 0.4569 0.5431  plane waves:     356
 k-point 26 :   0.5000 0.4655 0.5345  plane waves:     356
 k-point 27 :   0.5000 0.4741 0.5259  plane waves:     356
 k-point 28 :   0.5000 0.4828 0.5172  plane waves:     356
 k-point 29 :   0.5000 0.4914 0.5086  plane waves:     356
 k-point 30 :   0.5000 0.5000 0.5000  plane waves:     344
 k-point 31 :   0.5000 0.5000 0.5000  plane waves:     344
 k-point 32 :   0.4828 0.4828 0.4828  plane waves:     356
 k-point 33 :   0.4655 0.4655 0.4655  plane waves:     356
 k-point 34 :   0.4483 0.4483 0.4483  plane waves:     356
 k-point 35 :   0.4310 0.4310 0.4310  plane waves:     356
 k-point 36 :   0.4138 0.4138 0.4138  plane waves:     353
 k-point 37 :   0.3966 0.3966 0.3966  plane waves:     353
 k-point 38 :   0.3793 0.3793 0.3793  plane waves:     353
 k-point 39 :   0.3621 0.3621 0.3621  plane waves:     353
 k-point 40 :   0.3448 0.3448 0.3448  plane waves:     359
 k-point 41 :   0.3276 0.3276 0.3276  plane waves:     359
 k-point 42 :   0.3103 0.3103 0.3103  plane waves:     353
 k-point 43 :   0.2931 0.2931 0.2931  plane waves:     353
 k-point 44 :   0.2759 0.2759 0.2759  plane waves:     353
 k-point 45 :   0.2586 0.2586 0.2586  plane waves:     353
 k-point 46 :   0.2414 0.2414 0.2414  plane waves:     353
 k-point 47 :   0.2241 0.2241 0.2241  plane waves:     356
 k-point 48 :   0.2069 0.2069 0.2069  plane waves:     356
 k-point 49 :   0.1897 0.1897 0.1897  plane waves:     356
 k-point 50 :   0.1724 0.1724 0.1724  plane waves:     356
 k-point 51 :   0.1552 0.1552 0.1552  plane waves:     344
 k-point 52 :   0.1379 0.1379 0.1379  plane waves:     344
 k-point 53 :   0.1207 0.1207 0.1207  plane waves:     338
 k-point 54 :   0.1034 0.1034 0.1034  plane waves:     335
 k-point 55 :   0.0862 0.0862 0.0862  plane waves:     338
 k-point 56 :   0.0690 0.0690 0.0690  plane waves:     338
 k-point 57 :   0.0517 0.0517 0.0517  plane waves:     338
 k-point 58 :   0.0345 0.0345 0.0345  plane waves:     338
 k-point 59 :   0.0172 0.0172 0.0172  plane waves:     339
 k-point 60 :   0.0000 0.0000 0.0000  plane waves:     339
 k-point 61 :   0.0000 0.0000 0.0000  plane waves:     339
 k-point 62 :   0.0172 0.0000 0.0172  plane waves:     339
 k-point 63 :   0.0345 0.0000 0.0345  plane waves:     339
 k-point 64 :   0.0517 0.0000 0.0517  plane waves:     335
 k-point 65 :   0.0690 0.0000 0.0690  plane waves:     335
 k-point 66 :   0.0862 0.0000 0.0862  plane waves:     339
 k-point 67 :   0.1034 0.0000 0.1034  plane waves:     339
 k-point 68 :   0.1207 0.0000 0.1207  plane waves:     347
 k-point 69 :   0.1379 0.0000 0.1379  plane waves:     347
 k-point 70 :   0.1552 0.0000 0.1552  plane waves:     351
 k-point 71 :   0.1724 0.0000 0.1724  plane waves:     351
 k-point 72 :   0.1897 0.0000 0.1897  plane waves:     351
 k-point 73 :   0.2069 0.0000 0.2069  plane waves:     347
 k-point 74 :   0.2241 0.0000 0.2241  plane waves:     351
 k-point 75 :   0.2414 0.0000 0.2414  plane waves:     351
 k-point 76 :   0.2586 0.0000 0.2586  plane waves:     351
 k-point 77 :   0.2759 0.0000 0.2759  plane waves:     347
 k-point 78 :   0.2931 0.0000 0.2931  plane waves:     347
 k-point 79 :   0.3103 0.0000 0.3103  plane waves:     347
 k-point 80 :   0.3276 0.0000 0.3276  plane waves:     355
 k-point 81 :   0.3448 0.0000 0.3448  plane waves:     351
 k-point 82 :   0.3621 0.0000 0.3621  plane waves:     351
 k-point 83 :   0.3793 0.0000 0.3793  plane waves:     351
 k-point 84 :   0.3966 0.0000 0.3966  plane waves:     359
 k-point 85 :   0.4138 0.0000 0.4138  plane waves:     359
 k-point 86 :   0.4310 0.0000 0.4310  plane waves:     351
 k-point 87 :   0.4483 0.0000 0.4483  plane waves:     351
 k-point 88 :   0.4655 0.0000 0.4655  plane waves:     351
 k-point 89 :   0.4828 0.0000 0.4828  plane waves:     343
 k-point 90 :   0.5000 0.0000 0.5000  plane waves:     342
 k-point 91 :   0.5000 0.0000 0.5000  plane waves:     342
 k-point 92 :   0.5000 0.0086 0.5086  plane waves:     342
 k-point 93 :   0.5000 0.0172 0.5172  plane waves:     346
 k-point 94 :   0.5000 0.0259 0.5259  plane waves:     346
 k-point 95 :   0.5000 0.0345 0.5345  plane waves:     346
 k-point 96 :   0.5000 0.0431 0.5431  plane waves:     350
 k-point 97 :   0.5000 0.0517 0.5517  plane waves:     352
 k-point 98 :   0.5000 0.0603 0.5603  plane waves:     352
 k-point 99 :   0.5000 0.0690 0.5690  plane waves:     358
 k-point ** :   0.5000 0.0776 0.5776  plane waves:     358
 k-point ** :   0.5000 0.0862 0.5862  plane waves:     358
 k-point ** :   0.5000 0.0948 0.5948  plane waves:     358
 k-point ** :   0.5000 0.1034 0.6034  plane waves:     358
 k-point ** :   0.5000 0.1121 0.6121  plane waves:     362
 k-point ** :   0.5000 0.1207 0.6207  plane waves:     362
 k-point ** :   0.5000 0.1293 0.6293  plane waves:     362
 k-point ** :   0.5000 0.1379 0.6379  plane waves:     362
 k-point ** :   0.5000 0.1466 0.6466  plane waves:     362
 k-point ** :   0.5000 0.1552 0.6552  plane waves:     360
 k-point ** :   0.5000 0.1638 0.6638  plane waves:     360
 k-point ** :   0.5000 0.1724 0.6724  plane waves:     360
 k-point ** :   0.5000 0.1810 0.6810  plane waves:     360
 k-point ** :   0.5000 0.1897 0.6897  plane waves:     364
 k-point ** :   0.5000 0.1983 0.6983  plane waves:     368
 k-point ** :   0.5000 0.2069 0.7069  plane waves:     368
 k-point ** :   0.5000 0.2155 0.7155  plane waves:     364
 k-point ** :   0.5000 0.2241 0.7241  plane waves:     360
 k-point ** :   0.5000 0.2328 0.7328  plane waves:     360
 k-point ** :   0.5000 0.2414 0.7414  plane waves:     360
 k-point ** :   0.5000 0.2500 0.7500  plane waves:     360
 k-point ** :   0.5000 0.2500 0.7500  plane waves:     360
 k-point ** :   0.5000 0.2414 0.7414  plane waves:     360
 k-point ** :   0.5000 0.2328 0.7328  plane waves:     360
 k-point ** :   0.5000 0.2241 0.7241  plane waves:     360
 k-point ** :   0.5000 0.2155 0.7155  plane waves:     364
 k-point ** :   0.5000 0.2069 0.7069  plane waves:     368
 k-point ** :   0.5000 0.1983 0.6983  plane waves:     368
 k-point ** :   0.5000 0.1897 0.6897  plane waves:     364
 k-point ** :   0.5000 0.1810 0.6810  plane waves:     360
 k-point ** :   0.5000 0.1724 0.6724  plane waves:     360
 k-point ** :   0.5000 0.1638 0.6638  plane waves:     360
 k-point ** :   0.5000 0.1552 0.6552  plane waves:     360
 k-point ** :   0.5000 0.1466 0.6466  plane waves:     362
 k-point ** :   0.5000 0.1379 0.6379  plane waves:     362
 k-point ** :   0.5000 0.1293 0.6293  plane waves:     362
 k-point ** :   0.5000 0.1207 0.6207  plane waves:     362
 k-point ** :   0.5000 0.1121 0.6121  plane waves:     362
 k-point ** :   0.5000 0.1034 0.6034  plane waves:     358
 k-point ** :   0.5000 0.0948 0.5948  plane waves:     358
 k-point ** :   0.5000 0.0862 0.5862  plane waves:     358
 k-point ** :   0.5000 0.0776 0.5776  plane waves:     358
 k-point ** :   0.5000 0.0690 0.5690  plane waves:     358
 k-point ** :   0.5000 0.0603 0.5603  plane waves:     352
 k-point ** :   0.5000 0.0517 0.5517  plane waves:     352
 k-point ** :   0.5000 0.0431 0.5431  plane waves:     350
 k-point ** :   0.5000 0.0345 0.5345  plane waves:     346
 k-point ** :   0.5000 0.0259 0.5259  plane waves:     346
 k-point ** :   0.5000 0.0172 0.5172  plane waves:     346
 k-point ** :   0.5000 0.0086 0.5086  plane waves:     342
 k-point ** :   0.5000 0.0000 0.5000  plane waves:     342

 maximum and minimum number of plane-waves per node :       368      335

 maximum number of plane-waves:       368
 maximum index in each direction: 
   IXMAX=    4   IYMAX=    4   IZMAX=    4
   IXMIN=   -5   IYMIN=   -5   IZMIN=   -5


 serial   3D FFT for wavefunctions
 parallel 3D FFT for charge:
    minimum data exchange during FFTs selected (reduces bandwidth)


 total amount of memory used by VASP MPI-rank0    45898. kBytes
=======================================================================

   base      :      30000. kBytes
   nonl-proj :       3544. kBytes
   fftplans  :       2224. kBytes
   grid      :       2752. kBytes
   one-center:          6. kBytes
   wavefun   :       7372. kBytes
 
     INWAV:  cpu time    0.0001: real time    0.0001
 initial charge density was supplied:
 number of electron       7.9999993 magnetization 
 keeping initial charge density in first step


--------------------------------------------------------------------------------------------------------


 Maximum index for augmentation-charges         3319 (set IRDMAX)


--------------------------------------------------------------------------------------------------------


 First call to EWALD:  gamma=   0.515
 Maximum number of real-space cells 3x 3x 3
 Maximum number of reciprocal cells 3x 3x 3

    FEWALD:  cpu time    0.0015: real time    0.0013


--------------------------------------- Iteration      1(   1)  ---------------------------------------


    POTLOK:  cpu time    0.0205: real time    0.0439
    SETDIJ:  cpu time    0.0019: real time    0.0019
     EDDAV:  cpu time    0.2856: real time    0.2863
       DOS:  cpu time    0.0050: real time    0.0050
    --------------------------------------------
      LOOP:  cpu time    0.3140: real time    0.3372

 eigenvalue-minimisations  :  2416
 total energy-change (2. order) : 0.2234526E+00  (-0.2191373E+03)
 number of electron       7.9999993 magnetization 
 augmentation part        7.9999993 magnetization 

 Free energy of the ion-electron system (eV)
  ---------------------------------------------------
  alpha Z        PSCENC =         3.18282462
  Ewald energy   TEWEN  =      -227.14127752
  -Hartree energ DENC   =       -14.62996643
  -exchange      EXHF   =         0.00000000
  -V(xc)+E(xc)   XCENC  =       -18.53355719
  PAW double counting   =        76.07092295      -40.75419350
  entropy T*S    EENTRO =        -0.00207273
  eigenvalues    EBANDS =        15.42687336
  atomic energy  EATOM  =       206.60389906
  Solvation  Ediel_sol  =         0.00000000
  ---------------------------------------------------
  free energy    TOTEN  =         0.22345263 eV

  energy without entropy =        0.22552536  energy(sigma->0) =        0.22414354


--------------------------------------------------------------------------------------------------------




--------------------------------------- Iteration      1(   2)  ---------------------------------------


     EDDAV:  cpu time    0.4299: real time    0.4310
       DOS:  cpu time    0.0055: real time    0.0055
    --------------------------------------------
      LOOP:  cpu time    0.4346: real time    0.4365

 eigenvalue-minimisations  :  3736
 total energy-change (2. order) :-0.1015318E+02  (-0.9416453E+01)
 number of electron       7.9999993 magnetization 
 augmentation part        7.9999993 magnetization 

 Free energy of the ion-electron system (eV)
  ---------------------------------------------------
  alpha Z        PSCENC =         3.18282462
  Ewald energy   TEWEN  =      -227.14127752
  -Hartree energ DENC   =       -14.62996643
  -exchange      EXHF   =         0.00000000
  -V(xc)+E(xc)   XCENC  =       -18.53355719
  PAW double counting   =        76.07092295      -40.75419350
  entropy T*S    EENTRO =         0.00248501
  eigenvalues    EBANDS =         5.26913817
  atomic energy  EATOM  =       206.60389906
  Solvation  Ediel_sol  =         0.00000000
  ---------------------------------------------------
  free energy    TOTEN  =        -9.92972482 eV

  energy without entropy =       -9.93220983  energy(sigma->0) =       -9.93055316


--------------------------------------------------------------------------------------------------------




--------------------------------------- Iteration      1(   3)  ---------------------------------------


     EDDAV:  cpu time    0.3778: real time    0.3787
       DOS:  cpu time    0.0053: real time    0.0054
    --------------------------------------------
      LOOP:  cpu time    0.3832: real time    0.3841

 eigenvalue-minimisations  :  3192
 total energy-change (2. order) :-0.1393308E+00  (-0.1348067E+00)
 number of electron       7.9999993 magnetization 
 augmentation part        7.9999993 magnetization 

 Free energy of the ion-electron system (eV)
  ---------------------------------------------------
  alpha Z        PSCENC =         3.18282462
  Ewald energy   TEWEN  =      -227.14127752
  -Hartree energ DENC   =       -14.62996643
  -exchange      EXHF   =         0.00000000
  -V(xc)+E(xc)   XCENC  =       -18.53355719
  PAW double counting   =        76.07092295      -40.75419350
  entropy T*S    EENTRO =         0.00244696
  eigenvalues    EBANDS =         5.12984539
  atomic energy  EATOM  =       206.60389906
  Solvation  Ediel_sol  =         0.00000000
  ---------------------------------------------------
  free energy    TOTEN  =       -10.06905565 eV

  energy without entropy =      -10.07150261  energy(sigma->0) =      -10.06987130


--------------------------------------------------------------------------------------------------------




--------------------------------------- Iteration      1(   4)  ---------------------------------------


     EDDAV:  cpu time    0.4746: real time    0.4758
       DOS:  cpu time    0.0056: real time    0.0056
    --------------------------------------------
      LOOP:  cpu time    0.4802: real time    0.4814

 eigenvalue-minimisations  :  3976
 total energy-change (2. order) :-0.3666831E-03  (-0.3666804E-03)
 number of electron       7.9999993 magnetization 
 augmentation part        7.9999993 magnetization 

 Free energy of the ion-electron system (eV)
  ---------------------------------------------------
  alpha Z        PSCENC =         3.18282462
  Ewald energy   TEWEN  =      -227.14127752
  -Hartree energ DENC   =       -14.62996643
  -exchange      EXHF   =         0.00000000
  -V(xc)+E(xc)   XCENC  =       -18.53355719
  PAW double counting   =        76.07092295      -40.75419350
  entropy T*S    EENTRO =         0.00244657
  eigenvalues    EBANDS =         5.12947910
  atomic energy  EATOM  =       206.60389906
  Solvation  Ediel_sol  =         0.00000000
  ---------------------------------------------------
  free energy    TOTEN  =       -10.06942233 eV

  energy without entropy =      -10.07186890  energy(sigma->0) =      -10.07023785


--------------------------------------------------------------------------------------------------------




--------------------------------------- Iteration      1(   5)  ---------------------------------------


     EDDAV:  cpu time    0.3883: real time    0.3893
       DOS:  cpu time    0.0056: real time    0.0056
    --------------------------------------------
      LOOP:  cpu time    0.3939: real time    0.3949

 eigenvalue-minimisations  :  3064
 total energy-change (2. order) :-0.3954307E-06  (-0.3947587E-06)
 number of electron       7.9999993 magnetization 
 augmentation part        7.9999993 magnetization 

 Free energy of the ion-electron system (eV)
  ---------------------------------------------------
  alpha Z        PSCENC =         3.18282462
  Ewald energy   TEWEN  =      -227.14127752
  -Hartree energ DENC   =       -14.62996643
  -exchange      EXHF   =         0.00000000
  -V(xc)+E(xc)   XCENC  =       -18.53355719
  PAW double counting   =        76.07092295      -40.75419350
  entropy T*S    EENTRO =         0.00244657
  eigenvalues    EBANDS =         5.12947871
  atomic energy  EATOM  =       206.60389906
  Solvation  Ediel_sol  =         0.00000000
  ---------------------------------------------------
  free energy    TOTEN  =       -10.06942272 eV

  energy without entropy =      -10.07186930  energy(sigma->0) =      -10.07023825


--------------------------------------------------------------------------------------------------------




--------------------------------------- Iteration      1(   6)  ---------------------------------------


     EDDAV:  cpu time    0.4829: real time    0.4844
       DOS:  cpu time    0.0056: real time    0.0056
    --------------------------------------------
      LOOP:  cpu time    0.4885: real time    0.4900

 eigenvalue-minimisations  :  3936
 total energy-change (2. order) :-0.3422173E-08  (-0.3874913E-08)
 number of electron       7.9999993 magnetization 
 augmentation part        7.9999993 magnetization 

 Free energy of the ion-electron system (eV)
  ---------------------------------------------------
  alpha Z        PSCENC =         3.18282462
  Ewald energy   TEWEN  =      -227.14127752
  -Hartree energ DENC   =       -14.62996643
  -exchange      EXHF   =         0.00000000
  -V(xc)+E(xc)   XCENC  =       -18.53355719
  PAW double counting   =        76.07092295      -40.75419350
  entropy T*S    EENTRO =         0.00244657
  eigenvalues    EBANDS =         5.12947870
  atomic energy  EATOM  =       206.60389906
  Solvation  Ediel_sol  =         0.00000000
  ---------------------------------------------------
  free energy    TOTEN  =       -10.06942273 eV

  energy without entropy =      -10.07186930  energy(sigma->0) =      -10.07023825


--------------------------------------------------------------------------------------------------------




 average (electrostatic) potential at core
  the test charge radii are     0.9892
  (the norm of the test charge is              1.0000)
       1 -83.9563       2 -83.9563
 
 
 
 E-fermi :   5.6669     XC(G=0):  -9.3948     alpha+bet :-11.7766


 k-point     1 :       0.5000    0.2500    0.7500
  band No.  band energies     occupation 
      1      -2.0580      2.00000
      2      -2.0580      2.00000
      3       1.8041      2.00000
      4       1.8041      2.00000
      5       9.8742     -0.00000
      6       9.8742     -0.00000
      7      10.5218     -0.00000
      8      10.5219     -0.00000

 k-point     2 :       0.5000    0.2586    0.7414
  band No.  band energies     occupation 
      1      -2.1689      2.00000
      2      -1.9483      2.00000
      3       1.7268      2.00000
      4       1.8902      2.00000
      5       9.7797     -0.00000
      6       9.9325     -0.00000
      7      10.4577     -0.00000
      8      10.6328     -0.00000

 k-point     3 :       0.5000    0.2672    0.7328
  band No.  band energies     occupation 
      1      -2.2801      2.00000
      2      -1.8411      2.00000
      3       1.6598      2.00000
      4       1.9841      2.00000
      5       9.6730     -0.00000
      6       9.9229     -0.00000
      7      10.4720     -0.00000
      8      10.7667     -0.00000

 k-point     4 :       0.5000    0.2759    0.7241
  band No.  band energies     occupation 
      1      -2.3910      2.00000
      2      -1.7375      2.00000
      3       1.6042      2.00000
      4       2.0846      2.00000
      5       9.5631     -0.00000
      6       9.8506     -0.00000
      7      10.5581     -0.00000
      8      10.9125     -0.00000

 k-point     5 :       0.5000    0.2845    0.7155
  band No.  band energies     occupation 
      1      -2.5006      2.00000
      2      -1.6390      2.00000
      3       1.5617      2.00000
      4       2.1909      2.00000
      5       9.4570     -0.00000
      6       9.7490     -0.00000
      7      10.6842     -0.00000
      8      11.0671     -0.00000

 k-point     6 :       0.5000    0.2931    0.7069
  band No.  band energies     occupation 
      1      -2.6083      2.00000
      2      -1.5468      2.00000
      3       1.5341      2.00000
      4       2.3023      2.00000
      5       9.3559     -0.00000
      6       9.6365     -0.00000
      7      10.8334     -0.00000
      8      11.2281      0.00000

 k-point     7 :       0.5000    0.3017    0.6983
  band No.  band energies     occupation 
      1      -2.7137      2.00000
      2      -1.4627      2.00000
      3       1.5226      2.00000
      4       2.4173      2.00000
      5       9.2603     -0.00000
      6       9.5202     -0.00000
      7      10.9947     -0.00000
      8      11.3938      0.00000

 k-point     8 :       0.5000    0.3103    0.6897
  band No.  band energies     occupation 
      1      -2.8164      2.00000
      2      -1.3879      2.00000
      3       1.5287      2.00000
      4       2.5355      2.00000
      5       9.1713     -0.00000
      6       9.4047     -0.00000
      7      11.1658      0.00000
      8      11.5638      0.00000

 k-point     9 :       0.5000    0.3190    0.6810
  band No.  band energies     occupation 
      1      -2.9160      2.00000
      2      -1.3235      2.00000
      3       1.5535      2.00000
      4       2.6560      2.00000
      5       9.0894     -0.00000
      6       9.2908     -0.00000
      7      11.3449      0.00000
      8      11.7374      0.00000

 k-point    10 :       0.5000    0.3276    0.6724
  band No.  band energies     occupation 
      1      -3.0122      2.00000
      2      -1.2702      2.00000
      3       1.5978      2.00000
      4       2.7780      2.00000
      5       9.0141     -0.00000
      6       9.1793     -0.00000
      7      11.5317      0.00000
      8      11.9139      0.00000

 k-point    11 :       0.5000    0.3362    0.6638
  band No.  band energies     occupation 
      1      -3.1048      2.00000
      2      -1.2283      2.00000
      3       1.6615      2.00000
      4       2.9007      2.00000
      5       8.9477     -0.00000
      6       9.0703     -0.00000
      7      11.7240      0.00000
      8      12.0929      0.00000

 k-point    12 :       0.5000    0.3448    0.6552
  band No.  band energies     occupation 
      1      -3.1936      2.00000
      2      -1.1973      2.00000
      3       1.7443      2.00000
      4       3.0233      2.00000
      5       8.8894     -0.00000
      6       8.9640     -0.00000
      7      11.9210      0.00000
      8      12.2733      0.00000

 k-point    13 :       0.5000    0.3534    0.6466
  band No.  band energies     occupation 
      1      -3.2783      2.00000
      2      -1.1767      2.00000
      3       1.8454      2.00000
      4       3.1450      2.00000
      5       8.8397     -0.00000
      6       8.8599     -0.00000
      7      12.1069      0.00000
      8      12.2901      0.00000

 k-point    14 :       0.5000    0.3621    0.6379
  band No.  band energies     occupation 
      1      -3.3587      2.00000
      2      -1.1652      2.00000
      3       1.9633      2.00000
      4       3.2649      2.00000
      5       8.7580     -0.00000
      6       8.7987     -0.00000
      7      11.9194      0.00000
      8      12.3536      0.00000

 k-point    15 :       0.5000    0.3707    0.6293
  band No.  band energies     occupation 
      1      -3.4348      2.00000
      2      -1.1614      2.00000
      3       2.0968      2.00000
      4       3.3831      2.00000
      5       8.6593     -0.00000
      6       8.7674     -0.00000
      7      11.5996      0.00000
      8      12.5710      0.00000

 k-point    16 :       0.5000    0.3793    0.6207
  band No.  band energies     occupation 
      1      -3.5065      2.00000
      2      -1.1640      2.00000
      3       2.2436      2.00000
      4       3.4970      2.00000
      5       8.5596     -0.00000
      6       8.7443     -0.00000
      7      11.2840      0.00000
      8      12.7954      0.00000

 k-point    17 :       0.5000    0.3879    0.6121
  band No.  band energies     occupation 
      1      -3.5736      2.00000
      2      -1.1717      2.00000
      3       2.4020      2.00000
      4       3.6065      2.00000
      5       8.4595     -0.00000
      6       8.7290     -0.00000
      7      10.9762     -0.00000
      8      13.0193      0.00000

 k-point    18 :       0.5000    0.3966    0.6034
  band No.  band energies     occupation 
      1      -3.6360      2.00000
      2      -1.1829      2.00000
      3       2.5704      2.00000
      4       3.7110      2.00000
      5       8.3581     -0.00000
      6       8.7236     -0.00000
      7      10.6834     -0.00000
      8      13.2591      0.00000

 k-point    19 :       0.5000    0.4052    0.5948
  band No.  band energies     occupation 
      1      -3.6937      2.00000
      2      -1.1967      2.00000
      3       2.7471      2.00000
      4       3.8099      2.00000
      5       8.2535     -0.00000
      6       8.7266     -0.00000
      7      10.4062     -0.00000
      8      13.4676      0.00000

 k-point    20 :       0.5000    0.4138    0.5862
  band No.  band energies     occupation 
      1      -3.7465      2.00000
      2      -1.2118      2.00000
      3       2.9303      2.00000
      4       3.9021      2.00000
      5       8.1445     -0.00000
      6       8.7393     -0.00000
      7      10.1473     -0.00000
      8      13.5691      0.00000

 k-point    21 :       0.5000    0.4224    0.5776
  band No.  band energies     occupation 
      1      -3.7945      2.00000
      2      -1.2277      2.00000
      3       3.1172      2.00000
      4       3.9868      2.00000
      5       8.0283     -0.00000
      6       8.7571     -0.00000
      7       9.9101     -0.00000
      8      13.6519      0.00000

 k-point    22 :       0.5000    0.4310    0.5690
  band No.  band energies     occupation 
      1      -3.8376      2.00000
      2      -1.2435      2.00000
      3       3.3059      2.00000
      4       4.0637      2.00000
      5       7.9042     -0.00000
      6       8.7808     -0.00000
      7       9.6977     -0.00000
      8      13.6708      0.00000

 k-point    23 :       0.5000    0.4397    0.5603
  band No.  band energies     occupation 
      1      -3.8756      2.00000
      2      -1.2587      2.00000
      3       3.4940      2.00000
      4       4.1322      2.00000
      5       7.7716     -0.00000
      6       8.8075     -0.00000
      7       9.5123     -0.00000
      8      13.6605      0.00000

 k-point    24 :       0.5000    0.4483    0.5517
  band No.  band energies     occupation 
      1      -3.9087      2.00000
      2      -1.2728      2.00000
      3       3.6776      2.00000
      4       4.1921      2.00000
      5       7.6325     -0.00000
      6       8.8383     -0.00000
      7       9.3562     -0.00000
      8      13.6169      0.00000

 k-point    25 :       0.5000    0.4569    0.5431
  band No.  band energies     occupation 
      1      -3.9367      2.00000
      2      -1.2852      2.00000
      3       3.8533      2.00000
      4       4.2433      2.00000
      5       7.4909     -0.00000
      6       8.8699     -0.00000
      7       9.2307     -0.00000
      8      13.5541      0.00000

 k-point    26 :       0.5000    0.4655    0.5345
  band No.  band energies     occupation 
      1      -3.9597      2.00000
      2      -1.2958      2.00000
      3       4.0143      2.00000
      4       4.2851      2.00000
      5       7.3532     -0.00000
      6       8.8999     -0.00000
      7       9.1306     -0.00000
      8      13.4856      0.00000

 k-point    27 :       0.5000    0.4741    0.5259
  band No.  band energies     occupation 
      1      -3.9776      2.00000
      2      -1.3043      2.00000
      3       4.1542      2.00000
      4       4.3178      2.00000
      5       7.2287     -0.00000
      6       8.9261     -0.00000
      7       9.0558     -0.00000
      8      13.4222      0.00000

 k-point    28 :       0.5000    0.4828    0.5172
  band No.  band energies     occupation 
      1      -3.9904      2.00000
      2      -1.3105      2.00000
      3       4.2641      2.00000
      4       4.3411      2.00000
      5       7.1279     -0.00000
      6       8.9466     -0.00000
      7       9.0042     -0.00000
      8      13.3717      0.00000

 k-point    29 :       0.5000    0.4914    0.5086
  band No.  band energies     occupation 
      1      -3.9981      2.00000
      2      -1.3142      2.00000
      3       4.3351      2.00000
      4       4.3551      2.00000
      5       7.0616     -0.00000
      6       8.9596     -0.00000
      7       8.9740     -0.00000
      8      13.3394      0.00000

 k-point    30 :       0.5000    0.5000    0.5000
  band No.  band energies     occupation 
      1      -4.0001      2.00000
      2      -1.3153      2.00000
      3       4.3606      2.00000
      4       4.3606      2.00000
      5       7.0387     -0.00000
      6       8.9648     -0.00000
      7       8.9648     -0.00000
      8      13.3288      0.00000

 k-point    31 :       0.5000    0.5000    0.5000
  band No.  band energies     occupation 
      1      -4.0001      2.00000
      2      -1.3153      2.00000
      3       4.3606      2.00000
      4       4.3606      2.00000
      5       7.0387     -0.00000
      6       8.9648     -0.00000
      7       8.9648     -0.00000
      8      13.3288      0.00000

 k-point    32 :       0.4828    0.4828    0.4828
  band No.  band energies     occupation 
      1      -4.0170      2.00000
      2      -1.2919      2.00000
      3       4.3620      2.00000
      4       4.3620      2.00000
      5       7.0409     -0.00000
      6       8.9663     -0.00000
      7       8.9663     -0.00000
      8      13.3319      0.00000

 k-point    33 :       0.4655    0.4655    0.4655
  band No.  band energies     occupation 
      1      -4.0641      2.00000
      2      -1.2231      2.00000
      3       4.3683      2.00000
      4       4.3683      2.00000
      5       7.0483     -0.00000
      6       8.9729     -0.00000
      7       8.9729     -0.00000
      8      13.3422      0.00000

 k-point    34 :       0.4483    0.4483    0.4483
  band No.  band energies     occupation 
      1      -4.1377      2.00000
      2      -1.1134      2.00000
      3       4.3789      2.00000
      4       4.3789      2.00000
      5       7.0606     -0.00000
      6       8.9838     -0.00000
      7       8.9838     -0.00000
      8      13.3587      0.00000

 k-point    35 :       0.4310    0.4310    0.4310
  band No.  band energies     occupation 
      1      -4.2318      2.00000
      2      -0.9688      2.00000
      3       4.3937      2.00000
      4       4.3937      2.00000
      5       7.0778     -0.00000
      6       8.9984     -0.00000
      7       8.9984     -0.00000
      8      13.3803      0.00000

 k-point    36 :       0.4138    0.4138    0.4138
  band No.  band energies     occupation 
      1      -4.3409      2.00000
      2      -0.7948      2.00000
      3       4.4127      2.00000
      4       4.4127      2.00000
      5       7.1013     -0.00000
      6       9.0162     -0.00000
      7       9.0162     -0.00000
      8      13.4054      0.00000

 k-point    37 :       0.3966    0.3966    0.3966
  band No.  band energies     occupation 
      1      -4.4598      2.00000
      2      -0.5968      2.00000
      3       4.4359      2.00000
      4       4.4359      2.00000
      5       7.1281     -0.00000
      6       9.0363     -0.00000
      7       9.0363     -0.00000
      8      13.4301      0.00000

 k-point    38 :       0.3793    0.3793    0.3793
  band No.  band energies     occupation 
      1      -4.5845      2.00000
      2      -0.3789      2.00000
      3       4.4633      2.00000
      4       4.4633      2.00000
      5       7.1597     -0.00000
      6       9.0576     -0.00000
      7       9.0576     -0.00000
      8      13.4491      0.00000

 k-point    39 :       0.3621    0.3621    0.3621
  band No.  band energies     occupation 
      1      -4.7120      2.00000
      2      -0.1441      2.00000
      3       4.4948      2.00000
      4       4.4948      2.00000
      5       7.1960     -0.00000
      6       9.0788     -0.00000
      7       9.0788     -0.00000
      8      13.4519      0.00000

 k-point    40 :       0.3448    0.3448    0.3448
  band No.  band energies     occupation 
      1      -4.8399      2.00000
      2       0.1049      2.00000
      3       4.5302      2.00000
      4       4.5302      2.00000
      5       7.2367     -0.00000
      6       9.0968     -0.00000
      7       9.0968     -0.00000
      8      13.4220      0.00000

 k-point    41 :       0.3276    0.3276    0.3276
  band No.  band energies     occupation 
      1      -4.9664      2.00000
      2       0.3662      2.00000
      3       4.5697      2.00000
      4       4.5697      2.00000
      5       7.2820     -0.00000
      6       9.1128     -0.00000
      7       9.1128     -0.00000
      8      13.3379      0.00000

 k-point    42 :       0.3103    0.3103    0.3103
  band No.  band energies     occupation 
      1      -5.0899      2.00000
      2       0.6396      2.00000
      3       4.6133      2.00000
      4       4.6133      2.00000
      5       7.3315     -0.00000
      6       9.1232     -0.00000
      7       9.1232     -0.00000
      8      13.1868      0.00000

 k-point    43 :       0.2931    0.2931    0.2931
  band No.  band energies     occupation 
      1      -5.2098      2.00000
      2       0.9212      2.00000
      3       4.6604      2.00000
      4       4.6604      2.00000
      5       7.3849     -0.00000
      6       9.1258     -0.00000
      7       9.1258     -0.00000
      8      12.9791      0.00000

 k-point    44 :       0.2759    0.2759    0.2759
  band No.  band energies     occupation 
      1      -5.3251      2.00000
      2       1.2111      2.00000
      3       4.7112      2.00000
      4       4.7112      2.00000
      5       7.4422     -0.00000
      6       9.1185     -0.00000
      7       9.1185     -0.00000
      8      12.7229      0.00000

 k-point    45 :       0.2586    0.2586    0.2586
  band No.  band energies     occupation 
      1      -5.4352      2.00000
      2       1.5084      2.00000
      3       4.7653      2.00000
      4       4.7653      2.00000
      5       7.5028     -0.00000
      6       9.0994     -0.00000
      7       9.0994     -0.00000
      8      12.4463      0.00000

 k-point    46 :       0.2414    0.2414    0.2414
  band No.  band energies     occupation 
      1      -5.5396      2.00000
      2       1.8121      2.00000
      3       4.8226      2.00000
      4       4.8226      2.00000
      5       7.5650     -0.00000
      6       9.0680     -0.00000
      7       9.0680     -0.00000
      8      12.1522      0.00000

 k-point    47 :       0.2241    0.2241    0.2241
  band No.  band energies     occupation 
      1      -5.6378      2.00000
      2       2.1214      2.00000
      3       4.8826      2.00000
      4       4.8826      2.00000
      5       7.6303     -0.00000
      6       9.0219     -0.00000
      7       9.0219     -0.00000
      8      11.8504      0.00000

 k-point    48 :       0.2069    0.2069    0.2069
  band No.  band energies     occupation 
      1      -5.7296      2.00000
      2       2.4353      2.00000
      3       4.9450      2.00000
      4       4.9450      2.00000
      5       7.6983     -0.00000
      6       8.9626     -0.00000
      7       8.9626     -0.00000
      8      11.5444      0.00000

 k-point    49 :       0.1897    0.1897    0.1897
  band No.  band energies     occupation 
      1      -5.8148      2.00000
      2       2.7527      2.00000
      3       5.0092      2.00003
      4       5.0092      2.00003
      5       7.7675     -0.00000
      6       8.8913     -0.00000
      7       8.8913     -0.00000
      8      11.2349      0.00000

 k-point    50 :       0.1724    0.1724    0.1724
  band No.  band energies     occupation 
      1      -5.8930      2.00000
      2       3.0724      2.00000
      3       5.0746      2.00023
      4       5.0746      2.00023
      5       7.8369     -0.00000
      6       8.8103     -0.00000
      7       8.8103     -0.00000
      8      10.9236     -0.00000

 k-point    51 :       0.1552    0.1552    0.1552
  band No.  band energies     occupation 
      1      -5.9642      2.00000
      2       3.3936      2.00000
      3       5.1411      2.00128
      4       5.1411      2.00128
      5       7.9059     -0.00000
      6       8.7234     -0.00000
      7       8.7234     -0.00000
      8      10.6122     -0.00000

 k-point    52 :       0.1379    0.1379    0.1379
  band No.  band energies     occupation 
      1      -6.0283      2.00000
      2       3.7130      2.00000
      3       5.2063      2.00534
      4       5.2063      2.00534
      5       7.9722     -0.00000
      6       8.6317     -0.00000
      7       8.6317     -0.00000
      8      10.3025     -0.00000

 k-point    53 :       0.1207    0.1207    0.1207
  band No.  band energies     occupation 
      1      -6.0850      2.00000
      2       4.0286      2.00000
      3       5.2709      2.01704
      4       5.2709      2.01704
      5       8.0345     -0.00000
      6       8.5400     -0.00000
      7       8.5400     -0.00000
      8       9.9974     -0.00000

 k-point    54 :       0.1034    0.1034    0.1034
  band No.  band energies     occupation 
      1      -6.1342      2.00000
      2       4.3384      2.00000
      3       5.3314      2.03907
      4       5.3314      2.03907
      5       8.0913     -0.00000
      6       8.4511     -0.00000
      7       8.4511     -0.00000
      8       9.7010     -0.00000

 k-point    55 :       0.0862    0.0862    0.0862
  band No.  band energies     occupation 
      1      -6.1762      2.00000
      2       4.6342      2.00000
      3       5.3862      2.06330
      4       5.3862      2.06330
      5       8.1384     -0.00000
      6       8.3679     -0.00000
      7       8.3679     -0.00000
      8       9.4194     -0.00000

 k-point    56 :       0.0690    0.0690    0.0690
  band No.  band energies     occupation 
      1      -6.2105      2.00000
      2       4.9103      2.00000
      3       5.4354      2.06938
      4       5.4354      2.06938
      5       8.1726     -0.00000
      6       8.2946     -0.00000
      7       8.2946     -0.00000
      8       9.1626     -0.00000

 k-point    57 :       0.0517    0.0517    0.0517
  band No.  band energies     occupation 
      1      -6.2372      2.00000
      2       5.1555      2.00179
      3       5.4763      2.03908
      4       5.4763      2.03908
      5       8.1886     -0.00000
      6       8.2339     -0.00000
      7       8.2339     -0.00000
      8       8.9451     -0.00000

 k-point    58 :       0.0345    0.0345    0.0345
  band No.  band energies     occupation 
      1      -6.2564      2.00000
      2       5.3543      2.04956
      3       5.5071      1.97966
      4       5.5071      1.97966
      5       8.1827     -0.00000
      6       8.1883     -0.00000
      7       8.1883     -0.00000
      8       8.7847     -0.00000

 k-point    59 :       0.0172    0.0172    0.0172
  band No.  band energies     occupation 
      1      -6.2679      2.00000
      2       5.4859      2.02452
      3       5.5262      1.92208
      4       5.5262      1.92208
      5       8.1601     -0.00000
      6       8.1601     -0.00000
      7       8.1621     -0.00000
      8       8.6926     -0.00000

 k-point    60 :       0.0000    0.0000    0.0000
  band No.  band energies     occupation 
      1      -6.2717      2.00000
      2       5.5327      1.89860
      3       5.5327      1.89854
      4       5.5327      1.89854
      5       8.1505     -0.00000
      6       8.1505     -0.00000
      7       8.1505     -0.00000
      8       8.6641     -0.00000

 k-point    61 :       0.0000    0.0000    0.0000
  band No.  band energies     occupation 
      1      -6.2717      2.00000
      2       5.5327      1.89860
      3       5.5327      1.89854
      4       5.5327      1.89854
      5       8.1505     -0.00000
      6       8.1505     -0.00000
      7       8.1505     -0.00000
      8       8.6641     -0.00000

 k-point    62 :       0.0172    0.0000    0.0172
  band No.  band energies     occupation 
      1      -6.2666      2.00000
      2       5.4955      2.00639
      3       5.5113      1.96828
      4       5.5113      1.96826
      5       8.1378     -0.00000
      6       8.1782     -0.00000
      7       8.1782     -0.00000
      8       8.7006     -0.00000

 k-point    63 :       0.0345    0.0000    0.0345
  band No.  band energies     occupation 
      1      -6.2513      2.00000
      2       5.3890      2.06430
      3       5.4499      2.06371
      4       5.4499      2.06371
      5       8.1004     -0.00000
      6       8.2586     -0.00000
      7       8.2586     -0.00000
      8       8.8043     -0.00000

 k-point    64 :       0.0517    0.0000    0.0517
  band No.  band energies     occupation 
      1      -6.2257      2.00000
      2       5.2263      2.00787
      3       5.3559      2.05030
      4       5.3559      2.05030
      5       8.0406     -0.00000
      6       8.3854     -0.00000
      7       8.3855     -0.00000
      8       8.9613     -0.00000

 k-point    65 :       0.0690    0.0000    0.0690
  band No.  band energies     occupation 
      1      -6.1900      2.00000
      2       5.0198      2.00005
      3       5.2360      2.00941
      4       5.2360      2.00941
      5       7.9612     -0.00000
      6       8.5494     -0.00000
      7       8.5494     -0.00000
      8       9.1529     -0.00000

 k-point    66 :       0.0862    0.0000    0.0862
  band No.  band energies     occupation 
      1      -6.1441      2.00000
      2       4.7822      2.00000
      3       5.0989      2.00044
      4       5.0989      2.00044
      5       7.8657     -0.00000
      6       8.7427     -0.00000
      7       8.7427     -0.00000
      8       9.3600     -0.00000

 k-point    67 :       0.1034    0.0000    0.1034
  band No.  band energies     occupation 
      1      -6.0881      2.00000
      2       4.5237      2.00000
      3       4.9511      2.00001
      4       4.9511      2.00001
      5       7.7579     -0.00000
      6       8.9593     -0.00000
      7       8.9593     -0.00000
      8       9.5613     -0.00000

 k-point    68 :       0.1207    0.0000    0.1207
  band No.  band energies     occupation 
      1      -6.0221      2.00000
      2       4.2495      2.00000
      3       4.7955      2.00000
      4       4.7955      2.00000
      5       7.6408     -0.00000
      6       9.1929     -0.00000
      7       9.1929     -0.00000
      8       9.7300     -0.00000

 k-point    69 :       0.1379    0.0000    0.1379
  band No.  band energies     occupation 
      1      -5.9460      2.00000
      2       3.9656      2.00000
      3       4.6394      2.00000
      4       4.6394      2.00000
      5       7.5188     -0.00000
      6       9.4419     -0.00000
      7       9.4419     -0.00000
      8       9.8332     -0.00000

 k-point    70 :       0.1552    0.0000    0.1552
  band No.  band energies     occupation 
      1      -5.8598      2.00000
      2       3.6737      2.00000
      3       4.4836      2.00000
      4       4.4836      2.00000
      5       7.3942     -0.00000
      6       9.7011     -0.00000
      7       9.7011     -0.00000
      8       9.8402     -0.00000

 k-point    71 :       0.1724    0.0000    0.1724
  band No.  band energies     occupation 
      1      -5.7638      2.00000
      2       3.3773      2.00000
      3       4.3302      2.00000
      4       4.3302      2.00000
      5       7.2692     -0.00000
      6       9.7482     -0.00000
      7       9.9710     -0.00000
      8       9.9710     -0.00000

 k-point    72 :       0.1897    0.0000    0.1897
  band No.  band energies     occupation 
      1      -5.6579      2.00000
      2       3.0772      2.00000
[...]
      1      -2.0656      2.00000
      2      -2.0656      2.00000
      3       1.8395      2.00000
      4       1.8395      2.00000
      5       9.3458     -0.00000
      6       9.3458     -0.00000
      7      11.0901     -0.00000
      8      11.0901     -0.00000

 k-point   117 :       0.5000    0.2241    0.7241
  band No.  band energies     occupation 
      1      -2.0623      2.00000
      2      -2.0623      2.00000
      3       1.8241      2.00000
      4       1.8241      2.00000
      5       9.5208     -0.00000
      6       9.5208     -0.00000
      7      10.8982     -0.00000
      8      10.8982     -0.00000

 k-point   118 :       0.5000    0.2328    0.7328
  band No.  band energies     occupation 
      1      -2.0599      2.00000
      2      -2.0599      2.00000
      3       1.8130      2.00000
      4       1.8130      2.00000
      5       9.6842     -0.00000
      6       9.6842     -0.00000
      7      10.7220     -0.00000
      8      10.7220     -0.00000

 k-point   119 :       0.5000    0.2414    0.7414
  band No.  band energies     occupation 
      1      -2.0585      2.00000
      2      -2.0585      2.00000
      3       1.8063      2.00000
      4       1.8063      2.00000
      5       9.8172     -0.00000
      6       9.8172     -0.00000
      7      10.5814     -0.00000
      8      10.5814     -0.00000

 k-point   120 :       0.5000    0.2500    0.7500
  band No.  band energies     occupation 
      1      -2.0580      2.00000
      2      -2.0580      2.00000
      3       1.8041      2.00000
      4       1.8041      2.00000
      5       9.8742     -0.00000
      6       9.8742     -0.00000
      7      10.5218     -0.00000
      8      10.5219     -0.00000

 k-point   121 :       0.5000    0.2500    0.7500
  band No.  band energies     occupation 
      1      -2.0580      2.00000
      2      -2.0580      2.00000
      3       1.8041      2.00000
      4       1.8041      2.00000
      5       9.8742     -0.00000
      6       9.8742     -0.00000
      7      10.5218     -0.00000
      8      10.5219     -0.00000

 k-point   122 :       0.5000    0.2414    0.7414
  band No.  band energies     occupation 
      1      -2.0585      2.00000
      2      -2.0585      2.00000
      3       1.8063      2.00000
      4       1.8063      2.00000
      5       9.8172     -0.00000
      6       9.8172     -0.00000
      7      10.5814     -0.00000
      8      10.5814     -0.00000

 k-point   123 :       0.5000    0.2328    0.7328
  band No.  band energies     occupation 
      1      -2.0599      2.00000
      2      -2.0599      2.00000
      3       1.8130      2.00000
      4       1.8130      2.00000
      5       9.6842     -0.00000
      6       9.6842     -0.00000
      7      10.7220     -0.00000
      8      10.7220     -0.00000

 k-point   124 :       0.5000    0.2241    0.7241
  band No.  band energies     occupation 
      1      -2.0623      2.00000
      2      -2.0623      2.00000
      3       1.8241      2.00000
      4       1.8241      2.00000
      5       9.5208     -0.00000
      6       9.5208     -0.00000
      7      10.8982     -0.00000
      8      10.8982     -0.00000

 k-point   125 :       0.5000    0.2155    0.7155
  band No.  band energies     occupation 
      1      -2.0656      2.00000
      2      -2.0656      2.00000
      3       1.8395      2.00000
      4       1.8395      2.00000
      5       9.3458     -0.00000
      6       9.3458     -0.00000
      7      11.0901     -0.00000
      8      11.0901     -0.00000

 k-point   126 :       0.5000    0.2069    0.7069
  band No.  band energies     occupation 
      1      -2.0700      2.00000
      2      -2.0700      2.00000
      3       1.8591      2.00000
      4       1.8591      2.00000
      5       9.1673     -0.00000
      6       9.1673     -0.00000
      7      11.2903      0.00000
      8      11.2903      0.00000

 k-point   127 :       0.5000    0.1983    0.6983
  band No.  band energies     occupation 
      1      -2.0750      2.00000
      2      -2.0750      2.00000
      3       1.8829      2.00000
      4       1.8829      2.00000
      5       8.9888     -0.00000
      6       8.9888     -0.00000
      7      11.4969      0.00000
      8      11.4970      0.00000

 k-point   128 :       0.5000    0.1897    0.6897
  band No.  band energies     occupation 
      1      -2.0806      2.00000
      2      -2.0806      2.00000
      3       1.9108      2.00000
      4       1.9108      2.00000
      5       8.8118     -0.00000
      6       8.8119     -0.00000
      7      11.7096      0.00000
      8      11.7096      0.00000

 k-point   129 :       0.5000    0.1810    0.6810
  band No.  band energies     occupation 
      1      -2.0868      2.00000
      2      -2.0868      2.00000
      3       1.9425      2.00000
      4       1.9425      2.00000
      5       8.6377     -0.00000
      6       8.6377     -0.00000
      7      11.9237      0.00000
      8      11.9238      0.00000

 k-point   130 :       0.5000    0.1724    0.6724
  band No.  band energies     occupation 
      1      -2.0937      2.00000
      2      -2.0937      2.00000
      3       1.9775      2.00000
      4       1.9776      2.00000
      5       8.4654     -0.00000
      6       8.4654     -0.00000
      7      12.1396      0.00000
      8      12.1396      0.00000

 k-point   131 :       0.5000    0.1638    0.6638
  band No.  band energies     occupation 
      1      -2.1011      2.00000
      2      -2.1011      2.00000
      3       2.0159      2.00000
      4       2.0159      2.00000
      5       8.2964     -0.00000
      6       8.2965     -0.00000
      7      12.3572      0.00000
      8      12.3573      0.00000

 k-point   132 :       0.5000    0.1552    0.6552
  band No.  band energies     occupation 
      1      -2.1088      2.00000
      2      -2.1088      2.00000
      3       2.0572      2.00000
      4       2.0572      2.00000
      5       8.1313     -0.00000
      6       8.1313     -0.00000
      7      12.5763      0.00000
      8      12.5764      0.00000

 k-point   133 :       0.5000    0.1466    0.6466
  band No.  band energies     occupation 
      1      -2.1169      2.00000
      2      -2.1169      2.00000
      3       2.1011      2.00000
      4       2.1011      2.00000
      5       7.9703     -0.00000
      6       7.9704     -0.00000
      7      12.7951      0.00000
      8      12.7952      0.00000

 k-point   134 :       0.5000    0.1379    0.6379
  band No.  band energies     occupation 
      1      -2.1250      2.00000
      2      -2.1250      2.00000
      3       2.1474      2.00000
      4       2.1475      2.00000
      5       7.8139     -0.00000
      6       7.8140     -0.00000
      7      13.0158      0.00000
      8      13.0158      0.00000

 k-point   135 :       0.5000    0.1293    0.6293
  band No.  band energies     occupation 
      1      -2.1332      2.00000
      2      -2.1332      2.00000
      3       2.1957      2.00000
      4       2.1957      2.00000
      5       7.6625     -0.00000
      6       7.6625     -0.00000
      7      13.2365      0.00000
      8      13.2366      0.00000

 k-point   136 :       0.5000    0.1207    0.6207
  band No.  band energies     occupation 
      1      -2.1414      2.00000
      2      -2.1414      2.00000
      3       2.2454      2.00000
      4       2.2454      2.00000
      5       7.5164     -0.00000
      6       7.5165     -0.00000
      7      13.4569      0.00000
      8      13.4569      0.00000

 k-point   137 :       0.5000    0.1121    0.6121
  band No.  band energies     occupation 
      1      -2.1495      2.00000
      2      -2.1495      2.00000
      3       2.2962      2.00000
      4       2.2962      2.00000
      5       7.3762     -0.00000
      6       7.3762     -0.00000
      7      13.6761      0.00000
      8      13.6762      0.00000

 k-point   138 :       0.5000    0.1034    0.6034
  band No.  band energies     occupation 
      1      -2.1573      2.00000
      2      -2.1573      2.00000
      3       2.3476      2.00000
      4       2.3476      2.00000
      5       7.2426     -0.00000
      6       7.2426     -0.00000
      7      13.8944      0.00000
      8      13.8944      0.00000

 k-point   139 :       0.5000    0.0948    0.5948
  band No.  band energies     occupation 
      1      -2.1649      2.00000
      2      -2.1649      2.00000
      3       2.3989      2.00000
      4       2.3989      2.00000
      5       7.1155     -0.00000
      6       7.1155     -0.00000
      7      14.1086      0.00000
      8      14.1087      0.00000

 k-point   140 :       0.5000    0.0862    0.5862
  band No.  band energies     occupation 
      1      -2.1720      2.00000
      2      -2.1720      2.00000
      3       2.4494      2.00000
      4       2.4494      2.00000
      5       6.9958     -0.00000
      6       6.9958     -0.00000
      7      14.3183      0.00000
      8      14.3184      0.00000

 k-point   141 :       0.5000    0.0776    0.5776
  band No.  band energies     occupation 
      1      -2.1787      2.00000
      2      -2.1787      2.00000
      3       2.4986      2.00000
      4       2.4986      2.00000
      5       6.8842     -0.00000
      6       6.8842     -0.00000
      7      14.5215      0.00000
      8      14.5216      0.00000

 k-point   142 :       0.5000    0.0690    0.5690
  band No.  band energies     occupation 
      1      -2.1849      2.00000
      2      -2.1849      2.00000
      3       2.5457      2.00000
      4       2.5457      2.00000
      5       6.7813     -0.00000
      6       6.7814     -0.00000
      7      14.7154      0.00000
      8      14.7155      0.00000

 k-point   143 :       0.5000    0.0603    0.5603
  band No.  band energies     occupation 
      1      -2.1904      2.00000
      2      -2.1904      2.00000
      3       2.5904      2.00000
      4       2.5904      2.00000
      5       6.6894     -0.00000
      6       6.6894     -0.00000
      7      14.8991      0.00000
      8      14.8992      0.00000

 k-point   144 :       0.5000    0.0517    0.5517
  band No.  band energies     occupation 
      1      -2.1954      2.00000
      2      -2.1954      2.00000
      3       2.6309      2.00000
      4       2.6309      2.00000
      5       6.6063     -0.00000
      6       6.6063     -0.00000
      7      15.0624      0.00000
      8      15.0625      0.00000

 k-point   145 :       0.5000    0.0431    0.5431
  band No.  band energies     occupation 
      1      -2.1997      2.00000
      2      -2.1996      2.00000
      3       2.6671      2.00000
      4       2.6671      2.00000
      5       6.5343     -0.00000
      6       6.5343     -0.00000
      7      15.2037      0.00000
      8      15.2050      0.00000

 k-point   146 :       0.5000    0.0345    0.5345
  band No.  band energies     occupation 
      1      -2.2032      2.00000
      2      -2.2032      2.00000
      3       2.6983      2.00000
      4       2.6983      2.00000
      5       6.4744     -0.00000
      6       6.4744     -0.00000
      7      15.3188      0.00000
      8      15.3192      0.00000

 k-point   147 :       0.5000    0.0259    0.5259
  band No.  band energies     occupation 
      1      -2.2060      2.00000
      2      -2.2060      2.00000
      3       2.7231      2.00000
      4       2.7232      2.00000
      5       6.4268     -0.00000
      6       6.4268     -0.00000
      7      15.4047      0.00000
      8      15.4050      0.00000

 k-point   148 :       0.5000    0.0172    0.5172
  band No.  band energies     occupation 
      1      -2.2080      2.00000
      2      -2.2080      2.00000
      3       2.7414      2.00000
      4       2.7414      2.00000
      5       6.3922     -0.00000
      6       6.3922     -0.00000
      7      15.4632      0.00000
      8      15.4651      0.00000

 k-point   149 :       0.5000    0.0086    0.5086
  band No.  band energies     occupation 
      1      -2.2092      2.00000
      2      -2.2092      2.00000
      3       2.7528      2.00000
      4       2.7529      2.00000
      5       6.3717     -0.00001
      6       6.3717     -0.00001
      7      15.4984      0.00000
      8      15.4989      0.00000

 k-point   150 :       0.5000    0.0000    0.5000
  band No.  band energies     occupation 
      1      -2.2096      2.00000
      2      -2.2096      2.00000
      3       2.7566      2.00000
      4       2.7566      2.00000
      5       6.3647     -0.00001
      6       6.3647     -0.00001
      7      15.5093      0.00000
      8      15.5096      0.00000


--------------------------------------------------------------------------------------------------------


 soft charge-density along one line, spin component           1
         0         1         2         3         4         5         6         7         8         9
 total charge-density along one line
 
 pseudopotential strength for first ion, spin component:           1
 18.677   0.000  -0.001   0.000  -0.000   0.000  -0.000   0.000  -0.000   0.000   0.000   0.000   0.000   0.000   0.000   0.000
 -0.001   0.000   0.006   0.000   0.000   0.000   0.000   0.000   0.000   0.000  -0.000   0.000  -0.000   0.000  -0.000   0.000
 -0.000   0.000   0.000   0.000   4.235   0.000  -0.000   0.000  -0.000   0.000  -0.004   0.000   0.000   0.000   0.000   0.000
 -0.000   0.000   0.000   0.000  -0.000   0.000   4.235   0.000  -0.000   0.000   0.000   0.000  -0.004   0.000   0.000   0.000
 -0.000   0.000   0.000   0.000  -0.000   0.000  -0.000   0.000   4.235   0.000   0.000   0.000   0.000   0.000  -0.004   0.000
  0.000   0.000  -0.000   0.000  -0.004   0.000   0.000   0.000   0.000   0.000   0.005   0.000  -0.000   0.000  -0.000   0.000
  0.000   0.000  -0.000   0.000   0.000   0.000  -0.004   0.000   0.000   0.000  -0.000   0.000   0.005   0.000  -0.000   0.000
  0.000   0.000  -0.000   0.000   0.000   0.000   0.000   0.000  -0.004   0.000  -0.000   0.000  -0.000   0.000   0.005   0.000
 total augmentation occupancy for first ion, spin component:           1
  2.000   0.000   0.000   0.000   0.000   0.000   0.000   0.000
  0.000   0.000   0.000   0.000   0.000   0.000   0.000   0.000
  0.000   0.000   0.667   0.000   0.000   0.000   0.000   0.000
  0.000   0.000   0.000   0.667   0.000   0.000   0.000   0.000
  0.000   0.000   0.000   0.000   0.667   0.000   0.000   0.000
  0.000   0.000   0.000   0.000   0.000   0.000   0.000   0.000
  0.000   0.000   0.000   0.000   0.000   0.000   0.000   0.000
  0.000   0.000   0.000   0.000   0.000   0.000   0.000   0.000


------------------------ aborting loop because EDIFF is reached ----------------------------------------


    CHARGE:  cpu time    0.0359: real time    0.0360
    FORLOC:  cpu time    0.0016: real time    0.0016
    FORNL :  cpu time    0.0593: real time    0.0595
    STRESS:  cpu time    0.1782: real time    0.1786
    FORCOR:  cpu time    0.0216: real time    0.0216
    FORHAR:  cpu time    0.0051: real time    0.0051
    OFIELD:  cpu time    0.0002: real time    0.0002

  FORCE on cell =-STRESS in cart. coord.  units (eV):
  Direction    XX          YY          ZZ          XY          YZ          ZX
  --------------------------------------------------------------------------------------
  Alpha Z     3.18282     3.18282     3.18282
  Ewald     -75.71379   -75.71379   -75.71379     0.00000     0.00000    -0.00000
  Hartree     5.39798     5.39798     5.39798    -0.00000    -0.00000    -0.00000
  E(xc)     -25.29689   -25.29689   -25.29689     0.00001     0.00001     0.00001
  Local     -30.63237   -30.63237   -30.63237     0.00005     0.00005     0.00005
  n-local    80.42710    74.53785    79.29376    -1.09262    -0.83839    -1.09264
  augment   -11.66043   -11.66043   -11.66043    -0.00005    -0.00005    -0.00005
  Kinetic    57.74118    55.24961    60.80284    -1.46854    -1.31690    -1.46854
  Fock        0.00000     0.00000     0.00000     0.00000     0.00000     0.00000
  -------------------------------------------------------------------------------------
  Total       1.29476     1.29476     1.29476    -0.00000     0.00000     0.00000
  in kB      50.86595    50.86595    50.86595    -0.00000     0.00000     0.00000
  external pressure =       50.87 kB  Pullay stress =        0.00 kB


 VOLUME and BASIS-vectors are now :
 -----------------------------------------------------------------------------
  energy-cutoff  :      245.44
  volume of cell :       40.78
      direct lattice vectors                 reciprocal lattice vectors
     0.000000000  2.732000000  2.732000000    -0.183016105  0.183016105  0.183016105
     2.732000000  0.000000000  2.732000000     0.183016105 -0.183016105  0.183016105
     2.732000000  2.732000000  0.000000000     0.183016105  0.183016105 -0.183016105

  length of vectors
     3.863631452  3.863631452  3.863631452     0.316993193  0.316993193  0.316993193


 FORCES acting on ions
    electron-ion (+dipol)            ewald-force                    non-local-force                 convergence-correction
 -----------------------------------------------------------------------------------------------
   0.329E-05 0.329E-05 0.329E-05   0.346E-14 0.392E-14 0.369E-14   -.694E-17 0.243E-16 -.520E-17   -.190E-07 -.190E-07 -.190E-07
   -.329E-05 -.329E-05 -.329E-05   -.339E-14 -.399E-14 -.439E-14   -.139E-16 -.347E-16 0.503E-16   0.190E-07 0.190E-07 0.190E-07
 -----------------------------------------------------------------------------------------------
   -.858E-15 -.663E-14 0.282E-14   0.708E-16 -.650E-16 -.707E-15   -.208E-16 -.104E-16 0.451E-16   0.650E-15 -.176E-16 -.496E-15
 
 
 POSITION                                       TOTAL-FORCE (eV/Angst)
 -----------------------------------------------------------------------------------
      0.00000      0.00000      0.00000         0.000000     -0.000000     -0.000000
      1.36600      1.36600      1.36600        -0.000000      0.000000      0.000000
 -----------------------------------------------------------------------------------
    total drift:                               -0.000000     -0.000000      0.000000


--------------------------------------------------------------------------------------------------------



  FREE ENERGIE OF THE ION-ELECTRON SYSTEM (eV)
  ---------------------------------------------------
  free  energy   TOTEN  =       -10.06942273 eV

  energy  without entropy=      -10.07186930  energy(sigma->0) =      -10.07023825
 


--------------------------------------------------------------------------------------------------------


    POTLOK:  cpu time    0.0220: real time    0.0221


--------------------------------------------------------------------------------------------------------


     LOOP+:  cpu time    2.8442: real time    2.8974
    4ORBIT:  cpu time    0.0000: real time    0.0000

 total amount of memory used by VASP MPI-rank0    45898. kBytes
=======================================================================

   base      :      30000. kBytes
   nonl-proj :       3544. kBytes
   fftplans  :       2224. kBytes
   grid      :       2752. kBytes
   one-center:          6. kBytes
   wavefun   :       7372. kBytes
 
  
  
 General timing and accounting informations for this job:
 ========================================================
  
                  Total CPU time used (sec):        3.157
                            User time (sec):        3.019
                          System time (sec):        0.138
                         Elapsed time (sec):        3.525
  
                   Maximum memory used (kb):       71236.
                   Average memory used (kb):           0.
  
                          Minor page faults:        10838
                          Major page faults:            0
                 Voluntary context switches:          283
