hcp Ru                                  
   2.70590000000000     
     1.000000    0.000000    0.000000
    -0.500000    0.866000    0.000000
     0.000000    0.000000    1.582300
   Ru
     2
Direct
  0.000000  0.000000  0.000000
  0.666670  0.333330  0.500000
 
   20   20   32
  81.049      77.461      68.214      56.551      45.012      34.454      25.064      17.524      12.696      10.527    
  9.9591      10.526      12.696      17.524      25.065      34.453      45.011      56.550      68.214      77.462    
  77.457      77.418      70.992      60.662      49.346      38.614      28.849      20.494      14.449      11.180    
  9.9886      9.9876      11.179      14.447      20.485      28.829      38.601      49.372      60.738      71.079    
  68.196      71.023      68.140      60.655      50.919      40.849      31.299      22.766      16.061      11.898    
  10.049      9.5343      10.049      11.900      16.062      22.753      31.271      40.834      50.947      60.721    
  56.508      60.737      60.747      56.536      49.368      40.843      32.116      23.952      17.168      12.534    
  10.143      9.2065      9.2057      10.145      12.543      17.180      23.954      32.098      40.808      49.329    
  44.945      49.444      51.104      49.510      45.029      38.587      31.228      23.909      17.544      12.911    
  10.250      9.0137      8.6268      9.0112      10.250      12.922      17.571      23.937      31.228      38.537    
  34.377      38.702      41.071      41.091      38.739      34.388      28.732      22.664      17.135      12.918    
  10.307      8.9344      8.3036      8.3023      8.9275      10.295      12.917      17.161      22.710      28.762    
  25.000      28.900      31.483      32.374      31.455      28.849      24.943      20.398      16.032      12.556    
  10.271      8.9363      8.1981      7.9708      8.1992      8.9257      10.244      12.529      16.032      20.434    
  17.482      20.503      22.865      24.130      24.103      22.806      20.457      17.481      14.457      11.930    
  10.162      9.0070      8.2883      7.9634      7.9697      8.2998      9.0062      10.136      11.884      14.419    
  12.674      14.429      16.076      17.232      17.636      17.217      16.077      14.467      12.732      11.202    
  10.037      9.1720      8.5957      8.2877      8.1964      8.3005      8.6217      9.1982      10.038      11.163    
  10.514      11.147      11.861      12.507      12.899      12.911      12.543      11.910      11.186      10.515    
  9.9387      9.4768      9.1719      9.0062      8.9343      8.9306      9.0079      9.1989      9.5250      9.9766    
  9.9485      9.9527      9.9913      10.070      10.169      10.226      10.197      10.098      9.9900      9.9132    
  9.8921      9.9387      10.038      10.162      10.270      10.302      10.243      10.134      10.039      9.9777    
  10.514      9.9516      9.4696      9.1131      8.8973      8.8063      8.8101      8.8959      9.0859      9.4208    
  9.9129      10.515      11.202      11.931      12.555      12.914      12.903      12.521      11.882      11.164    
  12.674      11.146      9.9894      9.1120      8.4976      8.1479      8.0329      8.1344      8.4709      9.0857    
  9.9894      11.185      12.732      14.458      16.034      17.134      17.536      17.149      16.034      14.421    
  17.482      14.426      11.861      10.071      8.8952      8.1466      7.7912      7.7845      8.1346      8.8959    
  10.098      11.909      14.465      17.481      20.401      22.668      23.904      23.930      22.727      20.447    
  25.000      20.490      16.074      12.515      10.170      8.7997      8.0345      7.7917      8.0337      8.8108    
  10.197      12.542      16.074      20.454      24.943      28.736      31.228      32.099      31.256      28.787    
  34.378      28.877      22.849      17.243      12.911      10.216      8.8010      8.1483      8.1497      8.8082    
  10.229      12.912      17.216      22.802      28.845      34.389      38.589      40.836      40.815      38.552    
  44.947      38.689      31.456      24.136      17.670      12.916      10.174      8.8988      8.5009      8.9010    
  10.174      12.905      17.644      24.107      31.455      38.738      45.030      49.366      50.901      49.301    
  56.511      49.476      41.065      32.372      24.152      17.261      12.527      10.078      9.1176      9.1185    
  10.077      12.519      17.249      24.151      32.391      41.101      49.514      56.538      60.649      60.640    
  68.198      60.822      51.152      41.090      31.498      22.891      16.102      11.877      9.9986      9.4772    
  9.9999      11.875      16.101      22.904      31.526      41.106      51.125      60.756      68.141      70.984    
  77.458      71.120      60.838      49.518      38.753      28.943      20.540      14.454      11.160      9.9616    
  9.9625      11.161      14.455      20.549      28.963      38.765      49.491      60.762      71.032      77.419    
  77.453      74.164      65.633      54.728      43.731      33.496      24.350      17.050      12.425      10.358    
  9.8060      10.358      12.425      17.051      24.351      33.496      43.730      54.727      65.633      74.164    
  74.161      74.124      68.210      58.611      47.916      37.578      28.070      19.949      14.126      11.005    
  9.8585      9.8576      11.004      14.125      19.940      28.051      37.566      47.941      58.682      68.292    
  65.619      68.228      65.565      58.606      49.429      39.770      30.489      22.181      15.698      11.712    
  9.9434      9.4412      9.9427      11.714      15.699      22.169      30.463      39.756      49.455      58.668    
  54.693      58.652      58.661      54.719      47.940      39.766      31.300      23.354      16.784      12.337    
  10.054      9.1457      9.1449      10.056      12.344      16.795      23.356      31.283      39.733      47.904    
  43.673      47.962      49.535      48.024      43.751      37.556      30.424      23.314      17.155      12.707    
  10.169      8.9760      8.6012      8.9737      10.168      12.717      17.179      23.340      30.425      37.509    
  33.429      37.603      39.881      39.900      37.638      33.439      27.963      22.087      16.753      12.713    
  10.227      8.9084      8.2998      8.2987      8.9022      10.216      12.712      16.777      22.130      27.991    
  24.293      28.057      30.551      31.410      30.524      28.009      24.239      19.861      15.672      12.357    
  10.189      8.9103      8.2019      7.9842      8.2031      8.9005      10.163      12.332      15.672      19.895    
  17.014      19.900      22.163      23.376      23.351      22.107      19.857      17.013      14.135      11.742    
  10.072      8.9699      8.2857      7.9774      7.9833      8.2963      8.9691      10.047      11.699      14.099    
  12.406      14.055      15.610      16.703      17.087      16.689      15.610      14.091      12.460      11.027    
  9.9324      9.1135      8.5724      8.2852      8.2004      8.2969      8.5965      9.1380      9.9328      10.990    
  10.346      10.928      11.585      12.182      12.544      12.556      12.215      11.631      10.964      10.347    
  9.8118      9.3874      9.1134      8.9693      8.9086      8.9051      8.9708      9.1387      9.4326      9.8474    
  9.7963      9.7812      9.8044      9.8661      9.9502      10.000      9.9759      9.8926      9.8030      9.7441    
  9.7433      9.8119      9.9326      10.072      10.187      10.223      10.162      10.046      9.9336      9.8484    
  10.346      9.7801      9.2982      8.9437      8.7292      8.6381      8.6417      8.7279      8.9182      9.2524    
  9.7439      10.347      11.027      11.743      12.357      12.710      12.699      12.324      11.697      10.991    
  12.406      10.927      9.8024      8.9426      8.3440      8.0044      7.8930      7.9919      8.3192      8.9180    
  9.8024      10.964      12.459      14.136      15.674      16.753      17.148      16.767      15.674      14.101    
  17.013      14.052      11.585      9.8666      8.7272      8.0033      7.6606      7.6544      7.9920      8.7279    
  9.8920      11.630      14.089      17.013      19.864      22.092      23.311      23.336      22.147      19.907    
  24.292      19.887      15.607      12.189      9.9503      8.6320      7.8946      7.6611      7.8937      8.6423    
  9.9760      12.214      15.607      19.853      24.239      27.968      30.427      31.288      30.453      28.015    
  33.430      28.034      22.146      16.713      12.555      9.9907      8.6332      8.0048      8.0061      8.6399    
  10.002      12.557      16.688      22.103      28.005      33.439      37.560      39.762      39.743      37.526    
  43.675      37.590      30.523      23.380      17.117      12.560      9.9543      8.7306      8.3471      8.7325    
  9.9543      12.550      17.092      23.353      30.522      37.635      43.753      47.940      49.417      47.880    
  54.695      47.989      39.872      31.405      23.395      16.729      12.200      9.8735      8.9478      8.9487    
  9.8724      12.192      16.718      23.394      31.423      39.906      48.025      54.721      58.603      58.594    
  65.620      58.729      49.575      39.894      30.561      22.184      15.633      11.599      9.8110      9.3052    
  9.8123      11.597      15.632      22.196      30.587      39.909      49.550      58.668      65.567      68.205    
  74.162      68.317      58.743      48.026      37.646      28.093      19.932      14.078      10.940      9.7894    
  9.7903      10.941      14.079      19.941      28.112      37.657      48.000      58.672      68.236      74.125    
  68.182      65.614      58.815      49.760      40.119      30.762      22.336      15.748      11.697      9.9008    
  9.3915      9.9004      11.697      15.749      22.336      30.762      40.118      49.759      58.815      65.614    
  65.613      65.583      60.911      53.088      43.929      34.618      25.847      18.424      13.244      10.533    
  9.5009      9.5000      10.532      13.244      18.418      25.832      34.609      43.949      53.146      60.978    
  58.810      60.894      58.766      53.088      45.292      36.690      28.163      20.526      14.694      11.202    
  9.6430      9.1776      9.6422      11.204      14.695      20.516      28.143      36.678      45.313      53.138    
  49.741      53.037      53.045      49.763      43.955      36.690      28.951      21.649      15.709      11.789    
  9.7957      8.9605      8.9598      9.7964      11.795      15.717      21.650      28.937      36.663      43.925    
  40.083      43.833      45.187      43.883      40.147      34.608      28.115      21.617      16.060      12.137    
  9.9270      8.8450      8.5026      8.8433      9.9266      12.144      16.080      21.639      28.115      34.570    
  30.717      34.475      36.507      36.522      34.503      30.725      25.766      20.453      15.685      12.142    
  9.9873      8.8038      8.2531      8.2525      8.7993      9.9786      12.141      15.705      20.488      25.790    
  22.296      25.664      27.900      28.672      27.879      25.625      22.252      18.357      14.675      11.806    
  9.9433      8.8056      8.1730      7.9794      8.1744      8.7980      9.9228      11.786      14.675      18.386    
  15.722      18.223      20.199      21.265      21.244      20.154      18.188      15.722      13.254      11.228    
  9.8101      8.8405      8.2422      7.9740      7.9787      8.2506      8.8397      9.7899      11.193      13.225    
  11.682      13.043      14.337      15.253      15.576      15.242      14.337      13.072      11.727      10.552    
  9.6341      8.9345      8.4798      8.2418      8.1719      8.2509      8.4990      8.9544      9.6344      10.522    
  9.8913      10.342      10.845      11.307      11.589      11.598      11.333      10.883      10.372      9.8921    
  9.4628      9.1338      8.9345      8.8401      8.8044      8.8014      8.8411      8.9552      9.1709      9.4920    
  9.3838      9.3178      9.2972      9.3156      9.3584      9.3895      9.3793      9.3371      9.2958      9.2871    
  9.3402      9.4629      9.6343      9.8102      9.9426      9.9850      9.9225      9.7894      9.6355      9.4930    
  9.8916      9.3167      8.8356      8.4847      8.2709      8.1780      8.1811      8.2701      8.4638      8.7978    
  9.2868      9.8919      10.552      11.229      11.807      12.141      12.132      11.781      11.192      10.523    
  11.682      10.341      9.2951      8.4836      7.9263      7.6121      7.5097      7.6022      7.9063      8.4635    
  9.2952      10.371      11.727      13.256      14.678      15.687      16.058      15.698      14.677      13.227    
  15.722      13.040      10.845      9.3155      8.2693      7.6114      7.3025      7.2975      7.6023      8.2699    
  9.3363      10.881      13.070      15.721      18.361      20.459      21.619      21.640      20.504      18.395    
  22.296      18.212      14.334      11.311      9.3581      8.1732      7.5112      7.3029      7.5102      8.1814    
  9.3791      11.332      14.333      18.184      22.252      25.772      28.123      28.949      28.144      25.811    
  30.717      25.644      20.183      15.259      11.596      9.3814      8.1742      7.6126      7.6134      8.1792    
  9.3905      11.598      15.238      20.147      25.619      30.725      34.616      36.696      36.680      34.587    
  40.085      34.459      27.872      21.263      15.597      11.600      9.3613      8.2720      7.9288      8.2735    
  9.3613      11.592      15.578      21.241      27.871      34.497      40.148      43.961      45.293      43.911    
  49.743      43.849      36.490      28.659      21.274      15.271      11.320      9.3210      8.4878      8.4886    
  9.3203      11.313      15.262      21.273      28.674      36.518      43.879      49.764      53.091      53.084    
  58.811      53.094      45.208      36.505      27.899      20.211      14.353      10.856      9.3019      8.8411    
  9.3034      10.854      14.352      20.220      27.920      36.517      45.188      53.044      58.767      60.912    
  65.614      60.962      53.101      43.872      34.497      25.685      18.244      13.059      10.351      9.3241    
  9.3249      10.352      13.060      18.251      25.700      34.506      43.851      53.043      60.895      65.584    
  56.479      54.686      49.767      42.772      34.770      26.666      19.405      13.941      10.726      9.2745    
  8.8312      9.2742      10.726      13.942      19.406      26.666      34.769      42.771      49.767      54.686    
  54.688      54.667      51.344      45.481      38.106      30.156      22.539      16.249      12.046      9.8977    
  9.0107      9.0098      9.8968      12.046      16.246      22.529      30.149      38.120      45.522      51.392    
  49.771      51.279      49.739      45.485      39.290      32.044      24.656      18.112      13.297      10.514    
  9.2167      8.8094      9.2157      10.515      13.298      18.105      24.641      32.036      39.305      45.521    
  42.770      45.309      45.315      42.786      38.133      32.048      25.389      19.130      14.187      11.040    
  9.4181      8.6878      8.6871      9.4182      11.044      14.193      19.131      25.379      32.028      38.112    
  34.757      37.824      38.910      37.860      34.803      30.158      24.626      19.110      14.501      11.348    
  9.5713      8.6341      8.3385      8.6331      9.5710      11.353      14.514      19.125      24.627      30.131    
  26.645      29.792      31.479      31.490      29.812      26.651      22.490      18.065      14.171      11.352    
  9.6340      8.6214      8.1509      8.1508      8.6190      9.6282      11.351      14.185      18.090      22.507    
  19.385      22.136      23.974      24.609      23.958      22.108      19.353      16.207      13.286      11.052    
  9.5826      8.6229      8.0916      7.9290      8.0930      8.6181      9.5686      11.038      13.286      16.228    
  13.927      15.850      17.389      18.226      18.211      17.357      15.826      13.927      12.056      10.533    
  9.4280      8.6314      8.1441      7.9255      7.9286      8.1497      8.6308      9.4139      10.508      12.035    
  10.717      11.675      12.594      13.251      13.484      13.243      12.595      11.697      10.749      9.9113    
  9.2103      8.6698      8.3235      8.1440      8.0911      8.1496      8.3363      8.6836      9.2106      9.8898    
  9.2683      9.5589      9.8605      10.136      10.307      10.313      10.155      9.8870      9.5798      9.2689    
  8.9838      8.7787      8.6700      8.6315      8.6225      8.6202      8.6319      8.6844      8.8051      9.0045    
  8.8261      8.6904      8.6036      8.5620      8.5532      8.5599      8.5678      8.5769      8.6022      8.6682    
  8.7949      8.9839      9.2107      9.4285      9.5828      9.6331      9.5691      9.4144      9.2120      9.0055    
  9.2685      8.6894      8.2102      7.8591      7.6400      7.5404      7.5428      7.6397      7.8443      8.1831    
  8.6680      9.2688      9.9117      10.534      11.054      11.352      11.347      11.036      10.508      9.8911    
  10.717      9.5573      8.6016      7.8581      7.3532      7.0691      6.9769      7.0625      7.3395      7.8441    
  8.6016      9.5790      10.749      12.057      13.289      14.175      14.502      14.183      13.289      12.036    
  13.926      11.673      9.8597      8.5613      7.6388      7.0688      6.8033      6.7999      7.0625      7.6394    
  8.5760      9.8854      11.695      13.927      16.211      18.072      19.117      19.131      18.103      16.235    
  19.384      15.842      12.592      10.139      8.5525      7.5374      6.9782      6.8036      6.9772      7.5428    
  8.5672      10.153      12.591      15.822      19.353      22.497      24.638      25.398      24.653      22.524    
  26.646      22.120      17.376      13.253      10.311      8.5538      7.5380      7.0696      7.0699      7.5411    
  8.5601      10.312      13.239      17.349      22.102      26.651      30.168      32.062      32.051      30.148    
  34.758      29.776      23.947      18.219      13.495      10.313      8.5546      7.6407      7.3549      7.6416    
  8.5546      10.307      13.482      18.204      23.947      29.802      34.803      38.145      39.304      38.109    
  42.772      37.829      31.457      24.590      18.225      13.261      10.144      8.5650      7.8610      7.8618    
  8.5648      10.140      13.254      18.225      24.602      31.477      37.850      42.787      45.495      45.490    
  49.772      45.342      38.912      31.464      23.962      17.391      12.603      9.8664      8.6062      8.2139    
  8.6076      9.8657      12.602      17.397      23.977      31.474      38.898      45.307      49.740      51.351    
  54.688      51.322      45.343      37.837      29.794      22.142      15.861      11.684      9.5641      8.6944    
  8.6951      9.5648      11.685      15.864      22.152      29.801      37.822      45.302      51.274      54.667    
  44.897      43.675      40.179      34.873      28.466      21.881      16.149      12.065      9.7572      8.6263    
  8.2668      8.6260      9.7573      12.065      16.149      21.880      28.465      34.872      40.178      43.676    
  43.678      43.665      41.361      37.055      31.291      24.856      18.743      13.910      10.842      9.2487    
  8.5221      8.5214      9.2480      10.843      13.909      18.738      24.852      31.299      37.080      41.390    
  40.187      41.251      40.168      37.061      32.293      26.491      20.548      15.442      11.864      9.8376    
  8.7933      8.4608      8.7923      9.8379      11.865      15.439      20.540      26.487      32.302      37.083    
  34.881      36.772      36.775      34.891      31.313      26.496      21.187      16.302      12.599      10.311    
  9.0424      8.4465      8.4460      9.0420      10.313      12.602      16.302      21.181      26.485      31.300    
  28.468      30.836      31.661      30.857      28.496      24.864      20.534      16.291      12.862      10.581    
  9.2221      8.4618      8.2241      8.4615      9.2219      10.583      12.869      16.299      20.534      24.848    
  21.877      24.285      25.576      25.583      24.297      21.880      18.720      15.417      12.590      10.583    
  9.2907      8.4810      8.1082      8.1086      8.4803      9.2877      10.582      12.598      15.432      18.730    
  16.142      18.131      19.475      19.943      19.466      18.115      16.123      13.889      11.859      10.318    
  9.2285      8.4821      8.0727      7.9473      8.0740      8.4799      9.2207      10.310      11.860      13.901    
  12.059      13.317      14.339      14.901      14.892      14.320      13.303      12.060      10.850      9.8488    
  9.0479      8.4608      8.1052      7.9456      7.9472      8.1081      8.4603      9.0398      9.8343      10.838    
  9.7531      10.297      10.814      11.185      11.317      11.180      10.814      10.310      9.7728      9.2573    
  8.7894      8.4363      8.2164      8.1053      8.0727      8.1078      8.2231      8.4442      8.7896      9.2443    
  8.6229      8.7491      8.8664      8.9619      9.0206      9.0241      8.9727      8.8820      8.7617      8.6234    
  8.5061      8.4428      8.4366      8.4612      8.4824      8.4808      8.4611      8.4450      8.4586      8.5186    
  8.2640      8.0478      7.8805      7.7649      7.7004      7.6834      7.7090      7.7735      7.8792      8.0342    
  8.2452      8.5063      8.7899      9.0488      9.2295      9.2912      9.2218      9.0410      8.7911      8.5194    
  8.6230      8.0469      7.5681      7.2097      6.9766      6.8648      6.8664      6.9767      7.2008      7.5517    
  8.0340      8.6233      9.2577      9.8501      10.320      10.585      10.582      10.310      9.8352      9.2455    
  9.7529      8.7478      7.8786      7.2088      6.7527      6.4932      6.4089      6.4897      6.7449      7.2005    
  7.8786      8.7611      9.7727      10.851      11.862      12.594      12.865      12.599      11.862      10.838    
  12.059      10.296      8.8652      7.7638      6.9759      6.4932      6.2687      6.2667      6.4896      6.9763    
  7.7726      8.8806      10.309      12.060      13.892      15.424      16.299      16.308      15.442      13.906    
  16.142      13.313      10.812      8.9624      7.6995      6.8632      6.4099      6.2688      6.4089      6.8662    
  7.7081      8.9708      10.811      13.300      16.123      18.726      20.547      21.200      20.555      18.742    
  21.877      18.120      14.330      11.185      9.0216      7.6794      6.8636      6.4937      6.4936      6.8649    
  7.6830      9.0225      11.176      14.314      18.109      21.880      24.874      26.514      26.507      24.862    
  28.470      24.272      19.455      14.893      11.321      9.0227      7.7007      6.9769      6.7536      6.9773    
  7.7007      9.0200      11.314      14.884      19.455      24.288      28.496      31.327      32.312      31.306    
  34.883      30.833      25.554      19.924      14.896      11.188      8.9652      7.7659      7.2104      7.2110    
  7.7661      8.9628      11.185      14.896      19.931      25.567      30.846      34.892      37.075      37.072    
  40.188      36.785      31.651      25.555      19.460      14.336      10.817      8.8689      7.8812      7.5702    
  7.8825      8.8686      10.816      14.339      19.469      25.562      31.644      36.764      40.169      41.370    
  43.679      41.272      36.781      30.831      24.276      18.128      13.320      10.301      8.7514      8.0497    
  8.0503      8.7521      10.301      13.322      18.133      24.280      30.822      36.757      41.243      43.666    
  34.344      33.474      30.925      26.949      22.106      17.240      13.214      10.505      8.9468      8.0897    
  7.8199      8.0896      8.9469      10.506      13.215      17.239      22.105      26.949      30.925      33.475    
  33.477      33.471      31.829      28.671      24.355      19.567      15.182      11.901      9.8804      8.7149    
  8.1656      8.1651      8.7145      9.8810      11.902      15.180      19.565      24.359      28.683      31.844    
  30.934      31.693      30.925      28.677      25.160      20.875      16.593      13.081      10.722      9.3109    
  8.5182      8.2688      8.5174      9.3108      10.723      13.080      16.590      20.873      25.164      28.687    
  26.959      28.318      28.319      26.964      24.370      20.879      17.104      13.757      11.322      9.7829    
  8.8308      8.3875      8.3871      8.8303      9.7833      11.323      13.757      17.101      20.874      24.364    
  22.113      23.787      24.370      23.798      22.126      19.575      16.589      13.753      11.538      10.045    
  9.0491      8.4938      8.3214      8.4938      9.0491      10.045      11.541      13.757      16.589      19.567    
  17.242      18.853      19.724      19.728      18.859      17.244      15.174      13.071      11.318      10.045    
  9.1289      8.5578      8.2979      8.2984      8.5582      9.1280      10.045      11.322      13.078      15.179    
  13.214      14.411      15.235      15.525      15.230      14.403      13.205      11.893      10.720      9.7857    
  9.0519      8.5586      8.2933      8.2127      8.2943      8.5581      9.0487      9.7822      10.721      11.899    
  10.504      11.141      11.666      11.959      11.954      11.657      11.134      10.505      9.8851      9.3160    
  8.8331      8.4939      8.2974      8.2123      8.2129      8.2985      8.4936      8.8296      9.3094      9.8792    
  8.9455      9.1624      9.3442      9.4706      9.5147      9.4680      9.3444      9.1690      8.9553      8.7193    
  8.5163      8.3832      8.3190      8.2977      8.2937      8.2982      8.3214      8.3867      8.5165      8.7131    
  8.0884      8.0372      7.9984      7.9657      7.9453      7.9469      7.9706      8.0057      8.0433      8.0887    
  8.1582      8.2607      8.3836      8.4946      8.5594      8.5585      8.4942      8.3874      8.2682      8.1641    
  7.8188      7.5103      7.2550      7.0622      6.9419      6.9025      6.9460      7.0661      7.2540      7.5036    
  7.8096      8.1583      8.5169      8.8342      9.0533      9.1304      9.0502      8.8312      8.5179      8.1648    
  8.0886      7.5098      7.0230      6.6486      6.3957      6.2690      6.2698      6.3959      6.6443      7.0148    
  7.5034      8.0887      8.7199      9.3174      9.7879      10.048      10.047      9.7841      9.3109      8.7142    
  8.9455      8.0363      7.2536      6.6480      6.2280      5.9834      5.9030      5.9820      6.2245      6.6441    
  7.2536      8.0428      8.9553      9.8864      10.723      11.322      11.542      11.325      10.723      9.8799    
  10.504      9.1617      7.9973      7.0612      6.3953      5.9835      5.7895      5.7886      5.9819      6.3955    
  7.0654      8.0046      9.1681      10.505      11.896      13.077      13.760      13.764      13.085      11.902    
  13.214      11.139      9.3430      7.9652      6.9411      6.2683      5.9036      5.7895      5.9029      6.2695    
  6.9451      7.9691      9.3423      11.132      13.205      15.179      16.599      17.115      16.602      15.186    
  17.244      14.405      11.661      9.4692      7.9447      6.9002      6.2685      5.9837      5.9835      6.2688    
  6.9018      7.9453      9.4651      11.653      14.399      17.245      19.583      20.894      20.891      19.577    
  22.115      18.845      15.222      11.952      9.5149      7.9452      6.9416      6.3958      6.2284      6.3958    
  6.9416      7.9442      9.5118      11.949      15.222      18.852      22.127      24.381      25.177      24.371    
  26.962      23.783      19.708      15.511      11.953      9.4704      7.9664      7.0622      6.6487      6.6491    
  7.0624      7.9654      9.4689      11.954      15.515      19.715      23.789      26.966      28.689      28.687    
  30.935      28.320      24.357      19.707      15.223      11.662      9.3449      7.9988      7.2547      7.0238    
  7.2556      7.9988      9.3440      11.663      15.227      19.711      24.354      28.310      30.926      31.838    
  33.478      31.700      28.315      23.777      18.842      14.406      11.141      9.1635      8.0377      7.5109    
  7.5113      8.0382      9.1633      11.141      14.408      18.844      23.773      28.304      31.686      33.471    
  25.043      24.429      22.638      19.884      16.631      13.515      11.070      9.4365      8.3664      7.7665    
  7.5792      7.7664      8.3665      9.4368      11.070      13.514      16.630      19.884      22.638      24.429    
  24.431      24.428      23.297      21.136      18.244      15.156      12.467      10.528      9.2411      8.4266    
  8.0488      8.0485      8.4264      9.2415      10.528      12.467      15.155      18.245      21.140      23.302    
  22.643      23.155      22.640      21.139      18.828      16.099      13.488      11.436      10.022      9.0598    