hcp Ru                                  
   2.70590000000000     
     1.000000    0.000000    0.000000
    -0.500000    0.866000    0.000000
     0.000000    0.000000    1.582300
   Ru
     2
Direct
  0.000000  0.000000  0.000000
  0.666670  0.333330  0.500000
 
   20   20   32
 0.81049049503E+02 0.77461375205E+02 0.68214069602E+02 0.56550550723E+02 0.45011633940E+02
 0.34453553797E+02 0.25064479503E+02 0.17523513134E+02 0.12696071603E+02 0.10526881693E+02
 0.99590626310E+01 0.10526379153E+02 0.12695759172E+02 0.17523803704E+02 0.25064899792E+02
 0.34453347816E+02 0.45010765192E+02 0.56549752863E+02 0.68213901171E+02 0.77461577628E+02
 0.77457428500E+02 0.77418406712E+02 0.70991549075E+02 0.60662415634E+02 0.49345767516E+02
 0.38613961965E+02 0.28849138687E+02 0.20493886784E+02 0.14448704301E+02 0.11179558701E+02
 0.99885788180E+01 0.99876040132E+01 0.11178580386E+02 0.14447490895E+02 0.20484770097E+02
 0.28829003793E+02 0.38601200582E+02 0.49372265775E+02 0.60737847005E+02 0.71078970630E+02
 0.68196212540E+02 0.71022646215E+02 0.68139501627E+02 0.60655291506E+02 0.50919152327E+02
 0.40848576557E+02 0.31298701738E+02 0.22766118417E+02 0.16060948574E+02 0.11897777848E+02
 0.10049233423E+02 0.95342661321E+01 0.10048641252E+02 0.11900223941E+02 0.16061685648E+02
 0.22752591987E+02 0.31271395060E+02 0.40833883494E+02 0.50947234963E+02 0.60721219107E+02
 0.56508448044E+02 0.60736612753E+02 0.60746594097E+02 0.56536458332E+02 0.49367780528E+02
 0.40843324384E+02 0.32116037026E+02 0.23952446113E+02 0.17168459748E+02 0.12534259208E+02
 0.10143443603E+02 0.92064997754E+01 0.92057036750E+01 0.10144748063E+02 0.12542603052E+02
 0.17179935836E+02 0.23954297919E+02 0.32098171387E+02 0.40808444323E+02 0.49329355993E+02
 0.44944877112E+02 0.49444321874E+02 0.51103872420E+02 0.49509812780E+02 0.45028682298E+02
 0.38586572387E+02 0.31227738832E+02 0.23908604854E+02 0.17544401989E+02 0.12911273200E+02
 0.10249987183E+02 0.90136565130E+01 0.86267827715E+01 0.90111538161E+01 0.10249545782E+02
 0.12921857719E+02 0.17570732553E+02 0.23937330423E+02 0.31228190235E+02 0.38536727771E+02
 0.34377184630E+02 0.38702153018E+02 0.41070890244E+02 0.41090903460E+02 0.38738997816E+02
 0.34387892704E+02 0.28731611558E+02 0.22664172107E+02 0.17134551976E+02 0.12917810208E+02
 0.10306539545E+02 0.89343556663E+01 0.83036373921E+01 0.83023337197E+01 0.89274525525E+01
 0.10294759657E+02 0.12916561494E+02 0.17160738848E+02 0.22709732080E+02 0.28762040077E+02
 0.24999872514E+02 0.28900219128E+02 0.31483214969E+02 0.32373606586E+02 0.31454880264E+02
 0.28848926169E+02 0.24942972322E+02 0.20397878825E+02 0.16031925566E+02 0.12555660323E+02
 0.10271429838E+02 0.89362902262E+01 0.81980600950E+01 0.79707623274E+01 0.81992401847E+01
 0.89256779625E+01 0.10244214129E+02 0.12529048741E+02 0.16032088153E+02 0.20434360106E+02
 0.17482331189E+02 0.20503124876E+02 0.22865318879E+02 0.24129714551E+02 0.24102660643E+02
 0.22805872975E+02 0.20457243283E+02 0.17481350896E+02 0.14457009821E+02 0.11930069388E+02
 0.10162275048E+02 0.90069759870E+01 0.82882773077E+01 0.79634032752E+01 0.79697312185E+01
 0.82997567065E+01 0.90061598869E+01 0.10135664539E+02 0.11883563059E+02 0.14418637480E+02
 0.12674254409E+02 0.14429131336E+02 0.16075964888E+02 0.17231584692E+02 0.17636380702E+02
 0.17216779223E+02 0.16076675531E+02 0.14466727870E+02 0.12731901119E+02 0.11202091767E+02
 0.10037499988E+02 0.91720023344E+01 0.85957088649E+01 0.82876795917E+01 0.81963838625E+01
 0.83004680687E+01 0.86217429771E+01 0.91982463936E+01 0.10037859818E+02 0.11163149971E+02
 0.10513811509E+02 0.11147364005E+02 0.11861006582E+02 0.12507457115E+02 0.12898526013E+02
 0.12910514306E+02 0.12542747163E+02 0.11910270387E+02 0.11185635054E+02 0.10514741495E+02
 0.99387006748E+01 0.94767911145E+01 0.91718942344E+01 0.90062491573E+01 0.89343039091E+01
 0.89306017609E+01 0.90079463983E+01 0.91989372126E+01 0.95250001048E+01 0.99766451081E+01
 0.99485416129E+01 0.99526932521E+01 0.99912611543E+01 0.10069872414E+02 0.10169414721E+02
 0.10226394966E+02 0.10196892271E+02 0.10098275093E+02 0.99899873806E+01 0.99131663425E+01
 0.98920728460E+01 0.99387445718E+01 0.10037619373E+02 0.10161980834E+02 0.10269739730E+02
 0.10302402147E+02 0.10242973144E+02 0.10134068350E+02 0.10038567321E+02 0.99776620955E+01
 0.10514141041E+02 0.99515932348E+01 0.94696126254E+01 0.91130714740E+01 0.88973460440E+01
 0.88062528238E+01 0.88101102652E+01 0.88958708603E+01 0.90858889470E+01 0.94208104019E+01
 0.99129320479E+01 0.10514566294E+02 0.11202378422E+02 0.11930774278E+02 0.12555499712E+02
 0.12914339756E+02 0.12902508734E+02 0.12520543597E+02 0.11881812657E+02 0.11164407793E+02
 0.12674283610E+02 0.11145691511E+02 0.99893590661E+01 0.91119669621E+01 0.84975969103E+01
 0.81479031081E+01 0.80329333395E+01 0.81343963516E+01 0.84708895497E+01 0.90857028427E+01
 0.99894129969E+01 0.11184812196E+02 0.12731617406E+02 0.14458319208E+02 0.16034221206E+02
 0.17133989529E+02 0.17535531635E+02 0.17148703520E+02 0.16033641769E+02 0.14421150254E+02
 0.17481861788E+02 0.14425864394E+02 0.11861441835E+02 0.10070551597E+02 0.88951828706E+01
 0.81466272160E+01 0.77911866243E+01 0.77845343901E+01 0.81345639897E+01 0.88958661074E+01
 0.10097711521E+02 0.11908756098E+02 0.14464805919E+02 0.17481174367E+02 0.20401032233E+02
 0.22667567595E+02 0.23903610982E+02 0.23930490630E+02 0.22726660834E+02 0.20446626544E+02
 0.24999663904E+02 0.20490420749E+02 0.16073968044E+02 0.12515090317E+02 0.10169655476E+02
 0.87997167586E+01 0.80344970874E+01 0.77917472120E+01 0.80336909313E+01 0.88108289307E+01
 0.10197175704E+02 0.12541664904E+02 0.16073595828E+02 0.20453924795E+02 0.24943188218E+02
 0.28735942116E+02 0.31228367530E+02 0.32099348608E+02 0.31256137809E+02 0.28786511279E+02
 0.34378200928E+02 0.28876604780E+02 0.22848765582E+02 0.17242918015E+02 0.12910911130E+02
 0.10216411967E+02 0.88009881175E+01 0.81482689698E+01 0.81497049509E+01 0.88082326572E+01
 0.10228533293E+02 0.12912159849E+02 0.17216169105E+02 0.22802273950E+02 0.28845410127E+02
 0.34388706465E+02 0.38589395933E+02 0.40835599727E+02 0.40815420663E+02 0.38552323657E+02
 0.44947154451E+02 0.38689114771E+02 0.31455874407E+02 0.24135809806E+02 0.17669774711E+02
 0.12915656041E+02 0.10173973771E+02 0.88988184404E+01 0.85009395460E+01 0.89009603458E+01
 0.10174004235E+02 0.12904915603E+02 0.17643537566E+02 0.24107118524E+02 0.31455082614E+02
 0.38738210465E+02 0.45030090058E+02 0.49366192099E+02 0.50901032124E+02 0.49301278320E+02
 0.56510990017E+02 0.49476009933E+02 0.41064729870E+02 0.32371890271E+02 0.24152300200E+02
 0.17261148917E+02 0.12527291786E+02 0.10078034225E+02 0.91176144919E+01 0.91185269019E+01
 0.10076784093E+02 0.12518579683E+02 0.17249211900E+02 0.24150661988E+02 0.32390786815E+02
 0.41100582339E+02 0.49514424780E+02 0.56538201048E+02 0.60649098069E+02 0.60639596507E+02
 0.68197992213E+02 0.60821660902E+02 0.51151634733E+02 0.41089721886E+02 0.31498301997E+02
 0.22890559113E+02 0.16102270192E+02 0.11876662579E+02 0.99985864097E+01 0.94771503116E+01
 0.99999164854E+01 0.11874723615E+02 0.16101200908E+02 0.22903514927E+02 0.31525833489E+02
 0.41105552555E+02 0.51124677712E+02 0.60756083279E+02 0.68141114172E+02 0.70984356218E+02
 0.77458197030E+02 0.71119534003E+02 0.60837603728E+02 0.49517928167E+02 0.38752574322E+02
 0.28942654618E+02 0.20540014539E+02 0.14453940284E+02 0.11160302539E+02 0.99616135481E+01
 0.99624826397E+01 0.11161161615E+02 0.14455296572E+02 0.20549403827E+02 0.28962743350E+02
 0.38764811688E+02 0.49490845240E+02 0.60762042755E+02 0.71032409000E+02 0.77419378339E+02
 0.77453287101E+02 0.74163911717E+02 0.65632763231E+02 0.54728233278E+02 0.43730722095E+02
 0.33496007103E+02 0.24350151278E+02 0.17050379833E+02 0.12425306962E+02 0.10358099220E+02
 0.98060272547E+01 0.10357617112E+02 0.12425020978E+02 0.17050684545E+02 0.24350564367E+02
 0.33495778587E+02 0.43729830775E+02 0.54727425117E+02 0.65632597334E+02 0.74164120071E+02
 0.74161000092E+02 0.74124379688E+02 0.68210278873E+02 0.58611396147E+02 0.47916094798E+02
 0.37578335194E+02 0.28069749456E+02 0.19948554284E+02 0.14125602232E+02 0.11005141992E+02
 0.98585218106E+01 0.98575573423E+01 0.11004173552E+02 0.14124573643E+02 0.19940266115E+02
 0.28051090534E+02 0.37566402948E+02 0.47940845739E+02 0.58682063614E+02 0.68292278895E+02
 0.65618543132E+02 0.68228396599E+02 0.65565361822E+02 0.58606275614E+02 0.49429220622E+02
 0.39769549346E+02 0.30488920081E+02 0.22181049825E+02 0.15698074741E+02 0.11711521424E+02
 0.99433884469E+01 0.94411778858E+01 0.99427239118E+01 0.11713750532E+02 0.15698858476E+02
 0.22168546474E+02 0.30463419323E+02 0.39755735091E+02 0.49455460113E+02 0.58668048948E+02
 0.54692853787E+02 0.58652034980E+02 0.58661415402E+02 0.54719170766E+02 0.47939614437E+02
 0.39765929037E+02 0.31300029293E+02 0.23353960941E+02 0.16784036837E+02 0.12336644073E+02
 0.10054441169E+02 0.91456812306E+01 0.91448946608E+01 0.10055558459E+02 0.12344332804E+02
 0.16794672467E+02 0.23355603022E+02 0.31283209101E+02 0.39733162863E+02 0.47903522986E+02
 0.43672827493E+02 0.47962148198E+02 0.49535210482E+02 0.48023587586E+02 0.43751413882E+02
 0.37556023622E+02 0.30424321740E+02 0.23313547774E+02 0.17154750883E+02 0.12707038656E+02
 0.10168713697E+02 0.89760338336E+01 0.86011564450E+01 0.89737482367E+01 0.10168294054E+02
 0.12716805530E+02 0.17179205005E+02 0.23340321865E+02 0.30424716159E+02 0.37509312999E+02
 0.33428626532E+02 0.37603461768E+02 0.39881377276E+02 0.39900161340E+02 0.37638017757E+02
 0.33438604010E+02 0.27962614325E+02 0.22087259991E+02 0.16752879488E+02 0.12713221001E+02
 0.10226739195E+02 0.89084417024E+01 0.82998257356E+01 0.82987140104E+01 0.89021865605E+01
 0.10215811402E+02 0.12712004008E+02 0.16777348517E+02 0.22129989557E+02 0.27991236888E+02
 0.24292657986E+02 0.28056932815E+02 0.30550756172E+02 0.31410470803E+02 0.30524247449E+02
 0.28008891092E+02 0.24239296870E+02 0.19860742317E+02 0.15671930800E+02 0.12356887672E+02
 0.10188780277E+02 0.89103318551E+01 0.82018878808E+01 0.79842347581E+01 0.82031184328E+01
 0.89005498168E+01 0.10163399575E+02 0.12332032927E+02 0.15672165769E+02 0.19895012630E+02
 0.17013548335E+02 0.19899620147E+02 0.22162837782E+02 0.23376485812E+02 0.23351146978E+02
 0.22107188060E+02 0.19856733088E+02 0.17012733223E+02 0.14134528438E+02 0.11742095993E+02
 0.10072067703E+02 0.89699403508E+01 0.82856916018E+01 0.79774200519E+01 0.79832908520E+01
 0.82963405940E+01 0.89691405104E+01 0.10047198235E+02 0.11698590260E+02 0.14098553531E+02
 0.12405575234E+02 0.14055496478E+02 0.15609652999E+02 0.16703070451E+02 0.17086630871E+02
 0.16689150664E+02 0.15610339008E+02 0.14090863316E+02 0.12459743854E+02 0.11026588788E+02
 0.99324175312E+01 0.91134977648E+01 0.85723528608E+01 0.82851628032E+01 0.82003738607E+01
 0.82969288814E+01 0.85965177517E+01 0.91380098362E+01 0.99327730380E+01 0.10990053541E+02
 0.10346034096E+02 0.10928495100E+02 0.11585095214E+02 0.12182200404E+02 0.12544389509E+02
 0.12555557628E+02 0.12215141288E+02 0.11631188743E+02 0.10964375244E+02 0.10346934207E+02
 0.98118485173E+01 0.93874163137E+01 0.91134265959E+01 0.89693306119E+01 0.89085818448E+01
 0.89050618723E+01 0.89708269932E+01 0.91387282252E+01 0.94326187360E+01 0.98474248062E+01
 0.97962822968E+01 0.97812251087E+01 0.98043572155E+01 0.98661316644E+01 0.99501903504E+01
 0.10000160754E+02 0.99758799730E+01 0.98926400225E+01 0.98030408004E+01 0.97440883683E+01
 0.97433042432E+01 0.98118982256E+01 0.99325772022E+01 0.10071900205E+02 0.10187378963E+02
 0.10223113912E+02 0.10162425509E+02 0.10045916186E+02 0.99335937319E+01 0.98484375126E+01
 0.10346341768E+02 0.97801293014E+01 0.92981874153E+01 0.89436972701E+01 0.87292158350E+01
 0.86380774319E+01 0.86417431915E+01 0.87279168061E+01 0.89182291397E+01 0.92523811953E+01
 0.97438500797E+01 0.10346757571E+02 0.11026887019E+02 0.11742879126E+02 0.12357018450E+02
 0.12710448191E+02 0.12699466357E+02 0.12324474225E+02 0.11697135624E+02 0.10991313636E+02
 0.12405567813E+02 0.10926813101E+02 0.98023993176E+01 0.89425924010E+01 0.83440307088E+01
 0.80043889299E+01 0.78930101938E+01 0.79918813750E+01 0.83191558257E+01 0.89180277747E+01
 0.98024468820E+01 0.10963542332E+02 0.12459449756E+02 0.14135858138E+02 0.15674475393E+02
 0.16753173065E+02 0.17147683516E+02 0.16767009333E+02 0.15673921834E+02 0.14100902468E+02
 0.17013031551E+02 0.14052353407E+02 0.11585302935E+02 0.98665788611E+01 0.87271890050E+01
 0.80032637179E+01 0.76606209393E+01 0.76544186444E+01 0.79920207433E+01 0.87278602719E+01
 0.98920140477E+01 0.11629627023E+02 0.14088898503E+02 0.17012522715E+02 0.19864065018E+02
 0.22091540689E+02 0.23310810452E+02 0.23335948164E+02 0.22146780449E+02 0.19906620596E+02
 0.24292386372E+02 0.19887479907E+02 0.15607468880E+02 0.12189002808E+02 0.99502719741E+01
 0.86320430198E+01 0.78945501294E+01 0.76611401351E+01 0.78936941823E+01 0.86423461329E+01
 0.99760015290E+01 0.12213856959E+02 0.15607022639E+02 0.19853167896E+02 0.24239441222E+02
 0.27967594384E+02 0.30427190038E+02 0.31287884640E+02 0.30453097591E+02 0.28014882514E+02
 0.33429550759E+02 0.28033983734E+02 0.22146347879E+02 0.16712804463E+02 0.12555439611E+02
 0.99906785599E+01 0.86332259033E+01 0.80047930505E+01 0.80060504402E+01 0.86398535474E+01
 0.10001976901E+02 0.12556668023E+02 0.16687764226E+02 0.22102664127E+02 0.28004568431E+02
 0.33439301717E+02 0.37560349440E+02 0.39762283040E+02 0.39743339221E+02 0.37525582764E+02
 0.43674973223E+02 0.37589518965E+02 0.30522816027E+02 0.23380131189E+02 0.17116532724E+02
 0.12559748186E+02 0.99542548309E+01 0.87305714609E+01 0.83471357845E+01 0.87325259986E+01
 0.99542831383E+01 0.12549807717E+02 0.17092137064E+02 0.23353377047E+02 0.30522092002E+02
 0.37635484663E+02 0.43752666638E+02 0.47940465145E+02 0.49416635264E+02 0.47879632033E+02
 0.54695234011E+02 0.47989356694E+02 0.39871779009E+02 0.31405159260E+02 0.23394995389E+02
 0.16729274693E+02 0.12200095251E+02 0.98735001168E+01 0.89478434425E+01 0.89487411914E+01
 0.98724198846E+01 0.12192011852E+02 0.16718160593E+02 0.23393579397E+02 0.31423051756E+02
 0.39905559453E+02 0.48025452954E+02 0.54720741273E+02 0.58602983800E+02 0.58594091879E+02
 0.65620167906E+02 0.58729104817E+02 0.49575319833E+02 0.39893960395E+02 0.30560846358E+02
 0.22183979097E+02 0.15633025132E+02 0.11599183876E+02 0.98109547381E+01 0.93051821152E+01
 0.98123209113E+01 0.11597424616E+02 0.15631906236E+02 0.22195947022E+02 0.30586620442E+02
 0.39908948661E+02 0.49550223748E+02 0.58667688143E+02 0.65566822014E+02 0.68205492108E+02
 0.74161672278E+02 0.68317207221E+02 0.58742502937E+02 0.48025797843E+02 0.37645725684E+02
 0.28093058813E+02 0.19932046399E+02 0.14077711649E+02 0.10940215947E+02 0.97894198393E+01
 0.97902805509E+01 0.10941074077E+02 0.14078901062E+02 0.19940625734E+02 0.28111676993E+02
 0.37657123079E+02 0.48000448340E+02 0.58671703886E+02 0.68235512920E+02 0.74125260901E+02
 0.68182287922E+02 0.65613573062E+02 0.58815052635E+02 0.49759880750E+02 0.40119142679E+02
 0.30761932145E+02 0.22336021003E+02 0.15748312204E+02 0.11696870753E+02 0.99007866967E+01
 0.93914900509E+01 0.99003622111E+01 0.11696657916E+02 0.15748653251E+02 0.22336409815E+02
 0.30761638247E+02 0.40118188644E+02 0.49759045418E+02 0.58814894820E+02 0.65613798116E+02
 0.65613127148E+02 0.65582952951E+02 0.60911019206E+02 0.53087957513E+02 0.43928513640E+02
 0.34618354462E+02 0.25846813350E+02 0.18424394543E+02 0.13244350782E+02 0.10533299770E+02
 0.95009393627E+01 0.95000148879E+01 0.10532370887E+02 0.13243793066E+02 0.18418265974E+02
 0.25832056124E+02 0.34608630915E+02 0.43948595398E+02 0.53145862037E+02 0.60978474664E+02
 0.58809563132E+02 0.60893656996E+02 0.58765851599E+02 0.53087555704E+02 0.45292155617E+02
 0.36689630286E+02 0.28163498533E+02 0.20525748026E+02 0.14693973133E+02 0.11202419628E+02
 0.96430323569E+01 0.91776013098E+01 0.96422018439E+01 0.11204081941E+02 0.14694857211E+02
 0.20515947096E+02 0.28142828097E+02 0.36678200029E+02 0.45313487939E+02 0.53138201666E+02
 0.49740783713E+02 0.53037447568E+02 0.53045215132E+02 0.49762550592E+02 0.43954794872E+02
 0.36689787423E+02 0.28950833564E+02 0.21648654797E+02 0.15708881287E+02 0.11789390826E+02
 0.97957383856E+01 0.89605476069E+01 0.89597980274E+01 0.97963807662E+01 0.11795352513E+02
 0.15717291540E+02 0.21649767057E+02 0.28936856214E+02 0.36662727705E+02 0.43924984533E+02
 0.40082884161E+02 0.43832866579E+02 0.45186924040E+02 0.43883435210E+02 0.40147473701E+02
 0.34608083222E+02 0.28115056626E+02 0.21617099073E+02 0.16060387123E+02 0.12136676916E+02
 0.99269843167E+01 0.88450290446E+01 0.85026037481E+01 0.88433126854E+01 0.99266249000E+01
 0.12144287457E+02 0.16079864975E+02 0.21638681771E+02 0.28115311242E+02 0.34569775044E+02
 0.30716615900E+02 0.34474515859E+02 0.36506701778E+02 0.36522181583E+02 0.34502926406E+02
 0.30724650796E+02 0.25766057915E+02 0.20452947114E+02 0.15684732540E+02 0.12141829658E+02
 0.99873050244E+01 0.88038286443E+01 0.82530958607E+01 0.82524724015E+01 0.87992604337E+01
 0.99786375961E+01 0.12140710936E+02 0.15704610503E+02 0.20488072421E+02 0.25789805227E+02
 0.22296020838E+02 0.25664301968E+02 0.27900306162E+02 0.28671798120E+02 0.27878669654E+02
 0.25624958033E+02 0.22252155215E+02 0.18357438548E+02 0.14674939384E+02 0.11806319601E+02
 0.99433209112E+01 0.88055760458E+01 0.81730292075E+01 0.79793884993E+01 0.81743636844E+01
 0.87979825784E+01 0.99228363498E+01 0.11786159485E+02 0.14675346053E+02 0.18385755904E+02
 0.15722165627E+02 0.18222563981E+02 0.20199096057E+02 0.21264657929E+02 0.21243907746E+02
 0.20153596533E+02 0.18187667447E+02 0.15721762221E+02 0.13254294026E+02 0.11228119774E+02
 0.98100790030E+01 0.88404582257E+01 0.82421880873E+01 0.79740165756E+01 0.79786734676E+01
 0.82506329121E+01 0.88397110548E+01 0.97898667693E+01 0.11192646968E+02 0.13224755150E+02
 0.11682285685E+02 0.13042922573E+02 0.14336572259E+02 0.15253045070E+02 0.15575763416E+02
 0.15241512067E+02 0.14337186914E+02 0.13072274538E+02 0.11727087082E+02 0.10551604116E+02
 0.96340639407E+01 0.89345223796E+01 0.84798111959E+01 0.82418376379E+01 0.81719373134E+01
 0.82509111006E+01 0.84990143226E+01 0.89544056132E+01 0.96344026624E+01 0.10521535810E+02
 0.98913084020E+01 0.10342301094E+02 0.10845340068E+02 0.11306681133E+02 0.11588639634E+02
 0.11597631566E+02 0.11333368580E+02 0.10882959373E+02 0.10371766623E+02 0.98921201786E+01
 0.94628130626E+01 0.91337587694E+01 0.89345457035E+01 0.88401479456E+01 0.88044325957E+01
 0.88014139748E+01 0.88411275593E+01 0.89551818757E+01 0.91708848449E+01 0.94920308051E+01
 0.93837689312E+01 0.93177697640E+01 0.92971941208E+01 0.93155993014E+01 0.93584252485E+01
 0.93894928951E+01 0.93793445089E+01 0.93370640294E+01 0.92957960694E+01 0.92870634769E+01
 0.93401660747E+01 0.94628797599E+01 0.96343275471E+01 0.98102346908E+01 0.99426463197E+01
 0.99849656393E+01 0.99225283474E+01 0.97893833550E+01 0.96354946076E+01 0.94930210948E+01
 0.98915635718E+01 0.93167032185E+01 0.88355610804E+01 0.84846587832E+01 0.82709295360E+01
 0.81779669908E+01 0.81811042532E+01 0.82700770524E+01 0.84637798869E+01 0.87978011517E+01
 0.92868207863E+01 0.98919488040E+01 0.10551938643E+02 0.11229083717E+02 0.11807121310E+02
 0.12140703421E+02 0.12131975645E+02 0.11780998429E+02 0.11191941171E+02 0.10522793960E+02
 0.11682199101E+02 0.10340627444E+02 0.92951336895E+01 0.84835718421E+01 0.79263022371E+01
 0.76121108718E+01 0.75097134703E+01 0.76022337238E+01 0.79062887360E+01 0.84635445287E+01
 0.92951647792E+01 0.10370928821E+02 0.11726786868E+02 0.13255643534E+02 0.14677966546E+02
 0.15686907378E+02 0.16057506192E+02 0.15698376708E+02 0.14677484226E+02 0.13226654247E+02
 0.15721558051E+02 0.13040173105E+02 0.10845012902E+02 0.93154773947E+01 0.82692668579E+01
 0.76113678977E+01 0.73024982107E+01 0.72974904752E+01 0.76023014760E+01 0.82698954943E+01
 0.93362960015E+01 0.10881327893E+02 0.13070281507E+02 0.15721496338E+02 0.18361043893E+02
 0.20459064941E+02 0.21619452660E+02 0.21639927884E+02 0.20503996967E+02 0.18395487685E+02
 0.22295633899E+02 0.18212125638E+02 0.14334093318E+02 0.11311416106E+02 0.93581292135E+01
 0.81732487833E+01 0.75111671992E+01 0.73029074234E+01 0.75102062621E+01 0.81814171083E+01
 0.93790805704E+01 0.11331673387E+02 0.14333469693E+02 0.18183690841E+02 0.22252158128E+02
 0.25772364820E+02 0.28122885725E+02 0.28949251553E+02 0.28143822401E+02 0.25810876551E+02
 0.30717361373E+02 0.25643606559E+02 0.20183340453E+02 0.15258967985E+02 0.11596379815E+02
 0.93814099451E+01 0.81741989510E+01 0.76125984985E+01 0.76134030319E+01 0.81792216403E+01
 0.93905238567E+01 0.11597538624E+02 0.15238493291E+02 0.20147200252E+02 0.25618993989E+02
 0.30725102504E+02 0.34615732003E+02 0.36695536757E+02 0.36679915117E+02 0.34587159285E+02
 0.40084755707E+02 0.34458977787E+02 0.27871888647E+02 0.21262782247E+02 0.15597027770E+02
 0.11599608293E+02 0.93612626271E+01 0.82719833823E+01 0.79287799209E+01 0.82734508478E+01
 0.93612846819E+01 0.11591774590E+02 0.15577510112E+02 0.21241177545E+02 0.27871332393E+02
 0.34496551880E+02 0.40148388920E+02 0.43961261532E+02 0.45292621883E+02 0.43911378365E+02
 0.49742812473E+02 0.43849162132E+02 0.36489580755E+02 0.28658587776E+02 0.21273594957E+02
 0.15271069412E+02 0.11319762027E+02 0.93209605914E+01 0.84877805808E+01 0.84886270822E+01
 0.93203082249E+01 0.11313334881E+02 0.15262133440E+02 0.21272739812E+02 0.28673743607E+02
 0.36517762518E+02 0.43879014725E+02 0.49763742816E+02 0.53091095793E+02 0.53083839136E+02
 0.58810844520E+02 0.53094237709E+02 0.45208476943E+02 0.36504791541E+02 0.27898977126E+02
 0.20210624396E+02 0.14352852485E+02 0.10855565037E+02 0.93019374082E+01 0.88411336485E+01
 0.93033681911E+01 0.10854269513E+02 0.14351626249E+02 0.20219985796E+02 0.27920048032E+02
 0.36517486163E+02 0.45188329548E+02 0.53043965041E+02 0.58766976726E+02 0.60911968227E+02
 0.65613583996E+02 0.60961633192E+02 0.53101433435E+02 0.43872137435E+02 0.34497244570E+02
 0.25685388117E+02 0.18244247264E+02 0.13058821153E+02 0.10350993380E+02 0.93240888161E+01
 0.93249153277E+01 0.10351836929E+02 0.13059587656E+02 0.18250713725E+02 0.25700113214E+02
 0.34506397654E+02 0.43851415523E+02 0.53043391132E+02 0.60894509258E+02 0.65583635542E+02
 0.56478853786E+02 0.54686170103E+02 0.49767134498E+02 0.42772057764E+02 0.34769682339E+02
 0.26666307586E+02 0.19405410350E+02 0.13941351785E+02 0.10725613473E+02 0.92745318250E+01
 0.88312273631E+01 0.92741960580E+01 0.10725509520E+02 0.13941743077E+02 0.19405764272E+02
 0.26665931747E+02 0.34768661088E+02 0.42771204972E+02 0.49766998901E+02 0.54686420890E+02
 0.54688181350E+02 0.54666573789E+02 0.51344088084E+02 0.45480995988E+02 0.38106362421E+02
 0.30156292066E+02 0.22539164337E+02 0.16249421004E+02 0.12046055384E+02 0.98976514274E+01
 0.90106610625E+01 0.90098260447E+01 0.98968148877E+01 0.12046053526E+02 0.16245982738E+02
 0.22529430514E+02 0.30149471948E+02 0.38120316592E+02 0.45522021254E+02 0.51392242753E+02
 0.49770556815E+02 0.51279166853E+02 0.49739413173E+02 0.45485153815E+02 0.39290353315E+02
 0.32044197368E+02 0.24655733295E+02 0.18111659320E+02 0.13296966235E+02 0.10514432944E+02
 0.92167138626E+01 0.88094434545E+01 0.92157415830E+01 0.10515384260E+02 0.13297912101E+02
 0.18105328775E+02 0.24641441666E+02 0.32036018215E+02 0.39305290092E+02 0.45521087617E+02
 0.42770037434E+02 0.45309425527E+02 0.45315047653E+02 0.42785737508E+02 0.38133019059E+02
 0.32047837804E+02 0.25389311618E+02 0.19130490008E+02 0.14187180826E+02 0.11040176821E+02
 0.94180763265E+01 0.86877921788E+01 0.86871223327E+01 0.94181626481E+01 0.11043932193E+02
 0.14192724888E+02 0.19130999815E+02 0.25379224462E+02 0.32028461202E+02 0.38111616239E+02
 0.34756674043E+02 0.37823991188E+02 0.38909868557E+02 0.37860122484E+02 0.34802690595E+02
 0.30157983738E+02 0.24626420741E+02 0.19109845997E+02 0.14501127586E+02 0.11348209538E+02
 0.95713117241E+01 0.86341177805E+01 0.83385497155E+01 0.86331184580E+01 0.95710387235E+01
 0.11353068979E+02 0.14514172720E+02 0.19124671066E+02 0.24626533490E+02 0.30130819137E+02
 0.26645113188E+02 0.29791526093E+02 0.31479333821E+02 0.31490407548E+02 0.29811762213E+02
 0.26650615505E+02 0.22489667702E+02 0.18064502329E+02 0.14171445750E+02 0.11351827936E+02
 0.96339506998E+01 0.86214342437E+01 0.81508993716E+01 0.81508489484E+01 0.86189615030E+01
 0.96282146377E+01 0.11350881307E+02 0.14185283659E+02 0.18089507037E+02 0.22506861648E+02
 0.19384694752E+02 0.22136369183E+02 0.23973611668E+02 0.24609473600E+02 0.23958366122E+02
 0.22108498249E+02 0.19353432856E+02 0.16207364101E+02 0.13285899859E+02 0.11052253005E+02
 0.95826437281E+01 0.86229321275E+01 0.80916092955E+01 0.79290112758E+01 0.80929953341E+01
 0.86181365202E+01 0.95685817491E+01 0.11038268780E+02 0.13286468667E+02 0.16227719979E+02
 0.13927016374E+02 0.15850152181E+02 0.17388981886E+02 0.18225525968E+02 0.18210830886E+02
 0.17356857324E+02 0.15825736919E+02 0.13927068153E+02 0.12055809686E+02 0.10533081528E+02
 0.94279868792E+01 0.86314380068E+01 0.81441044145E+01 0.79255077216E+01 0.79285909301E+01
 0.81496944111E+01 0.86307876691E+01 0.94139149702E+01 0.10508219106E+02 0.12034824762E+02
 0.10716841919E+02 0.11675310049E+02 0.12594475706E+02 0.13251445868E+02 0.13483877323E+02
 0.13243112034E+02 0.12594980949E+02 0.11696583208E+02 0.10749104926E+02 0.99112991108E+01
 0.92103192811E+01 0.86698241019E+01 0.83235268319E+01 0.81439773969E+01 0.80910518544E+01
 0.81496225276E+01 0.83362983640E+01 0.86836169468E+01 0.92106238511E+01 0.98898469497E+01
 0.92682684089E+01 0.95588606619E+01 0.98605346054E+01 0.10136346072E+02 0.10306634392E+02
 0.10312807222E+02 0.10154874129E+02 0.98869963723E+01 0.95798119524E+01 0.92689367271E+01
 0.89837680850E+01 0.87786704761E+01 0.86699623905E+01 0.86314926542E+01 0.86225336690E+01
 0.86202167688E+01 0.86318512595E+01 0.86844286235E+01 0.88050543567E+01 0.90045375933E+01
 0.88260594293E+01 0.86903638445E+01 0.86036371539E+01 0.85620268147E+01 0.85531800171E+01
 0.85598882350E+01 0.85678427857E+01 0.85769087179E+01 0.86022270861E+01 0.86682462209E+01
 0.87949277417E+01 0.89838605052E+01 0.92107075169E+01 0.94285305541E+01 0.95828340530E+01
 0.96331371599E+01 0.95690513585E+01 0.94143759342E+01 0.92119836910E+01 0.90054647898E+01
 0.92684635758E+01 0.86893851755E+01 0.82101808144E+01 0.78591496784E+01 0.76400316875E+01
 0.75404232705E+01 0.75428176389E+01 0.76396966043E+01 0.78443339982E+01 0.81831281485E+01
 0.86680141627E+01 0.92687944345E+01 0.99116973804E+01 0.10534234380E+02 0.11053718905E+02
 0.11352403298E+02 0.11346598039E+02 0.11035977903E+02 0.10508414895E+02 0.98910781275E+01
 0.10716693722E+02 0.95572832609E+01 0.86015784905E+01 0.78581416472E+01 0.73532009904E+01
 0.70690549498E+01 0.69769208331E+01 0.70625246163E+01 0.73394821157E+01 0.78440727302E+01
 0.86015896911E+01 0.95790208776E+01 0.10748852022E+02 0.12057122849E+02 0.13289162713E+02
 0.14175170789E+02 0.14502291124E+02 0.14183464787E+02 0.13288780827E+02 0.12036133354E+02
 0.13926381834E+02 0.11673207787E+02 0.98596795263E+01 0.85613021364E+01 0.76388468024E+01
 0.70687551047E+01 0.68033177089E+01 0.67998602066E+01 0.70625095410E+01 0.76393877943E+01
 0.85760216011E+01 0.98854009521E+01 0.11694753420E+02 0.13926824653E+02 0.16210955524E+02
 0.18071781707E+02 0.19116632911E+02 0.19130951606E+02 0.18103121063E+02 0.16234748267E+02
 0.19384297487E+02 0.15842398573E+02 0.12592070338E+02 0.10138715770E+02 0.85524985732E+01
 0.75373618966E+01 0.69781938261E+01 0.68035843672E+01 0.69771780435E+01 0.75428017379E+01
 0.85671829047E+01 0.10152926369E+02 0.12591275538E+02 0.15821822261E+02 0.19353388877E+02
 0.22496728112E+02 0.24638241729E+02 0.25397696256E+02 0.24652655928E+02 0.22523662787E+02
 0.26645801051E+02 0.22119811681E+02 0.17375549637E+02 0.13253448049E+02 0.10310614060E+02
 0.85537698994E+01 0.75380146566E+01 0.70695969550E+01 0.70698769474E+01 0.75410536503E+01
 0.85600557424E+01 0.10311642647E+02 0.13238988247E+02 0.17349462887E+02 0.22101668717E+02
 0.26650926174E+02 0.30168269141E+02 0.32062136648E+02 0.32050946106E+02 0.30147935689E+02
 0.34758385443E+02 0.29775982108E+02 0.23947387452E+02 0.18218906044E+02 0.13495436319E+02
 0.10312620187E+02 0.85546067926E+01 0.76407115354E+01 0.73548714765E+01 0.76415769584E+01
 0.85546205497E+01 0.10307475584E+02 0.13482225400E+02 0.18204014431E+02 0.23947029270E+02
 0.29802448454E+02 0.34803378211E+02 0.38144564724E+02 0.39303519557E+02 0.38109215637E+02
 0.42771811147E+02 0.37828657675E+02 0.31456577932E+02 0.24590176835E+02 0.18225111453E+02
 0.13260609179E+02 0.10143944417E+02 0.85650064448E+01 0.78610183664E+01 0.78617610334E+01
 0.85648389426E+01 0.10139629452E+02 0.13254487898E+02 0.18224914306E+02 0.24601594259E+02
 0.31477230313E+02 0.37850168917E+02 0.42786657697E+02 0.45495291145E+02 0.45490201164E+02
 0.49771568389E+02 0.45342229088E+02 0.38911904096E+02 0.31463985201E+02 0.23962096985E+02
 0.17391118283E+02 0.12603172998E+02 0.98664104432E+01 0.86061783017E+01 0.82139477287E+01
 0.86076004558E+01 0.98656768502E+01 0.12601882881E+02 0.17397158017E+02 0.23976976601E+02
 0.31473557613E+02 0.38898214254E+02 0.45306702622E+02 0.49740290826E+02 0.51350769627E+02
 0.54688464386E+02 0.51321673297E+02 0.45342812458E+02 0.37836912602E+02 0.29794283313E+02
 0.22142175311E+02 0.15860545026E+02 0.11684315123E+02 0.95640522483E+01 0.86943655921E+01
 0.86951140725E+01 0.95648442896E+01 0.11684595858E+02 0.15864388749E+02 0.22151899091E+02
 0.29800505255E+02 0.37822287397E+02 0.45301661795E+02 0.51273896224E+02 0.54667108270E+02
 0.44897124440E+02 0.43675253567E+02 0.40178504004E+02 0.34872871646E+02 0.28465598793E+02
 0.21880919924E+02 0.16149008798E+02 0.12065008271E+02 0.97572334388E+01 0.86262527941E+01
 0.82668415346E+01 0.86260274862E+01 0.97572553278E+01 0.12065446210E+02 0.16149321210E+02
 0.21880480975E+02 0.28464556274E+02 0.34872046269E+02 0.40178410772E+02 0.43675531029E+02
 0.43678492711E+02 0.43665330717E+02 0.41360524640E+02 0.37055226637E+02 0.31290956117E+02
 0.24855977164E+02 0.18743353983E+02 0.13910220752E+02 0.10842460661E+02 0.92486530473E+01