   2   2   0   0
  0.1357413E+02  0.2705900E-09  0.2705841E-09  0.4281546E-09  0.5000000E-15
  1.000000000000000E-004
  CAR 
 hcp Ru                                  
     12.83607344     -1.13738062  301      8.88279610      1.00000000
     -1.137  0.0000E+00  0.0000E+00
     -1.091  0.0000E+00  0.0000E+00
     -1.044  0.0000E+00  0.0000E+00
     -0.998  0.0000E+00  0.0000E+00
     -0.951  0.0000E+00  0.0000E+00
     -0.904  0.0000E+00  0.0000E+00
     -0.858  0.0000E+00  0.0000E+00
     -0.811  0.0000E+00  0.0000E+00
     -0.765 -0.8664E-30 -0.4036E-31
     -0.718 -0.3571E-28 -0.1704E-29
     -0.672 -0.1305E-26 -0.6249E-28
     -0.625 -0.4278E-25 -0.2055E-26
     -0.578 -0.1257E-23 -0.6061E-25
     -0.532 -0.3312E-22 -0.1603E-23
     -0.485 -0.7822E-21 -0.3803E-22
     -0.439 -0.1656E-19 -0.8093E-21
     -0.392 -0.3142E-18 -0.1544E-19
     -0.346 -0.5344E-17 -0.2644E-18
     -0.299 -0.7909E-16 -0.3948E-17
     -0.252 -0.1078E-14 -0.5418E-16
     -0.206 -0.1316E-13 -0.6671E-15
     -0.159 -0.1439E-12 -0.7369E-14
     -0.113 -0.1409E-11 -0.7299E-13
     -0.066 -0.1235E-10 -0.6483E-12
     -0.020 -0.9692E-10 -0.5163E-11
      0.027 -0.6805E-09 -0.3686E-10
      0.074 -0.4274E-08 -0.2359E-09
      0.120 -0.2400E-07 -0.1354E-08
      0.167 -0.1204E-06 -0.6961E-08
      0.213 -0.5392E-06 -0.3207E-07
      0.260 -0.2154E-05 -0.1324E-06
      0.307 -0.7662E-05 -0.4892E-06
      0.353 -0.2423E-04 -0.1618E-05
      0.400 -0.6796E-04 -0.4783E-05
      0.446 -0.1683E-03 -0.1262E-04
      0.493 -0.3660E-03 -0.2967E-04
      0.539 -0.6908E-03 -0.6184E-04
      0.586 -0.1109E-02 -0.1135E-03
      0.633 -0.1440E-02 -0.1806E-03
      0.679 -0.1296E-02 -0.2409E-03
      0.726 -0.8384E-04 -0.2448E-03
      0.772  0.2847E-02 -0.1122E-03
      0.819  0.7959E-02  0.2585E-03
      0.865  0.1528E-01  0.9702E-03
      0.912  0.2430E-01  0.2102E-02
      0.959  0.3406E-01  0.3688E-02
      1.005  0.4350E-01  0.5715E-02
      1.052  0.5185E-01  0.8130E-02
      1.098  0.5889E-01  0.1087E-01
      1.145  0.6504E-01  0.1390E-01
      1.192  0.7100E-01  0.1721E-01
      1.238  0.7726E-01  0.2081E-01
      1.285  0.8374E-01  0.2471E-01
      1.331  0.8986E-01  0.2889E-01
      1.378  0.9494E-01  0.3332E-01
      1.424  0.9877E-01  0.3792E-01
      1.471  0.1018E+00  0.4266E-01
      1.518  0.1052E+00  0.4756E-01
      1.564  0.1099E+00  0.5268E-01
      1.611  0.1163E+00  0.5809E-01
      1.657  0.1240E+00  0.6387E-01
      1.704  0.1320E+00  0.7002E-01
      1.750  0.1389E+00  0.7649E-01
      1.797  0.1439E+00  0.8319E-01
      1.844  0.1470E+00  0.9003E-01
      1.890  0.1491E+00  0.9698E-01
      1.937  0.1516E+00  0.1040E+00
      1.983  0.1557E+00  0.1113E+00
      2.030  0.1621E+00  0.1188E+00
      2.077  0.1705E+00  0.1268E+00
      2.123  0.1797E+00  0.1352E+00
      2.170  0.1880E+00  0.1439E+00
      2.216  0.1938E+00  0.1529E+00
      2.263  0.1961E+00  0.1621E+00
      2.309  0.1963E+00  0.1712E+00
      2.356  0.1988E+00  0.1805E+00
      2.403  0.2120E+00  0.1904E+00
      2.449  0.2471E+00  0.2019E+00
      2.496  0.3157E+00  0.2166E+00
      2.542  0.4257E+00  0.2364E+00
      2.589  0.5781E+00  0.2633E+00
      2.635  0.7672E+00  0.2991E+00
      2.682  0.9832E+00  0.3449E+00
      2.729  0.1215E+01  0.4015E+00
      2.775  0.1454E+01  0.4692E+00
      2.822  0.1693E+01  0.5480E+00
      2.868  0.1922E+01  0.6375E+00
      2.915  0.2132E+01  0.7369E+00
      2.961  0.2316E+01  0.8447E+00
      3.008  0.2467E+01  0.9597E+00
      3.055  0.2586E+01  0.1080E+01
      3.101  0.2681E+01  0.1205E+01
      3.148  0.2764E+01  0.1334E+01
      3.194  0.2848E+01  0.1466E+01
      3.241  0.2943E+01  0.1603E+01
      3.288  0.3047E+01  0.1745E+01
      3.334  0.3150E+01  0.1892E+01
      3.381  0.3237E+01  0.2043E+01
      3.427  0.3297E+01  0.2196E+01
      3.474  0.3319E+01  0.2351E+01
      3.520  0.3295E+01  0.2505E+01
      3.567  0.3217E+01  0.2654E+01
      3.614  0.3084E+01  0.2798E+01
      3.660  0.2909E+01  0.2933E+01
      3.707  0.2718E+01  0.3060E+01
      3.753  0.2541E+01  0.3178E+01
      3.800  0.2402E+01  0.3290E+01
      3.846  0.2305E+01  0.3398E+01
      3.893  0.2238E+01  0.3502E+01
      3.940  0.2180E+01  0.3604E+01
      3.986  0.2117E+01  0.3702E+01
      4.033  0.2052E+01  0.3798E+01
      4.079  0.2008E+01  0.3891E+01
      4.126  0.2019E+01  0.3985E+01
      4.173  0.2108E+01  0.4083E+01
      4.219  0.2272E+01  0.4189E+01
      4.266  0.2480E+01  0.4305E+01
      4.312  0.2684E+01  0.4430E+01
      4.359  0.2840E+01  0.4562E+01
      4.405  0.2924E+01  0.4698E+01
      4.452  0.2931E+01  0.4835E+01
      4.499  0.2867E+01  0.4968E+01
      4.545  0.2750E+01  0.5096E+01
      4.592  0.2604E+01  0.5218E+01
      4.638  0.2463E+01  0.5332E+01
      4.685  0.2363E+01  0.5443E+01
      4.731  0.2329E+01  0.5551E+01
      4.778  0.2364E+01  0.5661E+01
      4.825  0.2448E+01  0.5775E+01
      4.871  0.2551E+01  0.5894E+01
      4.918  0.2646E+01  0.6017E+01
      4.964  0.2722E+01  0.6144E+01
      5.011  0.2779E+01  0.6273E+01
      5.058  0.2824E+01  0.6405E+01
      5.104  0.2856E+01  0.6538E+01
      5.151  0.2865E+01  0.6671E+01
      5.197  0.2834E+01  0.6803E+01
      5.244  0.2751E+01  0.6932E+01
      5.290  0.2607E+01  0.7053E+01
      5.337  0.2406E+01  0.7165E+01
      5.384  0.2157E+01  0.7266E+01
      5.430  0.1883E+01  0.7353E+01
      5.477  0.1618E+01  0.7429E+01
      5.523  0.1408E+01  0.7494E+01
      5.570  0.1303E+01  0.7555E+01
      5.616  0.1342E+01  0.7617E+01
      5.663  0.1536E+01  0.7689E+01
      5.710  0.1865E+01  0.7776E+01
      5.756  0.2277E+01  0.7882E+01
      5.803  0.2709E+01  0.8008E+01
      5.849  0.3100E+01  0.8152E+01
      5.896  0.3410E+01  0.8311E+01
      5.943  0.3623E+01  0.8480E+01
      5.989  0.3737E+01  0.8654E+01
      6.036  0.3752E+01  0.8829E+01
      6.082  0.3671E+01  0.9000E+01
      6.129  0.3505E+01  0.9163E+01
      6.175  0.3276E+01  0.9316E+01
      6.222  0.3023E+01  0.9456E+01
      6.269  0.2788E+01  0.9586E+01
      6.315  0.2609E+01  0.9708E+01
      6.362  0.2517E+01  0.9825E+01
      6.408  0.2529E+01  0.9943E+01
      6.455  0.2647E+01  0.1007E+02
      6.501  0.2852E+01  0.1020E+02
      6.548  0.3101E+01  0.1034E+02
      6.595  0.3338E+01  0.1050E+02
      6.641  0.3501E+01  0.1066E+02
      6.688  0.3553E+01  0.1083E+02
      6.734  0.3484E+01  0.1099E+02
      6.781  0.3322E+01  0.1114E+02
      6.827  0.3115E+01  0.1129E+02
      6.874  0.2919E+01  0.1143E+02
      6.921  0.2778E+01  0.1155E+02
      6.967  0.2713E+01  0.1168E+02
      7.014  0.2725E+01  0.1181E+02
      7.060  0.2798E+01  0.1194E+02
      7.107  0.2911E+01  0.1207E+02
      7.154  0.3042E+01  0.1222E+02
      7.200  0.3171E+01  0.1236E+02
      7.247  0.3279E+01  0.1252E+02
      7.293  0.3345E+01  0.1267E+02
      7.340  0.3352E+01  0.1283E+02
      7.386  0.3296E+01  0.1298E+02
      7.433  0.3186E+01  0.1313E+02
      7.480  0.3041E+01  0.1327E+02
      7.526  0.2880E+01  0.1341E+02
      7.573  0.2713E+01  0.1353E+02
      7.619  0.2545E+01  0.1365E+02
      7.666  0.2379E+01  0.1376E+02
      7.712  0.2226E+01  0.1387E+02
      7.759  0.2098E+01  0.1396E+02
      7.806  0.2004E+01  0.1406E+02
      7.852  0.1943E+01  0.1415E+02
      7.899  0.1906E+01  0.1424E+02
      7.945  0.1888E+01  0.1432E+02
      7.992  0.1885E+01  0.1441E+02
      8.039  0.1902E+01  0.1450E+02
      8.085  0.1936E+01  0.1459E+02
      8.132  0.1974E+01  0.1468E+02
      8.178  0.1993E+01  0.1477E+02
      8.225  0.1972E+01  0.1487E+02
      8.271  0.1908E+01  0.1496E+02
      8.318  0.1819E+01  0.1504E+02
      8.365  0.1732E+01  0.1512E+02
      8.411  0.1673E+01  0.1520E+02
      8.458  0.1649E+01  0.1528E+02
      8.504  0.1656E+01  0.1535E+02
      8.551  0.1682E+01  0.1543E+02
      8.597  0.1715E+01  0.1551E+02
      8.644  0.1744E+01  0.1559E+02
      8.691  0.1759E+01  0.1567E+02
      8.737  0.1753E+01  0.1576E+02
      8.784  0.1724E+01  0.1584E+02
      8.830  0.1679E+01  0.1591E+02
      8.877  0.1632E+01  0.1599E+02
      8.924  0.1592E+01  0.1606E+02
      8.970  0.1565E+01  0.1614E+02
      9.017  0.1547E+01  0.1621E+02
      9.063  0.1537E+01  0.1628E+02
      9.110  0.1538E+01  0.1635E+02
      9.156  0.1559E+01  0.1643E+02
      9.203  0.1605E+01  0.1650E+02
      9.250  0.1670E+01  0.1658E+02
      9.296  0.1741E+01  0.1666E+02
      9.343  0.1805E+01  0.1674E+02
      9.389  0.1852E+01  0.1683E+02
      9.436  0.1885E+01  0.1692E+02
      9.482  0.1906E+01  0.1701E+02
      9.529  0.1923E+01  0.1710E+02
      9.576  0.1942E+01  0.1719E+02
      9.622  0.1967E+01  0.1728E+02
      9.669  0.2001E+01  0.1737E+02
      9.715  0.2044E+01  0.1747E+02
      9.762  0.2090E+01  0.1756E+02
      9.808  0.2132E+01  0.1766E+02
      9.855  0.2160E+01  0.1776E+02
      9.902  0.2169E+01  0.1786E+02
      9.948  0.2161E+01  0.1797E+02
      9.995  0.2150E+01  0.1807E+02
     10.041  0.2158E+01  0.1817E+02
     10.088  0.2201E+01  0.1827E+02
     10.135  0.2282E+01  0.1837E+02
     10.181  0.2392E+01  0.1849E+02
     10.228  0.2514E+01  0.1860E+02
     10.274  0.2632E+01  0.1873E+02
     10.321  0.2734E+01  0.1885E+02
     10.367  0.2813E+01  0.1898E+02
     10.414  0.2861E+01  0.1912E+02
     10.461  0.2867E+01  0.1925E+02
     10.507  0.2821E+01  0.1938E+02
     10.554  0.2713E+01  0.1951E+02
     10.600  0.2536E+01  0.1963E+02
     10.647  0.2284E+01  0.1973E+02
     10.693  0.1958E+01  0.1982E+02
     10.740  0.1569E+01  0.1990E+02
     10.787  0.1149E+01  0.1995E+02
     10.833  0.7419E+00  0.1999E+02
     10.880  0.3976E+00  0.2000E+02
     10.926  0.1492E+00  0.2001E+02
     10.973  0.3271E-02  0.2001E+02
     11.020 -0.5854E-01  0.2001E+02
     11.066 -0.6714E-01  0.2001E+02
     11.113 -0.5186E-01  0.2000E+02
     11.159 -0.3220E-01  0.2000E+02
     11.206 -0.1695E-01  0.2000E+02
     11.252 -0.7748E-02  0.2000E+02
     11.299 -0.3113E-02  0.2000E+02
     11.346 -0.1107E-02  0.2000E+02
     11.392 -0.3501E-03  0.2000E+02
     11.439 -0.9877E-04  0.2000E+02
     11.485 -0.2491E-04  0.2000E+02
     11.532 -0.5627E-05  0.2000E+02
     11.578 -0.1139E-05  0.2000E+02
     11.625 -0.2070E-06  0.2000E+02
     11.672 -0.3376E-07  0.2000E+02
     11.718 -0.4946E-08  0.2000E+02
     11.765 -0.6512E-09  0.2000E+02
     11.811 -0.7706E-10  0.2000E+02
     11.858 -0.8197E-11  0.2000E+02
     11.905 -0.7839E-12  0.2000E+02
     11.951 -0.6739E-13  0.2000E+02
     11.998 -0.5246E-14  0.2000E+02
     12.044 -0.3337E-15  0.2000E+02
     12.091 -0.1430E-16  0.2000E+02
     12.137  0.0000E+00  0.2000E+02
     12.184  0.0000E+00  0.2000E+02
     12.231  0.0000E+00  0.2000E+02
     12.277  0.0000E+00  0.2000E+02
     12.324  0.0000E+00  0.2000E+02
     12.370  0.0000E+00  0.2000E+02
     12.417  0.0000E+00  0.2000E+02
     12.463  0.0000E+00  0.2000E+02
     12.510  0.0000E+00  0.2000E+02
     12.557  0.0000E+00  0.2000E+02
     12.603  0.0000E+00  0.2000E+02
     12.650  0.0000E+00  0.2000E+02
     12.696  0.0000E+00  0.2000E+02
     12.743  0.0000E+00  0.2000E+02
     12.789  0.0000E+00  0.2000E+02
     12.836  0.0000E+00  0.2000E+02
