    2    2    1    1
  0.1357413E+02  0.2705900E-09  0.2705840E-09  0.4281546E-09  0.5000000E-15
  1.000000000000000E-004
  CAR 
 hcp Ru                                  
     16   8000     20
 
  0.2500000E-01  0.2500000E-01  0.2500000E-01  0.1250000E-03
    1        0.908848
    2        0.908897
    3        2.678108
    4        2.678119
    5        6.021114
    6        6.021117
    7        6.322611
    8        6.322614
    9        6.561653
   10        6.561657
   11        6.769989
   12        6.769995
   13        7.082883
   14        7.082888
   15        7.390996
   16        7.391000
   17        7.525860
   18        7.525864
   19        9.210310
   20        9.210334
 
 -0.2500000E-01 -0.2500000E-01  0.2500000E-01  0.1250000E-03
    1        0.908848
    2        0.908897
    3        2.678108
    4        2.678119
    5        6.021114
    6        6.021117
    7        6.322610
    8        6.322615
    9        6.561654
   10        6.561656
   11        6.769989
   12        6.769995
   13        7.082883
   14        7.082889
   15        7.390996
   16        7.391001
   17        7.525861
   18        7.525863
   19        9.210310
   20        9.210333
 
  0.2500000E-01 -0.5000000E-01 -0.2500000E-01  0.1250000E-03
    1        0.908848
    2        0.908897
    3        2.678109
    4        2.678120
    5        6.021136
    6        6.021139
    7        6.322578
    8        6.322581
    9        6.561662
   10        6.561666
   11        6.770016
   12        6.770020
   13        7.082856
   14        7.082861
   15        7.390991
   16        7.390996
   17        7.525865
   18        7.525868
   19        9.210355
   20        9.210378
 
 -0.2500000E-01  0.5000000E-01 -0.2500000E-01  0.1250000E-03
    1        0.908848
    2        0.908897
    3        2.678109
    4        2.678120
    5        6.021136
    6        6.021139
    7        6.322577
    8        6.322582
    9        6.561662
   10        6.561665
   11        6.770016
   12        6.770020
   13        7.082855
   14        7.082861
   15        7.390991
   16        7.390996
   17        7.525865
   18        7.525868
   19        9.210354
   20        9.210377
 
  0.7500000E-01  0.2500000E-01  0.2500000E-01  0.1250000E-03
    1        1.135022
    2        1.135071
    3        2.849652
    4        2.849662
    5        5.769766
    6        5.769768
    7        6.482061
    8        6.482066
    9        6.713018
   10        6.713022
   11        6.771889
   12        6.771893
   13        7.177241
   14        7.177246
   15        7.228046
   16        7.228049
   17        7.362666
   18        7.362673
   19        8.443051
   20        8.443072
 
 -0.7500000E-01 -0.2500000E-01  0.2500000E-01  0.1250000E-03
    1        1.135022
    2        1.135071
    3        2.849652
    4        2.849662
    5        5.769767
    6        5.769768
    7        6.482060
    8        6.482067
    9        6.713017
   10        6.713023
   11        6.771889
   12        6.771893
   13        7.177242
   14        7.177246
   15        7.228045
   16        7.228050
   17        7.362666
   18        7.362673
   19        8.443052
   20        8.443072
 
  0.7500000E-01 -0.1000000E+00 -0.2500000E-01  0.1250000E-03
    1        1.135020
    2        1.135070
    3        2.849657
    4        2.849667
    5        5.769793
    6        5.769795
    7        6.482003
    8        6.482008
    9        6.713104
   10        6.713107
   11        6.771887
   12        6.771895
   13        7.177171
   14        7.177176
   15        7.228037
   16        7.228040
   17        7.362666
   18        7.362676
   19        8.443086
   20        8.443107
 
 -0.7500000E-01  0.1000000E+00 -0.2500000E-01  0.1250000E-03
    1        1.135020
    2        1.135070
    3        2.849657
    4        2.849667
    5        5.769793
    6        5.769795
    7        6.482002
    8        6.482009
    9        6.713103
   10        6.713108
   11        6.771888
   12        6.771895
   13        7.177172
   14        7.177175
   15        7.228036
   16        7.228041
   17        7.362666
   18        7.362676
   19        8.443087
   20        8.443107
 
  0.1250000E+00  0.2500000E-01  0.2500000E-01  0.1250000E-03
    1        1.520444
    2        1.520493
    3        3.116505
    4        3.116514
    5        5.471780
    6        5.471781
    7        6.534131
    8        6.534137
    9        6.604105
   10        6.604112
   11        6.828188
   12        6.828193
   13        7.057950
   14        7.057957
   15        7.209597
   16        7.209608
   17        7.514214
   18        7.514223
   19        7.954933
   20        7.954946
 
 -0.1250000E+00 -0.2500000E-01  0.2500000E-01  0.1250000E-03
    1        1.520444
    2        1.520493
    3        3.116505
    4        3.116514
    5        5.471780
    6        5.471781
    7        6.534132
    8        6.534136
    9        6.604105
   10        6.604112
   11        6.828186
   12        6.828194
   13        7.057950
   14        7.057957
   15        7.209599
   16        7.209606
   17        7.514212
   18        7.514224
   19        7.954934
   20        7.954944
 
  0.1250000E+00 -0.1500000E+00 -0.2500000E-01  0.1250000E-03
    1        1.520441
    2        1.520490
    3        3.116520
    4        3.116529
    5        5.471795
    6        5.471796
    7        6.534181
    8        6.534186
    9        6.604158
   10        6.604165
   11        6.828130
   12        6.828137
   13        7.057973
   14        7.057976
   15        7.209602
   16        7.209612
   17        7.514111
   18        7.514122
   19        7.954929
   20        7.954943
 
 -0.1250000E+00  0.1500000E+00 -0.2500000E-01  0.1250000E-03
    1        1.520441
    2        1.520490
    3        3.116520
    4        3.116529
    5        5.471796
    6        5.471796
    7        6.534182
    8        6.534186
    9        6.604159
   10        6.604165
   11        6.828130
   12        6.828137
   13        7.057972
   14        7.057977
   15        7.209604
   16        7.209609
   17        7.514110
   18        7.514123
   19        7.954930
   20        7.954942
 
  0.1750000E+00  0.2500000E-01  0.2500000E-01  0.1250000E-03
    1        2.020755
    2        2.020803
    3        3.386710
    4        3.386717
    5        5.233912
    6        5.233915
    7        5.885836
    8        5.885847
    9        6.447440
   10        6.447443
   11        6.814725
   12        6.814731
   13        7.304662
   14        7.304668
   15        7.474645
   16        7.474655
   17        7.711447
   18        7.711455
   19        7.946319
   20        7.946332
 
 -0.1750000E+00 -0.2500000E-01  0.2500000E-01  0.1250000E-03
    1        2.020755
    2        2.020803
    3        3.386710
    4        3.386717
    5        5.233912
    6        5.233915
    7        5.885836
    8        5.885846
    9        6.447440
   10        6.447444
   11        6.814726
   12        6.814730
   13        7.304660
   14        7.304670
   15        7.474647
   16        7.474654
   17        7.711448
   18        7.711454
   19        7.946319
   20        7.946332
 
  0.1750000E+00 -0.2000000E+00 -0.2500000E-01  0.1250000E-03
    1        2.020750
    2        2.020798
    3        3.386745
    4        3.386753
    5        5.233906
    6        5.233909
    7        5.885868
    8        5.885879
    9        6.447540
   10        6.447541
   11        6.814753
   12        6.814758
   13        7.304587
   14        7.304592
   15        7.474637
   16        7.474645
   17        7.711427
   18        7.711432
   19        7.946202
   20        7.946214
 
 -0.1750000E+00  0.2000000E+00 -0.2500000E-01  0.1250000E-03
    1        2.020750
    2        2.020798
    3        3.386745
    4        3.386753
    5        5.233906
    6        5.233909
    7        5.885869
    8        5.885878
    9        6.447539
   10        6.447542
   11        6.814753
   12        6.814757
   13        7.304584
   14        7.304595
   15        7.474639
   16        7.474643
   17        7.711428
   18        7.711431
   19        7.946201
   20        7.946215
 
  0.2250000E+00  0.2500000E-01  0.2500000E-01  0.1250000E-03
    1        2.552218
    2        2.552261
    3        3.511831
    4        3.511837
    5        5.183114
    6        5.183125
    7        5.208206
    8        5.208217
    9        6.360506
   10        6.360509
   11        6.611811
   12        6.611813
   13        7.384247
   14        7.384251
   15        7.865649
   16        7.865655
   17        8.062682
   18        8.062695
   19        8.467669
   20        8.467681
 
 -0.2250000E+00 -0.2500000E-01  0.2500000E-01  0.1250000E-03
    1        2.552218
    2        2.552261
    3        3.511831
    4        3.511837
    5        5.183114
    6        5.183125
    7        5.208206
    8        5.208217
    9        6.360505
   10        6.360510
   11        6.611811
   12        6.611813
   13        7.384247
   14        7.384251
   15        7.865646
   16        7.865658
   17        8.062686
   18        8.062691
   19        8.467669
   20        8.467682
 
  0.2250000E+00 -0.2500000E+00 -0.2500000E-01  0.1250000E-03
    1        2.552211
    2        2.552254
    3        3.511890
    4        3.511896
    5        5.183117
    6        5.183126
    7        5.208215
    8        5.208228
    9        6.360581
   10        6.360587
   11        6.611848
   12        6.611851
   13        7.384200
   14        7.384203
   15        7.865562
   16        7.865568
   17        8.062668
   18        8.062681
   19        8.467533
   20        8.467545
 
 -0.2250000E+00  0.2500000E+00 -0.2500000E-01  0.1250000E-03
    1        2.552211
    2        2.552254
    3        3.511890
    4        3.511895
    5        5.183117
    6        5.183126
    7        5.208215
    8        5.208228
    9        6.360581
   10        6.360587
   11        6.611848
   12        6.611851
   13        7.384201
   14        7.384202
   15        7.865559
   16        7.865571
   17        8.062672
   18        8.062677
   19        8.467532
   20        8.467546
 
  0.2750000E+00  0.2500000E-01  0.2500000E-01  0.1250000E-03
    1        2.966106
    2        2.966140
    3        3.452836
    4        3.452842
    5        4.585673
    6        4.585689
    7        5.421195
    8        5.421211
    9        6.264613
   10        6.264619
   11        6.582125
   12        6.582128
   13        7.207940
   14        7.207943
   15        8.497487
   16        8.497494
   17        8.665577
   18        8.665592
   19        9.083406
   20        9.083417
 
 -0.2750000E+00 -0.2500000E-01  0.2500000E-01  0.1250000E-03
    1        2.966106
    2        2.966140
    3        3.452836
    4        3.452842
    5        4.585673
    6        4.585689
    7        5.421195
    8        5.421211
    9        6.264613
   10        6.264619
   11        6.582125
   12        6.582127
   13        7.207940
   14        7.207943
   15        8.497483
   16        8.497499
   17        8.665581
   18        8.665588
   19        9.083405
   20        9.083418
 
  0.2750000E+00 -0.3000000E+00 -0.2500000E-01  0.1250000E-03
    1        2.966105
    2        2.966139
    3        3.452894
    4        3.452901
    5        4.585722
    6        4.585738
    7        5.421155
    8        5.421171
    9        6.264642
   10        6.264649
   11        6.582188
   12        6.582190
   13        7.207878
   14        7.207881
   15        8.497379
   16        8.497387
   17        8.665557
   18        8.665573
   19        9.083254
   20        9.083265
 
 -0.2750000E+00  0.3000000E+00 -0.2500000E-01  0.1250000E-03
    1        2.966105
    2        2.966139
    3        3.452894
    4        3.452901
    5        4.585722
    6        4.585738
    7        5.421155
    8        5.421171
    9        6.264642
   10        6.264649
   11        6.582188
   12        6.582190
   13        7.207879
   14        7.207880
   15        8.497375
   16        8.497391
   17        8.665562
   18        8.665569
   19        9.083253
   20        9.083266
 
  0.3250000E+00  0.2500000E-01  0.2500000E-01  0.1250000E-03
    1        3.044496
    2        3.044511
    3        3.428628
    4        3.428643
    5        4.091186
    6        4.091204
    7        5.838369
    8        5.838394
    9        6.101271
   10        6.101276
   11        6.779650
   12        6.779653
   13        7.066959
   14        7.066963
   15        9.145177
   16        9.145189
   17        9.354346
   18        9.354364
   19        9.815200
   20        9.815210
 
 -0.3250000E+00 -0.2500000E-01  0.2500000E-01  0.1250000E-03
    1        3.044496
    2        3.044511
    3        3.428628
    4        3.428643
    5        4.091186
    6        4.091204
    7        5.838369
    8        5.838394
    9        6.101272
   10        6.101276
   11        6.779651
   12        6.779652
   13        7.066959
   14        7.066963
   15        9.145174
   16        9.145192
   17        9.354350
   18        9.354360
   19        9.815199
   20        9.815209
 
  0.3250000E+00 -0.3500000E+00 -0.2500000E-01  0.1250000E-03
    1        3.044526
    2        3.044541
    3        3.428655
    4        3.428670
    5        4.091239
    6        4.091256
    7        5.838327
    8        5.838351
    9        6.101291
   10        6.101296
   11        6.779698
   12        6.779699
   13        7.066894
   14        7.066897
   15        9.145031
   16        9.145043
   17        9.354321
   18        9.354340
   19        9.815054
   20        9.815062
 
 -0.3250000E+00  0.3500000E+00 -0.2500000E-01  0.1250000E-03
    1        3.044526
    2        3.044541
    3        3.428655
    4        3.428670
    5        4.091239
    6        4.091256
    7        5.838327
    8        5.838351
    9        6.101291
   10        6.101296
   11        6.779698
   12        6.779699
   13        7.066895
   14        7.066896
   15        9.145028
   16        9.145046
   17        9.354325
   18        9.354336
   19        9.815053
   20        9.815064
 
  0.3750000E+00  0.2500000E-01  0.2500000E-01  0.1250000E-03
    1        2.898951
    2        2.898960
    3        3.432538
    4        3.432553
    5        3.747124
    6        3.747141
    7        5.952934
    8        5.952938
    9        6.303998
   10        6.304026
   11        6.957810
   12        6.957816
   13        7.065853
   14        7.065855
   15        9.711825
   16        9.711840
   17        9.983308
   18        9.983329
   19       10.689464
   20       10.690282
 
 -0.3750000E+00 -0.2500000E-01  0.2500000E-01  0.1250000E-03
    1        2.898951
    2        2.898960
    3        3.432538
    4        3.432552
    5        3.747124
    6        3.747141
    7        5.952935
    8        5.952938
    9        6.303998
   10        6.304026
   11        6.957811
   12        6.957815
   13        7.065853
   14        7.065855
   15        9.711822
   16        9.711843
   17        9.983311
   18        9.983326
   19       10.689473
   20       10.690423
 
  0.3750000E+00 -0.4000000E+00 -0.2500000E-01  0.1250000E-03
    1        2.898991
    2        2.899001
    3        3.432559
    4        3.432574
    5        3.747175
    6        3.747193
    7        5.952953
    8        5.952957
    9        6.303943
   10        6.303970
   11        6.957743
   12        6.957747
   13        7.065891
   14        7.065893
   15        9.711652
   16        9.711667
   17        9.983236
   18        9.983258
   19       10.689398
   20       10.689744
 
 -0.3750000E+00  0.4000000E+00 -0.2500000E-01  0.1250000E-03
    1        2.898991
    2        2.899001
    3        3.432559
    4        3.432574
    5        3.747175
    6        3.747192
    7        5.952953
    8        5.952956
    9        6.303943
   10        6.303970
   11        6.957743
   12        6.957747
   13        7.065892
   14        7.065892
   15        9.711650
   16        9.711670
   17        9.983239
   18        9.983255
   19       10.689405
   20       10.690043
 
  0.4250000E+00  0.2500000E-01  0.2500000E-01  0.1250000E-03
    1        2.767423
    2        2.767432
    3        3.339236
    4        3.339252
    5        3.590285
    6        3.590299
    7        5.858742
    8        5.858746
    9        6.569115
   10        6.569133
   11        7.048829
   12        7.048846
   13        7.243010
   14        7.243011
   15       10.116704
   16       10.116723
   17       10.434318
   18       10.434337
   19       10.788409
   20       10.788425
 
 -0.4250000E+00 -0.2500000E-01  0.2500000E-01  0.1250000E-03
    1        2.767423
    2        2.767432
    3        3.339236
    4        3.339252
    5        3.590285
    6        3.590299
    7        5.858743
    8        5.858745
    9        6.569116
   10        6.569133
   11        7.048829
   12        7.048846
   13        7.243010
   14        7.243011
   15       10.116702
   16       10.116724
   17       10.434319
   18       10.434335
   19       10.788409
   20       10.788425
 
  0.4250000E+00 -0.4500000E+00 -0.2500000E-01  0.1250000E-03
    1        2.767459
    2        2.767467
    3        3.339273
    4        3.339288
    5        3.590323
    6        3.590338
    7        5.858761
    8        5.858765
    9        6.569036
   10        6.569054
   11        7.048747
   12        7.048763
   13        7.243063
   14        7.243064
   15       10.116526
   16       10.116544
   17       10.434200
   18       10.434222
   19       10.788363
   20       10.788381
 
 -0.4250000E+00  0.4500000E+00 -0.2500000E-01  0.1250000E-03
    1        2.767459
    2        2.767467
    3        3.339273
    4        3.339288
    5        3.590323
    6        3.590338
    7        5.858762
    8        5.858764
    9        6.569036
   10        6.569053
   11        7.048747
   12        7.048763
   13        7.243063
   14        7.243064
   15       10.116524
   16       10.116546
   17       10.434201
   18       10.434221
   19       10.788363
   20       10.788382
 
  0.4750000E+00  0.2500000E-01  0.2500000E-01  0.1250000E-03
    1        2.705688
    2        2.705696
    3        3.263575
    4        3.263591
    5        3.549108
    6        3.549121
    7        5.817625
    8        5.817629
    9        6.617680
   10        6.617690
   11        7.177263
   12        7.177287
   13        7.329047
   14        7.329048
   15       10.304051
   16       10.304071
   17       10.628021
   18       10.628032
   19       10.830545
   20       10.830549
 
 -0.4750000E+00 -0.2500000E-01  0.2500000E-01  0.1250000E-03
    1        2.705688
    2        2.705696
    3        3.263575
    4        3.263591
    5        3.549108
    6        3.549121
    7        5.817626
    8        5.817628
    9        6.617680
   10        6.617690
   11        7.177263
   12        7.177287
   13        7.329046
   14        7.329048
   15       10.304050
   16       10.304073
   17       10.628022
   18       10.628032
   19       10.830544
   20       10.830550
 
  0.4750000E+00  0.5000000E+00 -0.2500000E-01  0.1250000E-03
    1        2.705723
    2        2.705731
    3        3.263618
    4        3.263634
    5        3.549139
    6        3.549152
    7        5.817646
    8        5.817649
    9        6.617590
   10        6.617600
   11        7.177173
   12        7.177197
   13        7.329099
   14        7.329101
   15       10.303874
   16       10.303893
   17       10.627896
   18       10.627918
   19       10.830473
   20       10.830488
 
 -0.4750000E+00  0.5000000E+00 -0.2500000E-01  0.1250000E-03
    1        2.705723
    2        2.705731
    3        3.263618
    4        3.263634
    5        3.549139
    6        3.549152
    7        5.817646
    8        5.817648
    9        6.617590
   10        6.617600
   11        7.177173
   12        7.177197
   13        7.329099
   14        7.329101
   15       10.303872
   16       10.303895
   17       10.627896
   18       10.627918
   19       10.830473
   20       10.830488
 
 -0.4750000E+00  0.2500000E-01  0.2500000E-01  0.1250000E-03
    1        2.726510
    2        2.726518
    3        3.290625
    4        3.290641
    5        3.561559
    6        3.561572
    7        5.831273
    8        5.831276
    9        6.606073
   10        6.606085
   11        7.126620
   12        7.126642
   13        7.300492
   14        7.300493
   15       10.240861
   16       10.240880
   17       10.566114
   18       10.566127
   19       10.811866
   20       10.811875
 
  0.4750000E+00 -0.2500000E-01  0.2500000E-01  0.1250000E-03
    1        2.726510
    2        2.726518
    3        3.290625
    4        3.290641
    5        3.561559
    6        3.561572
    7        5.831273
    8        5.831276
    9        6.606073
   10        6.606085
   11        7.126620
   12        7.126642
   13        7.300492
   14        7.300493
   15       10.240859
   16       10.240882
   17       10.566115
   18       10.566127
   19       10.811865
   20       10.811876
 
 -0.4750000E+00  0.4500000E+00 -0.2500000E-01  0.1250000E-03
    1        2.726544
    2        2.726552
    3        3.290665
    4        3.290681
    5        3.561591
    6        3.561605
    7        5.831295
    8        5.831298
    9        6.605983
   10        6.605995
   11        7.126531
   12        7.126553
   13        7.300538
   14        7.300540
   15       10.240692
   16       10.240711
   17       10.565967
   18       10.565989
   19       10.811805
   20       10.811821
 
  0.4750000E+00 -0.4500000E+00 -0.2500000E-01  0.1250000E-03
    1        2.726544
    2        2.726552
    3        3.290665
    4        3.290681
    5        3.561592
    6        3.561605
    7        5.831295
    8        5.831297
    9        6.605983
   10        6.605995
   11        7.126531
   12        7.126553
   13        7.300538
   14        7.300540
   15       10.240690
   16       10.240713
   17       10.565967
   18       10.565989
   19       10.811804
   20       10.811822
 
 -0.4250000E+00  0.2500000E-01  0.2500000E-01  0.1250000E-03
    1        2.826345
    2        2.826353
    3        3.394776
    4        3.394791
    5        3.646564
    6        3.646580
    7        5.900057
    8        5.900061
    9        6.473734
   10        6.473758
   11        6.985809
   12        6.985818
   13        7.160688
   14        7.160689
   15        9.939437
   16        9.939455
   17       10.236201
   18       10.236220
   19       10.763501
   20       10.763520
 
  0.4250000E+00 -0.2500000E-01  0.2500000E-01  0.1250000E-03
    1        2.826345
    2        2.826353
    3        3.394776
    4        3.394791
    5        3.646564
    6        3.646580
    7        5.900058
    8        5.900060
    9        6.473734
   10        6.473758
   11        6.985809
   12        6.985818
   13        7.160688
   14        7.160689
   15        9.939435
   16        9.939457
   17       10.236202
   18       10.236218
   19       10.763500
   20       10.763519
 
 -0.4250000E+00  0.4000000E+00 -0.2500000E-01  0.1250000E-03
    1        2.826383
    2        2.826391
    3        3.394804
    4        3.394819
    5        3.646608
    6        3.646624
    7        5.900081
    8        5.900084
    9        6.473657
   10        6.473680
   11        6.985718
   12        6.985728
   13        7.160731
   14        7.160732
   15        9.939293
   16        9.939310
   17       10.236033
   18       10.236055
   19       10.763459
   20       10.763479
 
  0.4250000E+00 -0.4000000E+00 -0.2500000E-01  0.1250000E-03
    1        2.826383
    2        2.826392
    3        3.394804
    4        3.394819
    5        3.646608
    6        3.646624
    7        5.900081
    8        5.900084
    9        6.473657
   10        6.473680
   11        6.985719
   12        6.985727
   13        7.160731
   14        7.160732
   15        9.939291
   16        9.939312
   17       10.236035
   18       10.236054
   19       10.763459
   20       10.763481
 
 -0.3750000E+00  0.2500000E-01  0.2500000E-01  0.1250000E-03
    1        2.977800
    2        2.977811
    3        3.441656
    4        3.441671
    5        3.897484
    6        3.897502
    7        6.010283
    8        6.010287
    9        6.091689
   10        6.091712
   11        6.895955
   12        6.895956
   13        7.028091
   14        7.028096
   15        9.444823
   16        9.444837
   17        9.683549
   18        9.683567
   19       10.256846
   20       10.256852
 
  0.3750000E+00 -0.2500000E-01  0.2500000E-01  0.1250000E-03
    1        2.977800
    2        2.977811
    3        3.441656
    4        3.441671
    5        3.897484
    6        3.897502
    7        6.010284
    8        6.010286
    9        6.091689
   10        6.091712
   11        6.895955
   12        6.895956
   13        7.028092
   14        7.028095
   15        9.444820
   16        9.444840
   17        9.683552
   18        9.683564
   19       10.256846
   20       10.256852
 
 -0.3750000E+00  0.3500000E+00 -0.2500000E-01  0.1250000E-03
    1        2.977839
    2        2.977850
    3        3.441677
    4        3.441692
    5        3.897534
    6        3.897552
    7        6.010297
    8        6.010301
    9        6.091637
   10        6.091659
   11        6.895962
   12        6.895964
   13        7.028041
   14        7.028044
   15        9.444712
   16        9.444725
   17        9.683371
   18        9.683390
   19       10.256858
   20       10.256863
 
  0.3750000E+00 -0.3500000E+00 -0.2500000E-01  0.1250000E-03
    1        2.977839
    2        2.977850
    3        3.441677
    4        3.441692
    5        3.897535
    6        3.897552
    7        6.010297
    8        6.010301
    9        6.091637
   10        6.091659
   11        6.895962
   12        6.895963
   13        7.028042
   14        7.028044
   15        9.444709
   16        9.444729
   17        9.683374
   18        9.683387
   19       10.256857
   20       10.256863
 
 -0.3250000E+00  0.2500000E-01  0.2500000E-01  0.1250000E-03
    1        3.056299
    2        3.056323
    3        3.422010
    4        3.422021
    5        4.321907
    6        4.321924
    7        5.613410
    8        5.613430
    9        6.183337
   10        6.183342
   11        6.665881
   12        6.665882
   13        7.130200
   14        7.130203
   15        8.825835
   16        8.825845
   17        9.003961
   18        9.003977
   19        9.432254
   20        9.432264
 
  0.3250000E+00 -0.2500000E-01  0.2500000E-01  0.1250000E-03
    1        3.056299
    2        3.056323
    3        3.422010
    4        3.422021
    5        4.321908
    6        4.321924
    7        5.613410
    8        5.613431
    9        6.183338
   10        6.183341
   11        6.665881
   12        6.665882
   13        7.130201
   14        7.130202
   15        8.825831
   16        8.825849
   17        9.003966
   18        9.003973
   19        9.432253
   20        9.432265
 
 -0.3250000E+00  0.3000000E+00 -0.2500000E-01  0.1250000E-03
    1        3.056312
    2        3.056336
    3        3.422055
    4        3.422066
    5        4.321954
    6        4.321971
    7        5.613347
    8        5.613367
    9        6.183369
   10        6.183375
   11        6.665927
   12        6.665929
   13        7.130123
   14        7.130125
   15        8.825748
   16        8.825758
   17        9.003827
   18        9.003843
   19        9.432234
   20        9.432245
 
  0.3250000E+00 -0.3000000E+00 -0.2500000E-01  0.1250000E-03
    1        3.056312
    2        3.056336
    3        3.422055
    4        3.422066
    5        4.321954
    6        4.321971
    7        5.613347
    8        5.613367
    9        6.183369
   10        6.183374
   11        6.665928
   12        6.665929
   13        7.130123
   14        7.130125
   15        8.825745
   16        8.825763
   17        9.003831
   18        9.003839
   19        9.432234
   20        9.432247
 
 -0.2750000E+00  0.2500000E-01  0.2500000E-01  0.1250000E-03
    1        2.786606
    2        2.786646
    3        3.496166
    4        3.496171
    5        4.877640
    6        4.877655
    7        5.277659
    8        5.277671
    9        6.327324
   10        6.327329
   11        6.559141
   12        6.559144
   13        7.293391
   14        7.293394
   15        8.174677
   16        8.174685
   17        8.345819
   18        8.345833
   19        8.766647
   20        8.766659
 
  0.2750000E+00 -0.2500000E-01  0.2500000E-01  0.1250000E-03
    1        2.786606
    2        2.786646
    3        3.496166
    4        3.496171
    5        4.877640
    6        4.877655
    7        5.277659
    8        5.277671
    9        6.327324
   10        6.327329
   11        6.559140
   12        6.559144
   13        7.293392
   14        7.293394
   15        8.174673
   16        8.174689
   17        8.345823
   18        8.345829
   19        8.766646
   20        8.766660
 
 -0.2750000E+00  0.2500000E+00 -0.2500000E-01  0.1250000E-03
    1        2.786602
    2        2.786642
    3        3.496230
    4        3.496236
    5        4.877680
    6        4.877695
    7        5.277600
    8        5.277611
    9        6.327378
   10        6.327386
   11        6.559195
   12        6.559197
   13        7.293319
   14        7.293321
   15        8.174608
   16        8.174615
   17        8.345742
   18        8.345756
   19        8.766596
   20        8.766608
 
  0.2750000E+00 -0.2500000E+00 -0.2500000E-01  0.1250000E-03
    1        2.786602
    2        2.786642
    3        3.496230