       N       E                     dE             d eps       ncg     rms          rms(c)
DAV:   1     0.708712323960E+02    0.70871E+02   -0.40987E+03342008   0.773E+02
DAV:   2    -0.160546825401E+02   -0.86926E+02   -0.81942E+02328388   0.312E+02
DAV:   3    -0.218333311960E+02   -0.57786E+01   -0.54140E+01496736   0.655E+01
DAV:   4    -0.220563382807E+02   -0.22301E+00   -0.20925E+00429892   0.130E+01
DAV:   5    -0.220662110413E+02   -0.98728E-02   -0.97028E-02406524   0.162E+00    0.994E+00
DAV:   6    -0.214750100221E+02    0.59120E+00   -0.33631E+00394220   0.254E+01    0.242E+00
DAV:   7    -0.213468012071E+02    0.12821E+00   -0.61346E-01444380   0.923E+00    0.764E-01
DAV:   8    -0.213273182175E+02    0.19483E-01   -0.11474E-02402220   0.863E-01    0.326E-01
DAV:   9    -0.213198465953E+02    0.74716E-02   -0.20508E-03351328   0.643E-01    0.137E-01
DAV:  10    -0.213183390211E+02    0.15076E-02   -0.52072E-04375720   0.216E-01    0.407E-02
DAV:  11    -0.213182076488E+02    0.13137E-03   -0.38997E-05175324   0.958E-02    0.122E-02
DAV:  12    -0.213182115212E+02   -0.38724E-05   -0.65707E-06167572   0.214E-02
   1 F= -.21318212E+02 E0= -.21318355E+02  d E =0.429288E-03  mag=     0.0000     0.0000     0.0000
 imaginary and real dielectric function
