hcp Ru                                  
           1
     2.705900    0.000000    0.000000
    -1.352950    2.343309    0.000000
     0.000000    0.000000    4.281546
   Ru
   2
Direct configuration=     1
   0.00000000  0.00000000  0.00000000
   0.66667000  0.33333000  0.50000000
