   2   2   0   0
  0.1798157E+02  0.3300800E-09  0.3300800E-09  0.3300800E-09  0.5000000E-15
  1.000000000000000E-004
  CAR 
 Nb tetrahedron                          
     51.29632000    -29.75361583  301      4.83717138      1.00000000
    -29.754  0.0000E+00  0.0000E+00
    -29.483  0.0000E+00  0.0000E+00
    -29.213  0.0000E+00  0.0000E+00
    -28.943  0.0000E+00  0.0000E+00
    -28.673  0.0000E+00  0.0000E+00
    -28.403  0.0000E+00  0.0000E+00
    -28.133  0.0000E+00  0.0000E+00
    -27.862  0.0000E+00  0.0000E+00
    -27.592  0.0000E+00  0.0000E+00
    -27.322  0.0000E+00  0.0000E+00
    -27.052  0.0000E+00  0.0000E+00
    -26.782  0.0000E+00  0.0000E+00
    -26.512  0.0000E+00  0.0000E+00
    -26.241  0.0000E+00  0.0000E+00
    -25.971  0.4343E+01  0.2626E+00
    -25.701  0.7088E+01  0.2691E+01
    -25.431  0.7010E+01  0.4280E+01
    -25.161  0.1032E+02  0.6597E+01
    -24.891  0.1234E+02  0.9272E+01
    -24.620  0.0000E+00  0.1200E+02
    -24.350  0.0000E+00  0.1200E+02
    -24.080  0.0000E+00  0.1200E+02
    -23.810  0.0000E+00  0.1200E+02
    -23.540  0.0000E+00  0.1200E+02
    -23.270  0.0000E+00  0.1200E+02
    -22.999  0.0000E+00  0.1200E+02
    -22.729  0.0000E+00  0.1200E+02
    -22.459  0.0000E+00  0.1200E+02
    -22.189  0.0000E+00  0.1200E+02
    -21.919  0.0000E+00  0.1200E+02
    -21.649  0.0000E+00  0.1200E+02
    -21.378  0.0000E+00  0.1200E+02
    -21.108  0.0000E+00  0.1200E+02
    -20.838  0.0000E+00  0.1200E+02
    -20.568  0.0000E+00  0.1200E+02
    -20.298  0.0000E+00  0.1200E+02
    -20.028  0.0000E+00  0.1200E+02
    -19.757  0.0000E+00  0.1200E+02
    -19.487  0.0000E+00  0.1200E+02
    -19.217  0.0000E+00  0.1200E+02
    -18.947  0.0000E+00  0.1200E+02
    -18.677  0.0000E+00  0.1200E+02
    -18.407  0.0000E+00  0.1200E+02
    -18.136  0.0000E+00  0.1200E+02
    -17.866  0.0000E+00  0.1200E+02
    -17.596  0.0000E+00  0.1200E+02
    -17.326  0.0000E+00  0.1200E+02
    -17.056  0.0000E+00  0.1200E+02
    -16.786  0.0000E+00  0.1200E+02
    -16.515  0.0000E+00  0.1200E+02
    -16.245  0.0000E+00  0.1200E+02
    -15.975  0.0000E+00  0.1200E+02
    -15.705  0.0000E+00  0.1200E+02
    -15.435  0.0000E+00  0.1200E+02
    -15.165  0.0000E+00  0.1200E+02
    -14.894  0.0000E+00  0.1200E+02
    -14.624  0.0000E+00  0.1200E+02
    -14.354  0.0000E+00  0.1200E+02
    -14.084  0.0000E+00  0.1200E+02
    -13.814  0.0000E+00  0.1200E+02
    -13.544  0.0000E+00  0.1200E+02
    -13.273  0.0000E+00  0.1200E+02
    -13.003  0.0000E+00  0.1200E+02
    -12.733  0.0000E+00  0.1200E+02
    -12.463  0.0000E+00  0.1200E+02
    -12.193  0.0000E+00  0.1200E+02
    -11.923  0.0000E+00  0.1200E+02
    -11.652  0.0000E+00  0.1200E+02
    -11.382  0.0000E+00  0.1200E+02
    -11.112  0.0000E+00  0.1200E+02
    -10.842  0.0000E+00  0.1200E+02
    -10.572  0.0000E+00  0.1200E+02
    -10.302  0.0000E+00  0.1200E+02
    -10.031  0.0000E+00  0.1200E+02
     -9.761  0.0000E+00  0.1200E+02
     -9.491  0.0000E+00  0.1200E+02
     -9.221  0.0000E+00  0.1200E+02
     -8.951  0.0000E+00  0.1200E+02
     -8.681  0.0000E+00  0.1200E+02
     -8.410  0.0000E+00  0.1200E+02
     -8.140  0.0000E+00  0.1200E+02
     -7.870  0.0000E+00  0.1200E+02
     -7.600  0.0000E+00  0.1200E+02
     -7.330  0.0000E+00  0.1200E+02
     -7.060  0.0000E+00  0.1200E+02
     -6.789  0.0000E+00  0.1200E+02
     -6.519  0.0000E+00  0.1200E+02
     -6.249  0.0000E+00  0.1200E+02
     -5.979  0.0000E+00  0.1200E+02
     -5.709  0.0000E+00  0.1200E+02
     -5.439  0.0000E+00  0.1200E+02
     -5.168  0.0000E+00  0.1200E+02
     -4.898  0.0000E+00  0.1200E+02
     -4.628  0.0000E+00  0.1200E+02
     -4.358  0.0000E+00  0.1200E+02
     -4.088  0.0000E+00  0.1200E+02
     -3.818  0.0000E+00  0.1200E+02
     -3.547  0.0000E+00  0.1200E+02
     -3.277  0.0000E+00  0.1200E+02
     -3.007  0.0000E+00  0.1200E+02
     -2.737  0.0000E+00  0.1200E+02
     -2.467  0.0000E+00  0.1200E+02
     -2.197  0.0000E+00  0.1200E+02
     -1.926  0.0000E+00  0.1200E+02
     -1.656  0.0000E+00  0.1200E+02
     -1.386  0.0000E+00  0.1200E+02
     -1.116  0.0000E+00  0.1200E+02
     -0.846  0.6123E-01  0.1201E+02
     -0.576  0.9981E-01  0.1203E+02
     -0.305  0.1343E+00  0.1206E+02
     -0.035  0.1709E+00  0.1210E+02
      0.235  0.2090E+00  0.1216E+02
      0.505  0.2573E+00  0.1222E+02
      0.775  0.3224E+00  0.1230E+02
      1.045  0.4257E+00  0.1240E+02
      1.316  0.1832E+01  0.1269E+02
      1.586  0.2053E+01  0.1322E+02
      1.856  0.2322E+01  0.1380E+02
      2.126  0.2983E+01  0.1450E+02
      2.396  0.2840E+01  0.1526E+02
      2.666  0.1763E+01  0.1600E+02
      2.937  0.9820E+00  0.1633E+02
      3.207  0.3053E+01  0.1671E+02
      3.477  0.5099E+01  0.1784E+02
      3.747  0.2263E+01  0.1881E+02
      4.017  0.2263E+01  0.1944E+02
      4.287  0.2235E+01  0.2003E+02
      4.558  0.4588E+01  0.2085E+02
      4.828  0.2994E+01  0.2197E+02
      5.098  0.2584E+01  0.2268E+02
      5.368  0.1112E+01  0.2305E+02
      5.638  0.9909E+00  0.2333E+02
      5.908  0.9660E+00  0.2358E+02
      6.179  0.9949E+00  0.2384E+02
      6.449  0.1110E+01  0.2413E+02
      6.719  0.1619E+01  0.2448E+02
      6.989  0.1908E+01  0.2499E+02
      7.259  0.2116E+01  0.2552E+02
      7.529  0.2540E+01  0.2615E+02
      7.800  0.2565E+01  0.2686E+02
      8.070  0.3232E+01  0.2760E+02
      8.340  0.2688E+01  0.2839E+02
      8.610  0.3166E+01  0.2915E+02
      8.880  0.8398E+01  0.3051E+02
      9.150  0.2078E+01  0.3141E+02
      9.421  0.1654E+01  0.3191E+02
      9.691  0.1481E+01  0.3235E+02
      9.961  0.1225E+01  0.3272E+02
     10.231  0.1193E+01  0.3304E+02
     10.501  0.9909E+00  0.3337E+02
     10.771  0.7490E+00  0.3360E+02
     11.042  0.6746E+00  0.3378E+02
     11.312  0.7275E+00  0.3398E+02
     11.582  0.6622E+00  0.3417E+02
     11.852  0.6379E+00  0.3435E+02
     12.122  0.6172E+00  0.3452E+02
     12.392  0.5999E+00  0.3468E+02
     12.663  0.5798E+00  0.3484E+02
     12.933  0.5632E+00  0.3500E+02
     13.203  0.5426E+00  0.3515E+02
     13.473  0.5191E+00  0.3529E+02
     13.743  0.4995E+00  0.3543E+02
     14.013  0.4755E+00  0.3556E+02
     14.284  0.3817E+00  0.3568E+02
     14.554  0.3882E+00  0.3578E+02
     14.824  0.5270E+00  0.3591E+02
     15.094  0.1928E+00  0.3600E+02
     15.364  0.5350E+00  0.3608E+02
     15.634  0.7624E+00  0.3627E+02
     15.905  0.1014E+01  0.3651E+02
     16.175  0.9914E+00  0.3678E+02
     16.445  0.1076E+01  0.3706E+02
     16.715  0.1214E+01  0.3737E+02
     16.985  0.1170E+01  0.3770E+02
     17.255  0.1077E+01  0.3800E+02
     17.526  0.1201E+01  0.3831E+02
     17.796  0.1389E+01  0.3866E+02
     18.066  0.1701E+01  0.3907E+02
     18.336  0.2219E+01  0.3956E+02
     18.606  0.1644E+01  0.4002E+02
     18.876  0.1582E+01  0.4046E+02
     19.147  0.1513E+01  0.4087E+02
     19.417  0.1505E+01  0.4128E+02
     19.687  0.1374E+01  0.4167E+02
     19.957  0.1348E+01  0.4203E+02
     20.227  0.1182E+01  0.4237E+02
     20.497  0.1190E+01  0.4269E+02
     20.768  0.1352E+01  0.4303E+02
     21.038  0.1539E+01  0.4343E+02
     21.308  0.1553E+01  0.4385E+02
     21.578  0.1727E+01  0.4427E+02
     21.848  0.2032E+01  0.4477E+02
     22.118  0.1551E+01  0.4529E+02
     22.389  0.1422E+01  0.4569E+02
     22.659  0.1311E+01  0.4606E+02
     22.929  0.1289E+01  0.4641E+02
     23.199  0.8080E+00  0.4671E+02
     23.469  0.7101E+00  0.4691E+02
     23.739  0.8868E+00  0.4715E+02
     24.010  0.1328E+01  0.4740E+02
     24.280  0.1335E+01  0.4773E+02
     24.550  0.1339E+01  0.4809E+02
     24.820  0.1637E+01  0.4847E+02
     25.090  0.1961E+01  0.4903E+02
     25.360  0.1426E+01  0.4947E+02
     25.631  0.1272E+01  0.4983E+02
     25.901  0.1174E+01  0.5017E+02
     26.171  0.1149E+01  0.5049E+02
     26.441  0.1100E+01  0.5079E+02
     26.711  0.1080E+01  0.5108E+02
     26.981  0.9691E+00  0.5137E+02
     27.252  0.8545E+00  0.5161E+02
     27.522  0.1022E+01  0.5186E+02
     27.792  0.1361E+01  0.5219E+02
     28.062  0.1303E+01  0.5256E+02
     28.332  0.1120E+01  0.5288E+02
     28.602  0.1507E+01  0.5321E+02
     28.873  0.1696E+01  0.5361E+02
     29.143  0.1601E+01  0.5407E+02
     29.413  0.1412E+01  0.5447E+02
     29.683  0.1448E+01  0.5485E+02
     29.953  0.1771E+01  0.5530E+02
     30.223  0.1087E+01  0.5570E+02
     30.494  0.9307E+00  0.5598E+02
     30.764  0.1507E+01  0.5633E+02
     31.034  0.1367E+01  0.5671E+02
     31.304  0.1244E+01  0.5708E+02
     31.574  0.1185E+01  0.5743E+02
     31.844  0.1359E+01  0.5777E+02
     32.115  0.1450E+01  0.5816E+02
     32.385  0.1874E+01  0.5860E+02
     32.655  0.1942E+01  0.5912E+02
     32.925  0.1646E+01  0.5961E+02
     33.195  0.1723E+01  0.6006E+02
     33.465  0.1782E+01  0.6053E+02
     33.736  0.1835E+01  0.6102E+02
     34.006  0.1746E+01  0.6149E+02
     34.276  0.1576E+01  0.6195E+02
     34.546  0.1776E+01  0.6239E+02
     34.816  0.1439E+01  0.6286E+02
     35.086  0.1385E+01  0.6324E+02
     35.356  0.1350E+01  0.6361E+02
     35.627  0.1186E+01  0.6397E+02
     35.897  0.1075E+01  0.6426E+02
     36.167  0.1090E+01  0.6455E+02
     36.437  0.1184E+01  0.6484E+02
     36.707  0.1424E+01  0.6520E+02
     36.977  0.1707E+01  0.6561E+02
     37.248  0.2059E+01  0.6612E+02
     37.518  0.2152E+01  0.6670E+02
     37.788  0.2025E+01  0.6725E+02
     38.058  0.1821E+01  0.6777E+02
     38.328  0.1848E+01  0.6827E+02
     38.598  0.1407E+01  0.6872E+02
     38.869  0.1305E+01  0.6908E+02
     39.139  0.1418E+01  0.6946E+02
     39.409  0.1546E+01  0.6987E+02
     39.679  0.1564E+01  0.7031E+02
     39.949  0.1626E+01  0.7075E+02
     40.219  0.1524E+01  0.7120E+02
     40.490  0.1740E+01  0.7162E+02
     40.760  0.1726E+01  0.7209E+02
     41.030  0.1769E+01  0.7256E+02
     41.300  0.1975E+01  0.7306E+02
     41.570  0.2867E+01  0.7371E+02
     41.840  0.3131E+01  0.7456E+02
     42.111  0.7414E+01  0.7580E+02
     42.381  0.3443E+01  0.7770E+02
     42.651  0.2662E+01  0.7849E+02
     42.921  0.1638E+01  0.7909E+02
     43.191  0.8953E+00  0.7942E+02
     43.461  0.6170E+00  0.7962E+02
     43.732  0.4104E+00  0.7976E+02
     44.002  0.2494E+00  0.7984E+02
     44.272  0.1788E+00  0.7990E+02
     44.542  0.1240E+00  0.7994E+02
     44.812  0.2559E-01  0.7996E+02
     45.082  0.2267E-01  0.7997E+02
     45.353  0.1998E-01  0.7997E+02
     45.623  0.1769E-01  0.7998E+02
     45.893  0.1556E-01  0.7998E+02
     46.163  0.1343E-01  0.7999E+02
     46.433  0.1139E-01  0.7999E+02
     46.703  0.1035E-01  0.7999E+02
     46.974  0.7701E-02  0.8000E+02
     47.244  0.5374E-02  0.8000E+02
     47.514  0.1814E-02  0.8000E+02
     47.784  0.0000E+00  0.8000E+02
     48.054  0.0000E+00  0.8000E+02
     48.324  0.0000E+00  0.8000E+02
     48.595  0.0000E+00  0.8000E+02
     48.865  0.0000E+00  0.8000E+02
     49.135  0.0000E+00  0.8000E+02
     49.405  0.0000E+00  0.8000E+02
     49.675  0.0000E+00  0.8000E+02
     49.945  0.0000E+00  0.8000E+02
     50.216  0.0000E+00  0.8000E+02
     50.486  0.0000E+00  0.8000E+02
     50.756  0.0000E+00  0.8000E+02
     51.026  0.0000E+00  0.8000E+02
     51.296  0.0000E+00  0.8000E+02
