       N       E                     dE             d eps       ncg     rms          rms(c)
DAV:   1    -0.140081323733E+01   -0.14008E+01   -0.11095E+04 18360   0.405E+02
DAV:   2    -0.222474279652E+02   -0.20847E+02   -0.20476E+02 23040   0.562E+01
DAV:   3    -0.222735938464E+02   -0.26166E-01   -0.26215E-01 21960   0.211E+00
DAV:   4    -0.222736016582E+02   -0.78118E-05   -0.78312E-05 29160   0.334E-02
DAV:   5    -0.222736016579E+02    0.25511E-09   -0.21121E-10 22120   0.480E-05
DAV:   6    -0.222736016582E+02   -0.32151E-09    0.66990E-13 29320   0.586E-07
   1 F= -.22273602E+02 E0= -.22273602E+02  d E =0.000000E+00
