<?xml version="1.0" encoding="ISO-8859-1"?>
<modeling>
 <generator>
  <i name="program" type="string">vasp </i>
  <i name="version" type="string">5.4.4.18Apr17-6-g9f103f2a35  </i>
  <i name="subversion" type="string">(build May 20 2018 16:52:39) complex            parallel </i>
  <i name="platform" type="string">LinuxIFC </i>
  <i name="date" type="string">2022 11 17 </i>
  <i name="time" type="string">22:01:43 </i>
 </generator>
 <incar>
  <i type="string" name="SYSTEM"> Nb tetrahedron</i>
  <i type="string" name="PREC">normal</i>
  <i type="int" name="ICHARG">    11</i>
  <i name="EDIFF">      0.00000010</i>
  <i name="ENCUT">    300.00000000</i>
  <i type="int" name="ISMEAR">    -5</i>
  <i type="logical" name="LCHARG"> F  </i>
  <v type="int" name="KPOINT_BSE">    -1     0     0     0</v>
 </incar>
 <structure name="primitive_cell" >
  <crystal>
   <varray name="basis" >
    <v>       1.65040000       1.65040000       1.65040000 </v>
    <v>       1.65040000      -1.65040000      -1.65040000 </v>
    <v>      -1.65040000       1.65040000      -1.65040000 </v>
   </varray>
   <i name="volume">     17.98157117 </i>
   <varray name="rec_basis" >
    <v>       0.30295686       0.30295686       0.00000000 </v>
    <v>       0.30295686      -0.00000000      -0.30295686 </v>
    <v>      -0.00000000       0.30295686      -0.30295686 </v>
   </varray>
  </crystal>
  <varray name="positions" >
   <v>       0.00000000       0.00000000       0.00000000 </v>
  </varray>
 </structure>
 <varray name="primitive_index" >
  <v type="int" >        1 </v>
 </varray>
 <kpoints>
  <generation param="Monkhorst-Pack">
   <v type="int" name="divisions">      20       20       20 </v>
   <v name="usershift">      0.00000000       0.00000000       0.00000000 </v>
   <v name="genvec1">      0.05000000       0.00000000       0.00000000 </v>
   <v name="genvec2">      0.00000000       0.05000000       0.00000000 </v>
   <v name="genvec3">      0.00000000       0.00000000       0.05000000 </v>
   <v name="shift">      0.50000000       0.50000000       0.50000000 </v>
  </generation>
  <varray name="kpointlist" >
   <v>       0.02500000       0.02500000       0.02500000 </v>
   <v>       0.07500000       0.02500000       0.02500000 </v>
   <v>       0.12500000       0.02500000       0.02500000 </v>
   <v>       0.17500000       0.02500000       0.02500000 </v>
   <v>       0.22500000       0.02500000       0.02500000 </v>
   <v>       0.27500000       0.02500000       0.02500000 </v>
   <v>       0.32500000       0.02500000       0.02500000 </v>
   <v>       0.37500000       0.02500000       0.02500000 </v>
   <v>       0.42500000       0.02500000       0.02500000 </v>
   <v>       0.47500000       0.02500000       0.02500000 </v>
   <v>       0.07500000       0.07500000       0.02500000 </v>
   <v>       0.12500000       0.07500000       0.02500000 </v>
   <v>       0.17500000       0.07500000       0.02500000 </v>
   <v>       0.22500000       0.07500000       0.02500000 </v>
   <v>       0.27500000       0.07500000       0.02500000 </v>
   <v>       0.32500000       0.07500000       0.02500000 </v>
   <v>       0.37500000       0.07500000       0.02500000 </v>
   <v>       0.42500000       0.07500000       0.02500000 </v>
   <v>       0.47500000       0.07500000       0.02500000 </v>
   <v>       0.12500000       0.12500000       0.02500000 </v>
   <v>       0.17500000       0.12500000       0.02500000 </v>
   <v>       0.22500000       0.12500000       0.02500000 </v>
   <v>       0.27500000       0.12500000       0.02500000 </v>
   <v>       0.32500000       0.12500000       0.02500000 </v>
   <v>       0.37500000       0.12500000       0.02500000 </v>
   <v>       0.42500000       0.12500000       0.02500000 </v>
   <v>       0.47500000       0.12500000       0.02500000 </v>
   <v>       0.17500000       0.17500000       0.02500000 </v>
   <v>       0.22500000       0.17500000       0.02500000 </v>
   <v>       0.27500000       0.17500000       0.02500000 </v>
   <v>       0.32500000       0.17500000       0.02500000 </v>
   <v>       0.37500000       0.17500000       0.02500000 </v>
   <v>       0.42500000       0.17500000       0.02500000 </v>
   <v>       0.47500000       0.17500000       0.02500000 </v>
   <v>       0.22500000       0.22500000       0.02500000 </v>
   <v>       0.27500000       0.22500000       0.02500000 </v>
   <v>       0.32500000       0.22500000       0.02500000 </v>
   <v>       0.37500000       0.22500000       0.02500000 </v>
   <v>       0.42500000       0.22500000       0.02500000 </v>
   <v>       0.47500000       0.22500000       0.02500000 </v>
   <v>       0.27500000       0.27500000       0.02500000 </v>
   <v>       0.32500000       0.27500000       0.02500000 </v>
   <v>       0.37500000       0.27500000       0.02500000 </v>
   <v>       0.42500000       0.27500000       0.02500000 </v>
   <v>       0.47500000       0.27500000       0.02500000 </v>
   <v>       0.32500000       0.32500000       0.02500000 </v>
   <v>       0.37500000       0.32500000       0.02500000 </v>
   <v>       0.42500000       0.32500000       0.02500000 </v>
   <v>       0.47500000       0.32500000       0.02500000 </v>
   <v>       0.37500000       0.37500000       0.02500000 </v>
   <v>       0.42500000       0.37500000       0.02500000 </v>
   <v>       0.47500000       0.37500000       0.02500000 </v>
   <v>       0.42500000       0.42500000       0.02500000 </v>
   <v>       0.47500000       0.42500000       0.02500000 </v>
   <v>       0.47500000       0.47500000       0.02500000 </v>
   <v>       0.07500000       0.07500000       0.07500000 </v>
   <v>       0.12500000       0.07500000       0.07500000 </v>
   <v>       0.17500000       0.07500000       0.07500000 </v>
   <v>       0.22500000       0.07500000       0.07500000 </v>
   <v>       0.27500000       0.07500000       0.07500000 </v>
   <v>       0.32500000       0.07500000       0.07500000 </v>
   <v>       0.37500000       0.07500000       0.07500000 </v>
   <v>       0.42500000       0.07500000       0.07500000 </v>
   <v>       0.47500000       0.07500000       0.07500000 </v>
   <v>       0.12500000       0.12500000       0.07500000 </v>
   <v>       0.17500000       0.12500000       0.07500000 </v>
   <v>       0.22500000       0.12500000       0.07500000 </v>
   <v>       0.27500000       0.12500000       0.07500000 </v>
   <v>       0.32500000       0.12500000       0.07500000 </v>
   <v>       0.37500000       0.12500000       0.07500000 </v>
   <v>       0.42500000       0.12500000       0.07500000 </v>
   <v>       0.47500000       0.12500000       0.07500000 </v>
   <v>       0.17500000       0.17500000       0.07500000 </v>
   <v>       0.22500000       0.17500000       0.07500000 </v>
   <v>       0.27500000       0.17500000       0.07500000 </v>
   <v>       0.32500000       0.17500000       0.07500000 </v>
   <v>       0.37500000       0.17500000       0.07500000 </v>
   <v>       0.42500000       0.17500000       0.07500000 </v>
   <v>       0.47500000       0.17500000       0.07500000 </v>
   <v>       0.22500000       0.22500000       0.07500000 </v>
   <v>       0.27500000       0.22500000       0.07500000 </v>
   <v>       0.32500000       0.22500000       0.07500000 </v>
   <v>       0.37500000       0.22500000       0.07500000 </v>
   <v>       0.42500000       0.22500000       0.07500000 </v>
   <v>       0.47500000       0.22500000       0.07500000 </v>
   <v>       0.27500000       0.27500000       0.07500000 </v>
   <v>       0.32500000       0.27500000       0.07500000 </v>
   <v>       0.37500000       0.27500000       0.07500000 </v>
   <v>       0.42500000       0.27500000       0.07500000 </v>
   <v>       0.47500000       0.27500000       0.07500000 </v>
   <v>       0.32500000       0.32500000       0.07500000 </v>
   <v>       0.37500000       0.32500000       0.07500000 </v>
   <v>       0.42500000       0.32500000       0.07500000 </v>
   <v>       0.47500000       0.32500000       0.07500000 </v>
   <v>       0.37500000       0.37500000       0.07500000 </v>
   <v>       0.42500000       0.37500000       0.07500000 </v>
   <v>       0.47500000       0.37500000       0.07500000 </v>
   <v>       0.42500000       0.42500000       0.07500000 </v>
   <v>       0.47500000       0.42500000       0.07500000 </v>
   <v>       0.47500000       0.47500000       0.07500000 </v>
   <v>       0.12500000       0.12500000       0.12500000 </v>
   <v>       0.17500000       0.12500000       0.12500000 </v>
   <v>       0.22500000       0.12500000       0.12500000 </v>
   <v>       0.27500000       0.12500000       0.12500000 </v>
   <v>       0.32500000       0.12500000       0.12500000 </v>
   <v>       0.37500000       0.12500000       0.12500000 </v>
   <v>       0.42500000       0.12500000       0.12500000 </v>
   <v>       0.47500000       0.12500000       0.12500000 </v>
   <v>       0.17500000       0.17500000       0.12500000 </v>
   <v>       0.22500000       0.17500000       0.12500000 </v>
   <v>       0.27500000       0.17500000       0.12500000 </v>
   <v>       0.32500000       0.17500000       0.12500000 </v>
   <v>       0.37500000       0.17500000       0.12500000 </v>
   <v>       0.42500000       0.17500000       0.12500000 </v>
   <v>       0.47500000       0.17500000       0.12500000 </v>
   <v>       0.22500000       0.22500000       0.12500000 </v>
   <v>       0.27500000       0.22500000       0.12500000 </v>
   <v>       0.32500000       0.22500000       0.12500000 </v>
   <v>       0.37500000       0.22500000       0.12500000 </v>
   <v>       0.42500000       0.22500000       0.12500000 </v>
   <v>       0.47500000       0.22500000       0.12500000 </v>
   <v>       0.27500000       0.27500000       0.12500000 </v>
   <v>       0.32500000       0.27500000       0.12500000 </v>
   <v>       0.37500000       0.27500000       0.12500000 </v>
   <v>       0.42500000       0.27500000       0.12500000 </v>
   <v>       0.47500000       0.27500000       0.12500000 </v>
   <v>       0.32500000       0.32500000       0.12500000 </v>
   <v>       0.37500000       0.32500000       0.12500000 </v>
   <v>       0.42500000       0.32500000       0.12500000 </v>
   <v>       0.47500000       0.32500000       0.12500000 </v>
   <v>       0.37500000       0.37500000       0.12500000 </v>
   <v>       0.42500000       0.37500000       0.12500000 </v>
   <v>       0.47500000       0.37500000       0.12500000 </v>
   <v>       0.42500000       0.42500000       0.12500000 </v>
   <v>       0.47500000       0.42500000       0.12500000 </v>
   <v>       0.47500000       0.47500000       0.12500000 </v>
   <v>       0.17500000       0.17500000       0.17500000 </v>
   <v>       0.22500000       0.17500000       0.17500000 </v>
   <v>       0.27500000       0.17500000       0.17500000 </v>
   <v>       0.32500000       0.17500000       0.17500000 </v>
   <v>       0.37500000       0.17500000       0.17500000 </v>
   <v>       0.42500000       0.17500000       0.17500000 </v>
   <v>       0.47500000       0.17500000       0.17500000 </v>
   <v>       0.22500000       0.22500000       0.17500000 </v>
   <v>       0.27500000       0.22500000       0.17500000 </v>
   <v>       0.32500000       0.22500000       0.17500000 </v>
   <v>       0.37500000       0.22500000       0.17500000 </v>
   <v>       0.42500000       0.22500000       0.17500000 </v>
   <v>       0.47500000       0.22500000       0.17500000 </v>
   <v>       0.27500000       0.27500000       0.17500000 </v>
   <v>       0.32500000       0.27500000       0.17500000 </v>
   <v>       0.37500000       0.27500000       0.17500000 </v>
   <v>       0.42500000       0.27500000       0.17500000 </v>
   <v>       0.47500000       0.27500000       0.17500000 </v>
   <v>       0.32500000       0.32500000       0.17500000 </v>
   <v>       0.37500000       0.32500000       0.17500000 </v>
   <v>       0.42500000       0.32500000       0.17500000 </v>
   <v>       0.47500000       0.32500000       0.17500000 </v>
   <v>       0.37500000       0.37500000       0.17500000 </v>
   <v>       0.42500000       0.37500000       0.17500000 </v>
   <v>       0.47500000       0.37500000       0.17500000 </v>
   <v>       0.42500000       0.42500000       0.17500000 </v>
   <v>       0.47500000       0.42500000       0.17500000 </v>
   <v>       0.47500000       0.47500000       0.17500000 </v>
   <v>       0.22500000       0.22500000       0.22500000 </v>
   <v>       0.27500000       0.22500000       0.22500000 </v>
   <v>       0.32500000       0.22500000       0.22500000 </v>
   <v>       0.37500000       0.22500000       0.22500000 </v>
   <v>       0.42500000       0.22500000       0.22500000 </v>
   <v>       0.47500000       0.22500000       0.22500000 </v>
   <v>       0.27500000       0.27500000       0.22500000 </v>
   <v>       0.32500000       0.27500000       0.22500000 </v>
   <v>       0.37500000       0.27500000       0.22500000 </v>
   <v>       0.42500000       0.27500000       0.22500000 </v>
   <v>       0.47500000       0.27500000       0.22500000 </v>
   <v>       0.32500000       0.32500000       0.22500000 </v>
   <v>       0.37500000       0.32500000       0.22500000 </v>
   <v>       0.42500000       0.32500000       0.22500000 </v>
   <v>       0.47500000       0.32500000       0.22500000 </v>
   <v>       0.37500000       0.37500000       0.22500000 </v>
   <v>       0.42500000       0.37500000       0.22500000 </v>
   <v>       0.47500000       0.37500000       0.22500000 </v>
   <v>       0.42500000       0.42500000       0.22500000 </v>
   <v>       0.47500000       0.42500000       0.22500000 </v>
   <v>       0.47500000       0.47500000       0.22500000 </v>
   <v>       0.27500000       0.27500000       0.27500000 </v>
   <v>       0.32500000       0.27500000       0.27500000 </v>
   <v>       0.37500000       0.27500000       0.27500000 </v>
   <v>       0.42500000       0.27500000       0.27500000 </v>
   <v>       0.47500000       0.27500000       0.27500000 </v>
   <v>       0.32500000       0.32500000       0.27500000 </v>
   <v>       0.37500000       0.32500000       0.27500000 </v>
   <v>       0.42500000       0.32500000       0.27500000 </v>
   <v>       0.47500000       0.32500000       0.27500000 </v>
   <v>       0.37500000       0.37500000       0.27500000 </v>
   <v>       0.42500000       0.37500000       0.27500000 </v>
   <v>       0.47500000       0.37500000       0.27500000 </v>
   <v>       0.42500000       0.42500000       0.27500000 </v>
   <v>       0.47500000       0.42500000       0.27500000 </v>
   <v>       0.47500000       0.47500000       0.27500000 </v>
   <v>       0.32500000       0.32500000       0.32500000 </v>
   <v>       0.37500000       0.32500000       0.32500000 </v>
   <v>       0.42500000       0.32500000       0.32500000 </v>
   <v>       0.47500000       0.32500000       0.32500000 </v>
   <v>       0.37500000       0.37500000       0.32500000 </v>
   <v>       0.42500000       0.37500000       0.32500000 </v>
   <v>       0.47500000       0.37500000       0.32500000 </v>
   <v>       0.42500000       0.42500000       0.32500000 </v>
   <v>       0.47500000       0.42500000       0.32500000 </v>
   <v>       0.47500000       0.47500000       0.32500000 </v>
   <v>       0.37500000       0.37500000       0.37500000 </v>
   <v>       0.42500000       0.37500000       0.37500000 </v>
   <v>       0.47500000       0.37500000       0.37500000 </v>
   <v>       0.42500000       0.42500000       0.37500000 </v>
   <v>       0.47500000       0.42500000       0.37500000 </v>
   <v>       0.47500000       0.47500000       0.37500000 </v>
   <v>       0.42500000       0.42500000       0.42500000 </v>
   <v>       0.47500000       0.42500000       0.42500000 </v>
   <v>       0.47500000       0.47500000       0.42500000 </v>
   <v>       0.47500000       0.47500000       0.47500000 </v>
  </varray>
  <varray name="weights" >
   <v>       0.00100000 </v>
   <v>       0.00300000 </v>
   <v>       0.00300000 </v>
   <v>       0.00300000 </v>
   <v>       0.00300000 </v>
   <v>       0.00300000 </v>
   <v>       0.00300000 </v>
   <v>       0.00300000 </v>
   <v>       0.00300000 </v>
   <v>       0.00300000 </v>
   <v>       0.00300000 </v>
   <v>       0.00600000 </v>
   <v>       0.00600000 </v>
   <v>       0.00600000 </v>
   <v>       0.00600000 </v>
   <v>       0.00600000 </v>
   <v>       0.00600000 </v>
   <v>       0.00600000 </v>
   <v>       0.00600000 </v>
   <v>       0.00300000 </v>
   <v>       0.00600000 </v>
   <v>       0.00600000 </v>
   <v>       0.00600000 </v>
   <v>       0.00600000 </v>
   <v>       0.00600000 </v>
   <v>       0.00600000 </v>
   <v>       0.00600000 </v>
   <v>       0.00300000 </v>
   <v>       0.00600000 </v>
   <v>       0.00600000 </v>
   <v>       0.00600000 </v>
   <v>       0.00600000 </v>
   <v>       0.00600000 </v>
   <v>       0.00600000 </v>
   <v>       0.00300000 </v>
   <v>       0.00600000 </v>
   <v>       0.00600000 </v>
   <v>       0.00600000 </v>
   <v>       0.00600000 </v>
   <v>       0.00600000 </v>
   <v>       0.00300000 </v>
   <v>       0.00600000 </v>
   <v>       0.00600000 </v>
   <v>       0.00600000 </v>
   <v>       0.00600000 </v>
   <v>       0.00300000 </v>
   <v>       0.00600000 </v>
   <v>       0.00600000 </v>
   <v>       0.00600000 </v>
   <v>       0.00300000 </v>
   <v>       0.00600000 </v>
   <v>       0.00600000 </v>
   <v>       0.00300000 </v>
   <v>       0.00600000 </v>
   <v>       0.00300000 </v>
   <v>       0.00100000 </v>
   <v>       0.00300000 </v>
   <v>       0.00300000 </v>
   <v>       0.00300000 </v>
   <v>       0.00300000 </v>
   <v>       0.00300000 </v>
   <v>       0.00300000 </v>
   <v>       0.00300000 </v>
   <v>       0.00300000 </v>
   <v>       0.00300000 </v>
   <v>       0.00600000 </v>
   <v>       0.00600000 </v>
   <v>       0.00600000 </v>
   <v>       0.00600000 </v>
   <v>       0.00600000 </v>
   <v>       0.00600000 </v>
   <v>       0.00600000 </v>
   <v>       0.00300000 </v>
   <v>       0.00600000 </v>
   <v>       0.00600000 </v>
   <v>       0.00600000 </v>
   <v>       0.00600000 </v>
   <v>       0.00600000 </v>
   <v>       0.00600000 </v>
   <v>       0.00300000 </v>
   <v>       0.00600000 </v>
   <v>       0.00600000 </v>
   <v>       0.00600000 </v>
   <v>       0.00600000 </v>
   <v>       0.00600000 </v>
   <v>       0.00300000 </v>
   <v>       0.00600000 </v>
   <v>       0.00600000 </v>
   <v>       0.00600000 </v>
   <v>       0.00600000 </v>
   <v>       0.00300000 </v>
   <v>       0.00600000 </v>
   <v>       0.00600000 </v>
   <v>       0.00600000 </v>
   <v>       0.00300000 </v>
   <v>       0.00600000 </v>
   <v>       0.00600000 </v>
   <v>       0.00300000 </v>
   <v>       0.00600000 </v>
   <v>       0.00300000 </v>
   <v>       0.00100000 </v>
   <v>       0.00300000 </v>
   <v>       0.00300000 </v>
   <v>       0.00300000 </v>
   <v>       0.00300000 </v>
   <v>       0.00300000 </v>
   <v>       0.00300000 </v>
   <v>       0.00300000 </v>
   <v>       0.00300000 </v>
   <v>       0.00600000 </v>
   <v>       0.00600000 </v>
   <v>       0.00600000 </v>
   <v>       0.00600000 </v>
   <v>       0.00600000 </v>
   <v>       0.00600000 </v>
   <v>       0.00300000 </v>
   <v>       0.00600000 </v>
   <v>       0.00600000 </v>
   <v>       0.00600000 </v>
   <v>       0.00600000 </v>
   <v>       0.00600000 </v>
   <v>       0.00300000 </v>
   <v>       0.00600000 </v>
   <v>       0.00600000 </v>
   <v>       0.00600000 </v>
   <v>       0.00600000 </v>
   <v>       0.00300000 </v>
   <v>       0.00600000 </v>
   <v>       0.00600000 </v>
   <v>       0.00600000 </v>
   <v>       0.00300000 </v>
   <v>       0.00600000 </v>
   <v>       0.00600000 </v>
   <v>       0.00300000 </v>
   <v>       0.00600000 </v>
   <v>       0.00300000 </v>
   <v>       0.00100000 </v>
   <v>       0.00300000 </v>
   <v>       0.00300000 </v>
   <v>       0.00300000 </v>
   <v>       0.00300000 </v>
   <v>       0.00300000 </v>
   <v>       0.00300000 </v>
   <v>       0.00300000 </v>
   <v>       0.00600000 </v>
   <v>       0.00600000 </v>
   <v>       0.00600000 </v>
   <v>       0.00600000 </v>
   <v>       0.00600000 </v>
   <v>       0.00300000 </v>
   <v>       0.00600000 </v>
   <v>       0.00600000 </v>
   <v>       0.00600000 </v>
   <v>       0.00600000 </v>
   <v>       0.00300000 </v>
   <v>       0.00600000 </v>
   <v>       0.00600000 </v>
   <v>       0.00600000 </v>
   <v>       0.00300000 </v>
   <v>       0.00600000 </v>
   <v>       0.00600000 </v>
   <v>       0.00300000 </v>
   <v>       0.00600000 </v>
   <v>       0.00300000 </v>
   <v>       0.00100000 </v>
   <v>       0.00300000 </v>
   <v>       0.00300000 </v>
   <v>       0.00300000 </v>
   <v>       0.00300000 </v>
   <v>       0.00300000 </v>
   <v>       0.00300000 </v>
   <v>       0.00600000 </v>
   <v>       0.00600000 </v>
   <v>       0.00600000 </v>
   <v>       0.00600000 </v>
   <v>       0.00300000 </v>
   <v>       0.00600000 </v>
   <v>       0.00600000 </v>
   <v>       0.00600000 </v>
   <v>       0.00300000 </v>
   <v>       0.00600000 </v>
   <v>       0.00600000 </v>
   <v>       0.00300000 </v>
   <v>       0.00600000 </v>
   <v>       0.00300000 </v>
   <v>       0.00100000 </v>
   <v>       0.00300000 </v>
   <v>       0.00300000 </v>
   <v>       0.00300000 </v>
   <v>       0.00300000 </v>
   <v>       0.00300000 </v>
   <v>       0.00600000 </v>
   <v>       0.00600000 </v>
   <v>       0.00600000 </v>
   <v>       0.00300000 </v>
   <v>       0.00600000 </v>
   <v>       0.00600000 </v>
   <v>       0.00300000 </v>
   <v>       0.00600000 </v>
   <v>       0.00300000 </v>
   <v>       0.00100000 </v>
   <v>       0.00300000 </v>
   <v>       0.00300000 </v>
   <v>       0.00300000 </v>
   <v>       0.00300000 </v>
   <v>       0.00600000 </v>
   <v>       0.00600000 </v>
   <v>       0.00300000 </v>
   <v>       0.00600000 </v>
   <v>       0.00300000 </v>
   <v>       0.00100000 </v>
   <v>       0.00300000 </v>
   <v>       0.00300000 </v>
   <v>       0.00300000 </v>
   <v>       0.00600000 </v>
   <v>       0.00300000 </v>
   <v>       0.00100000 </v>
   <v>       0.00300000 </v>
   <v>       0.00300000 </v>
   <v>       0.00100000 </v>
  </varray>
  <varray name="tetrahedronlist"  type="int" >
   <v type="int" >       24        1        2        2       11 </v>
   <v type="int" >       18        2        2       11       11 </v>
   <v type="int" >       12        2       11       11       56 </v>
   <v type="int" >       12        2        3       11       12 </v>
   <v type="int" >       24        2       11       11       12 </v>
   <v type="int" >       12       11       11       12       56 </v>
   <v type="int" >       24        3       11       12       12 </v>
   <v type="int" >       24       11       12       12       57 </v>
   <v type="int" >       24       11       12       56       57 </v>
   <v type="int" >       12        3        4       12       13 </v>
   <v type="int" >       24        3       12       12       13 </v>
   <v type="int" >       12       12       12       13       57 </v>
   <v type="int" >       24        4       12       13       13 </v>
   <v type="int" >       12       12       13       13       58 </v>
   <v type="int" >       12       12       13       57       58 </v>
   <v type="int" >       12        4        5       13       14 </v>
   <v type="int" >       24        4       13       13       14 </v>
   <v type="int" >       12       13       13       14       58 </v>
   <v type="int" >       24        5       13       14       14 </v>
   <v type="int" >       12       13       14       14       59 </v>
   <v type="int" >       12       13       14       58       59 </v>
   <v type="int" >       12        5        6       14       15 </v>
   <v type="int" >       24        5       14       14       15 </v>
   <v type="int" >       12       14       14       15       59 </v>
   <v type="int" >       24        6       14       15       15 </v>
   <v type="int" >       12       14       15       15       60 </v>
   <v type="int" >       12       14       15       59       60 </v>
   <v type="int" >       12        6        7       15       16 </v>
   <v type="int" >       24        6       15       15       16 </v>
   <v type="int" >       12       15       15       16       60 </v>
   <v type="int" >       24        7       15       16       16 </v>
   <v type="int" >       12       15       16       16       61 </v>
   <v type="int" >       12       15       16       60       61 </v>
   <v type="int" >       12        7        8       16       17 </v>
   <v type="int" >       24        7       16       16       17 </v>
   <v type="int" >       12       16       16       17       61 </v>
   <v type="int" >       24        8       16       17       17 </v>
   <v type="int" >       12       16       17       17       62 </v>
   <v type="int" >       12       16       17       61       62 </v>
   <v type="int" >       12        8        9       17       18 </v>
   <v type="int" >       24        8       17       17       18 </v>
   <v type="int" >       12       17       17       18       62 </v>
   <v type="int" >       24        9       17       18       18 </v>
   <v type="int" >       12       17       18       18       63 </v>
   <v type="int" >       12       17       18       62       63 </v>
   <v type="int" >       12        9       10       18       19 </v>
   <v type="int" >       24        9       18       18       19 </v>
   <v type="int" >       12       18       18       19       63 </v>
   <v type="int" >       24       10       18       19       19 </v>
   <v type="int" >       12       18       19       19       64 </v>
   <v type="int" >       12       18       19       63       64 </v>
   <v type="int" >       30       10       10       19       19 </v>
   <v type="int" >       36       10       19       19       19 </v>
   <v type="int" >       12       19       19       19       64 </v>
   <v type="int" >        6       19       19       64       64 </v>
   <v type="int" >       18        1        1        2        2 </v>
   <v type="int" >       24        1        2        2        2 </v>
   <v type="int" >       12        2        2        2       11 </v>
   <v type="int" >       12       11       12       20       56 </v>
   <v type="int" >       12       12       20       56       57 </v>
   <v type="int" >       12       20       56       57       65 </v>
   <v type="int" >       12       12       13       21       57 </v>
   <v type="int" >       12       12       20       21       57 </v>
   <v type="int" >       12       20       21       57       65 </v>
   <v type="int" >       12       13       21       57       58 </v>
   <v type="int" >       12       21       57       58       66 </v>
   <v type="int" >       12       21       57       65       66 </v>
   <v type="int" >       12       13       14       22       58 </v>
   <v type="int" >       12       13       21       22       58 </v>
   <v type="int" >       12       21       22       58       66 </v>
   <v type="int" >       12       14       22       58       59 </v>
   <v type="int" >       12       22       58       59       67 </v>
   <v type="int" >       12       22       58       66       67 </v>
   <v type="int" >       12       14       15       23       59 </v>
   <v type="int" >       12       14       22       23       59 </v>
   <v type="int" >       12       22       23       59       67 </v>
   <v type="int" >       12       15       23       59       60 </v>
   <v type="int" >       12       23       59       60       68 </v>
   <v type="int" >       12       23       59       67       68 </v>
   <v type="int" >       12       15       16       24       60 </v>
   <v type="int" >       12       15       23       24       60 </v>
   <v type="int" >       12       23       24       60       68 </v>
   <v type="int" >       12       16       24       60       61 </v>
   <v type="int" >       12       24       60       61       69 </v>
   <v type="int" >       12       24       60       68       69 </v>
   <v type="int" >       12       16       17       25       61 </v>
   <v type="int" >       12       16       24       25       61 </v>
   <v type="int" >       12       24       25       61       69 </v>
   <v type="int" >       12       17       25       61       62 </v>
   <v type="int" >       12       25       61       62       70 </v>
   <v type="int" >       12       25       61       69       70 </v>
   <v type="int" >       12       17       18       26       62 </v>
   <v type="int" >       12       17       25       26       62 </v>
   <v type="int" >       12       25       26       62       70 </v>
   <v type="int" >       12       18       26       62       63 </v>
   <v type="int" >       12       26       62       63       71 </v>
   <v type="int" >       12       26       62       70       71 </v>
   <v type="int" >       12       18       19       27       63 </v>
   <v type="int" >       12       18       26       27       63 </v>
   <v type="int" >       12       26       27       63       71 </v>
   <v type="int" >       12       19       27       63       64 </v>
   <v type="int" >       12       27       63       64       72 </v>
   <v type="int" >       12       27       63       71       72 </v>
   <v type="int" >       12       19       19       27       64 </v>
   <v type="int" >       12       19       27       27       64 </v>
   <v type="int" >       12       27       27       64       72 </v>
   <v type="int" >       12       19       27       64       64 </v>
   <v type="int" >       12       27       64       64       72 </v>
   <v type="int" >       12       27       64       72       72 </v>
   <v type="int" >       12       18       19       26       64 </v>
   <v type="int" >       12       19       26       27       64 </v>
   <v type="int" >       12       26       27       64       72 </v>
   <v type="int" >       12       18       26       63       64 </v>
   <v type="int" >       12       26       63       64       71 </v>
   <v type="int" >       12       26       64       71       72 </v>
   <v type="int" >       12       17       18       25       63 </v>
   <v type="int" >       12       18       25       26       63 </v>
   <v type="int" >       12       25       26       63       71 </v>
   <v type="int" >       12       17       25       62       63 </v>
   <v type="int" >       12       25       62       63       70 </v>
   <v type="int" >       12       25       63       70       71 </v>
   <v type="int" >       12       16       17       24       62 </v>
   <v type="int" >       12       17       24       25       62 </v>
   <v type="int" >       12       24       25       62       70 </v>
   <v type="int" >       12       16       24       61       62 </v>
   <v type="int" >       12       24       61       62       69 </v>
   <v type="int" >       12       24       62       69       70 </v>
   <v type="int" >       12       15       16       23       61 </v>
   <v type="int" >       12       16       23       24       61 </v>
   <v type="int" >       12       23       24       61       69 </v>
   <v type="int" >       12       15       23       60       61 </v>
   <v type="int" >       12       23       60       61       68 </v>
   <v type="int" >       12       23       61       68       69 </v>
   <v type="int" >       12       14       15       22       60 </v>
   <v type="int" >       12       15       22       23       60 </v>
   <v type="int" >       12       22       23       60       68 </v>
   <v type="int" >       12       14       22       59       60 </v>
   <v type="int" >       12       22       59       60       67 </v>
   <v type="int" >       12       22       60       67       68 </v>
   <v type="int" >       12       13       14       21       59 </v>
   <v type="int" >       12       14       21       22       59 </v>
   <v type="int" >       12       21       22       59       67 </v>
   <v type="int" >       12       13       21       58       59 </v>
   <v type="int" >       12       21       58       59       66 </v>
   <v type="int" >       12       21       59       66       67 </v>
   <v type="int" >       12       12       13       20       58 </v>
   <v type="int" >       12       13       20       21       58 </v>
   <v type="int" >       12       20       21       58       66 </v>
   <v type="int" >       12       12       20       57       58 </v>
   <v type="int" >       12       20       57       58       65 </v>
   <v type="int" >       12       20       58       65       66 </v>
   <v type="int" >       12       12       12       20       57 </v>
   <v type="int" >       12       12       20       57       65 </v>
   <v type="int" >       12       12       56       57       57 </v>
   <v type="int" >       12       12       57       57       65 </v>
   <v type="int" >       12        2        3       11       56 </v>
   <v type="int" >       12        3       11       12       56 </v>
   <v type="int" >       12        3       12       56       57 </v>
   <v type="int" >       12        2        2        3       11 </v>
   <v type="int" >       12        2        3        3       11 </v>
   <v type="int" >       12        3        3       11       12 </v>
   <v type="int" >       12        2        3       11       11 </v>
   <v type="int" >       12        3       11       11       12 </v>
   <v type="int" >       12       20       21       28       65 </v>
   <v type="int" >       12       21       28       65       66 </v>
   <v type="int" >       12       28       65       66       73 </v>
   <v type="int" >       12       21       22       29       66 </v>
   <v type="int" >       12       21       28       29       66 </v>
   <v type="int" >       12       28       29       66       73 </v>
   <v type="int" >       12       22       29       66       67 </v>
   <v type="int" >       12       29       66       67       74 </v>
   <v type="int" >       12       29       66       73       74 </v>
   <v type="int" >       12       22       23       30       67 </v>
   <v type="int" >       12       22       29       30       67 </v>
   <v type="int" >       12       29       30       67       74 </v>
   <v type="int" >       12       23       30       67       68 </v>
   <v type="int" >       12       30       67       68       75 </v>
   <v type="int" >       12       30       67       74       75 </v>
   <v type="int" >       12       23       24       31       68 </v>
   <v type="int" >       12       23       30       31       68 </v>
   <v type="int" >       12       30       31       68       75 </v>
   <v type="int" >       12       24       31       68       69 </v>
   <v type="int" >       12       31       68       69       76 </v>
   <v type="int" >       12       31       68       75       76 </v>
   <v type="int" >       12       24       25       32       69 </v>
   <v type="int" >       12       24       31       32       69 </v>
   <v type="int" >       12       31       32       69       76 </v>
   <v type="int" >       12       25       32       69       70 </v>
   <v type="int" >       12       32       69       70       77 </v>
   <v type="int" >       12       32       69       76       77 </v>
   <v type="int" >       12       25       26       33       70 </v>
   <v type="int" >       12       25       32       33       70 </v>
   <v type="int" >       12       32       33       70       77 </v>
   <v type="int" >       12       26       33       70       71 </v>
   <v type="int" >       12       33       70       71       78 </v>
   <v type="int" >       12       33       70       77       78 </v>
   <v type="int" >       12       26       27       34       71 </v>
   <v type="int" >       12       26       33       34       71 </v>
   <v type="int" >       12       33       34       71       78 </v>
   <v type="int" >       12       27       34       71       72 </v>
   <v type="int" >       12       34       71       72       79 </v>
   <v type="int" >       12       34       71       78       79 </v>
   <v type="int" >       12       27       27       34       72 </v>
   <v type="int" >       12       27       34       34       72 </v>
   <v type="int" >       12       34       34       72       79 </v>
   <v type="int" >       12       27       34       72       72 </v>
   <v type="int" >       12       34       72       72       79 </v>
   <v type="int" >       12       34       72       79       79 </v>
   <v type="int" >       12       26       27       33       72 </v>
   <v type="int" >       12       27       33       34       72 </v>
   <v type="int" >       12       33       34       72       79 </v>
   <v type="int" >       12       26       33       71       72 </v>
   <v type="int" >       12       33       71       72       78 </v>
   <v type="int" >       12       33       72       78       79 </v>
   <v type="int" >       12       25       26       32       71 </v>
   <v type="int" >       12       26       32       33       71 </v>
   <v type="int" >       12       32       33       71       78 </v>
   <v type="int" >       12       25       32       70       71 </v>
   <v type="int" >       12       32       70       71       77 </v>
   <v type="int" >       12       32       71       77       78 </v>
   <v type="int" >       12       24       25       31       70 </v>
   <v type="int" >       12       25       31       32       70 </v>
   <v type="int" >       12       31       32       70       77 </v>
   <v type="int" >       12       24       31       69       70 </v>
   <v type="int" >       12       31       69       70       76 </v>
   <v type="int" >       12       31       70       76       77 </v>
   <v type="int" >       12       23       24       30       69 </v>
   <v type="int" >       12       24       30       31       69 </v>
   <v type="int" >       12       30       31       69       76 </v>
   <v type="int" >       12       23       30       68       69 </v>
   <v type="int" >       12       30       68       69       75 </v>
   <v type="int" >       12       30       69       75       76 </v>
   <v type="int" >       12       22       23       29       68 </v>
   <v type="int" >       12       23       29       30       68 </v>
   <v type="int" >       12       29       30       68       75 </v>
   <v type="int" >       12       22       29       67       68 </v>
   <v type="int" >       12       29       67       68       74 </v>
   <v type="int" >       12       29       68       74       75 </v>
   <v type="int" >       12       21       22       28       67 </v>
   <v type="int" >       12       22       28       29       67 </v>
   <v type="int" >       12       28       29       67       74 </v>
   <v type="int" >       12       21       28       66       67 </v>
   <v type="int" >       12       28       66       67       73 </v>
   <v type="int" >       12       28       67       73       74 </v>
   <v type="int" >       12       20       21       21       66 </v>
   <v type="int" >       12       21       21       28       66 </v>
   <v type="int" >       12       21       28       66       73 </v>
   <v type="int" >       12       20       21       65       66 </v>
   <v type="int" >       12       21       65       66       66 </v>
   <v type="int" >       12       21       66       66       73 </v>
   <v type="int" >       12       12       13       20       65 </v>
   <v type="int" >       12       13       20       21       65 </v>
   <v type="int" >       12       13       21       65       66 </v>
   <v type="int" >       12       12       13       57       65 </v>
   <v type="int" >       12       13       57       58       65 </v>
   <v type="int" >       12       13       58       65       66 </v>
   <v type="int" >       12        3        4       12       57 </v>
   <v type="int" >       12        4       12       13       57 </v>
   <v type="int" >       12        4       13       57       58 </v>
   <v type="int" >       12        3        3        4       12 </v>
   <v type="int" >       12        3        4        4       12 </v>
   <v type="int" >       12        4        4       12       13 </v>
   <v type="int" >       12        3        4       12       12 </v>
   <v type="int" >       12        4       12       12       13 </v>
   <v type="int" >       12       28       29       35       73 </v>
   <v type="int" >       12       29       35       73       74 </v>
   <v type="int" >       12       35       73       74       80 </v>
   <v type="int" >       12       29       30       36       74 </v>
   <v type="int" >       12       29       35       36       74 </v>
   <v type="int" >       12       35       36       74       80 </v>
   <v type="int" >       12       30       36       74       75 </v>
   <v type="int" >       12       36       74       75       81 </v>
   <v type="int" >       12       36       74       80       81 </v>
   <v type="int" >       12       30       31       37       75 </v>
   <v type="int" >       12       30       36       37       75 </v>
   <v type="int" >       12       36       37       75       81 </v>
   <v type="int" >       12       31       37       75       76 </v>
   <v type="int" >       12       37       75       76       82 </v>
   <v type="int" >       12       37       75       81       82 </v>
   <v type="int" >       12       31       32       38       76 </v>
   <v type="int" >       12       31       37       38       76 </v>
   <v type="int" >       12       37       38       76       82 </v>
   <v type="int" >       12       32       38       76       77 </v>
   <v type="int" >       12       38       76       77       83 </v>
   <v type="int" >       12       38       76       82       83 </v>
   <v type="int" >       12       32       33       39       77 </v>
   <v type="int" >       12       32       38       39       77 </v>
   <v type="int" >       12       38       39       77       83 </v>
   <v type="int" >       12       33       39       77       78 </v>
   <v type="int" >       12       39       77       78       84 </v>
   <v type="int" >       12       39       77       83       84 </v>
   <v type="int" >       12       33       34       40       78 </v>
   <v type="int" >       12       33       39       40       78 </v>
   <v type="int" >       12       39       40       78       84 </v>
   <v type="int" >       12       34       40       78       79 </v>
   <v type="int" >       12       40       78       79       85 </v>
   <v type="int" >       12       40       78       84       85 </v>
   <v type="int" >       12       34       34       40       79 </v>
   <v type="int" >       12       34       40       40       79 </v>
   <v type="int" >       12       40       40       79       85 </v>
   <v type="int" >       12       34       40       79       79 </v>
   <v type="int" >       12       40       79       79       85 </v>
   <v type="int" >       12       40       79       85       85 </v>
   <v type="int" >       12       33       34       39       79 </v>
   <v type="int" >       12       34       39       40       79 </v>
   <v type="int" >       12       39       40       79       85 </v>
   <v type="int" >       12       33       39       78       79 </v>
   <v type="int" >       12       39       78       79       84 </v>
   <v type="int" >       12       39       79       84       85 </v>
   <v type="int" >       12       32       33       38       78 </v>
   <v type="int" >       12       33       38       39       78 </v>
   <v type="int" >       12       38       39       78       84 </v>
   <v type="int" >       12       32       38       77       78 </v>
   <v type="int" >       12       38       77       78       83 </v>
   <v type="int" >       12       38       78       83       84 </v>
   <v type="int" >       12       31       32       37       77 </v>
   <v type="int" >       12       32       37       38       77 </v>
   <v type="int" >       12       37       38       77       83 </v>
   <v type="int" >       12       31       37       76       77 </v>
   <v type="int" >       12       37       76       77       82 </v>
   <v type="int" >       12       37       77       82       83 </v>
   <v type="int" >       12       30       31       36       76 </v>
   <v type="int" >       12       31       36       37       76 </v>
   <v type="int" >       12       36       37       76       82 </v>
   <v type="int" >       12       30       36       75       76 </v>
   <v type="int" >       12       36       75       76       81 </v>
   <v type="int" >       12       36       76       81       82 </v>
   <v type="int" >       12       29       30       35       75 </v>
   <v type="int" >       12       30       35       36       75 </v>
   <v type="int" >       12       35       36       75       81 </v>
   <v type="int" >       12       29       35       74       75 </v>
   <v type="int" >       12       35       74       75       80 </v>
   <v type="int" >       12       35       75       80       81 </v>
   <v type="int" >       12       28       29       29       74 </v>
   <v type="int" >       12       29       29       35       74 </v>
   <v type="int" >       12       29       35       74       80 </v>
   <v type="int" >       12       28       29       73       74 </v>
   <v type="int" >       12       29       73       74       74 </v>
   <v type="int" >       12       29       74       74       80 </v>
   <v type="int" >       12       21       22       28       73 </v>
   <v type="int" >       12       22       28       29       73 </v>
   <v type="int" >       12       22       29       73       74 </v>
   <v type="int" >       12       21       22       66       73 </v>
   <v type="int" >       12       22       66       67       73 </v>
   <v type="int" >       12       22       67       73       74 </v>
   <v type="int" >       12       13       14       21       66 </v>
   <v type="int" >       12       14       21       22       66 </v>
   <v type="int" >       12       14       22       66       67 </v>
   <v type="int" >       12       13       14       58       66 </v>
   <v type="int" >       12       14       58       59       66 </v>
   <v type="int" >       12       14       59       66       67 </v>
   <v type="int" >       12        4        5       13       58 </v>
   <v type="int" >       12        5       13       14       58 </v>
   <v type="int" >       12        5       14       58       59 </v>
   <v type="int" >       12        4        4        5       13 </v>
   <v type="int" >       12        4        5        5       13 </v>
   <v type="int" >       12        5        5       13       14 </v>
   <v type="int" >       12        4        5       13       13 </v>
   <v type="int" >       12        5       13       13       14 </v>
   <v type="int" >       12       35       36       41       80 </v>
   <v type="int" >       12       36       41       80       81 </v>
   <v type="int" >       12       41       80       81       86 </v>
   <v type="int" >       12       36       37       42       81 </v>
   <v type="int" >       12       36       41       42       81 </v>
   <v type="int" >       12       41       42       81       86 </v>
   <v type="int" >       12       37       42       81       82 </v>
   <v type="int" >       12       42       81       82       87 </v>
   <v type="int" >       12       42       81       86       87 </v>
   <v type="int" >       12       37       38       43       82 </v>
   <v type="int" >       12       37       42       43       82 </v>
   <v type="int" >       12       42       43       82       87 </v>
   <v type="int" >       12       38       43       82       83 </v>
   <v type="int" >       12       43       82       83       88 </v>
   <v type="int" >       12       43       82       87       88 </v>
   <v type="int" >       12       38       39       44       83 </v>
   <v type="int" >       12       38       43       44       83 </v>
   <v type="int" >       12       43       44       83       88 </v>
   <v type="int" >       12       39       44       83       84 </v>
   <v type="int" >       12       44       83       84       89 </v>
   <v type="int" >       12       44       83       88       89 </v>
   <v type="int" >       12       39       40       45       84 </v>
   <v type="int" >       12       39       44       45       84 </v>
   <v type="int" >       12       44       45       84       89 </v>
   <v type="int" >       12       40       45       84       85 </v>
   <v type="int" >       12       45       84       85       90 </v>
   <v type="int" >       12       45       84       89       90 </v>
   <v type="int" >       12       40       40       45       85 </v>
   <v type="int" >       12       40       45       45       85 </v>
   <v type="int" >       12       45       45       85       90 </v>
   <v type="int" >       12       40       45       85       85 </v>
   <v type="int" >       12       45       85       85       90 </v>
   <v type="int" >       12       45       85       90       90 </v>
   <v type="int" >       12       39       40       44       85 </v>
   <v type="int" >       12       40       44       45       85 </v>
   <v type="int" >       12       44       45       85       90 </v>
   <v type="int" >       12       39       44       84       85 </v>
   <v type="int" >       12       44       84       85       89 </v>
   <v type="int" >       12       44       85       89       90 </v>
   <v type="int" >       12       38       39       43       84 </v>
   <v type="int" >       12       39       43       44       84 </v>
   <v type="int" >       12       43       44       84       89 </v>
   <v type="int" >       12       38       43       83       84 </v>
   <v type="int" >       12       43       83       84       88 </v>
   <v type="int" >       12       43       84       88       89 </v>
   <v type="int" >       12       37       38       42       83 </v>
   <v type="int" >       12       38       42       43       83 </v>
   <v type="int" >       12       42       43       83       88 </v>
   <v type="int" >       12       37       42       82       83 </v>
   <v type="int" >       12       42       82       83       87 </v>
   <v type="int" >       12       42       83       87       88 </v>
   <v type="int" >       12       36       37       41       82 </v>
   <v type="int" >       12       37       41       42       82 </v>
   <v type="int" >       12       41       42       82       87 </v>
   <v type="int" >       12       36       41       81       82 </v>
   <v type="int" >       12       41       81       82       86 </v>
   <v type="int" >       12       41       82       86       87 </v>
   <v type="int" >       12       35       36       36       81 </v>
   <v type="int" >       12       36       36       41       81 </v>
   <v type="int" >       12       36       41       81       86 </v>
   <v type="int" >       12       35       36       80       81 </v>
   <v type="int" >       12       36       80       81       81 </v>
   <v type="int" >       12       36       81       81       86 </v>
   <v type="int" >       12       29       30       35       80 </v>
   <v type="int" >       12       30       35       36       80 </v>
   <v type="int" >       12       30       36       80       81 </v>
   <v type="int" >       12       29       30       74       80 </v>
   <v type="int" >       12       30       74       75       80 </v>
   <v type="int" >       12       30       75       80       81 </v>
   <v type="int" >       12       22       23       29       74 </v>
   <v type="int" >       12       23       29       30       74 </v>
   <v type="int" >       12       23       30       74       75 </v>
   <v type="int" >       12       22       23       67       74 </v>
   <v type="int" >       12       23       67       68       74 </v>
   <v type="int" >       12       23       68       74       75 </v>
   <v type="int" >       12       14       15       22       67 </v>
   <v type="int" >       12       15       22       23       67 </v>
   <v type="int" >       12       15       23       67       68 </v>
   <v type="int" >       12       14       15       59       67 </v>
   <v type="int" >       12       15       59       60       67 </v>
   <v type="int" >       12       15       60       67       68 </v>
   <v type="int" >       12        5        6       14       59 </v>
   <v type="int" >       12        6       14       15       59 </v>
   <v type="int" >       12        6       15       59       60 </v>
   <v type="int" >       12        5        5        6       14 </v>
   <v type="int" >       12        5        6        6       14 </v>
   <v type="int" >       12        6        6       14       15 </v>
   <v type="int" >       12        5        6       14       14 </v>
   <v type="int" >       12        6       14       14       15 </v>
   <v type="int" >       12       41       42       46       86 </v>
   <v type="int" >       12       42       46       86       87 </v>
   <v type="int" >       12       46       86       87       91 </v>
   <v type="int" >       12       42       43       47       87 </v>
   <v type="int" >       12       42       46       47       87 </v>
   <v type="int" >       12       46       47       87       91 </v>
   <v type="int" >       12       43       47       87       88 </v>
   <v type="int" >       12       47       87       88       92 </v>
   <v type="int" >       12       47       87       91       92 </v>
   <v type="int" >       12       43       44       48       88 </v>
   <v type="int" >       12       43       47       48       88 </v>
   <v type="int" >       12       47       48       88       92 </v>
   <v type="int" >       12       44       48       88       89 </v>
   <v type="int" >       12       48       88       89       93 </v>
   <v type="int" >       12       48       88       92       93 </v>
   <v type="int" >       12       44       45       49       89 </v>
   <v type="int" >       12       44       48       49       89 </v>
   <v type="int" >       12       48       49       89       93 </v>
   <v type="int" >       12       45       49       89       90 </v>
   <v type="int" >       12       49       89       90       94 </v>
   <v type="int" >       12       49       89       93       94 </v>
   <v type="int" >       12       45       45       49       90 </v>
   <v type="int" >       12       45       49       49       90 </v>
   <v type="int" >       12       49       49       90       94 </v>
   <v type="int" >       12       45       49       90       90 </v>
   <v type="int" >       12       49       90       90       94 </v>
   <v type="int" >       12       49       90       94       94 </v>
   <v type="int" >       12       44       45       48       90 </v>
   <v type="int" >       12       45       48       49       90 </v>
   <v type="int" >       12       48       49       90       94 </v>
   <v type="int" >       12       44       48       89       90 </v>
   <v type="int" >       12       48       89       90       93 </v>
   <v type="int" >       12       48       90       93       94 </v>
   <v type="int" >       12       43       44       47       89 </v>
   <v type="int" >       12       44       47       48       89 </v>
   <v type="int" >       12       47       48       89       93 </v>
   <v type="int" >       12       43       47       88       89 </v>
   <v type="int" >       12       47       88       89       92 </v>
   <v type="int" >       12       47       89       92       93 </v>
   <v type="int" >       12       42       43       46       88 </v>
   <v type="int" >       12       43       46       47       88 </v>
   <v type="int" >       12       46       47       88       92 </v>
   <v type="int" >       12       42       46       87       88 </v>
   <v type="int" >       12       46       87       88       91 </v>
   <v type="int" >       12       46       88       91       92 </v>
   <v type="int" >       12       41       42       42       87 </v>
   <v type="int" >       12       42       42       46       87 </v>
   <v type="int" >       12       42       46       87       91 </v>
   <v type="int" >       12       41       42       86       87 </v>
   <v type="int" >       12       42       86       87       87 </v>
   <v type="int" >       12       42       87       87       91 </v>
   <v type="int" >       12       36       37       41       86 </v>
   <v type="int" >       12       37       41       42       86 </v>
   <v type="int" >       12       37       42       86       87 </v>
   <v type="int" >       12       36       37       81       86 </v>
   <v type="int" >       12       37       81       82       86 </v>
   <v type="int" >       12       37       82       86       87 </v>
   <v type="int" >       12       30       31       36       81 </v>
   <v type="int" >       12       31       36       37       81 </v>
   <v type="int" >       12       31       37       81       82 </v>
   <v type="int" >       12       30       31       75       81 </v>
   <v type="int" >       12       31       75       76       81 </v>
   <v type="int" >       12       31       76       81       82 </v>
   <v type="int" >       12       23       24       30       75 </v>
   <v type="int" >       12       24       30       31       75 </v>
   <v type="int" >       12       24       31       75       76 </v>
   <v type="int" >       12       23       24       68       75 </v>
   <v type="int" >       12       24       68       69       75 </v>
   <v type="int" >       12       24       69       75       76 </v>
   <v type="int" >       12       15       16       23       68 </v>
   <v type="int" >       12       16       23       24       68 </v>
   <v type="int" >       12       16       24       68       69 </v>
   <v type="int" >       12       15       16       60       68 </v>
   <v type="int" >       12       16       60       61       68 </v>
   <v type="int" >       12       16       61       68       69 </v>
   <v type="int" >       12        6        7       15       60 </v>
   <v type="int" >       12        7       15       16       60 </v>
   <v type="int" >       12        7       16       60       61 </v>
   <v type="int" >       12        6        6        7       15 </v>
   <v type="int" >       12        6        7        7       15 </v>
   <v type="int" >       12        7        7       15       16 </v>
   <v type="int" >       12        6        7       15       15 </v>
   <v type="int" >       12        7       15       15       16 </v>
   <v type="int" >       12       46       47       50       91 </v>
   <v type="int" >       12       47       50       91       92 </v>
   <v type="int" >       12       50       91       92       95 </v>
   <v type="int" >       12       47       48       51       92 </v>
   <v type="int" >       12       47       50       51       92 </v>
   <v type="int" >       12       50       51       92       95 </v>
   <v type="int" >       12       48       51       92       93 </v>
   <v type="int" >       12       51       92       93       96 </v>
   <v type="int" >       12       51       92       95       96 </v>
   <v type="int" >       12       48       49       52       93 </v>
   <v type="int" >       12       48       51       52       93 </v>
   <v type="int" >       12       51       52       93       96 </v>
   <v type="int" >       12       49       52       93       94 </v>
   <v type="int" >       12       52       93       94       97 </v>
   <v type="int" >       12       52       93       96       97 </v>
   <v type="int" >       12       49       49       52       94 </v>
   <v type="int" >       12       49       52       52       94 </v>
   <v type="int" >       12       52       52       94       97 </v>
   <v type="int" >       12       49       52       94       94 </v>
   <v type="int" >       12       52       94       94       97 </v>
   <v type="int" >       12       52       94       97       97 </v>
   <v type="int" >       12       48       49       51       94 </v>
   <v type="int" >       12       49       51       52       94 </v>
   <v type="int" >       12       51       52       94       97 </v>
   <v type="int" >       12       48       51       93       94 </v>
   <v type="int" >       12       51       93       94       96 </v>
   <v type="int" >       12       51       94       96       97 </v>
   <v type="int" >       12       47       48       50       93 </v>
   <v type="int" >       12       48       50       51       93 </v>
   <v type="int" >       12       50       51       93       96 </v>
   <v type="int" >       12       47       50       92       93 </v>
   <v type="int" >       12       50       92       93       95 </v>
   <v type="int" >       12       50       93       95       96 </v>
   <v type="int" >       12       46       47       47       92 </v>
   <v type="int" >       12       47       47       50       92 </v>
   <v type="int" >       12       47       50       92       95 </v>
   <v type="int" >       12       46       47       91       92 </v>
   <v type="int" >       12       47       91       92       92 </v>
   <v type="int" >       12       47       92       92       95 </v>
   <v type="int" >       12       42       43       46       91 </v>
   <v type="int" >       12       43       46       47       91 </v>
   <v type="int" >       12       43       47       91       92 </v>
   <v type="int" >       12       42       43       87       91 </v>
   <v type="int" >       12       43       87       88       91 </v>
   <v type="int" >       12       43       88       91       92 </v>
   <v type="int" >       12       37       38       42       87 </v>
   <v type="int" >       12       38       42       43       87 </v>
   <v type="int" >       12       38       43       87       88 </v>
   <v type="int" >       12       37       38       82       87 </v>
   <v type="int" >       12       38       82       83       87 </v>
   <v type="int" >       12       38       83       87       88 </v>
   <v type="int" >       12       31       32       37       82 </v>
   <v type="int" >       12       32       37       38       82 </v>
   <v type="int" >       12       32       38       82       83 </v>
   <v type="int" >       12       31       32       76       82 </v>
   <v type="int" >       12       32       76       77       82 </v>
   <v type="int" >       12       32       77       82       83 </v>
   <v type="int" >       12       24       25       31       76 </v>
   <v type="int" >       12       25       31       32       76 </v>
   <v type="int" >       12       25       32       76       77 </v>
   <v type="int" >       12       24       25       69       76 </v>
   <v type="int" >       12       25       69       70       76 </v>
   <v type="int" >       12       25       70       76       77 </v>
   <v type="int" >       12       16       17       24       69 </v>
   <v type="int" >       12       17       24       25       69 </v>
   <v type="int" >       12       17       25       69       70 </v>
   <v type="int" >       12       16       17       61       69 </v>
   <v type="int" >       12       17       61       62       69 </v>
   <v type="int" >       12       17       62       69       70 </v>
   <v type="int" >       12        7        8       16       61 </v>
   <v type="int" >       12        8       16       17       61 </v>
   <v type="int" >       12        8       17       61       62 </v>
   <v type="int" >       12        7        7        8       16 </v>
   <v type="int" >       12        7        8        8       16 </v>
   <v type="int" >       12        8        8       16       17 </v>
   <v type="int" >       12        7        8       16       16 </v>
   <v type="int" >       12        8       16       16       17 </v>
   <v type="int" >       12       50       51       53       95 </v>
   <v type="int" >       12       51       53       95       96 </v>
   <v type="int" >       12       53       95       96       98 </v>
   <v type="int" >       12       51       52       54       96 </v>
   <v type="int" >       12       51       53       54       96 </v>
   <v type="int" >       12       53       54       96       98 </v>
   <v type="int" >       12       52       54       96       97 </v>
   <v type="int" >       12       54       96       97       99 </v>
   <v type="int" >       12       54       96       98       99 </v>
   <v type="int" >       12       52       52       54       97 </v>
   <v type="int" >       12       52       54       54       97 </v>
   <v type="int" >       12       54       54       97       99 </v>
   <v type="int" >       12       52       54       97       97 </v>
   <v type="int" >       12       54       97       97       99 </v>
   <v type="int" >       12       54       97       99       99 </v>
   <v type="int" >       12       51       52       53       97 </v>
   <v type="int" >       12       52       53       54       97 </v>
   <v type="int" >       12       53       54       97       99 </v>
   <v type="int" >       12       51       53       96       97 </v>
   <v type="int" >       12       53       96       97       98 </v>
   <v type="int" >       12       53       97       98       99 </v>
   <v type="int" >       12       50       51       51       96 </v>
   <v type="int" >       12       51       51       53       96 </v>
   <v type="int" >       12       51       53       96       98 </v>
   <v type="int" >       12       50       51       95       96 </v>
   <v type="int" >       12       51       95       96       96 </v>
   <v type="int" >       12       51       96       96       98 </v>
   <v type="int" >       12       47       48       50       95 </v>
   <v type="int" >       12       48       50       51       95 </v>
   <v type="int" >       12       48       51       95       96 </v>
   <v type="int" >       12       47       48       92       95 </v>
   <v type="int" >       12       48       92       93       95 </v>
   <v type="int" >       12       48       93       95       96 </v>
   <v type="int" >       12       43       44       47       92 </v>
   <v type="int" >       12       44       47       48       92 </v>
   <v type="int" >       12       44       48       92       93 </v>
   <v type="int" >       12       43       44       88       92 </v>
   <v type="int" >       12       44       88       89       92 </v>
   <v type="int" >       12       44       89       92       93 </v>
   <v type="int" >       12       38       39       43       88 </v>
   <v type="int" >       12       39       43       44       88 </v>
   <v type="int" >       12       39       44       88       89 </v>
   <v type="int" >       12       38       39       83       88 </v>
   <v type="int" >       12       39       83       84       88 </v>
   <v type="int" >       12       39       84       88       89 </v>
   <v type="int" >       12       32       33       38       83 </v>
   <v type="int" >       12       33       38       39       83 </v>
   <v type="int" >       12       33       39       83       84 </v>
   <v type="int" >       12       32       33       77       83 </v>
   <v type="int" >       12       33       77       78       83 </v>
   <v type="int" >       12       33       78       83       84 </v>
   <v type="int" >       12       25       26       32       77 </v>
   <v type="int" >       12       26       32       33       77 </v>
   <v type="int" >       12       26       33       77       78 </v>
   <v type="int" >       12       25       26       70       77 </v>
   <v type="int" >       12       26       70       71       77 </v>
   <v type="int" >       12       26       71       77       78 </v>
   <v type="int" >       12       17       18       25       70 </v>
   <v type="int" >       12       18       25       26       70 </v>
   <v type="int" >       12       18       26       70       71 </v>
   <v type="int" >       12       17       18       62       70 </v>
   <v type="int" >       12       18       62       63       70 </v>
   <v type="int" >       12       18       63       70       71 </v>
   <v type="int" >       12        8        9       17       62 </v>
   <v type="int" >       12        9       17       18       62 </v>
   <v type="int" >       12        9       18       62       63 </v>
   <v type="int" >       12        8        8        9       17 </v>
   <v type="int" >       12        8        9        9       17 </v>
   <v type="int" >       12        9        9       17       18 </v>
   <v type="int" >       12        8        9       17       17 </v>
   <v type="int" >       12        9       17       17       18 </v>
   <v type="int" >       12       53       54       55       98 </v>
   <v type="int" >       12       54       55       98       99 </v>
   <v type="int" >       12       55       98       99      100 </v>
   <v type="int" >       24       54       54       55       99 </v>
   <v type="int" >       12       54       55       55       99 </v>
   <v type="int" >       12       55       55       99      100 </v>
   <v type="int" >       12       54       55       99       99 </v>
   <v type="int" >       12       55       99       99      100 </v>
   <v type="int" >       12       55       99      100      100 </v>
   <v type="int" >       12       53       54       54       99 </v>
   <v type="int" >       12       54       55       99      100 </v>
   <v type="int" >       12       53       54       98       99 </v>
   <v type="int" >       12       54       98       99       99 </v>
   <v type="int" >       24       54       99       99      100 </v>
   <v type="int" >       12       51       52       53       98 </v>
   <v type="int" >       12       52       53       54       98 </v>
   <v type="int" >       12       52       54       98       99 </v>
   <v type="int" >       12       51       52       96       98 </v>
   <v type="int" >       12       52       96       97       98 </v>
   <v type="int" >       12       52       97       98       99 </v>
   <v type="int" >       12       48       49       51       96 </v>
   <v type="int" >       12       49       51       52       96 </v>
   <v type="int" >       12       49       52       96       97 </v>
   <v type="int" >       12       48       49       93       96 </v>
   <v type="int" >       12       49       93       94       96 </v>
   <v type="int" >       12       49       94       96       97 </v>
   <v type="int" >       12       44       45       48       93 </v>
   <v type="int" >       12       45       48       49       93 </v>
   <v type="int" >       12       45       49       93       94 </v>
   <v type="int" >       12       44       45       89       93 </v>
   <v type="int" >       12       45       89       90       93 </v>
   <v type="int" >       12       45       90       93       94 </v>
   <v type="int" >       12       39       40       44       89 </v>
   <v type="int" >       12       40       44       45       89 </v>
   <v type="int" >       12       40       45       89       90 </v>
   <v type="int" >       12       39       40       84       89 </v>
   <v type="int" >       12       40       84       85       89 </v>
   <v type="int" >       12       40       85       89       90 </v>
   <v type="int" >       12       33       34       39       84 </v>
   <v type="int" >       12       34       39       40       84 </v>
   <v type="int" >       12       34       40       84       85 </v>
   <v type="int" >       12       33       34       78       84 </v>
   <v type="int" >       12       34       78       79       84 </v>
   <v type="int" >       12       34       79       84       85 </v>
   <v type="int" >       12       26       27       33       78 </v>
   <v type="int" >       12       27       33       34       78 </v>
   <v type="int" >       12       27       34       78       79 </v>
   <v type="int" >       12       26       27       71       78 </v>
   <v type="int" >       12       27       71       72       78 </v>
   <v type="int" >       12       27       72       78       79 </v>
   <v type="int" >       12       18       19       26       71 </v>
   <v type="int" >       12       19       26       27       71 </v>
   <v type="int" >       12       19       27       71       72 </v>
   <v type="int" >       12       18       19       63       71 </v>
   <v type="int" >       12       19       63       64       71 </v>
   <v type="int" >       12       19       64       71       72 </v>
   <v type="int" >       12        9       10       18       63 </v>
   <v type="int" >       12       10       18       19       63 </v>
   <v type="int" >       12       10       19       63       64 </v>
   <v type="int" >       12        9        9       10       18 </v>
   <v type="int" >       12        9       10       10       18 </v>
   <v type="int" >       12       10       10       18       19 </v>
   <v type="int" >       12        9       10       18       18 </v>
   <v type="int" >       12       10       18       18       19 </v>
   <v type="int" >       12       55       55       55      100 </v>
   <v type="int" >       12       55       55      100      100 </v>
   <v type="int" >       12       55      100      100      100 </v>
   <v type="int" >       12       54       54       55      100 </v>
   <v type="int" >       12       54       55       55      100 </v>
   <v type="int" >       12       54       55      100      100 </v>
   <v type="int" >       12       54       54       99      100 </v>
   <v type="int" >       12       54       99      100      100 </v>
   <v type="int" >       12       52       52       54       99 </v>
   <v type="int" >       12       52       54       54       99 </v>
   <v type="int" >       12       52       54       99       99 </v>
   <v type="int" >       12       52       52       97       99 </v>
   <v type="int" >       12       52       97       97       99 </v>
   <v type="int" >       12       52       97       99       99 </v>
   <v type="int" >       12       49       49       52       97 </v>
   <v type="int" >       12       49       52       52       97 </v>
   <v type="int" >       12       49       52       97       97 </v>
   <v type="int" >       12       49       49       94       97 </v>
   <v type="int" >       12       49       94       94       97 </v>
   <v type="int" >       12       49       94       97       97 </v>
   <v type="int" >       12       45       45       49       94 </v>
   <v type="int" >       12       45       49       49       94 </v>
   <v type="int" >       12       45       49       94       94 </v>
   <v type="int" >       12       45       45       90       94 </v>
   <v type="int" >       12       45       90       90       94 </v>
   <v type="int" >       12       45       90       94       94 </v>
   <v type="int" >       12       40       40       45       90 </v>
   <v type="int" >       12       40       45       45       90 </v>
   <v type="int" >       12       40       45       90       90 </v>
   <v type="int" >       12       40       40       85       90 </v>
   <v type="int" >       12       40       85       85       90 </v>
   <v type="int" >       12       40       85       90       90 </v>
   <v type="int" >       12       34       34       40       85 </v>
   <v type="int" >       12       34       40       40       85 </v>
   <v type="int" >       12       34       40       85       85 </v>
   <v type="int" >       12       34       34       79       85 </v>
   <v type="int" >       12       34       79       79       85 </v>
   <v type="int" >       12       34       79       85       85 </v>
   <v type="int" >       12       27       27       34       79 </v>
   <v type="int" >       12       27       34       34       79 </v>
   <v type="int" >       12       27       34       79       79 </v>
   <v type="int" >       12       27       27       72       79 </v>
   <v type="int" >       12       27       72       72       79 </v>
   <v type="int" >       12       27       72       79       79 </v>
   <v type="int" >       12       19       19       27       72 </v>
   <v type="int" >       12       19       27       27       72 </v>
   <v type="int" >       12       19       27       72       72 </v>
   <v type="int" >       12       19       19       64       72 </v>
   <v type="int" >       12       19       64       64       72 </v>
   <v type="int" >       12       19       64       72       72 </v>
   <v type="int" >       12       10       10       19       64 </v>
   <v type="int" >       12       10       19       19       64 </v>
   <v type="int" >       12       10       19       64       64 </v>
   <v type="int" >       24       10       10       10       19 </v>
   <v type="int" >       12       53       54       55      100 </v>
   <v type="int" >       12       53       54       99      100 </v>
   <v type="int" >       12       53       98       99      100 </v>
   <v type="int" >       12       51       52       54       99 </v>
   <v type="int" >       12       51       53       54       99 </v>
   <v type="int" >       12       51       53       98       99 </v>
   <v type="int" >       12       51       52       97       99 </v>
   <v type="int" >       12       51       96       97       99 </v>
   <v type="int" >       12       51       96       98       99 </v>
   <v type="int" >       12       48       49       52       97 </v>
   <v type="int" >       12       48       51       52       97 </v>
   <v type="int" >       12       48       51       96       97 </v>
   <v type="int" >       12       48       49       94       97 </v>
   <v type="int" >       12       48       93       94       97 </v>
   <v type="int" >       12       48       93       96       97 </v>
   <v type="int" >       12       44       45       49       94 </v>
   <v type="int" >       12       44       48       49       94 </v>
   <v type="int" >       12       44       48       93       94 </v>
   <v type="int" >       12       44       45       90       94 </v>
   <v type="int" >       12       44       89       90       94 </v>
   <v type="int" >       12       44       89       93       94 </v>
   <v type="int" >       12       39       40       45       90 </v>
   <v type="int" >       12       39       44       45       90 </v>
   <v type="int" >       12       39       44       89       90 </v>
   <v type="int" >       12       39       40       85       90 </v>
   <v type="int" >       12       39       84       85       90 </v>
   <v type="int" >       12       39       84       89       90 </v>
   <v type="int" >       12       33       34       40       85 </v>
   <v type="int" >       12       33       39       40       85 </v>
   <v type="int" >       12       33       39       84       85 </v>
   <v type="int" >       12       33       34       79       85 </v>
   <v type="int" >       12       33       78       79       85 </v>
   <v type="int" >       12       33       78       84       85 </v>
   <v type="int" >       12       26       27       34       79 </v>
   <v type="int" >       12       26       33       34       79 </v>
   <v type="int" >       12       26       33       78       79 </v>
[...]
       <r>    8.8843    0.0000 </r>
       <r>    8.8857    0.0000 </r>
       <r>   14.7282    0.0000 </r>
       <r>   14.7708    0.0000 </r>
       <r>   15.6909    0.0000 </r>
       <r>   15.9197    0.0000 </r>
       <r>   16.9110    0.0000 </r>
       <r>   17.4870    0.0000 </r>
       <r>   18.1289    0.0000 </r>
       <r>   18.5294    0.0000 </r>
       <r>   28.3589    0.0000 </r>
       <r>   28.6946    0.0000 </r>
       <r>   29.7539    0.0000 </r>
       <r>   30.8395    0.0000 </r>
       <r>   32.0832    0.0000 </r>
       <r>   32.6715    0.0000 </r>
       <r>   32.7822    0.0000 </r>
       <r>   33.3894    0.0000 </r>
       <r>   34.4867    0.0000 </r>
       <r>   35.2312    0.0000 </r>
       <r>   35.6907    0.0000 </r>
       <r>   35.8009    0.0000 </r>
       <r>   42.0567    0.0000 </r>
       <r>   42.0618    0.0000 </r>
       <r>   45.2720    0.0000 </r>
       <r>   45.7160    0.0000 </r>
      </set>
      <set comment="kpoint 219">
       <r>  -25.5777    1.0000 </r>
       <r>  -25.5524    1.0000 </r>
       <r>  -25.4120    1.0000 </r>
       <r>  -25.3525    1.0000 </r>
       <r>  -25.2328    1.0000 </r>
       <r>  -25.2025    1.0000 </r>
       <r>    3.3000    1.0000 </r>
       <r>    3.4381    1.0000 </r>
       <r>    3.5445    1.0000 </r>
       <r>    3.6993    1.0000 </r>
       <r>    4.1420    1.0000 </r>
       <r>    4.1424    1.0000 </r>
       <r>    8.8660    0.0000 </r>
       <r>    8.8673    0.0000 </r>
       <r>    8.9068    0.0000 </r>
       <r>    8.9073    0.0000 </r>
       <r>   14.6442    0.0000 </r>
       <r>   14.6693    0.0000 </r>
       <r>   15.9473    0.0000 </r>
       <r>   16.0778    0.0000 </r>
       <r>   17.0533    0.0000 </r>
       <r>   17.4148    0.0000 </r>
       <r>   17.8137    0.0000 </r>
       <r>   18.0730    0.0000 </r>
       <r>   28.9209    0.0000 </r>
       <r>   29.1242    0.0000 </r>
       <r>   30.2131    0.0000 </r>
       <r>   31.0071    0.0000 </r>
       <r>   31.4567    0.0000 </r>
       <r>   32.0336    0.0000 </r>
       <r>   33.1098    0.0000 </r>
       <r>   33.7455    0.0000 </r>
       <r>   33.8668    0.0000 </r>
       <r>   34.5352    0.0000 </r>
       <r>   35.3312    0.0000 </r>
       <r>   35.3505    0.0000 </r>
       <r>   42.0552    0.0000 </r>
       <r>   42.0564    0.0000 </r>
       <r>   46.6039    0.0000 </r>
       <r>   46.6129    0.0000 </r>
      </set>
      <set comment="kpoint 220">
       <r>  -25.4990    1.0000 </r>
       <r>  -25.4466    1.0000 </r>
       <r>  -25.4466    1.0000 </r>
       <r>  -25.3391    1.0000 </r>
       <r>  -25.3391    1.0000 </r>
       <r>  -25.2855    1.0000 </r>
       <r>    3.4833    1.0000 </r>
       <r>    3.6236    1.0000 </r>
       <r>    3.6236    1.0000 </r>
       <r>    3.8583    1.0000 </r>
       <r>    3.8583    1.0000 </r>
       <r>    3.9470    1.0000 </r>
       <r>    8.9128    0.0000 </r>
       <r>    8.9128    0.0000 </r>
       <r>    8.9132    0.0000 </r>
       <r>    8.9132    0.0000 </r>
       <r>   14.5316    0.0000 </r>
       <r>   14.5422    0.0000 </r>
       <r>   16.4379    0.0000 </r>
       <r>   16.7325    0.0000 </r>
       <r>   16.7325    0.0000 </r>
       <r>   17.3229    0.0000 </r>
       <r>   17.3229    0.0000 </r>
       <r>   17.6302    0.0000 </r>
       <r>   29.6609    0.0000 </r>
       <r>   30.0946    0.0000 </r>
       <r>   30.0946    0.0000 </r>
       <r>   31.1154    0.0000 </r>
       <r>   31.1154    0.0000 </r>
       <r>   31.7032    0.0000 </r>
       <r>   33.1487    0.0000 </r>
       <r>   33.6441    0.0000 </r>
       <r>   33.6441    0.0000 </r>
       <r>   34.3794    0.0000 </r>
       <r>   34.3794    0.0000 </r>
       <r>   34.5962    0.0000 </r>
       <r>   42.0488    0.0000 </r>
       <r>   42.0490    0.0000 </r>
       <r>   47.4594    0.0000 </r>
       <r>   47.6122    0.0000 </r>
      </set>
     </set>
    </set>
   </array>
  </eigenvalues>
  <separator name="orbital magnetization" >
   <v name="MAGDIPOLOUT">      0.00000000      0.00000000      0.00000000</v>
  </separator>
  <dos>
   <i name="efermi">      4.83717138 </i>
   <total>
    <array>
     <dimension dim="1">gridpoints</dimension>
     <dimension dim="2">spin</dimension>
     <field>energy</field>
     <field>total</field>
     <field>integrated</field>
     <set>
      <set comment="spin 1">
       <r>   -29.7536     0.0000     0.0000 </r>
       <r>   -29.4834     0.0000     0.0000 </r>
       <r>   -29.2133     0.0000     0.0000 </r>
       <r>   -28.9431     0.0000     0.0000 </r>
       <r>   -28.6730     0.0000     0.0000 </r>
       <r>   -28.4028     0.0000     0.0000 </r>
       <r>   -28.1326     0.0000     0.0000 </r>
       <r>   -27.8625     0.0000     0.0000 </r>
       <r>   -27.5923     0.0000     0.0000 </r>
       <r>   -27.3221     0.0000     0.0000 </r>
       <r>   -27.0520     0.0000     0.0000 </r>
       <r>   -26.7818     0.0000     0.0000 </r>
       <r>   -26.5116     0.0000     0.0000 </r>
       <r>   -26.2415     0.0000     0.0000 </r>
       <r>   -25.9713     4.3427     0.2626 </r>
       <r>   -25.7011     7.0878     2.6914 </r>
       <r>   -25.4310     7.0098     4.2804 </r>
       <r>   -25.1608    10.3202     6.5971 </r>
       <r>   -24.8906    12.3449     9.2719 </r>
       <r>   -24.6205     0.0000    12.0000 </r>
       <r>   -24.3503     0.0000    12.0000 </r>
       <r>   -24.0801     0.0000    12.0000 </r>
       <r>   -23.8100     0.0000    12.0000 </r>
       <r>   -23.5398     0.0000    12.0000 </r>
       <r>   -23.2696     0.0000    12.0000 </r>
       <r>   -22.9995     0.0000    12.0000 </r>
       <r>   -22.7293     0.0000    12.0000 </r>
       <r>   -22.4591     0.0000    12.0000 </r>
       <r>   -22.1890     0.0000    12.0000 </r>
       <r>   -21.9188     0.0000    12.0000 </r>
       <r>   -21.6486     0.0000    12.0000 </r>
       <r>   -21.3785     0.0000    12.0000 </r>
       <r>   -21.1083     0.0000    12.0000 </r>
       <r>   -20.8381     0.0000    12.0000 </r>
       <r>   -20.5680     0.0000    12.0000 </r>
       <r>   -20.2978     0.0000    12.0000 </r>
       <r>   -20.0276     0.0000    12.0000 </r>
       <r>   -19.7575     0.0000    12.0000 </r>
       <r>   -19.4873     0.0000    12.0000 </r>
       <r>   -19.2171     0.0000    12.0000 </r>
       <r>   -18.9470     0.0000    12.0000 </r>
       <r>   -18.6768     0.0000    12.0000 </r>
       <r>   -18.4066     0.0000    12.0000 </r>
       <r>   -18.1365     0.0000    12.0000 </r>
       <r>   -17.8663     0.0000    12.0000 </r>
       <r>   -17.5961     0.0000    12.0000 </r>
       <r>   -17.3260     0.0000    12.0000 </r>
       <r>   -17.0558     0.0000    12.0000 </r>
       <r>   -16.7856     0.0000    12.0000 </r>
       <r>   -16.5155     0.0000    12.0000 </r>
       <r>   -16.2453     0.0000    12.0000 </r>
       <r>   -15.9751     0.0000    12.0000 </r>
       <r>   -15.7050     0.0000    12.0000 </r>
       <r>   -15.4348     0.0000    12.0000 </r>
       <r>   -15.1646     0.0000    12.0000 </r>
       <r>   -14.8945     0.0000    12.0000 </r>
       <r>   -14.6243     0.0000    12.0000 </r>
       <r>   -14.3541     0.0000    12.0000 </r>
       <r>   -14.0840     0.0000    12.0000 </r>
       <r>   -13.8138     0.0000    12.0000 </r>
       <r>   -13.5436     0.0000    12.0000 </r>
       <r>   -13.2735     0.0000    12.0000 </r>
       <r>   -13.0033     0.0000    12.0000 </r>
       <r>   -12.7331     0.0000    12.0000 </r>
       <r>   -12.4630     0.0000    12.0000 </r>
       <r>   -12.1928     0.0000    12.0000 </r>
       <r>   -11.9226     0.0000    12.0000 </r>
       <r>   -11.6525     0.0000    12.0000 </r>
       <r>   -11.3823     0.0000    12.0000 </r>
       <r>   -11.1121     0.0000    12.0000 </r>
       <r>   -10.8420     0.0000    12.0000 </r>
       <r>   -10.5718     0.0000    12.0000 </r>
       <r>   -10.3016     0.0000    12.0000 </r>
       <r>   -10.0315     0.0000    12.0000 </r>
       <r>    -9.7613     0.0000    12.0000 </r>
       <r>    -9.4911     0.0000    12.0000 </r>
       <r>    -9.2210     0.0000    12.0000 </r>
       <r>    -8.9508     0.0000    12.0000 </r>
       <r>    -8.6806     0.0000    12.0000 </r>
       <r>    -8.4105     0.0000    12.0000 </r>
       <r>    -8.1403     0.0000    12.0000 </r>
       <r>    -7.8701     0.0000    12.0000 </r>
       <r>    -7.6000     0.0000    12.0000 </r>
       <r>    -7.3298     0.0000    12.0000 </r>
       <r>    -7.0596     0.0000    12.0000 </r>
       <r>    -6.7895     0.0000    12.0000 </r>
       <r>    -6.5193     0.0000    12.0000 </r>
       <r>    -6.2491     0.0000    12.0000 </r>
       <r>    -5.9790     0.0000    12.0000 </r>
       <r>    -5.7088     0.0000    12.0000 </r>
       <r>    -5.4386     0.0000    12.0000 </r>
       <r>    -5.1685     0.0000    12.0000 </r>
       <r>    -4.8983     0.0000    12.0000 </r>
       <r>    -4.6281     0.0000    12.0000 </r>
       <r>    -4.3580     0.0000    12.0000 </r>
       <r>    -4.0878     0.0000    12.0000 </r>
       <r>    -3.8176     0.0000    12.0000 </r>
       <r>    -3.5475     0.0000    12.0000 </r>
       <r>    -3.2773     0.0000    12.0000 </r>
       <r>    -3.0071     0.0000    12.0000 </r>
       <r>    -2.7370     0.0000    12.0000 </r>
       <r>    -2.4668     0.0000    12.0000 </r>
       <r>    -2.1966     0.0000    12.0000 </r>
       <r>    -1.9265     0.0000    12.0000 </r>
       <r>    -1.6563     0.0000    12.0000 </r>
       <r>    -1.3861     0.0000    12.0000 </r>
       <r>    -1.1160     0.0000    12.0000 </r>
       <r>    -0.8458     0.0612    12.0089 </r>
       <r>    -0.5756     0.0998    12.0313 </r>
       <r>    -0.3055     0.1343    12.0632 </r>
       <r>    -0.0353     0.1709    12.1043 </r>
       <r>     0.2349     0.2090    12.1552 </r>
       <r>     0.5050     0.2573    12.2179 </r>
       <r>     0.7752     0.3224    12.2954 </r>
       <r>     1.0454     0.4257    12.3950 </r>
       <r>     1.3155     1.8321    12.6896 </r>
       <r>     1.5857     2.0529    13.2177 </r>
       <r>     1.8559     2.3218    13.8034 </r>
       <r>     2.1260     2.9830    14.5046 </r>
       <r>     2.3962     2.8402    15.2627 </r>
       <r>     2.6664     1.7633    15.9953 </r>
       <r>     2.9365     0.9820    16.3313 </r>
       <r>     3.2067     3.0530    16.7147 </r>
       <r>     3.4769     5.0990    17.8444 </r>
       <r>     3.7470     2.2631    18.8121 </r>
       <r>     4.0172     2.2630    19.4409 </r>
       <r>     4.2874     2.2351    20.0342 </r>
       <r>     4.5575     4.5876    20.8540 </r>
       <r>     4.8277     2.9940    21.9717 </r>
       <r>     5.0979     2.5842    22.6843 </r>
       <r>     5.3680     1.1124    23.0508 </r>
       <r>     5.6382     0.9909    23.3321 </r>
       <r>     5.9084     0.9660    23.5793 </r>
       <r>     6.1785     0.9949    23.8370 </r>
       <r>     6.4487     1.1104    24.1332 </r>
       <r>     6.7189     1.6189    24.4842 </r>
       <r>     6.9890     1.9084    24.9888 </r>
       <r>     7.2592     2.1164    25.5215 </r>
       <r>     7.5294     2.5399    26.1548 </r>
       <r>     7.7995     2.5646    26.8602 </r>
       <r>     8.0697     3.2322    27.6031 </r>
       <r>     8.3399     2.6876    28.3870 </r>
       <r>     8.6100     3.1663    29.1550 </r>
       <r>     8.8802     8.3982    30.5051 </r>
       <r>     9.1504     2.0780    31.4060 </r>
       <r>     9.4205     1.6540    31.9134 </r>
       <r>     9.6907     1.4807    32.3464 </r>
       <r>     9.9609     1.2250    32.7213 </r>
       <r>    10.2310     1.1930    33.0425 </r>
       <r>    10.5012     0.9909    33.3678 </r>
       <r>    10.7714     0.7490    33.6000 </r>
       <r>    11.0415     0.6746    33.7797 </r>
       <r>    11.3117     0.7275    33.9835 </r>
       <r>    11.5819     0.6622    34.1723 </r>
       <r>    11.8520     0.6379    34.3476 </r>
       <r>    12.1222     0.6172    34.5170 </r>
       <r>    12.3924     0.5999    34.6815 </r>
       <r>    12.6625     0.5798    34.8409 </r>
       <r>    12.9327     0.5632    34.9959 </r>
       <r>    13.2029     0.5426    35.1453 </r>
       <r>    13.4730     0.5191    35.2895 </r>
       <r>    13.7432     0.4995    35.4275 </r>
       <r>    14.0133     0.4755    35.5584 </r>
       <r>    14.2835     0.3817    35.6762 </r>
       <r>    14.5537     0.3882    35.7755 </r>
       <r>    14.8238     0.5270    35.9109 </r>
       <r>    15.0940     0.1928    35.9968 </r>
       <r>    15.3642     0.5350    36.0777 </r>
       <r>    15.6343     0.7624    36.2668 </r>
       <r>    15.9045     1.0141    36.5108 </r>
       <r>    16.1747     0.9914    36.7812 </r>
       <r>    16.4448     1.0758    37.0591 </r>
       <r>    16.7150     1.2140    37.3652 </r>
       <r>    16.9852     1.1702    37.7041 </r>
       <r>    17.2553     1.0771    38.0048 </r>
       <r>    17.5255     1.2014    38.3094 </r>
       <r>    17.7957     1.3893    38.6619 </r>
       <r>    18.0658     1.7012    39.0692 </r>
       <r>    18.3360     2.2191    39.5626 </r>
       <r>    18.6062     1.6445    40.0222 </r>
       <r>    18.8763     1.5819    40.4571 </r>
       <r>    19.1465     1.5128    40.8747 </r>
       <r>    19.4167     1.5047    41.2792 </r>
       <r>    19.6868     1.3739    41.6673 </r>
       <r>    19.9570     1.3483    42.0321 </r>
       <r>    20.2272     1.1818    42.3732 </r>
       <r>    20.4973     1.1895    42.6889 </r>
       <r>    20.7675     1.3518    43.0334 </r>
       <r>    21.0377     1.5393    43.4316 </r>
       <r>    21.3078     1.5526    43.8483 </r>
       <r>    21.5780     1.7268    44.2741 </r>
       <r>    21.8482     2.0319    44.7722 </r>
       <r>    22.1183     1.5507    45.2872 </r>
       <r>    22.3885     1.4224    45.6856 </r>
       <r>    22.6587     1.3108    46.0596 </r>
       <r>    22.9288     1.2889    46.4113 </r>
       <r>    23.1990     0.8080    46.7073 </r>
       <r>    23.4692     0.7101    46.9112 </r>
       <r>    23.7393     0.8868    47.1468 </r>
       <r>    24.0095     1.3282    47.4046 </r>
       <r>    24.2797     1.3347    47.7348 </r>
       <r>    24.5498     1.3392    48.0881 </r>
       <r>    24.8200     1.6370    48.4712 </r>
       <r>    25.0902     1.9613    49.0280 </r>
       <r>    25.3603     1.4261    49.4697 </r>
       <r>    25.6305     1.2719    49.8272 </r>
       <r>    25.9007     1.1742    50.1745 </r>
       <r>    26.1708     1.1492    50.4864 </r>
       <r>    26.4410     1.0996    50.7876 </r>
       <r>    26.7112     1.0795    51.0819 </r>
       <r>    26.9813     0.9691    51.3699 </r>
       <r>    27.2515     0.8545    51.6089 </r>
       <r>    27.5217     1.0218    51.8586 </r>
       <r>    27.7918     1.3610    52.1889 </r>
       <r>    28.0620     1.3033    52.5552 </r>
       <r>    28.3322     1.1201    52.8783 </r>
       <r>    28.6023     1.5073    53.2068 </r>
       <r>    28.8725     1.6961    53.6149 </r>
       <r>    29.1427     1.6007    54.0698 </r>
       <r>    29.4128     1.4122    54.4729 </r>
       <r>    29.6830     1.4482    54.8453 </r>
       <r>    29.9532     1.7705    55.2993 </r>
       <r>    30.2233     1.0869    55.6971 </r>
       <r>    30.4935     0.9307    55.9776 </r>
       <r>    30.7637     1.5074    56.3275 </r>
       <r>    31.0338     1.3674    56.7150 </r>
       <r>    31.3040     1.2436    57.0776 </r>
       <r>    31.5742     1.1854    57.4325 </r>
       <r>    31.8443     1.3592    57.7748 </r>
       <r>    32.1145     1.4499    58.1598 </r>
       <r>    32.3847     1.8744    58.5973 </r>
       <r>    32.6548     1.9425    59.1169 </r>
       <r>    32.9250     1.6463    59.6121 </r>
       <r>    33.1952     1.7231    60.0628 </r>
       <r>    33.4653     1.7817    60.5259 </r>
       <r>    33.7355     1.8346    61.0236 </r>
       <r>    34.0057     1.7460    61.4916 </r>
       <r>    34.2758     1.5761    61.9463 </r>
       <r>    34.5460     1.7762    62.3926 </r>
       <r>    34.8162     1.4387    62.8605 </r>
       <r>    35.0863     1.3847    63.2374 </r>
       <r>    35.3565     1.3495    63.6112 </r>
       <r>    35.6267     1.1863    63.9721 </r>
       <r>    35.8968     1.0750    64.2578 </r>
       <r>    36.1670     1.0898    64.5498 </r>
       <r>    36.4372     1.1844    64.8440 </r>
       <r>    36.7073     1.4238    65.2020 </r>
       <r>    36.9775     1.7067    65.6097 </r>
       <r>    37.2477     2.0595    66.1176 </r>
       <r>    37.5178     2.1522    66.6958 </r>
       <r>    37.7880     2.0248    67.2526 </r>
       <r>    38.0582     1.8215    67.7670 </r>
       <r>    38.3283     1.8483    68.2726 </r>
       <r>    38.5985     1.4074    68.7222 </r>
       <r>    38.8687     1.3045    69.0841 </r>
       <r>    39.1388     1.4177    69.4634 </r>
       <r>    39.4090     1.5457    69.8750 </r>
       <r>    39.6792     1.5637    70.3092 </r>
       <r>    39.9493     1.6257    70.7539 </r>
       <r>    40.2195     1.5244    71.1982 </r>
       <r>    40.4897     1.7397    71.6186 </r>
       <r>    40.7598     1.7258    72.0872 </r>
       <r>    41.0300     1.7689    72.5603 </r>
       <r>    41.3002     1.9752    73.0633 </r>
       <r>    41.5703     2.8675    73.7102 </r>
       <r>    41.8405     3.1311    74.5559 </r>
       <r>    42.1107     7.4143    75.8006 </r>
       <r>    42.3808     3.4431    77.7028 </r>
       <r>    42.6510     2.6620    78.4890 </r>
       <r>    42.9212     1.6385    79.0888 </r>
       <r>    43.1913     0.8953    79.4202 </r>
       <r>    43.4615     0.6170    79.6205 </r>
       <r>    43.7317     0.4104    79.7562 </r>
       <r>    44.0018     0.2494    79.8411 </r>
       <r>    44.2720     0.1788    79.8985 </r>
       <r>    44.5422     0.1240    79.9448 </r>
       <r>    44.8123     0.0256    79.9620 </r>
       <r>    45.0825     0.0227    79.9686 </r>
       <r>    45.3527     0.0200    79.9743 </r>
       <r>    45.6228     0.0177    79.9794 </r>
       <r>    45.8930     0.0156    79.9839 </r>
       <r>    46.1632     0.0134    79.9878 </r>
       <r>    46.4333     0.0114    79.9911 </r>
       <r>    46.7035     0.0104    79.9941 </r>
       <r>    46.9737     0.0077    79.9965 </r>
       <r>    47.2438     0.0054    79.9983 </r>
       <r>    47.5140     0.0018    79.9996 </r>
       <r>    47.7842     0.0000    80.0000 </r>
       <r>    48.0543     0.0000    80.0000 </r>
       <r>    48.3245     0.0000    80.0000 </r>
       <r>    48.5947     0.0000    80.0000 </r>
       <r>    48.8648     0.0000    80.0000 </r>
       <r>    49.1350     0.0000    80.0000 </r>
       <r>    49.4052     0.0000    80.0000 </r>
       <r>    49.6753     0.0000    80.0000 </r>
       <r>    49.9455     0.0000    80.0000 </r>
       <r>    50.2157     0.0000    80.0000 </r>
       <r>    50.4858     0.0000    80.0000 </r>
       <r>    50.7560     0.0000    80.0000 </r>
       <r>    51.0262     0.0000    80.0000 </r>
       <r>    51.2963     0.0000    80.0000 </r>
      </set>
     </set>
    </array>
   </total>
  </dos>
 </calculation>
 <structure name="finalpos" >
  <crystal>
   <varray name="basis" >
    <v>       3.30080000       0.00000000       0.00000000 </v>
    <v>       0.00000000       3.30080000       0.00000000 </v>
    <v>       0.00000000       0.00000000       3.30080000 </v>
   </varray>
   <i name="volume">     35.96314234 </i>
   <varray name="rec_basis" >
    <v>       0.30295686       0.00000000       0.00000000 </v>
    <v>       0.00000000       0.30295686       0.00000000 </v>
    <v>       0.00000000       0.00000000       0.30295686 </v>
   </varray>
  </crystal>
  <varray name="positions" >
   <v>       0.00000000       0.00000000       0.00000000 </v>
   <v>       0.50000000       0.50000000       0.50000000 </v>
  </varray>
 </structure>
</modeling>
