   2   2   1   0
  0.2254527E+02  0.3995153E-09  0.3995153E-09  0.3995153E-09  0.5000000E-15
  1.000000000000000E-004
  CAR 
 GaAs                                    
     14.78308808    -14.06026246  301      2.96933242      1.00000000
    -14.060  0.0000E+00  0.0000E+00
    -13.964  0.0000E+00  0.0000E+00
    -13.868  0.0000E+00  0.0000E+00
    -13.772  0.0000E+00  0.0000E+00
    -13.676  0.0000E+00  0.0000E+00
    -13.580  0.0000E+00  0.0000E+00
    -13.483  0.0000E+00  0.0000E+00
    -13.387  0.0000E+00  0.0000E+00
    -13.291  0.0000E+00  0.0000E+00
    -13.195  0.0000E+00  0.0000E+00
    -13.099  0.0000E+00  0.0000E+00
    -13.003  0.0000E+00  0.0000E+00
    -12.907  0.0000E+00  0.0000E+00
    -12.810  0.0000E+00  0.0000E+00
    -12.714  0.0000E+00  0.0000E+00
    -12.618  0.0000E+00  0.0000E+00
    -12.522  0.0000E+00  0.0000E+00
    -12.426  0.0000E+00  0.0000E+00
    -12.330  0.0000E+00  0.0000E+00
    -12.234  0.0000E+00  0.0000E+00
    -12.137  0.0000E+00  0.0000E+00
    -12.041  0.5096E+02  0.6436E+00
    -11.945  0.2346E+02  0.2078E+01
    -11.849  0.0000E+00  0.1000E+02
    -11.753  0.0000E+00  0.1000E+02
    -11.657  0.0000E+00  0.1000E+02
    -11.561  0.0000E+00  0.1000E+02
    -11.464  0.0000E+00  0.1000E+02
    -11.368  0.0000E+00  0.1000E+02
    -11.272  0.0000E+00  0.1000E+02
    -11.176  0.0000E+00  0.1000E+02
    -11.080  0.0000E+00  0.1000E+02
    -10.984  0.0000E+00  0.1000E+02
    -10.887  0.0000E+00  0.1000E+02
    -10.791  0.0000E+00  0.1000E+02
    -10.695  0.0000E+00  0.1000E+02
    -10.599  0.0000E+00  0.1000E+02
    -10.503  0.0000E+00  0.1000E+02
    -10.407  0.0000E+00  0.1000E+02
    -10.311  0.0000E+00  0.1000E+02
    -10.214  0.0000E+00  0.1000E+02
    -10.118  0.0000E+00  0.1000E+02
    -10.022  0.0000E+00  0.1000E+02
     -9.926  0.0000E+00  0.1000E+02
     -9.830  0.0000E+00  0.1000E+02
     -9.734  0.1251E+00  0.1001E+02
     -9.638  0.1686E+00  0.1002E+02
     -9.541  0.2234E+00  0.1004E+02
     -9.445  0.2589E+00  0.1006E+02
     -9.349  0.3059E+00  0.1009E+02
     -9.253  0.3370E+00  0.1012E+02
     -9.157  0.3733E+00  0.1015E+02
     -9.061  0.4170E+00  0.1019E+02
     -8.965  0.4506E+00  0.1023E+02
     -8.868  0.4894E+00  0.1028E+02
     -8.772  0.5350E+00  0.1033E+02
     -8.676  0.5804E+00  0.1038E+02
     -8.580  0.6329E+00  0.1044E+02
     -8.484  0.6912E+00  0.1050E+02
     -8.388  0.7611E+00  0.1057E+02
     -8.292  0.8537E+00  0.1065E+02
     -8.195  0.9697E+00  0.1074E+02
     -8.099  0.1185E+01  0.1084E+02
     -8.003  0.1372E+01  0.1097E+02
     -7.907  0.1392E+01  0.1110E+02
     -7.811  0.1352E+01  0.1123E+02
     -7.715  0.1388E+01  0.1137E+02
     -7.619  0.1346E+01  0.1150E+02
     -7.522  0.1455E+01  0.1163E+02
     -7.426  0.1560E+01  0.1178E+02
     -7.330  0.2212E+01  0.1195E+02
     -7.234  0.0000E+00  0.1200E+02
     -7.138  0.0000E+00  0.1200E+02
     -7.042  0.0000E+00  0.1200E+02
     -6.946  0.0000E+00  0.1200E+02
     -6.849  0.0000E+00  0.1200E+02
     -6.753  0.0000E+00  0.1200E+02
     -6.657  0.0000E+00  0.1200E+02
     -6.561  0.0000E+00  0.1200E+02
     -6.465  0.0000E+00  0.1200E+02
     -6.369  0.0000E+00  0.1200E+02
     -6.273  0.0000E+00  0.1200E+02
     -6.176  0.0000E+00  0.1200E+02
     -6.080  0.0000E+00  0.1200E+02
     -5.984  0.0000E+00  0.1200E+02
     -5.888  0.0000E+00  0.1200E+02
     -5.792  0.0000E+00  0.1200E+02
     -5.696  0.0000E+00  0.1200E+02
     -5.600  0.0000E+00  0.1200E+02
     -5.503  0.0000E+00  0.1200E+02
     -5.407  0.0000E+00  0.1200E+02
     -5.311  0.0000E+00  0.1200E+02
     -5.215  0.0000E+00  0.1200E+02
     -5.119  0.0000E+00  0.1200E+02
     -5.023  0.0000E+00  0.1200E+02
     -4.927  0.0000E+00  0.1200E+02
     -4.830  0.0000E+00  0.1200E+02
     -4.734  0.0000E+00  0.1200E+02
     -4.638  0.0000E+00  0.1200E+02
     -4.542  0.0000E+00  0.1200E+02
     -4.446  0.0000E+00  0.1200E+02
     -4.350  0.0000E+00  0.1200E+02
     -4.254  0.0000E+00  0.1200E+02
     -4.157  0.0000E+00  0.1200E+02
     -4.061  0.0000E+00  0.1200E+02
     -3.965  0.0000E+00  0.1200E+02
     -3.869  0.3780E+00  0.1201E+02
     -3.773  0.8696E+00  0.1206E+02
     -3.677  0.1972E+01  0.1220E+02
     -3.581  0.3361E+01  0.1248E+02
     -3.484  0.1744E+01  0.1270E+02
     -3.388  0.1280E+01  0.1285E+02
     -3.292  0.1031E+01  0.1296E+02
     -3.196  0.8737E+00  0.1305E+02
     -3.100  0.7447E+00  0.1313E+02
     -3.004  0.6582E+00  0.1319E+02
     -2.908  0.5930E+00  0.1325E+02
     -2.811  0.5364E+00  0.1331E+02
     -2.715  0.4903E+00  0.1336E+02
     -2.619  0.4511E+00  0.1340E+02
     -2.523  0.4154E+00  0.1344E+02
     -2.427  0.3809E+00  0.1348E+02
     -2.331  0.3539E+00  0.1352E+02
     -2.234  0.3305E+00  0.1355E+02
     -2.138  0.3087E+00  0.1358E+02
     -2.042  0.2880E+00  0.1361E+02
     -1.946  0.2686E+00  0.1364E+02
     -1.850  0.2527E+00  0.1366E+02
     -1.754  0.2370E+00  0.1368E+02
     -1.658  0.2220E+00  0.1371E+02
     -1.561  0.2079E+00  0.1373E+02
     -1.465  0.1940E+00  0.1375E+02
     -1.369  0.1833E+00  0.1376E+02
     -1.273  0.1729E+00  0.1378E+02
     -1.177  0.1627E+00  0.1380E+02
     -1.081  0.1526E+00  0.1381E+02
     -0.985  0.5013E+00  0.1384E+02
     -0.888  0.8909E+00  0.1390E+02
     -0.792  0.1397E+01  0.1401E+02
     -0.696  0.1314E+01  0.1415E+02
     -0.600  0.1185E+01  0.1428E+02
     -0.504  0.1119E+01  0.1439E+02
     -0.408  0.1087E+01  0.1449E+02
     -0.312  0.1020E+01  0.1459E+02
     -0.215  0.1086E+01  0.1469E+02
     -0.119  0.1110E+01  0.1480E+02
     -0.023  0.1177E+01  0.1491E+02
      0.073  0.1256E+01  0.1503E+02
      0.169  0.1344E+01  0.1515E+02
      0.265  0.1655E+01  0.1529E+02
      0.361  0.1556E+01  0.1545E+02
      0.458  0.1589E+01  0.1560E+02
      0.554  0.1539E+01  0.1576E+02
      0.650  0.1492E+01  0.1590E+02
      0.746  0.1547E+01  0.1605E+02
      0.842  0.1474E+01  0.1619E+02
      0.938  0.1426E+01  0.1633E+02
      1.034  0.1406E+01  0.1647E+02
      1.131  0.1421E+01  0.1660E+02
      1.227  0.1378E+01  0.1674E+02
      1.323  0.1366E+01  0.1687E+02
      1.419  0.1322E+01  0.1700E+02
      1.515  0.1304E+01  0.1712E+02
      1.611  0.1346E+01  0.1725E+02
      1.707  0.1276E+01  0.1738E+02
      1.804  0.1095E+01  0.1749E+02
      1.900  0.8592E+00  0.1759E+02
      1.996  0.7600E+00  0.1766E+02
      2.092  0.6548E+00  0.1773E+02
      2.188  0.5413E+00  0.1779E+02
      2.284  0.4603E+00  0.1783E+02
      2.380  0.3723E+00  0.1788E+02
      2.477  0.3729E+00  0.1791E+02
      2.573  0.2910E+00  0.1794E+02
      2.669  0.1906E+00  0.1797E+02
      2.765  0.1917E+00  0.1799E+02
      2.861  0.5984E-01  0.1800E+02
      2.957  0.0000E+00  0.1800E+02
      3.053  0.0000E+00  0.1800E+02
      3.150  0.0000E+00  0.1800E+02
      3.246  0.0000E+00  0.1800E+02
      3.342  0.0000E+00  0.1800E+02
      3.438  0.0000E+00  0.1800E+02
      3.534  0.0000E+00  0.1800E+02
      3.630  0.0000E+00  0.1800E+02
      3.726  0.0000E+00  0.1800E+02
      3.823  0.0000E+00  0.1800E+02
      3.919  0.1597E-01  0.1800E+02
      4.015  0.4500E-01  0.1800E+02
      4.111  0.9316E-01  0.1801E+02
      4.207  0.1298E+00  0.1802E+02
      4.303  0.1618E+00  0.1804E+02
      4.399  0.3720E+00  0.1807E+02
      4.496  0.5154E+00  0.1811E+02
      4.592  0.6851E+00  0.1817E+02
      4.688  0.7817E+00  0.1824E+02
      4.784  0.8828E+00  0.1832E+02
      4.880  0.1045E+01  0.1841E+02
      4.976  0.1157E+01  0.1852E+02
      5.072  0.1338E+01  0.1864E+02
      5.169  0.1700E+01  0.1878E+02
      5.265  0.1977E+01  0.1896E+02
      5.361  0.1878E+01  0.1915E+02
      5.457  0.1780E+01  0.1933E+02
      5.553  0.1421E+01  0.1948E+02
      5.649  0.1324E+01  0.1961E+02
      5.746  0.1098E+01  0.1973E+02
      5.842  0.9176E+00  0.1982E+02
      5.938  0.8248E+00  0.1991E+02
      6.034  0.9233E+00  0.1999E+02
      6.130  0.9908E+00  0.2008E+02
      6.226  0.8689E+00  0.2018E+02
      6.322  0.8865E+00  0.2026E+02
      6.419  0.8391E+00  0.2034E+02
      6.515  0.8016E+00  0.2042E+02
      6.611  0.7941E+00  0.2050E+02
      6.707  0.7778E+00  0.2058E+02
      6.803  0.8027E+00  0.2065E+02
      6.899  0.9211E+00  0.2073E+02
      6.995  0.9983E+00  0.2083E+02
      7.092  0.1302E+01  0.2093E+02
      7.188  0.2074E+01  0.2110E+02
      7.284  0.2119E+01  0.2131E+02
      7.380  0.1810E+01  0.2150E+02
      7.476  0.1593E+01  0.2167E+02
      7.572  0.1141E+01  0.2180E+02
      7.668  0.1149E+01  0.2191E+02
      7.765  0.1173E+01  0.2202E+02
      7.861  0.1094E+01  0.2213E+02
      7.957  0.1020E+01  0.2223E+02
      8.053  0.1099E+01  0.2233E+02
      8.149  0.1511E+01  0.2245E+02
      8.245  0.1660E+01  0.2260E+02
      8.341  0.1652E+01  0.2276E+02
      8.438  0.1728E+01  0.2292E+02
      8.534  0.1586E+01  0.2309E+02
      8.630  0.1543E+01  0.2324E+02
      8.726  0.1374E+01  0.2338E+02
      8.822  0.1304E+01  0.2351E+02
      8.918  0.1221E+01  0.2363E+02
      9.014  0.1196E+01  0.2375E+02
      9.111  0.1109E+01  0.2386E+02
      9.207  0.9994E+00  0.2396E+02
      9.303  0.8662E+00  0.2405E+02
      9.399  0.8468E+00  0.2413E+02
      9.495  0.8439E+00  0.2422E+02
      9.591  0.8269E+00  0.2430E+02
      9.687  0.8332E+00  0.2438E+02
      9.784  0.8485E+00  0.2446E+02
      9.880  0.8528E+00  0.2454E+02
      9.976  0.8981E+00  0.2462E+02
     10.072  0.9860E+00  0.2471E+02
     10.168  0.1185E+01  0.2482E+02
     10.264  0.1363E+01  0.2494E+02
     10.360  0.1450E+01  0.2507E+02
     10.457  0.1246E+01  0.2521E+02
     10.553  0.1039E+01  0.2532E+02
     10.649  0.9677E+00  0.2541E+02
     10.745  0.8693E+00  0.2550E+02
     10.841  0.5618E+00  0.2557E+02
     10.937  0.4350E+00  0.2562E+02
     11.033  0.4106E+00  0.2566E+02
     11.130  0.3870E+00  0.2570E+02
     11.226  0.3633E+00  0.2573E+02
     11.322  0.3221E+00  0.2576E+02
     11.418  0.2959E+00  0.2579E+02
     11.514  0.2726E+00  0.2582E+02
     11.610  0.2485E+00  0.2585E+02
     11.706  0.2275E+00  0.2587E+02
     11.803  0.2066E+00  0.2589E+02
     11.899  0.1772E+00  0.2591E+02
     11.995  0.1574E+00  0.2592E+02
     12.091  0.1405E+00  0.2594E+02
     12.187  0.1375E+00  0.2595E+02
     12.283  0.1185E+00  0.2596E+02
     12.379  0.9422E-01  0.2597E+02
     12.476  0.7548E-01  0.2598E+02
     12.572  0.5854E-01  0.2599E+02
     12.668  0.3189E-01  0.2600E+02
     12.764  0.2148E-01  0.2600E+02
     12.860  0.0000E+00  0.2600E+02
     12.956  0.0000E+00  0.2600E+02
     13.052  0.0000E+00  0.2600E+02
     13.149  0.0000E+00  0.2600E+02
     13.245  0.0000E+00  0.2600E+02
     13.341  0.0000E+00  0.2600E+02
     13.437  0.0000E+00  0.2600E+02
     13.533  0.0000E+00  0.2600E+02
     13.629  0.0000E+00  0.2600E+02
     13.725  0.0000E+00  0.2600E+02
     13.822  0.0000E+00  0.2600E+02
     13.918  0.0000E+00  0.2600E+02
     14.014  0.0000E+00  0.2600E+02
     14.110  0.0000E+00  0.2600E+02
     14.206  0.0000E+00  0.2600E+02
     14.302  0.0000E+00  0.2600E+02
     14.399  0.0000E+00  0.2600E+02
     14.495  0.0000E+00  0.2600E+02
     14.591  0.0000E+00  0.2600E+02
     14.687  0.0000E+00  0.2600E+02
     14.783  0.0000E+00  0.2600E+02
     14.78308808    -14.06026246  301      2.96933242      1.00000000
    -14.060  0.0000E+00  0.0000E+00  0.0000E+00
    -13.964  0.0000E+00  0.0000E+00  0.0000E+00
    -13.868  0.0000E+00  0.0000E+00  0.0000E+00
    -13.772  0.0000E+00  0.0000E+00  0.0000E+00
    -13.676  0.0000E+00  0.0000E+00  0.0000E+00
    -13.580  0.0000E+00  0.0000E+00  0.0000E+00
    -13.483  0.0000E+00  0.0000E+00  0.0000E+00
    -13.387  0.0000E+00  0.0000E+00  0.0000E+00
    -13.291  0.0000E+00  0.0000E+00  0.0000E+00
    -13.195  0.0000E+00  0.0000E+00  0.0000E+00
    -13.099  0.0000E+00  0.0000E+00  0.0000E+00
    -13.003  0.0000E+00  0.0000E+00  0.0000E+00
    -12.907  0.0000E+00  0.0000E+00  0.0000E+00
    -12.810  0.0000E+00  0.0000E+00  0.0000E+00
    -12.714  0.0000E+00  0.0000E+00  0.0000E+00
    -12.618  0.0000E+00  0.0000E+00  0.0000E+00
    -12.522  0.0000E+00  0.0000E+00  0.0000E+00
    -12.426  0.0000E+00  0.0000E+00  0.0000E+00
    -12.330  0.0000E+00  0.0000E+00  0.0000E+00
    -12.234  0.0000E+00  0.0000E+00  0.0000E+00
    -12.137  0.0000E+00  0.0000E+00  0.0000E+00
    -12.041  0.1496E-01  0.4018E-01  0.4800E+02
    -11.945  0.5204E-04  0.1771E-02  0.2288E+02
    -11.849  0.0000E+00  0.0000E+00  0.0000E+00
    -11.753  0.0000E+00  0.0000E+00  0.0000E+00
    -11.657  0.0000E+00  0.0000E+00  0.0000E+00
    -11.561  0.0000E+00  0.0000E+00  0.0000E+00
    -11.464  0.0000E+00  0.0000E+00  0.0000E+00
    -11.368  0.0000E+00  0.0000E+00  0.0000E+00
    -11.272  0.0000E+00  0.0000E+00  0.0000E+00
    -11.176  0.0000E+00  0.0000E+00  0.0000E+00
    -11.080  0.0000E+00  0.0000E+00  0.0000E+00
    -10.984  0.0000E+00  0.0000E+00  0.0000E+00
    -10.887  0.0000E+00  0.0000E+00  0.0000E+00
    -10.791  0.0000E+00  0.0000E+00  0.0000E+00
    -10.695  0.0000E+00  0.0000E+00  0.0000E+00
    -10.599  0.0000E+00  0.0000E+00  0.0000E+00
    -10.503  0.0000E+00  0.0000E+00  0.0000E+00
    -10.407  0.0000E+00  0.0000E+00  0.0000E+00
    -10.311  0.0000E+00  0.0000E+00  0.0000E+00
    -10.214  0.0000E+00  0.0000E+00  0.0000E+00
    -10.118  0.0000E+00  0.0000E+00  0.0000E+00
    -10.022  0.0000E+00  0.0000E+00  0.0000E+00
     -9.926  0.0000E+00  0.0000E+00  0.0000E+00
     -9.830  0.0000E+00  0.0000E+00  0.0000E+00
     -9.734  0.1725E-01  0.1459E-03  0.4912E-03
     -9.638  0.2272E-01  0.4275E-03  0.1330E-02
     -9.541  0.2951E-01  0.8220E-03  0.2424E-02
     -9.445  0.3343E-01  0.1285E-02  0.3579E-02
     -9.349  0.3878E-01  0.1818E-02  0.4867E-02
     -9.253  0.4151E-01  0.2493E-02  0.6296E-02
     -9.157  0.4493E-01  0.3178E-02  0.7705E-02
     -9.061  0.4893E-01  0.4031E-02  0.9406E-02
     -8.965  0.5121E-01  0.4970E-02  0.1109E-01
     -8.868  0.5387E-01  0.6027E-02  0.1293E-01
     -8.772  0.5701E-01  0.7227E-02  0.1501E-01
     -8.676  0.5977E-01  0.8532E-02  0.1718E-01
     -8.580  0.6223E-01  0.1024E-01  0.1988E-01
     -8.484  0.6498E-01  0.1209E-01  0.2280E-01
     -8.388  0.6830E-01  0.1426E-01  0.2623E-01
     -8.292  0.7239E-01  0.1717E-01  0.3081E-01
     -8.195  0.7706E-01  0.2089E-01  0.3661E-01
     -8.099  0.8740E-01  0.2719E-01  0.4697E-01
     -8.003  0.9359E-01  0.3338E-01  0.5641E-01
     -7.907  0.8555E-01  0.3645E-01  0.5874E-01
     -7.811  0.7375E-01  0.3801E-01  0.5836E-01
     -7.715  0.6356E-01  0.4218E-01  0.6165E-01
     -7.619  0.5226E-01  0.4330E-01  0.6101E-01
     -7.522  0.4225E-01  0.5048E-01  0.6760E-01
     -7.426  0.2872E-01  0.5825E-01  0.7442E-01
     -7.330  0.1514E-01  0.8945E-01  0.1072E+00
     -7.234  0.0000E+00  0.0000E+00  0.0000E+00
     -7.138  0.0000E+00  0.0000E+00  0.0000E+00
     -7.042  0.0000E+00  0.0000E+00  0.0000E+00
     -6.946  0.0000E+00  0.0000E+00  0.0000E+00
     -6.849  0.0000E+00  0.0000E+00  0.0000E+00
     -6.753  0.0000E+00  0.0000E+00  0.0000E+00
     -6.657  0.0000E+00  0.0000E+00  0.0000E+00
     -6.561  0.0000E+00  0.0000E+00  0.0000E+00
     -6.465  0.0000E+00  0.0000E+00  0.0000E+00
     -6.369  0.0000E+00  0.0000E+00  0.0000E+00
     -6.273  0.0000E+00  0.0000E+00  0.0000E+00
     -6.176  0.0000E+00  0.0000E+00  0.0000E+00
     -6.080  0.0000E+00  0.0000E+00  0.0000E+00
     -5.984  0.0000E+00  0.0000E+00  0.0000E+00
     -5.888  0.0000E+00  0.0000E+00  0.0000E+00
     -5.792  0.0000E+00  0.0000E+00  0.0000E+00
     -5.696  0.0000E+00  0.0000E+00  0.0000E+00
     -5.600  0.0000E+00  0.0000E+00  0.0000E+00
     -5.503  0.0000E+00  0.0000E+00  0.0000E+00
     -5.407  0.0000E+00  0.0000E+00  0.0000E+00
     -5.311  0.0000E+00  0.0000E+00  0.0000E+00
     -5.215  0.0000E+00  0.0000E+00  0.0000E+00
     -5.119  0.0000E+00  0.0000E+00  0.0000E+00
     -5.023  0.0000E+00  0.0000E+00  0.0000E+00
     -4.927  0.0000E+00  0.0000E+00  0.0000E+00
     -4.830  0.0000E+00  0.0000E+00  0.0000E+00
     -4.734  0.0000E+00  0.0000E+00  0.0000E+00
     -4.638  0.0000E+00  0.0000E+00  0.0000E+00
     -4.542  0.0000E+00  0.0000E+00  0.0000E+00
     -4.446  0.0000E+00  0.0000E+00  0.0000E+00
     -4.350  0.0000E+00  0.0000E+00  0.0000E+00
     -4.254  0.0000E+00  0.0000E+00  0.0000E+00
     -4.157  0.0000E+00  0.0000E+00  0.0000E+00
     -4.061  0.0000E+00  0.0000E+00  0.0000E+00
     -3.965  0.0000E+00  0.0000E+00  0.0000E+00
     -3.869  0.1362E+00  0.4608E-03  0.1871E-02
     -3.773  0.3168E+00  0.2710E-02  0.3129E-02
     -3.677  0.6575E+00  0.2676E-01  0.5505E-02
     -3.581  0.1016E+01  0.7659E-01  0.1057E-01
     -3.484  0.5118E+00  0.4289E-01  0.7553E-02
     -3.388  0.3662E+00  0.3331E-01  0.6890E-02
     -3.292  0.2872E+00  0.2840E-01  0.6567E-02
     -3.196  0.2372E+00  0.2542E-01  0.6334E-02
     -3.100  0.1965E+00  0.2293E-01  0.6104E-02
     -3.004  0.1696E+00  0.2120E-01  0.5902E-02
     -2.908  0.1500E+00  0.1969E-01  0.5725E-02
     -2.811  0.1331E+00  0.1836E-01  0.5555E-02
     -2.715  0.1195E+00  0.1726E-01  0.5402E-02
     -2.619  0.1080E+00  0.1631E-01  0.5243E-02
     -2.523  0.9760E-01  0.1543E-01  0.5081E-02
     -2.427  0.8771E-01  0.1455E-01  0.4904E-02
     -2.331  0.8019E-01  0.1381E-01  0.4746E-02
     -2.234  0.7390E-01  0.1311E-01  0.4588E-02
     -2.138  0.6810E-01  0.1244E-01  0.4431E-02
     -2.042  0.6263E-01  0.1180E-01  0.4272E-02
     -1.946  0.5756E-01  0.1119E-01  0.4115E-02
     -1.850  0.5345E-01  0.1068E-01  0.3977E-02
     -1.754  0.4943E-01  0.1017E-01  0.3832E-02
     -1.658  0.4567E-01  0.9660E-02  0.3684E-02
     -1.561  0.4224E-01  0.9150E-02  0.3532E-02
     -1.465  0.3894E-01  0.8629E-02  0.3375E-02
     -1.369  0.3644E-01  0.8223E-02  0.3247E-02
     -1.273  0.3400E-01  0.7820E-02  0.3118E-02
     -1.177  0.3166E-01  0.7424E-02  0.2989E-02
     -1.081  0.2936E-01  0.7029E-02  0.2857E-02
     -0.985  0.2960E-01  0.5086E-01  0.5333E-02
     -0.888  0.3159E-01  0.9950E-01  0.8416E-02
     -0.792  0.3582E-01  0.1620E+00  0.1279E-01
     -0.696  0.3762E-01  0.1521E+00  0.1246E-01
     -0.600  0.3759E-01  0.1368E+00  0.1150E-01
     -0.504  0.3753E-01  0.1294E+00  0.1108E-01
     -0.408  0.3731E-01  0.1262E+00  0.1097E-01
     -0.312  0.3635E-01  0.1188E+00  0.1057E-01
     -0.215  0.3571E-01  0.1293E+00  0.1108E-01
     -0.119  0.3492E-01  0.1339E+00  0.1141E-01
     -0.023  0.3403E-01  0.1446E+00  0.1203E-01
      0.073  0.3291E-01  0.1571E+00  0.1278E-01
      0.169  0.3172E-01  0.1711E+00  0.1380E-01
      0.265  0.3042E-01  0.2180E+00  0.1611E-01
      0.361  0.2899E-01  0.2041E+00  0.1628E-01
      0.458  0.2763E-01  0.2095E+00  0.1734E-01
      0.554  0.2626E-01  0.2025E+00  0.1795E-01
      0.650  0.2485E-01  0.1962E+00  0.1825E-01
      0.746  0.2344E-01  0.2044E+00  0.1973E-01
      0.842  0.2181E-01  0.1940E+00  0.2000E-01
      0.938  0.2037E-01  0.1874E+00  0.2025E-01
      1.034  0.1897E-01  0.1846E+00  0.2087E-01
      1.131  0.1761E-01  0.1865E+00  0.2205E-01
      1.227  0.1603E-01  0.1801E+00  0.2256E-01
      1.323  0.1453E-01  0.1780E+00  0.2334E-01
      1.419  0.1301E-01  0.1715E+00  0.2354E-01
      1.515  0.1155E-01  0.1686E+00  0.2416E-01
      1.611  0.9918E-02  0.1732E+00  0.2626E-01
      1.707  0.8195E-02  0.1629E+00  0.2605E-01
      1.804  0.6797E-02  0.1378E+00  0.2345E-01
      1.900  0.5862E-02  0.1055E+00  0.1963E-01
      1.996  0.5121E-02  0.9116E-01  0.1845E-01
      2.092  0.4795E-02  0.7645E-01  0.1677E-01
      2.188  0.3895E-02  0.6163E-01  0.1457E-01
      2.284  0.2473E-02  0.5117E-01  0.1311E-01
      2.380  0.1868E-02  0.3993E-01  0.1123E-01
      2.477  0.1790E-02  0.3869E-01  0.1178E-01
      2.573  0.1191E-02  0.2899E-01  0.9683E-02
      2.669  0.5575E-03  0.1790E-01  0.6785E-02
      2.765  0.4726E-03  0.1709E-01  0.7166E-02
      2.861  0.8199E-04  0.5054E-02  0.2346E-02
      2.957  0.0000E+00  0.0000E+00  0.0000E+00
      3.053  0.0000E+00  0.0000E+00  0.0000E+00
      3.150  0.0000E+00  0.0000E+00  0.0000E+00
      3.246  0.0000E+00  0.0000E+00  0.0000E+00
      3.342  0.0000E+00  0.0000E+00  0.0000E+00
      3.438  0.0000E+00  0.0000E+00  0.0000E+00
      3.534  0.0000E+00  0.0000E+00  0.0000E+00
      3.630  0.0000E+00  0.0000E+00  0.0000E+00
      3.726  0.0000E+00  0.0000E+00  0.0000E+00
      3.823  0.0000E+00  0.0000E+00  0.0000E+00
      3.919  0.3425E-02  0.7068E-03  0.2026E-03
      4.015  0.9618E-02  0.2204E-02  0.5717E-03
      4.111  0.1960E-01  0.4895E-02  0.1173E-02
      4.207  0.2658E-01  0.7225E-02  0.1637E-02
      4.303  0.3263E-01  0.9302E-02  0.2034E-02
      4.399  0.5336E-01  0.2669E-01  0.6909E-02
      4.496  0.7088E-01  0.3721E-01  0.9823E-02
      4.592  0.8703E-01  0.5103E-01  0.1395E-01
      4.688  0.1037E+00  0.5610E-01  0.1571E-01
      4.784  0.1150E+00  0.6318E-01  0.1820E-01
      4.880  0.1328E+00  0.7474E-01  0.2224E-01
      4.976  0.1469E+00  0.8317E-01  0.2464E-01
      5.072  0.1691E+00  0.9617E-01  0.2880E-01
      5.169  0.2144E+00  0.1224E+00  0.3698E-01
      5.265  0.2526E+00  0.1428E+00  0.4261E-01
      5.361  0.2436E+00  0.1342E+00  0.4021E-01
      5.457  0.2325E+00  0.1255E+00  0.3840E-01
      5.553  0.1794E+00  0.1018E+00  0.3138E-01
      5.649  0.1667E+00  0.9421E-01  0.2938E-01
      5.746  0.1326E+00  0.7513E-01  0.2578E-01
      5.842  0.1055E+00  0.6199E-01  0.2241E-01
      5.938  0.9143E-01  0.5516E-01  0.2060E-01
      6.034  0.8810E-01  0.8259E-01  0.2017E-01
      6.130  0.9052E-01  0.9394E-01  0.2058E-01
      6.226  0.7451E-01  0.8804E-01  0.1813E-01
      6.322  0.7254E-01  0.9424E-01  0.1833E-01
      6.419  0.6126E-01  0.1022E+00  0.1615E-01
      6.515  0.5295E-01  0.1054E+00  0.1537E-01
      6.611  0.4981E-01  0.1077E+00  0.1525E-01
      6.707  0.4665E-01  0.1076E+00  0.1508E-01
      6.803  0.4455E-01  0.1162E+00  0.1546E-01
      6.899  0.4703E-01  0.1391E+00  0.1787E-01
      6.995  0.4217E-01  0.1611E+00  0.1931E-01
      7.092  0.4657E-01  0.1984E+00  0.2892E-01
      7.188  0.5795E-01  0.3002E+00  0.5226E-01
      7.284  0.5380E-01  0.3118E+00  0.5488E-01
      7.380  0.4648E-01  0.2719E+00  0.4646E-01
      7.476  0.4496E-01  0.2334E+00  0.4074E-01
      7.572  0.4467E-01  0.1491E+00  0.2821E-01
      7.668  0.3474E-01  0.1699E+00  0.2900E-01
      7.765  0.3116E-01  0.1831E+00  0.2974E-01
      7.861  0.2782E-01  0.1724E+00  0.2778E-01
      7.957  0.2463E-01  0.1607E+00  0.2599E-01
      8.053  0.2350E-01  0.1714E+00  0.2848E-01
      8.149  0.3007E-01  0.2249E+00  0.3989E-01
      8.245  0.3244E-01  0.2406E+00  0.4411E-01
      8.341  0.3144E-01  0.2382E+00  0.4447E-01
      8.438  0.3097E-01  0.2495E+00  0.4751E-01
      8.534  0.2826E-01  0.2305E+00  0.4390E-01
      8.630  0.2725E-01  0.2264E+00  0.4273E-01
      8.726  0.2479E-01  0.2043E+00  0.3809E-01
      8.822  0.2535E-01  0.1923E+00  0.3598E-01
      8.918  0.2470E-01  0.1793E+00  0.3368E-01
      9.014  0.2457E-01  0.1760E+00  0.3293E-01
      9.111  0.2194E-01  0.1646E+00  0.3096E-01
      9.207  0.1872E-01  0.1507E+00  0.2815E-01
      9.303  0.1416E-01  0.1341E+00  0.2519E-01
      9.399  0.1323E-01  0.1329E+00  0.2487E-01
      9.495  0.1276E-01  0.1333E+00  0.2506E-01
      9.591  0.1220E-01  0.1315E+00  0.2471E-01
      9.687  0.1191E-01  0.1332E+00  0.2506E-01
      9.784  0.1183E-01  0.1364E+00  0.2559E-01
      9.880  0.1198E-01  0.1375E+00  0.2560E-01
      9.976  0.1246E-01  0.1458E+00  0.2696E-01
     10.072  0.1350E-01  0.1614E+00  0.2969E-01
     10.168  0.1565E-01  0.1982E+00  0.3609E-01
     10.264  0.1709E-01  0.2358E+00  0.4103E-01
     10.360  0.1806E-01  0.2519E+00  0.4209E-01
     10.457  0.1560E-01  0.2123E+00  0.3485E-01
     10.553  0.1327E-01  0.1705E+00  0.2769E-01
     10.649  0.1180E-01  0.1502E+00  0.2446E-01
     10.745  0.1064E-01  0.1356E+00  0.2150E-01
     10.841  0.7677E-02  0.1007E+00  0.1406E-01
     10.937  0.6647E-02  0.8486E-01  0.1095E-01
     11.033  0.6340E-02  0.8050E-01  0.1014E-01
     11.130  0.6022E-02  0.7623E-01  0.9382E-02
     11.226  0.5609E-02  0.7200E-01  0.8658E-02
     11.322  0.4992E-02  0.6394E-01  0.7539E-02
     11.418  0.4548E-02  0.5932E-01  0.6752E-02
     11.514  0.4108E-02  0.5524E-01  0.6095E-02
     11.610  0.3697E-02  0.5069E-01  0.5486E-02
     11.706  0.3365E-02  0.4672E-01  0.4944E-02
     11.803  0.3014E-02  0.4273E-01  0.4423E-02
     11.899  0.2420E-02  0.3726E-01  0.3745E-02
     11.995  0.2094E-02  0.3340E-01  0.3274E-02
     12.091  0.1812E-02  0.3012E-01  0.2871E-02
     12.187  0.1634E-02  0.3003E-01  0.2762E-02
     12.283  0.1332E-02  0.2629E-01  0.2335E-02
     12.379  0.9850E-03  0.2134E-01  0.1804E-02
     12.476  0.7537E-03  0.1724E-01  0.1439E-02
     12.572  0.5497E-03  0.1351E-01  0.1109E-02
     12.668  0.1556E-03  0.7677E-02  0.6233E-03
     12.764  0.7243E-04  0.5270E-02  0.4229E-03
     12.860  0.0000E+00  0.0000E+00  0.0000E+00
     12.956  0.0000E+00  0.0000E+00  0.0000E+00
     13.052  0.0000E+00  0.0000E+00  0.0000E+00
     13.149  0.0000E+00  0.0000E+00  0.0000E+00
     13.245  0.0000E+00  0.0000E+00  0.0000E+00
     13.341  0.0000E+00  0.0000E+00  0.0000E+00
     13.437  0.0000E+00  0.0000E+00  0.0000E+00
     13.533  0.0000E+00  0.0000E+00  0.0000E+00
     13.629  0.0000E+00  0.0000E+00  0.0000E+00
     13.725  0.0000E+00  0.0000E+00  0.0000E+00
     13.822  0.0000E+00  0.0000E+00  0.0000E+00
     13.918  0.0000E+00  0.0000E+00  0.0000E+00
     14.014  0.0000E+00  0.0000E+00  0.0000E+00
     14.110  0.0000E+00  0.0000E+00  0.0000E+00
     14.206  0.0000E+00  0.0000E+00  0.0000E+00
     14.302  0.0000E+00  0.0000E+00  0.0000E+00
     14.399  0.0000E+00  0.0000E+00  0.0000E+00
     14.495  0.0000E+00  0.0000E+00  0.0000E+00
     14.591  0.0000E+00  0.0000E+00  0.0000E+00
     14.687  0.0000E+00  0.0000E+00  0.0000E+00
     14.783  0.0000E+00  0.0000E+00  0.0000E+00
     14.78308808    -14.06026246  301      2.96933242      1.00000000
    -14.060  0.0000E+00  0.0000E+00  0.0000E+00
    -13.964  0.0000E+00  0.0000E+00  0.0000E+00
    -13.868  0.0000E+00  0.0000E+00  0.0000E+00
    -13.772  0.0000E+00  0.0000E+00  0.0000E+00
    -13.676  0.0000E+00  0.0000E+00  0.0000E+00
    -13.580  0.0000E+00  0.0000E+00  0.0000E+00
    -13.483  0.0000E+00  0.0000E+00  0.0000E+00
    -13.387  0.0000E+00  0.0000E+00  0.0000E+00
    -13.291  0.0000E+00  0.0000E+00  0.0000E+00
    -13.195  0.0000E+00  0.0000E+00  0.0000E+00
    -13.099  0.0000E+00  0.0000E+00  0.0000E+00
    -13.003  0.0000E+00  0.0000E+00  0.0000E+00
    -12.907  0.0000E+00  0.0000E+00  0.0000E+00
    -12.810  0.0000E+00  0.0000E+00  0.0000E+00
    -12.714  0.0000E+00  0.0000E+00  0.0000E+00
    -12.618  0.0000E+00  0.0000E+00  0.0000E+00
    -12.522  0.0000E+00  0.0000E+00  0.0000E+00
    -12.426  0.0000E+00  0.0000E+00  0.0000E+00
    -12.330  0.0000E+00  0.0000E+00  0.0000E+00
    -12.234  0.0000E+00  0.0000E+00  0.0000E+00
    -12.137  0.0000E+00  0.0000E+00  0.0000E+00
    -12.041  0.1257E+01  0.1157E-01  0.5405E-02
    -11.945  0.2448E-03  0.8980E-01  0.1032E-01
    -11.849  0.0000E+00  0.0000E+00  0.0000E+00
    -11.753  0.0000E+00  0.0000E+00  0.0000E+00
    -11.657  0.0000E+00  0.0000E+00  0.0000E+00
    -11.561  0.0000E+00  0.0000E+00  0.0000E+00
    -11.464  0.0000E+00  0.0000E+00  0.0000E+00
    -11.368  0.0000E+00  0.0000E+00  0.0000E+00
    -11.272  0.0000E+00  0.0000E+00  0.0000E+00
    -11.176  0.0000E+00  0.0000E+00  0.0000E+00
    -11.080  0.0000E+00  0.0000E+00  0.0000E+00
    -10.984  0.0000E+00  0.0000E+00  0.0000E+00
    -10.887  0.0000E+00  0.0000E+00  0.0000E+00
    -10.791  0.0000E+00  0.0000E+00  0.0000E+00
    -10.695  0.0000E+00  0.0000E+00  0.0000E+00
    -10.599  0.0000E+00  0.0000E+00  0.0000E+00
    -10.503  0.0000E+00  0.0000E+00  0.0000E+00
    -10.407  0.0000E+00  0.0000E+00  0.0000E+00
    -10.311  0.0000E+00  0.0000E+00  0.0000E+00
    -10.214  0.0000E+00  0.0000E+00  0.0000E+00
    -10.118  0.0000E+00  0.0000E+00  0.0000E+00
    -10.022  0.0000E+00  0.0000E+00  0.0000E+00
     -9.926  0.0000E+00  0.0000E+00  0.0000E+00
     -9.830  0.0000E+00  0.0000E+00  0.0000E+00
     -9.734  0.5314E-01  0.1253E-03  0.4565E-05
     -9.638  0.7171E-01  0.3507E-03  0.1355E-04
     -9.541  0.9523E-01  0.6496E-03  0.2646E-04
     -9.445  0.1108E+00  0.9734E-03  0.4187E-04
     -9.349  0.1313E+00  0.1332E-02  0.5999E-04
     -9.253  0.1455E+00  0.1733E-02  0.8301E-04
     -9.157  0.1621E+00  0.2119E-02  0.1067E-03
     -9.061  0.1823E+00  0.2568E-02  0.1367E-03
     -8.965  0.1986E+00  0.2993E-02  0.1692E-03
     -8.868  0.2176E+00  0.3430E-02  0.2058E-03
     -8.772  0.2401E+00  0.3882E-02  0.2478E-03
     -8.676  0.2630E+00  0.4311E-02  0.2931E-03
     -8.580  0.2905E+00  0.4770E-02  0.3502E-03
     -8.484  0.3212E+00  0.5191E-02  0.4124E-03
     -8.388  0.3582E+00  0.5614E-02  0.4853E-03
     -8.292  0.4078E+00  0.6061E-02  0.5819E-03
     -8.195  0.4709E+00  0.6458E-02  0.7064E-03
     -8.099  0.5864E+00  0.7029E-02  0.9338E-03
     -8.003  0.6903E+00  0.7374E-02  0.1111E-02
     -7.907  0.7122E+00  0.7239E-02  0.1056E-02
     -7.811  0.7040E+00  0.6716E-02  0.9482E-03
     -7.715  0.7384E+00  0.6172E-02  0.8741E-03
     -7.619  0.7280E+00  0.5338E-02  0.7612E-03
     -7.522  0.8054E+00  0.4539E-02  0.7133E-03
     -7.426  0.8852E+00  0.3213E-02  0.6215E-03
     -7.330  0.1287E+01  0.1837E-02  0.7293E-03
     -7.234  0.0000E+00  0.0000E+00  0.0000E+00
     -7.138  0.0000E+00  0.0000E+00  0.0000E+00
     -7.042  0.0000E+00  0.0000E+00  0.0000E+00
     -6.946  0.0000E+00  0.0000E+00  0.0000E+00
     -6.849  0.0000E+00  0.0000E+00  0.0000E+00
     -6.753  0.0000E+00  0.0000E+00  0.0000E+00
     -6.657  0.0000E+00  0.0000E+00  0.0000E+00
     -6.561  0.0000E+00  0.0000E+00  0.0000E+00
     -6.465  0.0000E+00  0.0000E+00  0.0000E+00
     -6.369  0.0000E+00  0.0000E+00  0.0000E+00
     -6.273  0.0000E+00  0.0000E+00  0.0000E+00
     -6.176  0.0000E+00  0.0000E+00  0.0000E+00
     -6.080  0.0000E+00  0.0000E+00  0.0000E+00
     -5.984  0.0000E+00  0.0000E+00  0.0000E+00
     -5.888  0.0000E+00  0.0000E+00  0.0000E+00
     -5.792  0.0000E+00  0.0000E+00  0.0000E+00
     -5.696  0.0000E+00  0.0000E+00  0.0000E+00
     -5.600  0.0000E+00  0.0000E+00  0.0000E+00
     -5.503  0.0000E+00  0.0000E+00  0.0000E+00