    2    2    1    1
  0.2254527E+02  0.3995153E-09  0.3995153E-09  0.3995153E-09  0.5000000E-15
  1.000000000000000E-004
  CAR 
 GaAs                                    
     18    110     13
 
  0.5000000E-01  0.5000000E-01  0.5000000E-01  0.2000000E-02
    1      -11.953522
    2      -11.951024
    3      -11.951024
    4      -11.872282
    5      -11.872282
    6       -9.802371
    7        2.260957
    8        2.903415
    9        2.903415
   10        3.851111
   11        6.658801
   12        6.685961
   13        6.685961
 
  0.1500000E+00  0.5000000E-01  0.5000000E-01  0.6000000E-02
    1      -11.965151
    2      -11.948312
    3      -11.946663
    4      -11.872775
    5      -11.871607
    6       -9.646661
    7        0.972390
    8        2.431143
    9        2.825713
   10        4.581989
   11        6.739097
   12        6.828223
   13        7.381930
 
  0.2500000E+00  0.5000000E-01  0.5000000E-01  0.6000000E-02
    1      -11.986904
    2      -11.942536
    3      -11.940488
    4      -11.873109
    5      -11.870932
    6       -9.276611
    7       -0.719552
    8        1.991224
    9        2.506842
   10        4.604082
   11        7.246267
   12        7.405886
   13        8.356125
 
  0.3500000E+00  0.5000000E-01  0.5000000E-01  0.6000000E-02
    1      -12.010234
    2      -11.936359
    3      -11.935166
    4      -11.872073
    5      -11.869853
    6       -8.752717
    7       -2.262764
    8        1.672085
    9        2.149279
   10        4.337192
   11        7.513081
   12        7.659000
   13        9.701088
 
  0.4500000E+00  0.5000000E-01  0.5000000E-01  0.6000000E-02
    1      -12.025933
    2      -11.932474
    3      -11.932034
    4      -11.869653
    5      -11.868562
    6       -8.231924
    7       -3.390068
    8        1.515833
    9        1.875696
   10        4.144161
   11        7.545134
   12        7.577394
   13       10.588585
 
 -0.4500000E+00  0.5000000E-01  0.5000000E-01  0.6000000E-02
    1      -12.030201
    2      -11.931554
    3      -11.931267
    4      -11.869006
    5      -11.867915
    6       -8.049324
    7       -3.726812
    8        1.533616
    9        1.741677
   10        4.097999
   11        7.429748
   12        7.643535
   13       10.642204
 
 -0.3500000E+00  0.5000000E-01  0.5000000E-01  0.6000000E-02
    1      -12.021935
    2      -11.933553
    3      -11.932476
    4      -11.871138
    5      -11.868151
    6       -8.387821
    7       -3.081564
    8        1.716899
    9        1.770205
   10        4.207953
   11        7.395459
   12        7.773754
   13       10.384176
 
 -0.2500000E+00  0.5000000E-01  0.5000000E-01  0.6000000E-02
    1      -12.002824
    2      -11.938169
    3      -11.936648
    4      -11.873172
    5      -11.869548
    6       -8.937637
    7       -1.780735
    8        1.961989
    9        2.037401
   10        4.450880
   11        7.281087
   12        7.823845
   13        9.205979
 
 -0.1500000E+00  0.5000000E-01  0.5000000E-01  0.6000000E-02
    1      -11.979288
    2      -11.944102
    3      -11.942901
    4      -11.873619
    5      -11.870945
    6       -9.421042
    7       -0.153853
    8        2.288192
    9        2.426140
   10        4.706521
   11        6.815151
   12        7.542212
   13        7.925974
 
 -0.5000000E-01  0.5000000E-01  0.5000000E-01  0.6000000E-02
    1      -11.960371
    2      -11.948929
    3      -11.948476
    4      -11.872940
    5      -11.871577
    6       -9.723916
    7        1.541538
    8        2.663054
    9        2.724843
   10        4.460039
   11        6.410674
   12        7.018181
   13        7.033976
 
  0.1500000E+00  0.1500000E+00  0.5000000E-01  0.6000000E-02
    1      -11.972884
    2      -11.944650
    3      -11.944275
    4      -11.874873
    5      -11.870466
    6       -9.569483
    7        0.734982
    8        2.282931
    9        2.318729
   10        5.160879
   11        6.043716
   12        7.580120
   13        7.620638
 
  0.2500000E+00  0.1500000E+00  0.5000000E-01  0.1200000E-01
    1      -11.990548
    2      -11.939430
    3      -11.937655
    4      -11.876824
    5      -11.868936
    6       -9.272271
    7       -0.432779
    8        1.589811
    9        2.120683
   10        5.487335
   11        6.137143
   12        8.115502
   13        8.332745
 
  0.3500000E+00  0.1500000E+00  0.5000000E-01  0.1200000E-01
    1      -12.010496
    2      -11.934429
    3      -11.931612
    4      -11.877038
    5      -11.867771
    6       -8.798131
    7       -1.847368
    8        1.093579
    9        1.781479
   10        5.313994
   11        6.818801
   12        8.425985
   13        8.698320
 
  0.4500000E+00  0.1500000E+00  0.5000000E-01  0.1200000E-01
    1      -12.026372
    2      -11.930986
    3      -11.927796
    4      -11.874914
    5      -11.867128
    6       -8.260597
    7       -3.054093
    8        0.763685
    9        1.525411
   10        5.106946
   11        7.122583
   12        8.380866
   13        9.639591
 
 -0.4500000E+00  0.1500000E+00  0.5000000E-01  0.1200000E-01
    1      -12.033000
    2      -11.929734
    3      -11.926666
    4      -11.872023
    5      -11.867925
    6       -7.932179
    7       -3.661579
    8        0.571853
    9        1.480450
   10        5.013798
   11        7.159422
   12        8.242768
   13       10.801268
 
 -0.3500000E+00  0.1500000E+00  0.5000000E-01  0.1200000E-01
    1      -12.029124
    2      -11.930326
    3      -11.928066
    4      -11.872431
    5      -11.868644
    6       -8.110866
    7       -3.339284
    8        0.540920
    9        1.653256
   10        5.062868
   11        7.245443
   12        8.161430
   13       10.385027
 
 -0.2500000E+00  0.1500000E+00  0.5000000E-01  0.1200000E-01
    1      -12.015172
    2      -11.933633
    3      -11.931567
    4      -11.875036
    5      -11.868692
    6       -8.619413
    7       -2.285961
    8        0.720002
    9        1.985026
   10        5.231651
   11        7.237298
   12        8.126231
   13        9.098202
 
 -0.1500000E+00  0.1500000E+00  0.5000000E-01  0.1200000E-01
    1      -11.995205
    2      -11.939564
    3      -11.936527
    4      -11.875539
    5      -11.869464
    6       -9.132251
    7       -0.933730
    8        1.181736
    9        2.361783
   10        5.383902
   11        6.715969
   12        7.840053
   13        8.462977
 
 -0.5000000E-01  0.1500000E+00  0.5000000E-01  0.1200000E-01
    1      -11.975984
    2      -11.945002
    3      -11.942989
    4      -11.874227
    5      -11.870603
    6       -9.494549
    7        0.279077
    8        2.033550
    9        2.574785
   10        5.021048
   11        6.424977
   12        7.390571
   13        7.899285
 
  0.2500000E+00  0.2500000E+00  0.5000000E-01  0.6000000E-02
    1      -12.005749
    2      -11.931379
    3      -11.931054
    4      -11.881205
    5      -11.866790
    6       -9.053035
    7       -0.875041
    8        1.407544
    9        1.445303
   10        5.098005
   11        6.180179
   12        8.903565
   13        9.040229
 
  0.3500000E+00  0.2500000E+00  0.5000000E-01  0.1200000E-01
    1      -12.021954
    2      -11.925659
    3      -11.924090
    4      -11.883971
    5      -11.865141
    6       -8.648406
    7       -1.827372
    8        0.766542
    9        1.183535
   10        5.168377
   11        6.203506
   12        8.861676
   13        9.743581
 
  0.4500000E+00  0.2500000E+00  0.5000000E-01  0.1200000E-01
    1      -12.034428
    2      -11.923722
    3      -11.919439
    4      -11.883123
    5      -11.864770
    6       -8.142005
    7       -2.835570
    8        0.141170
    9        0.968442
   10        5.287798
   11        6.969060
   12        8.570216
   13        9.867039
 
 -0.4500000E+00  0.2500000E+00  0.5000000E-01  0.1200000E-01
    1      -12.039813
    2      -11.924413
    3      -11.917934
    4      -11.879643
    5      -11.866542
    6       -7.740307
    7       -3.513335
    8       -0.337939
    9        0.979719
   10        5.319613
   11        7.704300
   12        9.029209
   13        9.762590
 
 -0.3500000E+00  0.2500000E+00  0.5000000E-01  0.1200000E-01
    1      -12.037210
    2      -11.926143
    3      -11.919912
    4      -11.875782
    5      -11.869653
    6       -7.754763
    7       -3.481016
    8       -0.554393
    9        1.212052
   10        5.483906
   11        7.762054
   12        9.135736
   13       10.362144
 
 -0.2500000E+00  0.2500000E+00  0.5000000E-01  0.1200000E-01
    1      -12.027824
    2      -11.928632
    3      -11.924977
    4      -11.875537
    5      -11.870284
    6       -8.168646
    7       -2.804053
    8       -0.390742
    9        1.604331
   10        5.722903
   11        7.777318
   12        8.476220
   13        9.280527
 
 -0.1500000E+00  0.2500000E+00  0.5000000E-01  0.1200000E-01
    1      -12.013415
    2      -11.933335
    3      -11.930965
    4      -11.876113
    5      -11.869121
    6       -8.670536
    7       -1.980759
    8        0.330151
    9        2.027938
   10        5.661475
   11        7.192930
   12        8.281555
   13        8.582358
 
 -0.5000000E-01  0.2500000E+00  0.5000000E-01  0.1200000E-01
    1      -11.997885
    2      -11.939242
    3      -11.936793
    4      -11.874635
    5      -11.869594
    6       -9.066323
    7       -1.295879
    8        1.562019
    9        2.236268
   10        4.912623
   11        7.011673
   12        7.889701
   13        8.699299
 
  0.3500000E+00  0.3500000E+00  0.5000000E-01  0.6000000E-02
    1      -12.036576
    2      -11.916745
    3      -11.916337
    4      -11.889265
    5      -11.863006
    6       -8.323364
    7       -2.377797
    8        0.673119
    9        0.764182
   10        4.550559
   11        5.625738
   12       10.340108
   13       10.670152
 
  0.4500000E+00  0.3500000E+00  0.5000000E-01  0.1200000E-01
    1      -12.046682
    2      -11.913040
    3      -11.910958
    4      -11.890824
    5      -11.862114
    6       -7.890366
    7       -3.082788
    8        0.173471
    9        0.515827
   10        4.756683
   11        5.574296
   12       10.241823
   13       11.410306
 
 -0.4500000E+00  0.3500000E+00  0.5000000E-01  0.1200000E-01
    1      -12.049786
    2      -11.915413
    3      -11.909376
    4      -11.887992
    5      -11.863750
    6       -7.511035
    7       -3.589106
    8       -0.554159
    9        0.516827
   10        4.930942
   11        6.718204
   12        9.894098
   13       11.211065
 
 -0.3500000E+00  0.3500000E+00  0.5000000E-01  0.1200000E-01
    1      -12.046033
    2      -11.920203
    3      -11.911763
    4      -11.882636
    5      -11.867565
    6       -7.436687
    7       -3.651532
    8       -1.011352
    9        0.748346
   10        5.153105
   11        8.316165
   12        9.704980
   13       10.419722
 
 -0.2500000E+00  0.3500000E+00  0.5000000E-01  0.1200000E-01
    1      -12.038081
    2      -11.925171
    3      -11.917907
    4      -11.876813
    5      -11.870480
    6       -7.722144
    7       -3.359317
    8       -0.877252
    9        1.156450
   10        5.495174
   11        8.420692
   12        9.059182
   13       10.199091
 
 -0.1500000E+00  0.3500000E+00  0.5000000E-01  0.1200000E-01
    1      -12.028357
    2      -11.929421
    3      -11.926070
    4      -11.874235
    5      -11.869696
    6       -8.146983
    7       -3.037721
    8       -0.020702
    9        1.622445
   10        5.508301
   11        7.382303
   12        8.494726
   13        9.686751
 
 -0.5000000E-01  0.3500000E+00  0.5000000E-01  0.1200000E-01
    1      -12.018307
    2      -11.934061
    3      -11.932118
    4      -11.873040
    5      -11.868416
    6       -8.521924
    7       -2.694580
    8        1.265717
    9        1.895042
   10        4.664921
   11        7.300622
   12        7.946647
   13        9.817109
 
  0.4500000E+00  0.4500000E+00  0.5000000E-01  0.6000000E-02
    1      -12.056221
    2      -11.905990
    3      -11.905388
    4      -11.895651
    5      -11.860235
    6       -7.572830
    7       -3.568555
    8        0.240866
    9        0.360560
   10        4.337881
   11        4.880944
   12       12.008618
   13       12.246705
 
 -0.4500000E+00  0.4500000E+00  0.5000000E-01  0.1200000E-01
    1      -12.058393
    2      -11.906798
    3      -11.904298
    4      -11.894227
    5      -11.860786
    6       -7.336326
    7       -3.856329
    8       -0.098900
    9        0.224486
   10        4.622351
   11        5.134285
   12       11.828676
   13       12.354788
 
 -0.3500000E+00  0.4500000E+00  0.5000000E-01  0.1200000E-01
    1      -12.053095
    2      -11.913615
    3      -11.907048
    4      -11.889065
    5      -11.863781
    6       -7.335949
    7       -3.783570
    8       -0.707108
    9        0.427504
   10        4.846569
   11        6.636049
   12       10.686332
   13       11.334267
 
 -0.2500000E+00  0.4500000E+00  0.5000000E-01  0.1200000E-01
    1      -12.043883
    2      -11.921764
    3      -11.913927
    4      -11.881550
    5      -11.867100
    6       -7.544754
    7       -3.613767
    8       -0.768271
    9        0.825512
   10        5.220321
   11        8.147216
   12        9.205773
   13       10.280469
 
 -0.1500000E+00  0.4500000E+00  0.5000000E-01  0.1200000E-01
    1      -12.035410
    2      -11.927830
    3      -11.922880
    4      -11.873860
    5      -11.868674
    6       -7.823997
    7       -3.612376
    8       -0.030162
    9        1.320940
   10        5.364662
   11        7.289386
   12        8.713691
   13       10.678069
 
 -0.5000000E-01  0.4500000E+00  0.5000000E-01  0.1200000E-01
    1      -12.029792
    2      -11.931299
    3      -11.929781
    4      -11.870257
    5      -11.868003
    6       -8.073306
    7       -3.588873
    8        1.129523
    9        1.689625
   10        4.517270
   11        7.308227
   12        7.848960
   13       10.732974
 
 -0.4500000E+00 -0.4500000E+00  0.5000000E-01  0.6000000E-02
    1      -12.060262
    2      -11.903658
    3      -11.902799
    4      -11.896896
    5      -11.859635
    6       -7.347450
    7       -3.883352
    8        0.152685
    9        0.277978
   10        4.349833
   11        4.662651
   12       12.656324
   13       12.783088
 
 -0.3500000E+00 -0.4500000E+00  0.5000000E-01  0.1200000E-01
    1      -12.054422
    2      -11.908967
    3      -11.906492
    4      -11.893212
    5      -11.861188
    6       -7.549936
    7       -3.568929
    8       -0.006799
    9        0.321602
   10        4.659074
   11        5.294016
   12       11.054143
   13       12.123488
 
 -0.2500000E+00 -0.4500000E+00  0.5000000E-01  0.1200000E-01
    1      -12.043471
    2      -11.919012
    3      -11.913523
    4      -11.885853
    5      -11.863948
    6       -7.801924
    7       -3.254615
    8       -0.261618
    9        0.696376
   10        5.088725
   11        6.858827
   12        9.141431
   13       10.576111
 
 -0.1500000E+00 -0.4500000E+00  0.5000000E-01  0.1200000E-01
    1      -12.033755
    2      -11.927656
    3      -11.922779
    4      -11.877314
    5      -11.866431
    6       -7.990395
    7       -3.328779
    8        0.201140
    9        1.212121
   10        5.341356
   11        7.257794
   12        8.829969
   13        9.497657
 
 -0.3500000E+00 -0.3500000E+00  0.5000000E-01  0.6000000E-02
    1      -12.048203
    2      -11.910526
    3      -11.910225
    4      -11.892802
    5      -11.861405
    6       -7.927829
    7       -3.036197
    8        0.415559
    9        0.523913
   10        4.399303
   11        5.219600
   12       11.181992
   13       11.488467
 
 -0.2500000E+00 -0.3500000E+00  0.5000000E-01  0.1200000E-01
    1      -12.035751
    2      -11.919125
    3      -11.917086
    4      -11.887524
    5      -11.863456
    6       -8.273520
    7       -2.484692
    8        0.434513
    9        0.805453
   10        4.927884
   11        5.916948
   12        9.477657
   13       10.585253
 
 -0.1500000E+00 -0.3500000E+00  0.5000000E-01  0.1200000E-01
    1      -12.023101
    2      -11.929057
    3      -11.925620
    4      -11.880074
    5      -11.866075
    6       -8.483900
    7       -2.362546
    8        0.609164
    9        1.334874
   10        5.434286
   11        6.888630
   12        8.405747
   13        9.183683
 
 -0.2500000E+00 -0.2500000E+00  0.5000000E-01  0.6000000E-02
    1      -12.022238
    2      -11.924023
    3      -11.923714
    4      -11.885599
    5      -11.864844
    6       -8.707702
    7       -1.647590
    8        1.007269
    9        1.074803
   10        4.788291
   11        6.009603
   12        9.562011
   13        9.846098
 
 -0.1500000E+00 -0.2500000E+00  0.5000000E-01  0.1200000E-01
    1      -12.006565
    2      -11.932800
    3      -11.931267
    4      -11.880066
    5      -11.867098
    6       -8.986772
    7       -1.138635
    8        1.157416
    9        1.633192
   10        5.442231
   11        6.225429
   12        8.532149
   13        8.916261
 
 -0.1500000E+00 -0.1500000E+00  0.5000000E-01  0.6000000E-02
    1      -11.988691
    2      -11.938568
    3      -11.938141
    4      -11.877639
    5      -11.868637
    6       -9.343601
    7       -0.076861
    8        1.855910
    9        1.858239
   10        5.410066
   11        5.985038
   12        8.273900
   13        8.280190
 
  0.1500000E+00  0.1500000E+00  0.1500000E+00  0.2000000E-02
    1      -11.969857
    2      -11.946506
    3      -11.946506
    4      -11.872286
    5      -11.872286
    6       -9.570644
    7        0.474815
    8        2.621919
    9        2.621919
   10        4.463696
   11        7.090890
   12        7.090890
   13        7.319943
 
  0.2500000E+00  0.1500000E+00  0.1500000E+00  0.6000000E-02
    1      -11.983640
    2      -11.943723
    3      -11.940338
    4      -11.874024
    5      -11.870724
    6       -9.347186
    7       -0.316398
    8        1.626594
    9        2.646726
   10        5.053181
   11        7.011921
   12        7.114965
   13        8.269732
 
  0.3500000E+00  0.1500000E+00  0.1500000E+00  0.6000000E-02
    1      -12.003288
    2      -11.937434
    3      -11.934450
    4      -11.874917
    5      -11.870160
    6       -8.928888
    7       -1.464152
    8        0.742049
    9        2.346989
   10        5.402035
   11        7.471694
   12        7.552744
   13        8.563290
 
  0.4500000E+00  0.1500000E+00  0.1500000E+00  0.6000000E-02
    1      -12.021369
    2      -11.930930
    3      -11.930495
    4      -11.873361
    5      -11.870141
    6       -8.397226
    7       -2.691455
    8        0.336821
    9        1.934945
   10        5.267760
   11        7.614080
   12        7.965081
   13        9.506147
 
 -0.4500000E+00  0.1500000E+00  0.1500000E+00  0.6000000E-02
    1      -12.032226
    2      -11.928900
    3      -11.926729
    4      -11.871452
    5      -11.869818
    6       -7.958954
    7       -3.530679
    8        0.263791
    9        1.581589
   10        5.123155
   11        7.379399
   12        8.221946
   13       10.790203
 
 -0.3500000E+00  0.1500000E+00  0.1500000E+00  0.6000000E-02
    1      -12.033359
    2      -11.928653
    3      -11.925346
    4      -11.874547
    5      -11.866828
    6       -7.954832
    7       -3.541336
    8        0.441273
    9        1.374270
   10        5.099102
   11        7.244880
   12        8.471274
   13       10.180773
 
 -0.2500000E+00  0.1500000E+00  0.1500000E+00  0.6000000E-02
    1      -12.024467
    2      -11.930201
    3      -11.927062
    4      -11.877754
    5      -11.866225
    6       -8.389774
    7       -2.708682
    8        0.822182
    9        1.351842
   10        5.213309
   11        7.086763
   12        8.715238
   13        8.907626
 
 -0.1500000E+00  0.1500000E+00  0.1500000E+00  0.6000000E-02
    1      -12.007729
    2      -11.933714
    3      -11.931546
    4      -11.879028
    5      -11.867206
    6       -8.922809
    7       -1.427859
    8        1.342714
    9        1.521640
   10        5.390062
   11        6.475152
   12        8.502523
   13        8.728621
 
  0.2500000E+00  0.2500000E+00  0.1500000E+00  0.6000000E-02
    1      -11.992787
    2      -11.939413
    3      -11.937659
    4      -11.876056
    5      -11.869254
    6       -9.202685
    7       -0.797376
    8        1.903636
    9        1.920161
   10        5.170782
   11        6.526417
   12        8.104251
   13        8.402311
 
  0.3500000E+00  0.2500000E+00  0.1500000E+00  0.1200000E-01
    1      -12.008844
    2      -11.933951
    3      -11.931252
    4      -11.878235
    5      -11.867873
    6       -8.857244
    7       -1.540009
    8        0.757451
    9        1.883662
   10        5.752158
   11        6.476116
   12        8.318889
   13        8.718555
 
  0.4500000E+00  0.2500000E+00  0.1500000E+00  0.1200000E-01
    1      -12.024230
    2      -11.929248
    3      -11.925240
    4      -11.878599
    5      -11.867820
    6       -8.369681
    7       -2.465404
    8       -0.022843
    9        1.532112
   10        6.036386
   11        6.949514
   12        8.115233
   13        9.430623
 
 -0.4500000E+00  0.2500000E+00  0.1500000E+00  0.1200000E-01
    1      -12.034947
    2      -11.927219
    3      -11.920615
    4      -11.876710
    5      -11.868742
    6       -7.889980
    7       -3.310404
    8       -0.333998
    9        1.171004
   10        5.894397
   11        7.143654
   12        8.875697
   13        9.985443
 
 -0.3500000E+00  0.2500000E+00  0.1500000E+00  0.1200000E-01
    1      -12.038269
    2      -11.926331
    3      -11.918934
    4      -11.876883
    5      -11.868007
    6       -7.720448
    7       -3.590511
    8       -0.324525
    9        0.990960
   10        5.772940
   11        7.152909
   12        9.203977
   13       10.318132
 
 -0.2500000E+00  0.2500000E+00  0.1500000E+00  0.1200000E-01
    1      -12.034036
    2      -11.926330
    3      -11.920401
    4      -11.879776
    5      -11.866377
    6       -8.024682
    7       -3.083848
    8       -0.087523
    9        1.070048
   10        5.751746
   11        7.162196
   12        8.395132
   13        9.826686
 
 -0.1500000E+00  0.2500000E+00  0.1500000E+00  0.1200000E-01
    1      -12.022449
    2      -11.928160
    3      -11.924849
    4      -11.881561
    5      -11.866039
    6       -8.533340
    7       -2.123333
    8        0.383825
    9        1.364031
   10        5.758880
   11        6.497663
   12        8.226062
   13        9.605187
 
  0.3500000E+00  0.3500000E+00  0.1500000E+00  0.6000000E-02
    1      -12.022298
    2      -11.927071
    3      -11.924790
    4      -11.882592
    5      -11.865447
    6       -8.592264
    7       -2.036883
    8        0.793924
    9        1.174031
   10        5.238195
   11        6.530184
   12        8.658034
   13        9.391687
 
  0.4500000E+00  0.3500000E+00  0.1500000E+00  0.1200000E-01
    1      -12.034609
    2      -11.922472
    3      -11.917989
    4      -11.884671
    5      -11.864675
    6       -8.178021
    7       -2.673900
    8        0.077235
    9        0.882468
   10        5.566440
   11        6.422820
   12        8.522880
   13       10.508143
 
 -0.4500000E+00  0.3500000E+00  0.1500000E+00  0.1200000E-01
    1      -12.042436
    2      -11.921951
    3      -11.913063
    4      -11.883838
    5      -11.866006
    6       -7.726681
    7       -3.291502
    8       -0.486443
    9        0.497945
   10        6.187334
   11        6.931810
   12        8.147114
   13       11.243588
 
 -0.3500000E+00  0.3500000E+00  0.1500000E+00  0.1200000E-01
    1      -12.044498
    2      -11.922984
    3      -11.911341
    4      -11.881373
    5      -11.867960
    6       -7.470711
    7       -3.619080
    8       -0.786323
    9        0.365815
   10        6.337655
   11        7.505750
   12        8.776327
   13       10.261980
 
 -0.2500000E+00  0.3500000E+00  0.1500000E+00  0.1200000E-01
    1      -12.041671
    2      -11.924213
    3      -11.913399
    4      -11.880636
    5      -11.868355
    6       -7.622455
    7       -3.423240
    8       -0.766714
    9        0.572372
   10        6.533436
   11        7.396451
   12        8.174903
   13       10.898982
 
 -0.1500000E+00  0.3500000E+00  0.1500000E+00  0.1200000E-01
    1      -12.034302
    2      -11.925640
    3      -11.918804
    4      -11.881146
    5      -11.866612
    6       -8.045288
    7       -2.907067
    8       -0.298858
    9        0.993137
   10        6.248673
   11        6.907904
   12        7.930859
   13       10.402331
 
  0.4500000E+00  0.4500000E+00  0.1500000E+00  0.6000000E-02
    1      -12.045501
    2      -11.915092
    3      -11.911981
    4      -11.889034
    5      -11.862662
    6       -7.859085
    7       -3.144644
    8       -0.051700
    9        0.651091
   10        4.779241
   11        6.111752
   12        9.969281
   13       10.783792
 
 -0.4500000E+00  0.4500000E+00  0.1500000E+00  0.1200000E-01
    1      -12.051361
    2      -11.913715
    3      -11.907828
    4      -11.889536
    5      -11.863100
    6       -7.508946
    7       -3.574369
    8       -0.303564
    9        0.201432
   10        5.269488
   11        5.989591
   12        9.886401
   13       11.855277
 
 -0.3500000E+00  0.4500000E+00  0.1500000E+00  0.1200000E-01
    1      -12.051105
    2      -11.917093
    3      -11.906802
    4      -11.886505
    5      -11.865593
    6       -7.299700
    7       -3.761905
    8       -0.600046
    9       -0.129419
   10        6.025977
   11        6.761817
   12        9.485796
   13       10.371069
 
 -0.2500000E+00  0.4500000E+00  0.1500000E+00  0.1200000E-01
    1      -12.046569
    2      -11.921757
    3      -11.909241
    4      -11.882379
    5      -11.868013
    6       -7.370001
    7       -3.670377
    8       -0.894585
    9        0.176559
   10        6.316362
   11        8.044593
   12        8.670567
   13        9.624866
 
 -0.1500000E+00  0.4500000E+00  0.1500000E+00  0.1200000E-01
    1      -12.040563
    2      -11.925142
    3      -11.915336
    4      -11.879260
    5      -11.868208
    6       -7.653935
    7       -3.503217
    8       -0.592757
    9        0.718234
   10        6.246764
   11        7.120590
   12        8.874934
   13       10.569063
 
 -0.4500000E+00 -0.4500000E+00  0.1500000E+00  0.6000000E-02
    1      -12.056363
    2      -11.909434
    3      -11.905052
    4      -11.892513
    5      -11.861881
    6       -7.334844
    7       -3.830133
    8       -0.433940
    9        0.415837
   10        4.545407
   11        5.797487
   12       11.589339
   13       11.943472
 
 -0.3500000E+00 -0.4500000E+00  0.1500000E+00  0.1200000E-01
    1      -12.054983
    2      -11.911774
    3      -11.905940
    4      -11.890452
    5      -11.862854
    6       -7.318136
    7       -3.810549
    8       -0.376029
    9        0.052775
   10        5.209941
   11        5.873262
   12       10.681680
   13       11.469036
 
 -0.2500000E+00 -0.4500000E+00  0.1500000E+00  0.1200000E-01
    1      -12.048188
    2      -11.918940
    3      -11.908827
    4      -11.885535
    5      -11.865705
    6       -7.458525
    7       -3.591275
    8       -0.581363
    9        0.105227
   10        6.085267
   11        6.836642
   12        8.743306
   13       11.130906
 
 -0.3500000E+00 -0.3500000E+00  0.1500000E+00  0.6000000E-02
    1      -12.052746
    2      -11.911328
    3      -11.907689
    4      -11.891355
    5      -11.862029
    6       -7.535236
    7       -3.575549
    8       -0.305600
    9        0.494938
   10        4.625081
   11        5.906943
   12       10.815060
   13       11.453625
 
 -0.2500000E+00 -0.3500000E+00  0.1500000E+00  0.1200000E-01
    1      -12.044431
    2      -11.917638
    3      -11.912149
    4      -11.887554
    5      -11.863558
    6       -7.820232
    7       -3.171765
    8       -0.153153
    9        0.484998
   10        5.390152
   11        6.197274
   12        9.136807
   13       11.357305
 
 -0.2500000E+00 -0.2500000E+00  0.1500000E+00  0.6000000E-02
    1      -12.035122
    2      -11.920749
    3      -11.918196
    4      -11.885980
    5      -11.863804
    6       -8.228104
    7       -2.616197
    8        0.320065
    9        0.879911
   10        4.994882
   11        6.364038
   12        9.199279
   13       10.081689
 
  0.2500000E+00  0.2500000E+00  0.2500000E+00  0.2000000E-02
    1      -11.993444
    2      -11.939832
    3      -11.939832
    4      -11.871570
    5      -11.871570
    6       -9.138211
    7       -1.249454
    8        2.262487
    9        2.262487
   10        4.273114
   11        7.489778
   12        7.489778
   13        8.777636
 
  0.3500000E+00  0.2500000E+00  0.2500000E+00  0.6000000E-02
    1      -12.005601
    2      -11.937114
    3      -11.934739
    4      -11.873917
    5      -11.870067
    6       -8.868897
    7       -1.806865
    8        1.148061
    9        2.278776
   10        4.924184
   11        7.519965
   12        7.601162
   13        9.015409
 
  0.4500000E+00  0.2500000E+00  0.2500000E+00  0.6000000E-02
    1      -12.020135
    2      -11.930128
    3      -11.930079
    4      -11.874610
    5      -11.870687
    6       -8.436278
    7       -2.410689
    8       -0.063607
    9        1.943413
   10        5.581105
   11        7.974789
   12        8.150700
   13        8.708305
 
 -0.4500000E+00  0.2500000E+00  0.2500000E+00  0.6000000E-02
    1      -12.032744
    2      -11.926743
    3      -11.922699