 vasp.5.3.5 31Mar14 (build Dec 14 2018 19:18:10) complex                        
  
 executed on             LinuxIFC date 2022.11.15  22:15:09
 serial version


--------------------------------------------------------------------------------------------------------


 INCAR:
 POTCAR:    PAW Ga                                
 POTCAR:    PAW As                                
 POTCAR:    PAW Ga                                
   VRHFIN =Ga: s2p1                                                             
   LEXCH  = CA                                                                  
   EATOM  =  2154.4866 eV,  158.3503 Ry                                         
                                                                                
   TITEL  = PAW Ga                                                              
   LULTRA =        F    use ultrasoft PP ?                                      
   IUNSCR =        1    unscreen: 0-lin 1-nonlin 2-no                           
   RPACOR =    2.000    partial core radius                                     
   POMASS =   69.723; ZVAL   =   13.000    mass and valenz                      
   RCORE  =    2.300    outmost cutoff radius                                   
   RWIGS  =    2.300; RWIGS  =    1.217    wigner-seitz radius (au A)           
   ENMAX  =  282.829; ENMIN  =  212.121 eV                                      
   ICORE  =        3    local potential                                         
   LCOR   =        T    correct aug charges                                     
   LPAW   =        T    paw PP                                                  
   EAUG   =  490.690                                                            
   DEXC   =    -.001                                                            
   RMAX   =    2.742    core radius for proj-oper                               
   RAUG   =    1.300    factor for augmentation sphere                          
   RDEP   =    2.413    core radius for depl-charge                             
   QCUT   =   -4.559; QGAM   =    9.119    optimization parameters              
                                                                                
   Description                                                                  
     l     E      TYP  RCUT    TYP  RCUT                                        
     2   .000     23  2.300                                                     
     2  -.400     23  2.300                                                     
     0   .000     23  2.300                                                     
     0   .000     23  2.300                                                     
     1   .000     23  2.300                                                     
     1   .000     23  2.300                                                     
     3  -.100      7  2.300                                                     
  local pseudopotential read in
  partial core-charges read in
  atomic valenz-charges read in
  non local Contribution for L=           2  read in
    real space projection operators read in
  non local Contribution for L=           2  read in
    real space projection operators read in
  non local Contribution for L=           0  read in
    real space projection operators read in
  non local Contribution for L=           0  read in
    real space projection operators read in
  non local Contribution for L=           1  read in
    real space projection operators read in
  non local Contribution for L=           1  read in
    real space projection operators read in
    PAW grid and wavefunctions read in
 
   number of l-projection  operators is LMAX  =           6
   number of lm-projection operators is LMMAX =          18
 
 POTCAR:    PAW As                                
   VRHFIN =As: s2p3                                                             
   LEXCH  = CA                                                                  
   EATOM  =   171.6739 eV,   12.6177 Ry                                         
                                                                                
   TITEL  = PAW As                                                              
   LULTRA =        F    use ultrasoft PP ?                                      
   IUNSCR =        1    unscreen: 0-lin 1-nonlin 2-no                           
   RPACOR =    1.900    partial core radius                                     
   POMASS =   74.922; ZVAL   =    5.000    mass and valenz                      
   RCORE  =    2.100    outmost cutoff radius                                   
   RWIGS  =    2.300; RWIGS  =    1.217    wigner-seitz radius (au A)           
   ENMAX  =  208.870; ENMIN  =  156.653 eV                                      
   ICORE  =        3    local potential                                         
   LCOR   =        T    correct aug charges                                     
   LPAW   =        T    paw PP                                                  
   EAUG   =  462.758                                                            
   DEXC   =    -.083                                                            
   RMAX   =    3.190    core radius for proj-oper                               
   RAUG   =    1.300    factor for augmentation sphere                          
   RDEP   =    2.140    core radius for depl-charge                             
   QCUT   =   -3.918; QGAM   =    7.836    optimization parameters              
                                                                                
   Description                                                                  
     l     E      TYP  RCUT    TYP  RCUT                                        
     0   .000     23  2.100                                                     
     0   .000     23  2.100                                                     
     1   .000     23  2.100                                                     
     1   .000     23  2.100                                                     
     2   .000     23  2.100                                                     
     3  -.100      7  2.100                                                     
  local pseudopotential read in
  partial core-charges read in
  atomic valenz-charges read in
  non local Contribution for L=           0  read in
    real space projection operators read in
  non local Contribution for L=           0  read in
    real space projection operators read in
  non local Contribution for L=           1  read in
    real space projection operators read in
  non local Contribution for L=           1  read in
    real space projection operators read in
  non local Contribution for L=           2  read in
    real space projection operators read in
    PAW grid and wavefunctions read in
 
   number of l-projection  operators is LMAX  =           5
   number of lm-projection operators is LMMAX =          13
 
  PAW Ga                                :
 energy of atom  1       EATOM=-2154.4866
 kinetic energy error for atom=    0.0281 (will be added to EATOM!!)
  PAW As                                :
 energy of atom  2       EATOM= -171.6739
 kinetic energy error for atom=    0.0023 (will be added to EATOM!!)
 
 
 POSCAR: GaAs in Zincblend structure             
  positions in direct lattice
  velocities in cartesian coordinates
  No initial velocities read in
 exchange correlation table for  LEXCH =        2
   RHO(1)=    0.500       N(1)  =     2000
   RHO(2)=  100.500       N(2)  =     4000
 


--------------------------------------------------------------------------------------------------------


 ion  position               nearest neighbor table
   1  0.000  0.000  0.000-   2 2.45   2 2.45   2 2.45   2 2.45
   2  0.250  0.250  0.250-   1 2.45   1 2.45   1 2.45   1 2.45
 
  LATTYP: Found a face centered cubic cell.
 ALAT       =     5.6500000000
  
  Lattice vectors:
  
 A1 = (   2.8250000000,   2.8250000000,   0.0000000000)
 A2 = (   0.0000000000,   2.8250000000,   2.8250000000)
 A3 = (   2.8250000000,   0.0000000000,   2.8250000000)


Analysis of symmetry for initial positions (statically):
=====================================================================
 Subroutine PRICEL returns:
 Original cell was already a primitive cell.
 

 Routine SETGRP: Setting up the symmetry group for a 
 face centered cubic supercell.


 Subroutine GETGRP returns: Found 24 space group operations
 (whereof 24 operations were pure point group operations)
 out of a pool of 48 trial point group operations.


The static configuration has the point symmetry T_d .


Analysis of symmetry for dynamics (positions and initial velocities):
=====================================================================
 Subroutine PRICEL returns:
 Original cell was already a primitive cell.
 

 Routine SETGRP: Setting up the symmetry group for a 
 face centered cubic supercell.


 Subroutine GETGRP returns: Found 24 space group operations
 (whereof 24 operations were pure point group operations)
 out of a pool of 48 trial point group operations.


The dynamic configuration has the point symmetry T_d .
 
 
 KPOINTS: 10X10x10                                

Automatic generation of k-mesh.
Space group operators:
 irot       det(A)        alpha          n_x          n_y          n_z        tau_x        tau_y        tau_z
    1     1.000000     0.000000     1.000000     0.000000     0.000000     0.000000     0.000000     0.000000
    2     1.000000   120.000000    -0.577350    -0.577350    -0.577350     0.000000     0.000000     0.000000
    3     1.000000   120.000000     0.577350     0.577350     0.577350     0.000000     0.000000     0.000000
    4    -1.000000    90.000000     0.000000    -1.000000     0.000000     0.000000     0.000000     0.000000
    5    -1.000000   180.000000     0.707107     0.707107     0.000000     0.000000     0.000000     0.000000
    6    -1.000000    90.000000     1.000000     0.000000     0.000000     0.000000     0.000000     0.000000
    7     1.000000   180.000000     0.000000     1.000000     0.000000     0.000000     0.000000     0.000000
    8     1.000000   120.000000     0.577350     0.577350    -0.577350     0.000000     0.000000     0.000000
    9     1.000000   120.000000     0.577350    -0.577350    -0.577350     0.000000     0.000000     0.000000
   10    -1.000000    90.000000     0.000000     1.000000     0.000000     0.000000     0.000000     0.000000
   11    -1.000000    90.000000     0.000000     0.000000    -1.000000     0.000000     0.000000     0.000000
   12    -1.000000   180.000000     0.000000     0.707107     0.707107     0.000000     0.000000     0.000000
   13     1.000000   120.000000    -0.577350     0.577350     0.577350     0.000000     0.000000     0.000000
   14     1.000000   120.000000    -0.577350     0.577350    -0.577350     0.000000     0.000000     0.000000
   15     1.000000   180.000000     0.000000     0.000000     1.000000     0.000000     0.000000     0.000000
   16    -1.000000    90.000000    -1.000000     0.000000     0.000000     0.000000     0.000000     0.000000
   17    -1.000000   180.000000     0.707107     0.000000     0.707107     0.000000     0.000000     0.000000
   18    -1.000000    90.000000     0.000000     0.000000     1.000000     0.000000     0.000000     0.000000
   19     1.000000   120.000000    -0.577350    -0.577350     0.577350     0.000000     0.000000     0.000000
   20     1.000000   180.000000     1.000000     0.000000     0.000000     0.000000     0.000000     0.000000
   21     1.000000   120.000000     0.577350    -0.577350     0.577350     0.000000     0.000000     0.000000
   22    -1.000000   180.000000     0.707107    -0.707107     0.000000     0.000000     0.000000     0.000000
   23    -1.000000   180.000000     0.707107     0.000000    -0.707107     0.000000     0.000000     0.000000
   24    -1.000000   180.000000     0.000000    -0.707107     0.707107     0.000000     0.000000     0.000000
 
 Subroutine IBZKPT returns following result:
 ===========================================
 
 Found    110 irreducible k-points:
 
 Following reciprocal coordinates:
            Coordinates               Weight
  0.050000  0.050000  0.050000     96.000000
  0.150000  0.050000  0.050000    288.000000
  0.250000  0.050000  0.050000    288.000000
  0.350000  0.050000  0.050000    288.000000
  0.450000  0.050000  0.050000    288.000000
 -0.450000  0.050000  0.050000    288.000000
 -0.350000  0.050000  0.050000    288.000000
 -0.250000  0.050000  0.050000    288.000000
 -0.150000  0.050000  0.050000    288.000000
 -0.050000  0.050000  0.050000    288.000000
  0.150000  0.150000  0.050000    288.000000
  0.250000  0.150000  0.050000    576.000000
  0.350000  0.150000  0.050000    576.000000
  0.450000  0.150000  0.050000    576.000000
 -0.450000  0.150000  0.050000    576.000000
 -0.350000  0.150000  0.050000    576.000000
 -0.250000  0.150000  0.050000    576.000000
 -0.150000  0.150000  0.050000    576.000000
 -0.050000  0.150000  0.050000    576.000000
  0.250000  0.250000  0.050000    288.000000
  0.350000  0.250000  0.050000    576.000000
  0.450000  0.250000  0.050000    576.000000
 -0.450000  0.250000  0.050000    576.000000
 -0.350000  0.250000  0.050000    576.000000
 -0.250000  0.250000  0.050000    576.000000
 -0.150000  0.250000  0.050000    576.000000
 -0.050000  0.250000  0.050000    576.000000
  0.350000  0.350000  0.050000    288.000000
  0.450000  0.350000  0.050000    576.000000
 -0.450000  0.350000  0.050000    576.000000
 -0.350000  0.350000  0.050000    576.000000
 -0.250000  0.350000  0.050000    576.000000
 -0.150000  0.350000  0.050000    576.000000
 -0.050000  0.350000  0.050000    576.000000
  0.450000  0.450000  0.050000    288.000000
 -0.450000  0.450000  0.050000    576.000000
 -0.350000  0.450000  0.050000    576.000000
 -0.250000  0.450000  0.050000    576.000000
 -0.150000  0.450000  0.050000    576.000000
 -0.050000  0.450000  0.050000    576.000000
 -0.450000 -0.450000  0.050000    288.000000
 -0.350000 -0.450000  0.050000    576.000000
 -0.250000 -0.450000  0.050000    576.000000
 -0.150000 -0.450000  0.050000    576.000000
 -0.350000 -0.350000  0.050000    288.000000
 -0.250000 -0.350000  0.050000    576.000000
 -0.150000 -0.350000  0.050000    576.000000
 -0.250000 -0.250000  0.050000    288.000000
 -0.150000 -0.250000  0.050000    576.000000
 -0.150000 -0.150000  0.050000    288.000000
  0.150000  0.150000  0.150000     96.000000
  0.250000  0.150000  0.150000    288.000000
  0.350000  0.150000  0.150000    288.000000
  0.450000  0.150000  0.150000    288.000000
 -0.450000  0.150000  0.150000    288.000000
 -0.350000  0.150000  0.150000    288.000000
 -0.250000  0.150000  0.150000    288.000000
 -0.150000  0.150000  0.150000    288.000000
  0.250000  0.250000  0.150000    288.000000
  0.350000  0.250000  0.150000    576.000000
  0.450000  0.250000  0.150000    576.000000
 -0.450000  0.250000  0.150000    576.000000
 -0.350000  0.250000  0.150000    576.000000
 -0.250000  0.250000  0.150000    576.000000
 -0.150000  0.250000  0.150000    576.000000
  0.350000  0.350000  0.150000    288.000000
  0.450000  0.350000  0.150000    576.000000
 -0.450000  0.350000  0.150000    576.000000
 -0.350000  0.350000  0.150000    576.000000
 -0.250000  0.350000  0.150000    576.000000
 -0.150000  0.350000  0.150000    576.000000
  0.450000  0.450000  0.150000    288.000000
 -0.450000  0.450000  0.150000    576.000000
 -0.350000  0.450000  0.150000    576.000000
 -0.250000  0.450000  0.150000    576.000000
 -0.150000  0.450000  0.150000    576.000000
 -0.450000 -0.450000  0.150000    288.000000
 -0.350000 -0.450000  0.150000    576.000000
 -0.250000 -0.450000  0.150000    576.000000
 -0.350000 -0.350000  0.150000    288.000000
 -0.250000 -0.350000  0.150000    576.000000
 -0.250000 -0.250000  0.150000    288.000000
  0.250000  0.250000  0.250000     96.000000
  0.350000  0.250000  0.250000    288.000000
  0.450000  0.250000  0.250000    288.000000
 -0.450000  0.250000  0.250000    288.000000
 -0.350000  0.250000  0.250000    288.000000
 -0.250000  0.250000  0.250000    288.000000
  0.350000  0.350000  0.250000    288.000000
  0.450000  0.350000  0.250000    576.000000
 -0.450000  0.350000  0.250000    576.000000
 -0.350000  0.350000  0.250000    576.000000
 -0.250000  0.350000  0.250000    576.000000
  0.450000  0.450000  0.250000    288.000000
 -0.450000  0.450000  0.250000    576.000000
 -0.350000  0.450000  0.250000    576.000000
 -0.250000  0.450000  0.250000    576.000000
 -0.450000 -0.450000  0.250000    288.000000
 -0.350000 -0.450000  0.250000    576.000000
 -0.350000 -0.350000  0.250000    288.000000
  0.350000  0.350000  0.350000     96.000000
  0.450000  0.350000  0.350000    288.000000
 -0.450000  0.350000  0.350000    288.000000
 -0.350000  0.350000  0.350000    288.000000
  0.450000  0.450000  0.350000    288.000000
 -0.450000  0.450000  0.350000    576.000000
 -0.350000  0.450000  0.350000    576.000000
 -0.450000 -0.450000  0.350000    288.000000
  0.450000  0.450000  0.450000     96.000000
 -0.450000  0.450000  0.450000    288.000000
 
 Following cartesian coordinates:
            Coordinates               Weight
  0.050000  0.050000  0.050000     96.000000
  0.150000  0.150000 -0.050000    288.000000
  0.250000  0.250000 -0.150000    288.000000
  0.350000  0.350000 -0.250000    288.000000
  0.450000  0.450000 -0.350000    288.000000
 -0.450000 -0.450000  0.550000    288.000000
 -0.350000 -0.350000  0.450000    288.000000
 -0.250000 -0.250000  0.350000    288.000000
 -0.150000 -0.150000  0.250000    288.000000
 -0.050000 -0.050000  0.150000    288.000000
  0.050000  0.250000  0.050000    288.000000
  0.150000  0.350000 -0.050000    576.000000
  0.250000  0.450000 -0.150000    576.000000
  0.350000  0.550000 -0.250000    576.000000
 -0.550000 -0.350000  0.650000    576.000000
 -0.450000 -0.250000  0.550000    576.000000
 -0.350000 -0.150000  0.450000    576.000000
 -0.250000 -0.050000  0.350000    576.000000
 -0.150000  0.050000  0.250000    576.000000
  0.050000  0.450000  0.050000    288.000000
  0.150000  0.550000 -0.050000    576.000000
  0.250000  0.650000 -0.150000    576.000000
 -0.650000 -0.250000  0.750000    576.000000
 -0.550000 -0.150000  0.650000    576.000000
 -0.450000 -0.050000  0.550000    576.000000
 -0.350000  0.050000  0.450000    576.000000
 -0.250000  0.150000  0.350000    576.000000
  0.050000  0.650000  0.050000    288.000000
  0.150000  0.750000 -0.050000    576.000000
 -0.750000 -0.150000  0.850000    576.000000
 -0.650000 -0.050000  0.750000    576.000000
 -0.550000  0.050000  0.650000    576.000000
 -0.450000  0.150000  0.550000    576.000000
 -0.350000  0.250000  0.450000    576.000000
  0.050000  0.850000  0.050000    288.000000
 -0.850000 -0.050000  0.950000    576.000000
 -0.750000  0.050000  0.850000    576.000000
 -0.650000  0.150000  0.750000    576.000000
 -0.550000  0.250000  0.650000    576.000000
 -0.450000  0.350000  0.550000    576.000000
  0.050000 -0.950000  0.050000    288.000000
  0.150000 -0.850000 -0.050000    576.000000
  0.250000 -0.750000 -0.150000    576.000000
  0.350000 -0.650000 -0.250000    576.000000
  0.050000 -0.750000  0.050000    288.000000
  0.150000 -0.650000 -0.050000    576.000000
  0.250000 -0.550000 -0.150000    576.000000
  0.050000 -0.550000  0.050000    288.000000
  0.150000 -0.450000 -0.050000    576.000000
  0.050000 -0.350000  0.050000    288.000000
  0.150000  0.150000  0.150000     96.000000
  0.250000  0.250000  0.050000    288.000000
  0.350000  0.350000 -0.050000    288.000000
  0.450000  0.450000 -0.150000    288.000000
 -0.450000 -0.450000  0.750000    288.000000
 -0.350000 -0.350000  0.650000    288.000000
 -0.250000 -0.250000  0.550000    288.000000
 -0.150000 -0.150000  0.450000    288.000000
  0.150000  0.350000  0.150000    288.000000
  0.250000  0.450000  0.050000    576.000000
  0.350000  0.550000 -0.050000    576.000000
 -0.550000 -0.350000  0.850000    576.000000
 -0.450000 -0.250000  0.750000    576.000000
 -0.350000 -0.150000  0.650000    576.000000
 -0.250000 -0.050000  0.550000    576.000000
  0.150000  0.550000  0.150000    288.000000
  0.250000  0.650000  0.050000    576.000000
 -0.650000 -0.250000  0.950000    576.000000
 -0.550000 -0.150000  0.850000    576.000000
 -0.450000 -0.050000  0.750000    576.000000
 -0.350000  0.050000  0.650000    576.000000
  0.150000  0.750000  0.150000    288.000000
 -0.750000 -0.150000  1.050000    576.000000
 -0.650000 -0.050000  0.950000    576.000000
 -0.550000  0.050000  0.850000    576.000000
 -0.450000  0.150000  0.750000    576.000000
  0.150000 -1.050000  0.150000    288.000000
  0.250000 -0.950000  0.050000    576.000000
  0.350000 -0.850000 -0.050000    576.000000
  0.150000 -0.850000  0.150000    288.000000
  0.250000 -0.750000  0.050000    576.000000
  0.150000 -0.650000  0.150000    288.000000
  0.250000  0.250000  0.250000     96.000000
  0.350000  0.350000  0.150000    288.000000
  0.450000  0.450000  0.050000    288.000000
 -0.450000 -0.450000  0.950000    288.000000
 -0.350000 -0.350000  0.850000    288.000000
 -0.250000 -0.250000  0.750000    288.000000
  0.250000  0.450000  0.250000    288.000000
  0.350000  0.550000  0.150000    576.000000
 -0.550000 -0.350000  1.050000    576.000000
 -0.450000 -0.250000  0.950000    576.000000
 -0.350000 -0.150000  0.850000    576.000000
  0.250000  0.650000  0.250000    288.000000
 -0.650000 -0.250000  1.150000    576.000000
 -0.550000 -0.150000  1.050000    576.000000
 -0.450000 -0.050000  0.950000    576.000000
  0.250000 -1.150000  0.250000    288.000000
  0.350000 -1.050000  0.150000    576.000000
  0.250000 -0.950000  0.250000    288.000000
  0.350000  0.350000  0.350000     96.000000
  0.450000  0.450000  0.250000    288.000000
 -0.450000 -0.450000  1.150000    288.000000
 -0.350000 -0.350000  1.050000    288.000000
  0.350000  0.550000  0.350000    288.000000
 -0.550000 -0.350000  1.250000    576.000000
 -0.450000 -0.250000  1.150000    576.000000
  0.350000 -1.250000  0.350000    288.000000
  0.450000  0.450000  0.450000     96.000000
 -0.450000 -0.450000  1.350000    288.000000
 
 TETIRR: Found   1959 inequivalent tetrahedra from    48000


--------------------------------------------------------------------------------------------------------




 Dimension of arrays:
   k-points           NKPTS =    110   k-points in BZ     NKDIM =    110   number of bands    NBANDS=     13
   number of dos      NEDOS =    301   number of ions     NIONS =      2
   non local maximal  LDIM  =      6   non local SUM 2l+1 LMDIM =     18
   total plane-waves  NPLWV =   4096
   max r-space proj   IRMAX =      1   max aug-charges    IRDMAX=   3958
   dimension x,y,z NGX =    16 NGY =   16 NGZ =   16
   dimension x,y,z NGXF=    32 NGYF=   32 NGZF=   32
   support grid    NGXF=    32 NGYF=   32 NGZF=   32
   ions per type =               1   1
 NGX,Y,Z   is equivalent  to a cutoff of   6.66,  6.66,  6.66 a.u.
 NGXF,Y,Z  is equivalent  to a cutoff of  13.32, 13.32, 13.32 a.u.


 I would recommend the setting:
   dimension x,y,z NGX =    16 NGY =   16 NGZ =   16
 SYSTEM =  GaAs                                    
 POSCAR =  GaAs in Zincblend structure             

 Startparameter for this run:
   NWRITE =      2    write-flag & timer
   PREC   = normal    normal or accurate (medium, high low for compatibility)
   ISTART =      0    job   : 0-new  1-cont  2-samecut
   ICHARG =      2    charge: 1-file 2-atom 10-const
   ISPIN  =      1    spin polarized calculation?
   LNONCOLLINEAR =      F non collinear calculations
   LSORBIT =      F    spin-orbit coupling
   INIWAV =      1    electr: 0-lowe 1-rand  2-diag
   LASPH  =      F    aspherical Exc in radial PAW
   METAGGA=      F    non-selfconsistent MetaGGA calc.

 Electronic Relaxation 1
   ENCUT  =  282.8 eV  20.79 Ry    4.56 a.u.   5.48  5.48  5.48*2*pi/ulx,y,z
   ENINI  =  282.8     initial cutoff
   ENAUG  =  490.7 eV  augmentation charge cutoff
   NELM   =     60;   NELMIN=  2; NELMDL=  0     # of ELM steps 
   EDIFF  = 0.1E-03   stopping-criterion for ELM
   LREAL  =      F    real-space projection
   NLSPLINE    = F    spline interpolate recip. space projectors
   LCOMPAT=      F    compatible to vasp.4.4
   GGA_COMPAT  = T    GGA compatible to vasp.4.4-vasp.4.6
   LMAXPAW     = -100 max onsite density
   LMAXMIX     =    2 max onsite mixed and CHGCAR
   VOSKOWN=      0    Vosko Wilk Nusair interpolation
   ROPT   =    0.00000   0.00000
 Ionic relaxation
   EDIFFG = 0.1E-02   stopping-criterion for IOM
   NSW    =      0    number of steps for IOM
   NBLOCK =      1;   KBLOCK =      1    inner block; outer block 
   IBRION =     -1    ionic relax: 0-MD 1-quasi-New 2-CG
   NFREE  =      0    steps in history (QN), initial steepest desc. (CG)
   ISIF   =      2    stress and relaxation
   IWAVPR =      0    prediction:  0-non 1-charg 2-wave 3-comb
   ISYM   =      2    0-nonsym 1-usesym 2-fastsym
   LCORR  =      T    Harris-Foulkes like correction to forces

   POTIM  = 0.5000    time-step for ionic-motion
   TEIN   =    0.0    initial temperature
   TEBEG  =    0.0;   TEEND  =   0.0 temperature during run
   SMASS  =  -3.00    Nose mass-parameter (am)
   estimated Nose-frequenzy (Omega)   =  0.10E-29 period in steps =****** mass=  -0.365E-27a.u.
   SCALEE = 1.0000    scale energy and forces
   NPACO  =    256;   APACO  = 16.0  distance and # of slots for P.C.
   PSTRESS=    0.0 pullay stress

  Mass of Ions in am
   POMASS =  69.72 74.92
  Ionic Valenz
   ZVAL   =  13.00  5.00
  Atomic Wigner-Seitz radii
   RWIGS  =   1.22  1.22
  virtual crystal weights 
   VCA    =   1.00  1.00
   NELECT =      18.0000    total number of electrons
   NUPDOWN=      -1.0000    fix difference up-down

 DOS related values:
   EMIN   =  10.00;   EMAX   =-10.00  energy-range for DOS
   EFERMI =   0.00
   ISMEAR =    -4;   SIGMA  =   0.20  broadening in eV -4-tet -1-fermi 0-gaus

 Electronic relaxation 2 (details)
   IALGO  =     38    algorithm
   LDIAG  =      T    sub-space diagonalisation (order eigenvalues)
   LSUBROT=      F    optimize rotation matrix (better conditioning)
   TURBO    =      0    0=normal 1=particle mesh
   IRESTART =      0    0=no restart 2=restart with 2 vectors
   NREBOOT  =      0    no. of reboots
   NMIN     =      0    reboot dimension
   EREF     =   0.00    reference energy to select bands
   IMIX   =      4    mixing-type and parameters
     AMIX     =   0.40;   BMIX     =  1.00
     AMIX_MAG =   1.60;   BMIX_MAG =  1.00
     AMIN     =   0.10
     WC   =   100.;   INIMIX=   1;  MIXPRE=   1;  MAXMIX= -45

 Intra band minimization:
   WEIMIN = 0.0000     energy-eigenvalue tresh-hold
   EBREAK =  0.19E-05  absolut break condition
   DEPER  =   0.30     relativ break condition  

   TIME   =   0.40     timestep for ELM

  volume/ion in A,a.u.               =      22.55       152.14
  Fermi-wavevector in a.u.,A,eV,Ry     =   1.205417  2.277907 19.769666  1.453029
  Thomas-Fermi vector in A             =   2.341114
 
 Write flags
   LWAVE  =      T    write WAVECAR
   LCHARG =      T    write CHGCAR
   LVTOT  =      F    write LOCPOT, total local potential
   LVHAR  =      F    write LOCPOT, Hartree potential only
   LELF   =      F    write electronic localiz. function (ELF)
   LORBIT =      0    0 simple, 1 ext, 2 COOP (PROOUT)


 Dipole corrections
   LMONO  =      F    monopole corrections only (constant potential shift)
   LDIPOL =      F    correct potential (dipole corrections)
   IDIPOL =      0    1-x, 2-y, 3-z, 4-all directions 
   EPSILON=  1.0000000 bulk dielectric constant

 Exchange correlation treatment:
   GGA     =    --    GGA type
   LEXCH   =     2    internal setting for exchange type
   VOSKOWN=      0    Vosko Wilk Nusair interpolation
   LHFCALC =     F    Hartree Fock is set to
   LHFONE  =     F    Hartree Fock one center treatment
   AEXX    =    0.0000 exact exchange contribution

 Linear response parameters
   LEPSILON=     F    determine dielectric tensor
   LRPA    =     F    only Hartree local field effects (RPA)
   LNABLA  =     F    use nabla operator in PAW spheres
   LVEL    =     F    velocity operator in full k-point grid
   LINTERFAST=   F  fast interpolation
   KINTER  =     0    interpolate to denser k-point grid
   CSHIFT  =0.1000    complex shift for real part using Kramers Kronig
   OMEGAMAX=  -1.0    maximum frequency
   DEG_THRESHOLD= 0.2000000E-02 threshold for treating states as degnerate
   RTIME   =    0.100 relaxation time in fs

 Orbital magnetization related:
   ORBITALMAG=     F  switch on orbital magnetization
   LCHIMAG   =     F  perturbation theory with respect to B field
   DQ        =  0.001000  dq finite difference perturbation B field



--------------------------------------------------------------------------------------------------------


 Static calculation
 charge density and potential will be updated during run
 non-spin polarized calculation
 Variant of blocked Davidson
 Davidson routine will perform the subspace rotation
 perform sub-space diagonalisation
    after iterative eigenvector-optimisation
 modified Broyden-mixing scheme, WC =      100.0
 initial mixing is a Kerker type mixing with AMIX =  0.4000 and BMIX =      1.0000
 Hartree-type preconditioning will be used
 using additional bands            4
 reciprocal scheme for non local part
 use partial core corrections
 calculate Harris-corrections to forces 
   (improved forces if not selfconsistent)
 use of overlap-Matrix (Vanderbilt PP)
 Fermi weights with tetrahedron method witout Bloechl corrections


--------------------------------------------------------------------------------------------------------


  energy-cutoff  :      282.83
  volume of cell :       45.09
      direct lattice vectors                 reciprocal lattice vectors
     2.825000000  2.825000000  0.000000000     0.176991150  0.176991150 -0.176991150
     0.000000000  2.825000000  2.825000000    -0.176991150  0.176991150  0.176991150
     2.825000000  0.000000000  2.825000000     0.176991150 -0.176991150  0.176991150

  length of vectors
     3.995153314  3.995153314  3.995153314     0.306557665  0.306557665  0.306557665


 
 k-points in units of 2pi/SCALE and weight: 10X10x10                                
   0.05000000  0.05000000  0.05000000       0.002
   0.15000000  0.15000000 -0.05000000       0.006
   0.25000000  0.25000000 -0.15000000       0.006
   0.35000000  0.35000000 -0.25000000       0.006
   0.45000000  0.45000000 -0.35000000       0.006
  -0.45000000 -0.45000000  0.55000000       0.006
  -0.35000000 -0.35000000  0.45000000       0.006
  -0.25000000 -0.25000000  0.35000000       0.006
  -0.15000000 -0.15000000  0.25000000       0.006
  -0.05000000 -0.05000000  0.15000000       0.006
   0.05000000  0.25000000  0.05000000       0.006
   0.15000000  0.35000000 -0.05000000       0.012
   0.25000000  0.45000000 -0.15000000       0.012
   0.35000000  0.55000000 -0.25000000       0.012
  -0.55000000 -0.35000000  0.65000000       0.012
  -0.45000000 -0.25000000  0.55000000       0.012
  -0.35000000 -0.15000000  0.45000000       0.012
  -0.25000000 -0.05000000  0.35000000       0.012
  -0.15000000  0.05000000  0.25000000       0.012
   0.05000000  0.45000000  0.05000000       0.006
   0.15000000  0.55000000 -0.05000000       0.012
   0.25000000  0.65000000 -0.15000000       0.012
  -0.65000000 -0.25000000  0.75000000       0.012
  -0.55000000 -0.15000000  0.65000000       0.012
  -0.45000000 -0.05000000  0.55000000       0.012
  -0.35000000  0.05000000  0.45000000       0.012
  -0.25000000  0.15000000  0.35000000       0.012
   0.05000000  0.65000000  0.05000000       0.006
   0.15000000  0.75000000 -0.05000000       0.012
  -0.75000000 -0.15000000  0.85000000       0.012
  -0.65000000 -0.05000000  0.75000000       0.012
  -0.55000000  0.05000000  0.65000000       0.012
  -0.45000000  0.15000000  0.55000000       0.012
  -0.35000000  0.25000000  0.45000000       0.012
   0.05000000  0.85000000  0.05000000       0.006
  -0.85000000 -0.05000000  0.95000000       0.012
  -0.75000000  0.05000000  0.85000000       0.012
  -0.65000000  0.15000000  0.75000000       0.012
  -0.55000000  0.25000000  0.65000000       0.012
  -0.45000000  0.35000000  0.55000000       0.012
   0.05000000 -0.95000000  0.05000000       0.006
   0.15000000 -0.85000000 -0.05000000       0.012
   0.25000000 -0.75000000 -0.15000000       0.012
   0.35000000 -0.65000000 -0.25000000       0.012
   0.05000000 -0.75000000  0.05000000       0.006
   0.15000000 -0.65000000 -0.05000000       0.012
   0.25000000 -0.55000000 -0.15000000       0.012
   0.05000000 -0.55000000  0.05000000       0.006
   0.15000000 -0.45000000 -0.05000000       0.012
   0.05000000 -0.35000000  0.05000000       0.006
   0.15000000  0.15000000  0.15000000       0.002
   0.25000000  0.25000000  0.05000000       0.006
   0.35000000  0.35000000 -0.05000000       0.006
   0.45000000  0.45000000 -0.15000000       0.006
  -0.45000000 -0.45000000  0.75000000       0.006
  -0.35000000 -0.35000000  0.65000000       0.006
  -0.25000000 -0.25000000  0.55000000       0.006
  -0.15000000 -0.15000000  0.45000000       0.006
   0.15000000  0.35000000  0.15000000       0.006
   0.25000000  0.45000000  0.05000000       0.012
   0.35000000  0.55000000 -0.05000000       0.012
  -0.55000000 -0.35000000  0.85000000       0.012
  -0.45000000 -0.25000000  0.75000000       0.012
  -0.35000000 -0.15000000  0.65000000       0.012
  -0.25000000 -0.05000000  0.55000000       0.012
   0.15000000  0.55000000  0.15000000       0.006
   0.25000000  0.65000000  0.05000000       0.012
  -0.65000000 -0.25000000  0.95000000       0.012
  -0.55000000 -0.15000000  0.85000000       0.012
  -0.45000000 -0.05000000  0.75000000       0.012
  -0.35000000  0.05000000  0.65000000       0.012
   0.15000000  0.75000000  0.15000000       0.006
  -0.75000000 -0.15000000  1.05000000       0.012
  -0.65000000 -0.05000000  0.95000000       0.012
  -0.55000000  0.05000000  0.85000000       0.012
  -0.45000000  0.15000000  0.75000000       0.012
   0.15000000 -1.05000000  0.15000000       0.006
   0.25000000 -0.95000000  0.05000000       0.012
   0.35000000 -0.85000000 -0.05000000       0.012
   0.15000000 -0.85000000  0.15000000       0.006
   0.25000000 -0.75000000  0.05000000       0.012
   0.15000000 -0.65000000  0.15000000       0.006
   0.25000000  0.25000000  0.25000000       0.002
   0.35000000  0.35000000  0.15000000       0.006
   0.45000000  0.45000000  0.05000000       0.006
  -0.45000000 -0.45000000  0.95000000       0.006
  -0.35000000 -0.35000000  0.85000000       0.006
  -0.25000000 -0.25000000  0.75000000       0.006
   0.25000000  0.45000000  0.25000000       0.006
   0.35000000  0.55000000  0.15000000       0.012
  -0.55000000 -0.35000000  1.05000000       0.012
  -0.45000000 -0.25000000  0.95000000       0.012
  -0.35000000 -0.15000000  0.85000000       0.012
   0.25000000  0.65000000  0.25000000       0.006
  -0.65000000 -0.25000000  1.15000000       0.012
  -0.55000000 -0.15000000  1.05000000       0.012
  -0.45000000 -0.05000000  0.95000000       0.012
   0.25000000 -1.15000000  0.25000000       0.006
   0.35000000 -1.05000000  0.15000000       0.012
   0.25000000 -0.95000000  0.25000000       0.006
   0.35000000  0.35000000  0.35000000       0.002
   0.45000000  0.45000000  0.25000000       0.006
  -0.45000000 -0.45000000  1.15000000       0.006
  -0.35000000 -0.35000000  1.05000000       0.006
   0.35000000  0.55000000  0.35000000       0.006
  -0.55000000 -0.35000000  1.25000000       0.012
  -0.45000000 -0.25000000  1.15000000       0.012
   0.35000000 -1.25000000  0.35000000       0.006
   0.45000000  0.45000000  0.45000000       0.002
  -0.45000000 -0.45000000  1.35000000       0.006
 
 k-points in reciprocal lattice and weights: 10X10x10                                
   0.05000000  0.05000000  0.05000000       0.002
   0.15000000  0.05000000  0.05000000       0.006
   0.25000000  0.05000000  0.05000000       0.006
   0.35000000  0.05000000  0.05000000       0.006
   0.45000000  0.05000000  0.05000000       0.006
  -0.45000000  0.05000000  0.05000000       0.006
  -0.35000000  0.05000000  0.05000000       0.006
  -0.25000000  0.05000000  0.05000000       0.006
  -0.15000000  0.05000000  0.05000000       0.006
  -0.05000000  0.05000000  0.05000000       0.006
   0.15000000  0.15000000  0.05000000       0.006
   0.25000000  0.15000000  0.05000000       0.012
   0.35000000  0.15000000  0.05000000       0.012
   0.45000000  0.15000000  0.05000000       0.012
  -0.45000000  0.15000000  0.05000000       0.012
  -0.35000000  0.15000000  0.05000000       0.012
  -0.25000000  0.15000000  0.05000000       0.012
  -0.15000000  0.15000000  0.05000000       0.012
  -0.05000000  0.15000000  0.05000000       0.012
   0.25000000  0.25000000  0.05000000       0.006
   0.35000000  0.25000000  0.05000000       0.012
   0.45000000  0.25000000  0.05000000       0.012
  -0.45000000  0.25000000  0.05000000       0.012
  -0.35000000  0.25000000  0.05000000       0.012
  -0.25000000  0.25000000  0.05000000       0.012
  -0.15000000  0.25000000  0.05000000       0.012
  -0.05000000  0.25000000  0.05000000       0.012
   0.35000000  0.35000000  0.05000000       0.006
   0.45000000  0.35000000  0.05000000       0.012
  -0.45000000  0.35000000  0.05000000       0.012
  -0.35000000  0.35000000  0.05000000       0.012
  -0.25000000  0.35000000  0.05000000       0.012
  -0.15000000  0.35000000  0.05000000       0.012
  -0.05000000  0.35000000  0.05000000       0.012
   0.45000000  0.45000000  0.05000000       0.006
  -0.45000000  0.45000000  0.05000000       0.012
  -0.35000000  0.45000000  0.05000000       0.012
  -0.25000000  0.45000000  0.05000000       0.012
  -0.15000000  0.45000000  0.05000000       0.012
  -0.05000000  0.45000000  0.05000000       0.012
  -0.45000000 -0.45000000  0.05000000       0.006
  -0.35000000 -0.45000000  0.05000000       0.012
  -0.25000000 -0.45000000  0.05000000       0.012
  -0.15000000 -0.45000000  0.05000000       0.012
  -0.35000000 -0.35000000  0.05000000       0.006
  -0.25000000 -0.35000000  0.05000000       0.012
  -0.15000000 -0.35000000  0.05000000       0.012
  -0.25000000 -0.25000000  0.05000000       0.006
  -0.15000000 -0.25000000  0.05000000       0.012
  -0.15000000 -0.15000000  0.05000000       0.006
   0.15000000  0.15000000  0.15000000       0.002
   0.25000000  0.15000000  0.15000000       0.006
   0.35000000  0.15000000  0.15000000       0.006
   0.45000000  0.15000000  0.15000000       0.006
  -0.45000000  0.15000000  0.15000000       0.006
  -0.35000000  0.15000000  0.15000000       0.006
  -0.25000000  0.15000000  0.15000000       0.006
  -0.15000000  0.15000000  0.15000000       0.006
   0.25000000  0.25000000  0.15000000       0.006
   0.35000000  0.25000000  0.15000000       0.012
   0.45000000  0.25000000  0.15000000       0.012
  -0.45000000  0.25000000  0.15000000       0.012
  -0.35000000  0.25000000  0.15000000       0.012
  -0.25000000  0.25000000  0.15000000       0.012
  -0.15000000  0.25000000  0.15000000       0.012
   0.35000000  0.35000000  0.15000000       0.006
   0.45000000  0.35000000  0.15000000       0.012
  -0.45000000  0.35000000  0.15000000       0.012
  -0.35000000  0.35000000  0.15000000       0.012
  -0.25000000  0.35000000  0.15000000       0.012
  -0.15000000  0.35000000  0.15000000       0.012
   0.45000000  0.45000000  0.15000000       0.006
  -0.45000000  0.45000000  0.15000000       0.012
  -0.35000000  0.45000000  0.15000000       0.012
  -0.25000000  0.45000000  0.15000000       0.012
  -0.15000000  0.45000000  0.15000000       0.012
  -0.45000000 -0.45000000  0.15000000       0.006
  -0.35000000 -0.45000000  0.15000000       0.012
  -0.25000000 -0.45000000  0.15000000       0.012
  -0.35000000 -0.35000000  0.15000000       0.006
  -0.25000000 -0.35000000  0.15000000       0.012
  -0.25000000 -0.25000000  0.15000000       0.006
   0.25000000  0.25000000  0.25000000       0.002
   0.35000000  0.25000000  0.25000000       0.006
   0.45000000  0.25000000  0.25000000       0.006
  -0.45000000  0.25000000  0.25000000       0.006
  -0.35000000  0.25000000  0.25000000       0.006
  -0.25000000  0.25000000  0.25000000       0.006
   0.35000000  0.35000000  0.25000000       0.006
   0.45000000  0.35000000  0.25000000       0.012
  -0.45000000  0.35000000  0.25000000       0.012
  -0.35000000  0.35000000  0.25000000       0.012
  -0.25000000  0.35000000  0.25000000       0.012
   0.45000000  0.45000000  0.25000000       0.006
  -0.45000000  0.45000000  0.25000000       0.012
  -0.35000000  0.45000000  0.25000000       0.012
  -0.25000000  0.45000000  0.25000000       0.012
  -0.45000000 -0.45000000  0.25000000       0.006
  -0.35000000 -0.45000000  0.25000000       0.012
  -0.35000000 -0.35000000  0.25000000       0.006
   0.35000000  0.35000000  0.35000000       0.002
   0.45000000  0.35000000  0.35000000       0.006
  -0.45000000  0.35000000  0.35000000       0.006
  -0.35000000  0.35000000  0.35000000       0.006
   0.45000000  0.45000000  0.35000000       0.006
  -0.45000000  0.45000000  0.35000000       0.012
  -0.35000000  0.45000000  0.35000000       0.012
  -0.45000000 -0.45000000  0.35000000       0.006
   0.45000000  0.45000000  0.45000000       0.002
  -0.45000000  0.45000000  0.45000000       0.006
 
 position of ions in fractional coordinates (direct lattice) 
   0.00000000  0.00000000  0.00000000
   0.25000000  0.25000000  0.25000000
 
 position of ions in cartesian coordinates  (Angst):
   0.00000000  0.00000000  0.00000000
   1.41250000  1.41250000  1.41250000
 


--------------------------------------------------------------------------------------------------------


 k-point  1 :   0.0500 0.0500 0.0500  plane waves:     522
 k-point  2 :   0.1500 0.0500 0.0500  plane waves:     503
 k-point  3 :   0.2500 0.0500 0.0500  plane waves:     491
 k-point  4 :   0.3500 0.0500 0.0500  plane waves:     493
 k-point  5 :   0.4500 0.0500 0.0500  plane waves:     485
 k-point  6 :  -0.4500 0.0500 0.0500  plane waves:     483
 k-point  7 :  -0.3500 0.0500 0.0500  plane waves:     486
 k-point  8 :  -0.2500 0.0500 0.0500  plane waves:     489
 k-point  9 :  -0.1500 0.0500 0.0500  plane waves:     497
 k-point 10 :  -0.0500 0.0500 0.0500  plane waves:     510
 k-point 11 :   0.1500 0.1500 0.0500  plane waves:     506
 k-point 12 :   0.2500 0.1500 0.0500  plane waves:     492
 k-point 13 :   0.3500 0.1500 0.0500  plane waves:     489
 k-point 14 :   0.4500 0.1500 0.0500  plane waves:     488
 k-point 15 :  -0.4500 0.1500 0.0500  plane waves:     484
 k-point 16 :  -0.3500 0.1500 0.0500  plane waves:     488
 k-point 17 :  -0.2500 0.1500 0.0500  plane waves:     491
 k-point 18 :  -0.1500 0.1500 0.0500  plane waves:     489
 k-point 19 :  -0.0500 0.1500 0.0500  plane waves:     499
 k-point 20 :   0.2500 0.2500 0.0500  plane waves:     488
 k-point 21 :   0.3500 0.2500 0.0500  plane waves:     486
 k-point 22 :   0.4500 0.2500 0.0500  plane waves:     487
 k-point 23 :  -0.4500 0.2500 0.0500  plane waves:     487
 k-point 24 :  -0.3500 0.2500 0.0500  plane waves:     486
 k-point 25 :  -0.2500 0.2500 0.0500  plane waves:     490
 k-point 26 :  -0.1500 0.2500 0.0500  plane waves:     489
 k-point 27 :  -0.0500 0.2500 0.0500  plane waves:     492
 k-point 28 :   0.3500 0.3500 0.0500  plane waves:     483
 k-point 29 :   0.4500 0.3500 0.0500  plane waves:     478
 k-point 30 :  -0.4500 0.3500 0.0500  plane waves:     482
 k-point 31 :  -0.3500 0.3500 0.0500  plane waves:     488
 k-point 32 :  -0.2500 0.3500 0.0500  plane waves:     487
 k-point 33 :  -0.1500 0.3500 0.0500  plane waves:     490
 k-point 34 :  -0.0500 0.3500 0.0500  plane waves:     492
 k-point 35 :   0.4500 0.4500 0.0500  plane waves:     478
 k-point 36 :  -0.4500 0.4500 0.0500  plane waves:     479
 k-point 37 :  -0.3500 0.4500 0.0500  plane waves:     484
 k-point 38 :  -0.2500 0.4500 0.0500  plane waves:     487
 k-point 39 :  -0.1500 0.4500 0.0500  plane waves:     480
 k-point 40 :  -0.0500 0.4500 0.0500  plane waves:     482
 k-point 41 :  -0.4500-0.4500 0.0500  plane waves:     472
 k-point 42 :  -0.3500-0.4500 0.0500  plane waves:     479
 k-point 43 :  -0.2500-0.4500 0.0500  plane waves:     481
 k-point 44 :  -0.1500-0.4500 0.0500  plane waves:     486
 k-point 45 :  -0.3500-0.3500 0.0500  plane waves:     481
 k-point 46 :  -0.2500-0.3500 0.0500  plane waves:     484
 k-point 47 :  -0.1500-0.3500 0.0500  plane waves:     489
 k-point 48 :  -0.2500-0.2500 0.0500  plane waves:     493
 k-point 49 :  -0.1500-0.2500 0.0500  plane waves:     490
 k-point 50 :  -0.1500-0.1500 0.0500  plane waves:     494
 k-point 51 :   0.1500 0.1500 0.1500  plane waves:     507
 k-point 52 :   0.2500 0.1500 0.1500  plane waves:     495
 k-point 53 :   0.3500 0.1500 0.1500  plane waves:     493
 k-point 54 :   0.4500 0.1500 0.1500  plane waves:     491
 k-point 55 :  -0.4500 0.1500 0.1500  plane waves:     486
 k-point 56 :  -0.3500 0.1500 0.1500  plane waves:     484
 k-point 57 :  -0.2500 0.1500 0.1500  plane waves:     491
 k-point 58 :  -0.1500 0.1500 0.1500  plane waves:     490
 k-point 59 :   0.2500 0.2500 0.1500  plane waves:     492
 k-point 60 :   0.3500 0.2500 0.1500  plane waves:     489
 k-point 61 :   0.4500 0.2500 0.1500  plane waves:     488
 k-point 62 :  -0.4500 0.2500 0.1500  plane waves:     486
 k-point 63 :  -0.3500 0.2500 0.1500  plane waves:     481
 k-point 64 :  -0.2500 0.2500 0.1500  plane waves:     485
 k-point 65 :  -0.1500 0.2500 0.1500  plane waves:     489
 k-point 66 :   0.3500 0.3500 0.1500  plane waves:     489
 k-point 67 :   0.4500 0.3500 0.1500  plane waves:     484
 k-point 68 :  -0.4500 0.3500 0.1500  plane waves:     488
 k-point 69 :  -0.3500 0.3500 0.1500  plane waves:     485
 k-point 70 :  -0.2500 0.3500 0.1500  plane waves:     488
 k-point 71 :  -0.1500 0.3500 0.1500  plane waves:     487
 k-point 72 :   0.4500 0.4500 0.1500  plane waves:     478
 k-point 73 :  -0.4500 0.4500 0.1500  plane waves:     480
 k-point 74 :  -0.3500 0.4500 0.1500  plane waves:     485
 k-point 75 :  -0.2500 0.4500 0.1500  plane waves:     486
 k-point 76 :  -0.1500 0.4500 0.1500  plane waves:     486
 k-point 77 :  -0.4500-0.4500 0.1500  plane waves:     480
 k-point 78 :  -0.3500-0.4500 0.1500  plane waves:     483
 k-point 79 :  -0.2500-0.4500 0.1500  plane waves:     486
 k-point 80 :  -0.3500-0.3500 0.1500  plane waves:     480
 k-point 81 :  -0.2500-0.3500 0.1500  plane waves:     482
 k-point 82 :  -0.2500-0.2500 0.1500  plane waves:     485
 k-point 83 :   0.2500 0.2500 0.2500  plane waves:     483
 k-point 84 :   0.3500 0.2500 0.2500  plane waves:     493
 k-point 85 :   0.4500 0.2500 0.2500  plane waves:     491
 k-point 86 :  -0.4500 0.2500 0.2500  plane waves:     491
 k-point 87 :  -0.3500 0.2500 0.2500  plane waves:     485
 k-point 88 :  -0.2500 0.2500 0.2500  plane waves:     481
 k-point 89 :   0.3500 0.3500 0.2500  plane waves:     494
 k-point 90 :   0.4500 0.3500 0.2500  plane waves:     486
 k-point 91 :  -0.4500 0.3500 0.2500  plane waves:     487
 k-point 92 :  -0.3500 0.3500 0.2500  plane waves:     486
 k-point 93 :  -0.2500 0.3500 0.2500  plane waves:     486
 k-point 94 :   0.4500 0.4500 0.2500  plane waves:     483
 k-point 95 :  -0.4500 0.4500 0.2500  plane waves:     487
 k-point 96 :  -0.3500 0.4500 0.2500  plane waves:     487
 k-point 97 :  -0.2500 0.4500 0.2500  plane waves:     484
 k-point 98 :  -0.4500-0.4500 0.2500  plane waves:     485
 k-point 99 :  -0.3500-0.4500 0.2500  plane waves:     488
 k-point ** :  -0.3500-0.3500 0.2500  plane waves:     484
 k-point ** :   0.3500 0.3500 0.3500  plane waves:     492
 k-point ** :   0.4500 0.3500 0.3500  plane waves:     492
 k-point ** :  -0.4500 0.3500 0.3500  plane waves:     488
 k-point ** :  -0.3500 0.3500 0.3500  plane waves:     485
 k-point ** :   0.4500 0.4500 0.3500  plane waves:     487
 k-point ** :  -0.4500 0.4500 0.3500  plane waves:     485
 k-point ** :  -0.3500 0.4500 0.3500  plane waves:     482
 k-point ** :  -0.4500-0.4500 0.3500  plane waves:     483
 k-point ** :   0.4500 0.4500 0.4500  plane waves:     483
 k-point ** :  -0.4500 0.4500 0.4500  plane waves:     482

 maximum number of plane-waves:       522
 maximum index in each direction: 
   IXMAX=    5   IYMAX=    5   IZMAX=    5
   IXMIN=   -5   IYMIN=   -5   IZMIN=   -5

 WARNING: aliasing errors must be expected set NGX to  22 to avoid them
 WARNING: aliasing errors must be expected set NGY to  22 to avoid them
 WARNING: aliasing errors must be expected set NGZ to  22 to avoid them
 aliasing errors are usually negligible using standard VASP settings
 and one can safely disregard these warnings

 total amount of memory used by VASP on root node    62512. kBytes
========================================================================

   base      :      30000. kBytes
   nonl-proj :      16553. kBytes
   grid      :       3276. kBytes
   one-center:         31. kBytes
   wavefun   :      12652. kBytes
 
     INWAV:  cpu time    0.00: real time    0.00
 Broyden mixing: mesh for mixing (old mesh)
   NGX = 11   NGY = 11   NGZ = 11
  (NGX  = 32   NGY  = 32   NGZ  = 32)
  gives a total of   1331 points

 initial charge density was supplied:
 charge density of overlapping atoms calculated
 number of electron      18.0000000 magnetization 
 keeping initial charge density in first step


--------------------------------------------------------------------------------------------------------


 Maximum index for augmentation-charges         3589 (set IRDMAX)


--------------------------------------------------------------------------------------------------------


 First call to EWALD:  gamma=   0.498
 Maximum number of real-space cells 3x 3x 3
 Maximum number of reciprocal cells 3x 3x 3

    FEWALD:  cpu time    0.00: real time    0.00


------------------------------------------ Iteration    1(   1)  ---------------------------------------

    POTLOK:  cpu time    0.10: real time    0.10
    SETDIJ:  cpu time    0.02: real time    0.02
     EDDAV:  cpu time   60.15: real time   60.30
 BZINTS: Fermi energy: 10.018335; 18.000000 electrons
         Band energy: -60.771518;  BLOECHL correction:  0.000000
       DOS:  cpu time    0.21: real time    0.21
    --------------------------------------------
      LOOP:  cpu time   60.46: real time   60.62

 eigenva     EDDAV:  cpu time   60.98: real time   61.18
 BZINTS: Fermi energy: 10.018335; 18.000000 electrons
         Band energy: -60.771518;  BLOECHL correction:  0.000000
       DOS:  cpu time    0.22: real time    0.22
    --------------------------------------------
      LOOP:  cpu time   61.34: real time   61.54

 eigenvalue-minimisations  :  2873
 total energy-change (2. order) : 0.6509622E+02  (-0.6849445E+03)
 number of electron      18.0000000 magnetization 
 augmentation part       18.0000000 magnetization 

 Free energy of the ion-electron system (eV)
  ---------------------------------------------------
  alpha Z        PSCENC =        72.97670546
  Ewald energy   TEWEN  =     -1266. BZINTS: Fermi energy: 10.018335; 18.000000 electrons
         Band energy: -60.771518;  BLOECHL correction:  0.000000
       DOS:  cpu time    0.19: real time    0.19
    --------------------------------------------
      LOOP:  cpu time   61.07: real time   61.23

 eigenvalue-minimisations  :  2873
 total energy-change (2. order) : 0.6509622E+02  (-0.6849445E+03)
 number of electron      18.0000000 magnetization 
 augmentation part       18.0000000 magnetization 

 Free energy of the ion-electron system (eV)
  ---------------------------------------------------
  alpha Z        PSCENC =        72.97670546
  Ewald energy   TEWEN  =     -1266.30826995
  -Hartree energ DENC   =         EDDAV:  cpu time   61.63: real time   61.78
 BZINTS: Fermi energy:  3.835245; 18.000000 electrons
         Band energy:-130.438888;  BLOECHL correction:  0.000000
       DOS:  cpu time    0.13: real time    0.13
     EDDAV:  cpu time   61.15: real time   61.30
 BZINTS: Fermi energy:  3.835245; 18.000000 electrons
         Band energy:-130.438888;  BLOECHL correction:  0.000000
       DOS:  cpu time    0.13: real time    0.13
    --------------------------------------------
      LOOP:  cpu time   61.28: real time   61.44

 eigenvalue-minimisations  :  3015
 total energy-change (2. order) :-0.6966737E+02  (-0.6770243E+02)
 number of electron      18.0000000 magnetization 
 augmentation part       18.0000000 magnetization 

 Free energy of the ion-electron system (eV)
  ---------------------------------------------------
  alpha Z        PSCENC =        72.97670546
  Ewald energy   TEWEN  =     -1266.30826995
  -Hartree energ DENC   =      -724.95020395
  -exchange      EXHF   =         0.00000000
  -V(xc)+E(xc)   XCENC  =        52.29661229
  PAW double counting   =      1493.97313949    -1828.25035196
  entropy T*S    EENTRO =         0.00000000
  eigenvalues    EBANDS =      -130.43888792
  atomic energy  EATOM  =      2326.13011118
  ---------------------------------------------------
  free energy    TOTEN  =        -4.57114536 eV

  energy without entropy =       -4.57114536  energy(sigma->0) =       -4.57114536
y  EATOM  =      2326.13011118
  -----------------------------------------     EDDAV:  cpu time   60.71: real time   60.91
 BZINTS: Fermi energy:  3.835245; 18.000000 electrons
         Band energy:-130.438888;  BLOECHL correction:  0.000000
       DOS:  cpu time    0.13: real time    0.13
    --------------------------------------------
      LOOP:  cpu time   60.85: real time   61.05

 eigenvalue-minimisations  :  3015
 total energy-change (2. order) :-0.6966737E+02  (-0.6770243E+02)
 number of electron      18.0000000 magnetization 
 augmentation part       18.0000000 magnetization 

 Free energy of the ion     EDDAV:  cpu time   61.13: real time   61.28
 BZINTS: Fermi energy:  3.835245; 18.000000 electrons
         Band energy:-130.438888;  BLOECHL correction:  0.000000
       DOS:  cpu time    0.13: real time    0.13
    --------------------------------------------
      LOOP:  cpu time   61.26: real time   61.42

 eigenvalue-minimisations  :  3015
 total energy-change (2. order) :-0.6966737E+02  (-0.6770243E+02)
 number of electron      18.0000000 magnetization 
 augmentation p BZINTS: Fermi energy:  3.835245; 18
 Free energy of the ion-electron system (eV)
  ---------------------------------------------------
  alpha Z        PSCENC =        72.97670546
  Ewald energy   TEWEN  =     -1266.30826995
  -Hartree energ DENC   =      -724.95020395
  -exchange      EXHF   =         0.00000000
  -V(xc)+E(xc)   XCENC  =        52.29661229
  PAW double counting   =      1493.97313949    -1828.25035196
  entropy  BZINTS: Fermi energy:  3.835245; 18
 Free energy of the ion-electron system (eV)
  ---------------------------------------------------
  alpha Z        PSCENC =        72.97670546
  Ewald energy   TEWEN  =     -1266.30826995
  -Hartree energ DENC   =      -724.95020395
  -exchange      EXHF   =         0.00000000
  -V(xc)+E(xc)   XCENC  =        52.29661229
  PAW double counting   =      1493.97313949    -1828.25035196
  entropy T*S    EENTRO =         0.00000000
 
 Free energy of the ion-electron system (eV)
  ---------------------------------------------------
  alpha Z        PSCENC =        72.97670546
  Ewald energy   TEWEN  =     -1266. BZINTS: Fermi energy:  3.835245; 18.000000 electrons
         Band energy:-130.438888;  BLOECHL correction:  0.000000
       DOS:  cpu time    0.13: real time    0.13
    --------------------------------------------
 BZINTS: Fermi energy:  3.835245; 18.000000 electrons
         Band energy:-130.438888;  BLOECHL correction:  0.000000
       DOS:  cpu time    0.13: real time    0.13
     EDDAV:  cpu time   61.41: real time   61.58
 BZINTS: Fermi energy:  3.835245; 18.000000 electrons
         Band energy:-130.438888;  BLOECHL correction:  0.000000
       DOS:  cpu time    0.13: real time    0.13
    --------------------------------------------
      LOOP:  cpu time   61.54: real time   61.71

 eigenvalue-minimisations  :  3015
 total energy-change (2. order) :-0.6966737E+02  (-0.6770243E+02)
 number of electron      18.0000000 magnetization 
 augmentation part       18.0000000 magnetization 

 Free energy of the ion-electron system (eV)
  ---------------------------------------------------
  alpha Z        PSCENC =        72.97670546
  Ewald energy   TEWEN  =     -1266.30826995
  -Hartree energ DENC   =      -724.95020395
  -exchange      EXHF   =         0.00000000
  -V(xc)+E(xc)   XCENC  =        52.29661229
  PAW double counting   =      1493.97313949    -1828.25035196
  entropy T*S    EENTRO =         0.00000000
  eigenvalues    EBANDS =      -130.43888792
  atomic energy  EATOM  =      2326.13011118
  -----------------------------------------     EDDAV:  cpu time   61.72: real time   61.87
 BZINTS: Fermi energy:  3.835245; 18.000000 electrons
         Band energy:-130.438888;  BLOECHL correction:  0.000000
       DOS:  cpu time    0.13: real time    0.13
    --------------------------------------------
      LOOP:  cpu time   61.85: real time   62.00

 eigenvalue-minimisations  :  3015
 total energy-change (2. order) :-0.6966737E+02  (-0.6770243E+02)
 number of electron      18.0000000 magnetization 
 augmentation part       18.0000000 magnetization 

 Free energy of the ion-electron system (eV)
  ---------------------------------------------------
  alpha Z        PSCENC =        72.97670546
  Ewald energy   TEWEN  =     -1266.30826995
  -Hartree energ DENC   =      -724.95020395
  -exchange      EXHF   =         0.00000000
  -V(xc)+E(xc)   XCENC  =        52.29661229
  PAW double counting   =      1493.97313949    -1828.25035196
  entropy T*S    EENTRO =         0.00000000
  eigenvalues    EBANDS =      -130.43888792
  atomic energy  EATOM  =      2326.13011118
  ---------------------------------------------------
  free energy    TOTEN  =        -4.57114536 eV

  energy without entropy =       -4.57114536  energy(sigma->0) =       -4.57114536
0000
  -V(xc)+E(xc)   XCENC  =        52.29661229
  PAW double counting   =      1493.97313949    -1828.25035196
  entropy T*S    EENTRO =         0.00000000
  eigenvalues    EBANDS =      -130.43888792
  atomic energy  EATOM  =      2326.13011118
  ---------------------------------------------------
  free energy    TOTEN  =        -4.57114536 eV

  energy without entropy =       -4.57114536  energy(sigma->0) =       -4.57114536
0000
  -V(xc)+E(xc)   XCENC  =        52.29661229
  PAW double counting   =      1493.97313949    -1828.25035196
  entropy T*S    EENTRO =         0.00000000
  eigenvalues    EBANDS =      -130.43888792
  atomic energy  EATOM  =      2326.13011118
  ---------------------------------------------------
  free energy    TOTEN  =        -4.57114536 eV

  energy without entropy =       -4.57114536  energy(sigma->0) =       -4.57114536
HL correction:  0.000000
       DOS:  cpu time    0.13: real time    0.13
    --------------------------------------------
      LOOP:  cpu time   60.47: real time   60.62

 eigenvalue-minimisations  :  3015
 total energy-change (2. order) :-0.6966737E+02  (-0.6770243E+02)
 number of electr     EDDAV:  cpu time   61.20: real time   61.36
 BZINTS: Fermi energy:  3.835245; 18.000000 electrons
         Band energy:-130.438888;  BLOECHL correction:  0.000000
       DOS:  cpu time    0.12: real time    0.12
    --------------------------------------------
      LOOP:  cpu time   61.32: real time   61.48

 eigenvalue-minimisations  :  3015
 total energy-change (2. order) :-0.6966737E+02  (-0.6770243E+02)
 number of electr     EDDAV:  cpu time   61.81: real time   61.97
 BZINTS: Fermi energy:  3.835245; 18.000000 electrons
         Band energy:-130.438888;  BLOECHL correction:  0.000000
       DOS:  cpu time    0.13: real time    0.13
     EDDAV:  cpu time   63.29: real time   63.46
 BZINTS: Fermi energy:  3.835245; 18.000000 electrons
         Band energy:-130.438888;  BLOECHL correction:  0.000000
       DOS:  cpu time    0.11: real time    0.11
     EDDAV:  cpu time   73.35: real time   73.53
 BZINTS: Fermi energy:  2.483641; 18.000000 electrons
         Band energy:-135.628566;  BLOECHL correction:  0.000000
       DOS:  cpu time    0.20: real time    0.20
     EDDAV:  cpu time   74.16: real time   74.34
 BZINTS: Fermi energy:  2.483641; 18.000000 electrons
         Band energy:-135.628566;  BLOECHL correction:  0.000000
       DOS:  cpu time    0.20: real time    0.20
     EDDAV:  cpu time   74.90: real time   75.09
 BZINTS: Fermi energy:  2.483641; 18.000000 electrons
         Band energy:-135.628566;  BLOECHL correction:  0.000000
       DOS:  cpu time    0.20: real time    0.20
    --------------------------------------------
      LOOP:  cpu time   75.11: real time   75.30

 eigenvalue-minimisations  :  3665
 total energy-change (2. order) :-0.5189678E+01  (-0.5168887E+01)
 number of electron      18.0000000 magnetization 
 augmentation part       18.0000000 magnetization 

 Free energy of the ion-electron system (eV)
  ---------------------------------------------------
  alpha Z        PSCENC =        72.97670546
  Ewald energy   TEWEN  =     -1266.30826995
  -Hartree energ DENC   =      -724.95020395
  -exchange      EXHF   =         0.00000000
  -V(xc)+E(xc)   XCENC  =        52.29661229
  PAW double counting   =      1493.97313949    -1828.25035196
  entropy T*S    EENTRO =         0.00000000
  eigenvalues    EBANDS =      -135.62856633
  atomic energy  EATOM  =      2326.13011118
  -----------------------------------------     EDDAV:  cpu time   75.21: real time   75.44
 BZINTS: Fermi energy:  2.483641; 18.000000 electrons
         Band energy:-135.628566;  BLOECHL correction:  0.000000
       DOS:  cpu time    0.20: real time    0.20
    --------------------------------------------
      LOOP:  cpu time   75.42: real time   75.65

 eigenvalue-minimisations  :  3665
 total energy-change (2. order) :-0.5189678E+01  (-0.5168887E+01)
 number of electr     EDDAV:  cpu time   76.31: real time   76.56
 BZINTS: Fermi energy:  2.483641; 18.000000 electrons
         Band energy:-135.628566;  BLOECHL correction:  0.000000
       DOS:  cpu time    0.20: real time    0.20
    --------------------------------------------
      LOOP:  cpu time   76.52: real time   76.77

 eigenvalue-minimisations  :  3665
 total energy-change (2. order) :-0.5189678E+01  (-0.5168887E+01)
 number of electron      18.0000000 magnetization 
 augmentation part       18.0000000 magnetization 

 Free energy of the ion-electron system (eV)
  ---------------------------------------------------
  alpha Z        PSCENC =        72.97670546
  Ewald energy   TEWEN  =     -1266.30826995
  -Hartree energ DENC   =      -724.95020395
  -exchange      EXHF   =         0.00000000
  -V(xc)+E(xc)   XCENC  =        52.29661229
  PAW double counting   =      1493.97313949    -1828.25035196
  entropy T*S    EENTRO =         0.00000000
  eigenvalues    EBANDS =      -135.62856633
  atomic energy  EATOM  =      2326.13011118
  ---------------------------------------------------
  free energy    TOTEN  =        -9.76082377 eV

  energy without entropy =       -9.76082377  energy(sigma->0) =       -9.76082377
HL correction:  0.000000
       DOS:  cpu time    0.20: real time    0.20
    --------------------------------------------
      LOOP:  cpu time   74.62: real time   74.86

 eigenvalue-minimisations  :  3665
 total energy-change (2. order) :-0.5189678E+01  (-0.5168887E+01)
 number of electr     EDDAV:  cpu time   74.96: real time   75.18
 BZINTS: Fermi energy:  2.483641; 18.000000 electrons
         Band energy:-135.628566;  BLOECHL correction:  0.000000
       DOS:  cpu time    0.20: real time    0.20
    --------------------------------------------
      LOOP:  cpu time   75.18: real time   75.40

 eigenvalue-minimisations  :  3665
 total energy-change (2. order) :-0.5189678E+01  (-0.5168887E+01)
 number of electr     EDDAV:  cpu time   75.15: real time   75.45
 BZINTS: Fermi energy:  2.483641; 18.000000 electrons
         Band energy:-135.628566;  BLOECHL correction:  0.000000
       DOS:  cpu time    0.20: real time    0.20
    --------------------------------------------
      LOOP:  cpu time   75.36: real time   75.66

 eigenvalue-minimisations  :  3665
 total energy-change (2. order) :-0.5189678E+01  (-0.5168887E+01)
 number of electron      18.0000000 magnetization 
 augmentation part       18.0000000 magnetization 

 Free energy of the ion-electron system (eV)
  ---------------------------------------------------
  alpha Z        PSCENC =        72.97670546
  Ewald energy   TEWEN  =     -1266.30826995
  -Hartree energ DENC   =      -724.95020395
  -exchange      EXHF   =         0.00000000
  -V(xc)+E(xc)   XCENC  =        52.29661229
  PAW double counting   =      1493.97313949    -1828.25035196
  entropy T*S    EENTRO =         0.00000000
  eigenvalues    EBANDS =      -135.62856633
  atomic energy  EATOM  =      2326.13011118
  -----------------------------------------     EDDAV:  cpu time   75.28: real time   75.51
 BZINTS: Fermi energy:  2.483641; 18.000000 electrons
         Band energy:-135.628566;  BLOECHL correction:  0.000000
       DOS:  cpu time    0.20: real time    0.20
    --------------------------------------------
      LOOP:  cpu time   75.50: real time   75.74

 eigenvalue-minimisations  :  3665
 total energy-change (2. order) :-0.5189678E+01  (-0.5168887E+01)
 number of electron      18.0000000 magnetization 
 augmentation part       18.0000000 magnetization 

 Free energy of the ion-electron system (eV)
  ---------------------------------------------------
  alpha Z        PSCENC =        72.97670546
  Ewald energy   TEWEN  =     -1266.30826995
  -Hartree energ DENC   =      -724.95020395
  -exchange      EXHF   =         0.00000000
  -V(xc)+E(xc)   XCENC  =        52.29661229
  PAW double counting   =      1493.97313949    -1828.25035196
  entropy T*S    EENTRO =         0.00000000
  eigenvalues    EBANDS =      -135.62856633
  atomic energy  EATOM  =      2326.13011118
  ---------------------------------------------------
  free energy    TOTEN  =        -9.76082377 eV

  energy without entropy =       -9.76082377  energy(sigma->0) =       -9.76082377
-----------------------------------------
  alpha Z        PSCENC =        72.97670546
  Ewald energy   TEWEN  =     -1266.30826995
  -Hartree energ DENC   =      -724.95020395
  -exchange      EXHF   =         0.00000000
  -V(xc)+E(xc)   XCENC  =        52.29661229
  PAW double counting   =      1493.97313949    -1828.25035196
  entropy T*S    EENTRO =         0.00000000
  eigenvalues    EBANDS =      -135.62856633
  atomic energy  EATOM  =      2326.13011118
  ---------------------------------------------------
  free energy    TOTEN  =        -9.76082377 eV

  energy without entropy =       -9.76082377  energy(sigma->0) =       -9.76082377
y  EATOM  =      2326.13011118
  -----------------------------------------     EDDAV:  cpu time   75.19: real time   75.43
 BZINTS: Fermi energy:  2.483641; 18.000000 electrons
         Band energy:-135.628566;  BLOECHL correction:  0.000000
       DOS:  cpu time    0.20: real time    0.20
    --------------------------------------------
      LOOP:  cpu time   75.40: real time   75.65

 eigenvalue-minimisations  :  3665
 total energy-change (2. order) :-0.5189678E+01  (-0.5168887E+01)
 number of electr     EDDAV:  cpu time   76.75: real time   76.97
 BZINTS: Fermi energy:  2.483641; 18.000000 electrons
         Band energy:-135.628566;  BLOECHL correction:  0.000000
       DOS:  cpu time    0.20: real time    0.20
    --------------------------------------------
      LOOP:  cpu time   76.96: real time   77.18

 eigenvalue-minimisations  :  3665
 total energy-change (2. order) :-0.5189678E+01  (-0.5168887E+01)
 number of electron      18.0000000 magnetization 
 augmentation part       18.0000000 magnetization 

 Free energy of the ion-electron system (eV)
  ---------------------------------------------------
  alpha Z        PSCENC =            EDDAV:  cpu time   62.54: real time   62.69
 BZINTS: Fermi energy:  2.417688; 18.000000 electrons
         Band energy:-135.701199;  BLOECHL correction:  0.000000
       DOS:  cpu time    0.10: real time    0.10
     EDDAV:  cpu time   63.43: real time   63.59
 BZINTS: Fermi energy:  2.417688; 18.000000 electrons
         Band energy:-135.701199;  BLOECHL correction:  0.000000
       DOS:  cpu time    0.10: real time    0.10
    --------------------------------------------
      LOOP:  cpu time   63.53: real time   63.69

 eigenvalue-minimisations  :  3095
 total energy-change (2. order) :-0.7263225E-01  (-0.7262091E-01)
 number of electron      18.0000000 magnetization 
 augmentation part       18.0000000 magnetization 

 Free energy of the ion-electron system (eV)
  ---------------------------------------------------
  alpha Z        PSCENC =        72.97670546
  Ewald energy   TEWEN  =     -1266.30826995
  -Hartree energ DENC   =      -724.95020395
  -exchange      EXHF   =         0.00000000
  -V(xc)+E(xc)   XCENC  =        52.29661229
  PAW double counting   =      1493.97313949    -1828.25035196
  entropy T*S    EENTRO =         0.00000000
  eigenvalues    EBANDS =      -135.70119858
  atomic energy  EATOM  =      2326.13011118
  ---------------------------------------------------
  free energy    TOTEN  =        -9.83345602 eV

  energy without entropy =       -9.83345602  energy(sigma->0) =       -9.83345602
-----------------------------------------
  alpha Z        PSCENC =            EDDAV:  cpu time   63.55: real time   63.71
 BZINTS: Fermi energy:  2.417688; 18.000000 electrons
         Band energy:-135.701199;  BLOECHL correction:  0.000000
       DOS:  cpu time    0.12: real time    0.12
    --------------------------------------------
 BZINTS: Fermi energy:  2.417688; 18.000000 electrons
         Band energy:-135.701199;  BLOECHL correction:  0.000000
       DOS:  cpu time    0.10: real time    0.10
    --------------------------------------------
      LOOP:  cpu time   63.34: real time   63.50

 eigenvalue-minimisations  :  3095
 total energy-change (2. order) :-0.7263225E-01  (-0.7262091E-01)
 number of electron      18.0000000 magnetization 
 augmentation part       18.0000000 magnetization 

 Free energy of the ion-electron system (eV)
  ---------------------------------------------------
  alpha Z        PSCENC =        72.97670546
  Ewald energy   TEWEN  =     -1266.30826995
  -Hartree energ DENC   =      -724.95020395
  -exchange      EXHF   =         0.00000000
  -V(xc)+E(xc)   XCENC  =        52.29661229
  PAW double counting        EDDAV:  cpu time   62.94: real time   63.12
 BZINTS: Fermi energy:  2.417688; 18.000000 electrons
         Band energy:-135.701199;  BLOECHL correction:  0.000000
       DOS:  cpu time    0.10: real time    0.10
    --------------------------------------------
      LOOP:  cpu time   63.05: real time   63.23

 eigenvalue-minimisations  :  3095
 total energy-change (2. order) :-0.7263225E-01  (-0.7262091E-01)
 number of electron      18.0000000 magnetization 
 augmentation part       18.0000000 magnetization 

 Free energy of the ion-electron system (eV)
  ---------------------------------------------------
  alpha Z        PSCENC =        72.97670546
  Ewald energy   TEWEN  =     -1266.30826995
  -Hartree energ DENC   =      -724.95020395
  -exchange      EXHF   =         0.00000000
  -V(xc)+E(xc)   XCENC  =        52.29661229
  PAW double counting        EDDAV:  cpu time   64.03: real time   64.18
 BZINTS: Fermi energy:  2.417688; 18.000000 electrons
         Band energy:-135.701199;  BLOECHL correction:  0.000000
       DOS:  cpu time    0.11: real time    0.11
    --------------------------------------------
      LOOP:  cpu time   64.14: real time   64.29

 eigenvalue-minimisations  :  3095
 total energy-change (2. order) :-0.7263225E-01  (-0.7262091E-01)
 number of electron      18.0000000 magnetization 
 augmentation part       18.0000000 magnetization 

 Free energy of the ion-electron system (eV)
  ---------------------------------------------------
  alpha Z        PSCENC =        72.97670546
  Ewald energy   TEWEN  =     -1266.30826995
  -Hartree energ DENC   =      -724.95020395
  -exchange      EXHF   =         0.00000000
  -V(xc)+E(xc)   XCENC  =        52.29661229
  PAW double counting   =      1493.97313949    -1828.25035196
  entropy T*S    EENTRO =         0.00000000
  eigenvalues    EBANDS =      -135.70119858
  atomic energy  EATOM  =      2326.13011118
  ---------------------------------------------------
  free energy    TOTEN  =        -9.83345602 eV

  energy without entropy =       -9.83345602  energy(sigma->0) =       -9.83345602
-----------------------------------------
  alpha Z        PSCENC =            EDDAV:  cpu time   64.64: real time   64.81
 BZINTS: Fermi energy:  2.417688; 18.000000 electrons
         Band energy:-135.701199;  BLOECHL correction:  0.000000
       DOS:  cpu time    0.10: real time    0.10
    --------------------------------------------
      LOOP:  cpu time   64.74: real time   64.91

 eigenvalue-minimisations  :  3095
 total energy-change (2. order) :-0.7263225E-01  (-0.7262091E-01)
 number of electron      18.0000000 magnetization 
 augmentation part       18.0000000 magnetization 

 Free energy of the ion-electron system (eV)
  ---------------------------------------------------
  alpha Z        PSCENC =        72.97670546
  Ewald energy   TEWEN  =     -1266.30826995
  -Hartree energ DENC   =      -724.95020395
  -exchange      EXHF   =         0.00000000
  -V(xc)+E(xc)   XCENC  =        52.29661229
  PAW double counting   =      1493.97313949    -1828.25035196
  entropy T*S    EENTRO =         0.00000000
  eigenvalues    EBANDS =      -135.70119858
  atomic energy  EATOM  =      2326.13011118
  ---------------------------------------------------
  free energy    TOTEN  =        -9.83 BZINTS: Fermi energy:  2.417688; 18.000000 electrons
         Band energy:-135.701199;  BLOECHL correction:  0.000000
       DOS:  cpu time    0.11: real time    0.11
    --------------------------------------------
      LOOP:  cpu time   63.92: real time   64.10

 eigenvalue-minimisations  :  3095
 total energy-change (2. order) :-0.7263225E-01  (-0.7262091E-01)
 number of electr     EDDAV:  cpu time   64.33: real time   64.49
 BZINTS: Fermi energy:  2.417688; 18.000000 electrons
         Band energy:-135.701199;  BLOECHL correction:  0.000000
       DOS:  cpu time    0.10: real time    0.10
    --------------------------------------------
      LOOP:  cpu time   64.44: real time   64.60

 eigenvalue-minimisations  :  3095
 total energy-change (2. order) :-0.7263225E-01  (-0.7262091E-01)
 number of electron      18.0000000 magnetization 
 augmentation part       18.0000000 magnetization 

 Free energy of the ion-electron system (eV)
  ---------------------------------------------------
  alpha Z        PSCENC =            EDDAV:  cpu time   64.49: real time   64.65
 BZINTS: Fermi energy:  2.417688; 18.000000 electrons
         Band energy:-135.701199;  BLOECHL correction:  0.000000
       DOS:  cpu time    0.10: real time    0.10
    --------------------------------------------
      LOOP:  cpu time   64.59: real time   64.75

 eigenvalue-minimisations  :  3095
 total energy-change (2. order) :-0.7263225E-01  (-0.7262091E-01)
 number of electron      18.0000000 magnetization 
 augmentation part       18.0000000 magnetization 

 Free energy of the ion-electron system (eV)
  ---------------------------------------------------
  alpha Z        PSCENC =        72.97670546
  Ewald energy   TEWEN  =     -1266.30826995
  -Hartree energ DENC   =      -724.95020395
  -exchange      EXHF   =         0.00000000
  -V(xc)+E(xc)   XCENC  =        52.29661229
  PAW double counting   =      1493.97313949    -1828.25035196
  entropy  BZINTS: Fermi energy:  2.417688; 18.000000 electrons
         Band energy:-135.701199;  BLOECHL correction:  0.000000
       DOS:  cpu time    0.11: real time    0.11
    --------------------------------------------
      LOOP:  cpu time   63.97: real time   64.13

 eigenvalue-minimisations  :  3095
 total energy-change (2. order) :-0.7263225E-01  (-0.7262091E-01)
 number of electr     EDDAV:  cpu time   63.70: real time   63.87
 BZINTS: Fermi energy:  2.417688; 18.000000 electrons
         Band energy:-135.701199;  BLOECHL correction:  0.000000
       DOS:  cpu time    0.08: real time    0.08
    --------------------------------------------
      LOOP:  cpu time   63.79: real time   63.95

 eigenvalue-minimisations  :  3095
 total energy-change (2. order) :-0.7263225E-01  (-0.7262091E-01)
 number of electr     EDDAV:  cpu time   72.92: real time   73.10
 BZINTS: Fermi energy:  2.469531; 18.000000 electrons
         Band energy:-135.701914;  BLOECHL correction:  0.000000
       DOS:  cpu time    0.20: real time    0.20
    CHARGE:  cpu time    0.07: real time    0.07
    MIXING:  cpu time    0.00: real time    0.00
    --------------------------------------------
      LOOP:  cpu time   73.22: real time   73.40

 eigenvalue-minimisa     EDDAV:  cpu time   73.17: real time   73.36
 BZINTS: Fermi energy:  2.469531; 18.000000 electrons
         Band energy:-135.701914;  BLOECHL correction:  0.000000
       DOS:  cpu time    0.20: real time    0.20
    CHARGE:  cpu time    0.07: real time    0.07
    MIXING:  cpu time    0.00: real time    0.00
    --------------------------------------------
      LOOP:  cpu time   73.46: real time   73.65

 eigenvalue-minimisations  :  3555
 total energy-change (2. order) :-0.7159103E-03  (-0.7158964E-03)
 number of electron      18.0000104 magnetization 
 augmentation part        7.5354571 magnetization 

 Broyden mixing:
  rms(total) = 0     EDDAV:  cpu time   72.99: real time   73.17
 BZINTS: Fermi energy:  2.469531; 18.000000 electrons
         Band energy:-135.701914;  BLOECHL correction:  0.000000
       DOS:  cpu time    0.20: real time    0.20
    CHARGE:  cpu time    0.07: real time    0.07
    MIXING:  cpu time    0.00: real time    0.00
    --------------------------------------------
      LOOP:  cpu time   73.28: real time   73.47

 eigenvalue-minimisations  :  3555
 total energy-change (2. order) :-0.7159103E-03  (-0.7158964E-03)
 number of electron      18.0000104 magnetization 
 augmentation part        7.5354571 magnetization 

 Broyden mixing:
  rms(total) = 0.24611E+00    rms(broyden)= 0.24594E+00
  rms(prec ) = 0.75069E+00
  weight for this iteration     100.00

 Free energy of the ion-electron system (eV)
  ---------------------------------------------------
  alpha Z        PSCENC =        72.97670546
  Ewald energy   TEWEN  =     -1266.30826995
  -Hartree energ DENC   =      -724.95020395
  -exchange      EXHF   =         0.00000000
  -V(xc)+E(xc)   XCENC  =        52.29661229
  PAW double counting   =      1493.97313949    -1828.25035196
  entropy T*S    EENTRO =         0.00000000
  ei     EDDAV:  cpu time   72.98: real time   73.18
 BZINTS: Fermi energy:  2.469531; 18.000000 electrons
         Band energy:-135.701914;  BLOECHL correction:  0.000000
       DOS:  cpu time    0.20: real time    0.20
    CHARGE:  cpu time    0.07: real time    0.07
    MIXING:  cpu time    0.00: real time    0.00
    --------------------------------------------
      LOOP:  cpu time   73.26: real time   73.45

 eigenvalue-minimisa     EDDAV:  cpu time   73.54: real time   73.72
 BZINTS: Fermi energy:  2.469531; 18.000000 electrons
         Band energy:-135.701914;  BLOECHL correction:  0.000000
       DOS:  cpu time    0.20: real time    0.20
    CHARGE:  cpu time    0.07: real time    0.07
[...]
   23.873491    0.580231    0.580231    0.580231    0.000000    0.000000    0.000000
   23.903333    0.581485    0.581485    0.581485    0.000000    0.000000    0.000000
   23.933175    0.582736    0.582736    0.582736    0.000000    0.000000    0.000000
   23.963017    0.583983    0.583983    0.583983    0.000000    0.000000    0.000000
   23.992858    0.585225    0.585225    0.585225    0.000000   -0.000000    0.000000
   24.022700    0.586461    0.586461    0.586461    0.000000   -0.000000    0.000000
   24.052542    0.587690    0.587690    0.587690    0.000000   -0.000000    0.000000
   24.082384    0.588913    0.588913    0.588913    0.000000   -0.000000    0.000000
   24.112226    0.590130    0.590130    0.590130    0.000000   -0.000000    0.000000
   24.142068    0.591341    0.591341    0.591341    0.000000   -0.000000    0.000000
   24.171910    0.592547    0.592547    0.592547    0.000000   -0.000000    0.000000
   24.201751    0.593748    0.593748    0.593748    0.000000   -0.000000    0.000000
   24.231593    0.594944    0.594944    0.594944    0.000000   -0.000000    0.000000
   24.261435    0.596135    0.596135    0.596135    0.000000    0.000000    0.000000
   24.291277    0.597321    0.597321    0.597321    0.000000    0.000000    0.000000
   24.321119    0.598502    0.598502    0.598502    0.000000    0.000000    0.000000
   24.350961    0.599677    0.599677    0.599677    0.000000    0.000000    0.000000
   24.380803    0.600847    0.600847    0.600847    0.000000    0.000000    0.000000
   24.410645    0.602010    0.602010    0.602010    0.000000    0.000000    0.000000
   24.440486    0.603169    0.603169    0.603169    0.000000    0.000000    0.000000
   24.470328    0.604326    0.604326    0.604326    0.000000    0.000000    0.000000
   24.500170    0.605482    0.605482    0.605482    0.000000    0.000000    0.000000
   24.530012    0.606643    0.606643    0.606643    0.000000    0.000000    0.000000
   24.559854    0.607813    0.607813    0.607813    0.000000    0.000000    0.000000
   24.589696    0.608988    0.608988    0.608988    0.000000    0.000000    0.000000
   24.619538    0.610163    0.610163    0.610163    0.000000    0.000000    0.000000
   24.649379    0.611334    0.611334    0.611334    0.000000    0.000000    0.000000
   24.679221    0.612500    0.612500    0.612500    0.000000    0.000000    0.000000
   24.709063    0.613663    0.613663    0.613663    0.000000    0.000000    0.000000
   24.738905    0.614829    0.614829    0.614829    0.000000    0.000000    0.000000
   24.768747    0.615996    0.615996    0.615996    0.000000    0.000000    0.000000
   24.798589    0.617159    0.617159    0.617159    0.000000    0.000000    0.000000
   24.828431    0.618315    0.618315    0.618315    0.000000    0.000000    0.000000
   24.858272    0.619460    0.619460    0.619460    0.000000    0.000000    0.000000
   24.888114    0.620594    0.620594    0.620594    0.000000    0.000000    0.000000
   24.917956    0.621719    0.621719    0.621719    0.000000    0.000000    0.000000
   24.947798    0.622832    0.622832    0.622832    0.000000    0.000000    0.000000
   24.977640    0.623937    0.623937    0.623937    0.000000    0.000000    0.000000
   25.007482    0.625032    0.625032    0.625032    0.000000    0.000000    0.000000
   25.037324    0.626119    0.626119    0.626119    0.000000    0.000000    0.000000
   25.067166    0.627197    0.627197    0.627197    0.000000    0.000000    0.000000
   25.097007    0.628267    0.628267    0.628267    0.000000    0.000000    0.000000
   25.126849    0.629330    0.629330    0.629330    0.000000    0.000000    0.000000
   25.156691    0.630385    0.630385    0.630385    0.000000    0.000000    0.000000
   25.186533    0.631434    0.631434    0.631434    0.000000    0.000000    0.000000
   25.216375    0.632475    0.632475    0.632475    0.000000    0.000000    0.000000
   25.246217    0.633510    0.633510    0.633510    0.000000    0.000000    0.000000
   25.276059    0.634538    0.634538    0.634538    0.000000    0.000000    0.000000
   25.305900    0.635559    0.635559    0.635559    0.000000    0.000000    0.000000
   25.335742    0.636574    0.636574    0.636574    0.000000    0.000000    0.000000
   25.365584    0.637584    0.637584    0.637584    0.000000    0.000000    0.000000
   25.395426    0.638588    0.638588    0.638588    0.000000    0.000000    0.000000
   25.425268    0.639585    0.639585    0.639585    0.000000    0.000000    0.000000
   25.455110    0.640577    0.640577    0.640577    0.000000    0.000000    0.000000
   25.484952    0.641564    0.641564    0.641564    0.000000    0.000000    0.000000
   25.514793    0.642545    0.642545    0.642545    0.000000    0.000000    0.000000
   25.544635    0.643520    0.643520    0.643520    0.000000    0.000000    0.000000
   25.574477    0.644490    0.644490    0.644490    0.000000    0.000000    0.000000
   25.604319    0.645455    0.645455    0.645455    0.000000    0.000000    0.000000
   25.634161    0.646415    0.646415    0.646415    0.000000    0.000000    0.000000
   25.664003    0.647370    0.647370    0.647370    0.000000    0.000000    0.000000
   25.693845    0.648319    0.648319    0.648319    0.000000    0.000000    0.000000
   25.723687    0.649264    0.649264    0.649264    0.000000    0.000000    0.000000
   25.753528    0.650204    0.650204    0.650204    0.000000    0.000000    0.000000
   25.783370    0.651139    0.651139    0.651139    0.000000    0.000000    0.000000
   25.813212    0.652069    0.652069    0.652069    0.000000    0.000000    0.000000
   25.843054    0.652995    0.652995    0.652995    0.000000    0.000000    0.000000
   25.872896    0.653916    0.653916    0.653916    0.000000    0.000000    0.000000
   25.902738    0.654832    0.654832    0.654832    0.000000    0.000000    0.000000
   25.932580    0.655744    0.655744    0.655744    0.000000    0.000000    0.000000
   25.962421    0.656652    0.656652    0.656652    0.000000    0.000000    0.000000
   25.992263    0.657554    0.657554    0.657554    0.000000    0.000000    0.000000
   26.022105    0.658453    0.658453    0.658453    0.000000    0.000000    0.000000
   26.051947    0.659347    0.659347    0.659347    0.000000    0.000000    0.000000
   26.081789    0.660237    0.660237    0.660237    0.000000    0.000000    0.000000
   26.111631    0.661123    0.661123    0.661123    0.000000    0.000000    0.000000
   26.141473    0.662005    0.662005    0.662005    0.000000    0.000000    0.000000
   26.171314    0.662882    0.662882    0.662882    0.000000    0.000000    0.000000
   26.201156    0.663756    0.663756    0.663756    0.000000    0.000000    0.000000
   26.230998    0.664625    0.664625    0.664625    0.000000    0.000000    0.000000
   26.260840    0.665490    0.665490    0.665490    0.000000    0.000000    0.000000
   26.290682    0.666352    0.666352    0.666352    0.000000    0.000000    0.000000
   26.320524    0.667209    0.667209    0.667209    0.000000    0.000000    0.000000
   26.350366    0.668063    0.668063    0.668063    0.000000    0.000000    0.000000
   26.380208    0.668912    0.668912    0.668912    0.000000    0.000000    0.000000
   26.410049    0.669758    0.669758    0.669758    0.000000    0.000000    0.000000
   26.439891    0.670600    0.670600    0.670600    0.000000    0.000000    0.000000
   26.469733    0.671438    0.671438    0.671438    0.000000    0.000000    0.000000
   26.499575    0.672272    0.672272    0.672272    0.000000    0.000000    0.000000
   26.529417    0.673103    0.673103    0.673103    0.000000    0.000000    0.000000
   26.559259    0.673930    0.673930    0.673930    0.000000    0.000000    0.000000
   26.589101    0.674753    0.674753    0.674753    0.000000    0.000000    0.000000
   26.618942    0.675573    0.675573    0.675573    0.000000    0.000000    0.000000
   26.648784    0.676389    0.676389    0.676389    0.000000    0.000000    0.000000
   26.678626    0.677202    0.677202    0.677202    0.000000    0.000000    0.000000
   26.708468    0.678011    0.678011    0.678011    0.000000    0.000000    0.000000
   26.738310    0.678817    0.678817    0.678817    0.000000    0.000000    0.000000
   26.768152    0.679619    0.679619    0.679619    0.000000    0.000000    0.000000
   26.797994    0.680418    0.680418    0.680418    0.000000    0.000000    0.000000
   26.827835    0.681213    0.681213    0.681213    0.000000    0.000000    0.000000
   26.857677    0.682005    0.682005    0.682005    0.000000    0.000000    0.000000
   26.887519    0.682793    0.682793    0.682793    0.000000    0.000000    0.000000
   26.917361    0.683578    0.683578    0.683578    0.000000    0.000000    0.000000
   26.947203    0.684360    0.684360    0.684360    0.000000    0.000000    0.000000
   26.977045    0.685139    0.685139    0.685139    0.000000    0.000000    0.000000
   27.006887    0.685914    0.685914    0.685914    0.000000    0.000000    0.000000
   27.036729    0.686686    0.686686    0.686686    0.000000    0.000000    0.000000
   27.066570    0.687455    0.687455    0.687455    0.000000    0.000000    0.000000
   27.096412    0.688221    0.688221    0.688221    0.000000    0.000000    0.000000
   27.126254    0.688983    0.688983    0.688983    0.000000    0.000000    0.000000
   27.156096    0.689742    0.689742    0.689742    0.000000    0.000000    0.000000
   27.185938    0.690499    0.690499    0.690499    0.000000    0.000000    0.000000
   27.215780    0.691252    0.691252    0.691252    0.000000    0.000000    0.000000
   27.245622    0.692002    0.692002    0.692002    0.000000    0.000000    0.000000
   27.275463    0.692749    0.692749    0.692749    0.000000    0.000000    0.000000
   27.305305    0.693493    0.693493    0.693493    0.000000    0.000000    0.000000
   27.335147    0.694234    0.694234    0.694234    0.000000    0.000000    0.000000
   27.364989    0.694972    0.694972    0.694972    0.000000    0.000000    0.000000
   27.394831    0.695707    0.695707    0.695707    0.000000    0.000000    0.000000
   27.424673    0.696439    0.696439    0.696439    0.000000    0.000000    0.000000
   27.454515    0.697168    0.697168    0.697168    0.000000    0.000000    0.000000
   27.484356    0.697894    0.697894    0.697894    0.000000    0.000000    0.000000
   27.514198    0.698617    0.698617    0.698617    0.000000    0.000000    0.000000
   27.544040    0.699338    0.699338    0.699338    0.000000    0.000000    0.000000
   27.573882    0.700055    0.700055    0.700055    0.000000    0.000000    0.000000
   27.603724    0.700770    0.700770    0.700770    0.000000    0.000000    0.000000
   27.633566    0.701482    0.701482    0.701482    0.000000    0.000000    0.000000
   27.663408    0.702191    0.702191    0.702191    0.000000    0.000000    0.000000
   27.693250    0.702897    0.702897    0.702897    0.000000    0.000000    0.000000
   27.723091    0.703601    0.703601    0.703601    0.000000    0.000000    0.000000
   27.752933    0.704301    0.704301    0.704301    0.000000    0.000000    0.000000
   27.782775    0.704999    0.704999    0.704999    0.000000    0.000000    0.000000
   27.812617    0.705695    0.705695    0.705695    0.000000    0.000000    0.000000
   27.842459    0.706387    0.706387    0.706387    0.000000    0.000000    0.000000
   27.872301    0.707077    0.707077    0.707077    0.000000    0.000000    0.000000
   27.902143    0.707765    0.707765    0.707765    0.000000    0.000000    0.000000
   27.931984    0.708449    0.708449    0.708449    0.000000    0.000000    0.000000
   27.961826    0.709131    0.709131    0.709131    0.000000    0.000000    0.000000
   27.991668    0.709811    0.709811    0.709811    0.000000    0.000000    0.000000
   28.021510    0.710487    0.710487    0.710487    0.000000    0.000000    0.000000
   28.051352    0.711162    0.711162    0.711162    0.000000    0.000000    0.000000
   28.081194    0.711833    0.711833    0.711833    0.000000    0.000000    0.000000
   28.111036    0.712502    0.712502    0.712502    0.000000    0.000000    0.000000
   28.140877    0.713169    0.713169    0.713169    0.000000    0.000000    0.000000
   28.170719    0.713833    0.713833    0.713833    0.000000    0.000000    0.000000
   28.200561    0.714495    0.714495    0.714495    0.000000    0.000000    0.000000
   28.230403    0.715154    0.715154    0.715154    0.000000    0.000000    0.000000
   28.260245    0.715810    0.715810    0.715810    0.000000    0.000000    0.000000
   28.290087    0.716465    0.716465    0.716465    0.000000    0.000000    0.000000
   28.319929    0.717116    0.717116    0.717116    0.000000    0.000000    0.000000
   28.349771    0.717765    0.717765    0.717765    0.000000    0.000000    0.000000
   28.379612    0.718412    0.718412    0.718412    0.000000    0.000000    0.000000
   28.409454    0.719057    0.719057    0.719057    0.000000    0.000000    0.000000
   28.439296    0.719699    0.719699    0.719699    0.000000    0.000000    0.000000
   28.469138    0.720338    0.720338    0.720338    0.000000    0.000000    0.000000
   28.498980    0.720976    0.720976    0.720976    0.000000    0.000000    0.000000
   28.528822    0.721611    0.721611    0.721611    0.000000    0.000000    0.000000
   28.558664    0.722243    0.722243    0.722243    0.000000    0.000000    0.000000
   28.588505    0.722873    0.722873    0.722873    0.000000    0.000000    0.000000
   28.618347    0.723501    0.723501    0.723501    0.000000    0.000000    0.000000
   28.648189    0.724127    0.724127    0.724127    0.000000    0.000000    0.000000
   28.678031    0.724750    0.724750    0.724750    0.000000    0.000000    0.000000
   28.707873    0.725372    0.725372    0.725372    0.000000    0.000000    0.000000
   28.737715    0.725991    0.725991    0.725991    0.000000    0.000000    0.000000
   28.767557    0.726607    0.726607    0.726607    0.000000    0.000000    0.000000
   28.797398    0.727222    0.727222    0.727222    0.000000    0.000000    0.000000
   28.827240    0.727834    0.727834    0.727834    0.000000    0.000000    0.000000
   28.857082    0.728444    0.728444    0.728444    0.000000    0.000000    0.000000
   28.886924    0.729052    0.729052    0.729052    0.000000    0.000000    0.000000
   28.916766    0.729657    0.729657    0.729657    0.000000    0.000000    0.000000
   28.946608    0.730260    0.730260    0.730260    0.000000    0.000000    0.000000
   28.976450    0.730862    0.730862    0.730862    0.000000    0.000000    0.000000
   29.006292    0.731461    0.731461    0.731461    0.000000    0.000000    0.000000
   29.036133    0.732058    0.732058    0.732058    0.000000    0.000000    0.000000
   29.065975    0.732653    0.732653    0.732653    0.000000    0.000000    0.000000
   29.095817    0.733245    0.733245    0.733245    0.000000    0.000000    0.000000
   29.125659    0.733836    0.733836    0.733836    0.000000    0.000000    0.000000
   29.155501    0.734425    0.734425    0.734425    0.000000    0.000000    0.000000
   29.185343    0.735011    0.735011    0.735011    0.000000    0.000000    0.000000
   29.215185    0.735596    0.735596    0.735596    0.000000    0.000000    0.000000
   29.245026    0.736178    0.736178    0.736178    0.000000    0.000000    0.000000
   29.274868    0.736758    0.736758    0.736758    0.000000    0.000000    0.000000
   29.304710    0.737336    0.737336    0.737336    0.000000    0.000000    0.000000
   29.334552    0.737913    0.737913    0.737913    0.000000    0.000000    0.000000
   29.364394    0.738487    0.738487    0.738487    0.000000    0.000000    0.000000
   29.394236    0.739059    0.739059    0.739059    0.000000    0.000000    0.000000
   29.424078    0.739629    0.739629    0.739629    0.000000    0.000000    0.000000
   29.453919    0.740198    0.740198    0.740198    0.000000    0.000000    0.000000
   29.483761    0.740764    0.740764    0.740764    0.000000    0.000000    0.000000
   29.513603    0.741328    0.741328    0.741328    0.000000    0.000000    0.000000
   29.543445    0.741890    0.741890    0.741890    0.000000    0.000000    0.000000
   29.573287    0.742451    0.742451    0.742451    0.000000    0.000000    0.000000
   29.603129    0.743009    0.743009    0.743009    0.000000    0.000000    0.000000
   29.632971    0.743566    0.743566    0.743566    0.000000    0.000000    0.000000
   29.662813    0.744121    0.744121    0.744121    0.000000    0.000000    0.000000
   29.692654    0.744673    0.744673    0.744673    0.000000    0.000000    0.000000
   29.722496    0.745224    0.745224    0.745224    0.000000    0.000000    0.000000
   29.752338    0.745773    0.745773    0.745773    0.000000    0.000000    0.000000
   29.782180    0.746320    0.746320    0.746320    0.000000    0.000000    0.000000
   29.812022    0.746865    0.746865    0.746865    0.000000    0.000000    0.000000
 
 The outermost node in the dielectric function lies at epsilon=  15.1


--------------------------------------------------------------------------------------------------------


    OPTICS:  cpu time    2.39: real time    2.40
    4ORBIT:  cpu time    0.00: real time    0.00

volume of typ            1:    16.7 %

volume of typ            2:    16.7 %
 
total charge     
 
# of ion     s       p       d       tot
----------------------------------------
  1        0.716   0.620   9.876  11.212
  2        1.214   1.671   0.038   2.922
------------------------------------------------
tot         1.93    2.29    9.91   14.13
 
orbital moment (x)
 
# of ion   s             p             d             tot
---------------------------------------------------------------
   1     0.000000E+00 -0.143398E+00 -0.399491E-01 -0.183347E+00
   2     0.000000E+00  0.206355E+00  0.204397E-01  0.226795E+00
----------------------------------------------------------------------------
tot      0.000000E+00  0.629572E-01 -0.195094E-01  0.434478E-01
 
orbital moment (y)
 
# of ion   s             p             d             tot
---------------------------------------------------------------
   1     0.000000E+00  0.129575E-01  0.435552E-02  0.173130E-01
   2     0.000000E+00 -0.202863E-01 -0.171210E-02 -0.219984E-01
----------------------------------------------------------------------------
tot      0.000000E+00 -0.732879E-02  0.264342E-02 -0.468537E-02
 
orbital moment (z)
 
# of ion   s             p             d             tot
---------------------------------------------------------------
   1     0.000000E+00 -0.412398E-02 -0.219613E-02 -0.632011E-02
   2     0.000000E+00  0.691082E-02  0.571312E-03  0.748213E-02
----------------------------------------------------------------------------
tot      0.000000E+00  0.278684E-02 -0.162482E-02  0.116202E-02
 
 BZINTS: Fermi energy:  2.969332; 18.000000 electrons
         Band energy:-138.241403;  BLOECHL correction:  0.000000

 total amount of memory used by VASP on root node    62512. kBytes
========================================================================

   base      :      30000. kBytes
   nonl-proj :      16553. kBytes
   grid      :       3276. kBytes
   one-center:         31. kBytes
   wavefun   :      12652. kBytes
 
  
  
 General timing and accounting informations for this job:
 ========================================================
  
                  Total CPU time used (sec):      660.311
                            User time (sec):      275.808
                          System time (sec):      384.504
                         Elapsed time (sec):      663.571
  
                   Maximum memory used (kb):      451724.
                   Average memory used (kb):           0.
  
                          Minor page faults:        27577
                          Major page faults:           12
                 Voluntary context switches:        41937
