<?xml version="1.0" encoding="ISO-8859-1"?>
<modeling>
 <generator>
  <i name="program" type="string">vasp </i>
  <i name="version" type="string">5.3.5  </i>
  <i name="subversion" type="string">31Mar14 (build Dec 14 2018 19:18:10) complex                          serial </i>
  <i name="platform" type="string">LinuxIFC </i>
  <i name="date" type="string">2022 11 15 </i>
  <i name="time" type="string">22:15:09 </i>
 </generator>
 <incar>
  <i type="string" name="SYSTEM"> GaAs</i>
  <i type="string" name="PREC">normal</i>
  <v name="RWIGS">      1.21700000      1.21700000</v>
  <i type="int" name="ISMEAR">    -4</i>
  <i type="logical" name="LOPTICS"> T  </i>
  <i type="logical" name="LSCALAPACK"> F  </i>
  <i name="SCISSOR">      1.07620000</i>
 </incar>
 <kpoints>
  <generation param="Monkhorst-Pack">
   <v type="int" name="divisions">      10       10       10 </v>
   <v name="usershift">      0.00000000       0.00000000       0.00000000 </v>
   <v name="genvec1">      0.10000000       0.00000000       0.00000000 </v>
   <v name="genvec2">      0.00000000       0.10000000       0.00000000 </v>
   <v name="genvec3">      0.00000000       0.00000000       0.10000000 </v>
   <v name="shift">      0.50000000       0.50000000       0.50000000 </v>
  </generation>
  <varray name="kpointlist" >
   <v>       0.05000000       0.05000000       0.05000000 </v>
   <v>       0.15000000       0.05000000       0.05000000 </v>
   <v>       0.25000000       0.05000000       0.05000000 </v>
   <v>       0.35000000       0.05000000       0.05000000 </v>
   <v>       0.45000000       0.05000000       0.05000000 </v>
   <v>      -0.45000000       0.05000000       0.05000000 </v>
   <v>      -0.35000000       0.05000000       0.05000000 </v>
   <v>      -0.25000000       0.05000000       0.05000000 </v>
   <v>      -0.15000000       0.05000000       0.05000000 </v>
   <v>      -0.05000000       0.05000000       0.05000000 </v>
   <v>       0.15000000       0.15000000       0.05000000 </v>
   <v>       0.25000000       0.15000000       0.05000000 </v>
   <v>       0.35000000       0.15000000       0.05000000 </v>
   <v>       0.45000000       0.15000000       0.05000000 </v>
   <v>      -0.45000000       0.15000000       0.05000000 </v>
   <v>      -0.35000000       0.15000000       0.05000000 </v>
   <v>      -0.25000000       0.15000000       0.05000000 </v>
   <v>      -0.15000000       0.15000000       0.05000000 </v>
   <v>      -0.05000000       0.15000000       0.05000000 </v>
   <v>       0.25000000       0.25000000       0.05000000 </v>
   <v>       0.35000000       0.25000000       0.05000000 </v>
   <v>       0.45000000       0.25000000       0.05000000 </v>
   <v>      -0.45000000       0.25000000       0.05000000 </v>
   <v>      -0.35000000       0.25000000       0.05000000 </v>
   <v>      -0.25000000       0.25000000       0.05000000 </v>
   <v>      -0.15000000       0.25000000       0.05000000 </v>
   <v>      -0.05000000       0.25000000       0.05000000 </v>
   <v>       0.35000000       0.35000000       0.05000000 </v>
   <v>       0.45000000       0.35000000       0.05000000 </v>
   <v>      -0.45000000       0.35000000       0.05000000 </v>
   <v>      -0.35000000       0.35000000       0.05000000 </v>
   <v>      -0.25000000       0.35000000       0.05000000 </v>
   <v>      -0.15000000       0.35000000       0.05000000 </v>
   <v>      -0.05000000       0.35000000       0.05000000 </v>
   <v>       0.45000000       0.45000000       0.05000000 </v>
   <v>      -0.45000000       0.45000000       0.05000000 </v>
   <v>      -0.35000000       0.45000000       0.05000000 </v>
   <v>      -0.25000000       0.45000000       0.05000000 </v>
   <v>      -0.15000000       0.45000000       0.05000000 </v>
   <v>      -0.05000000       0.45000000       0.05000000 </v>
   <v>      -0.45000000      -0.45000000       0.05000000 </v>
   <v>      -0.35000000      -0.45000000       0.05000000 </v>
   <v>      -0.25000000      -0.45000000       0.05000000 </v>
   <v>      -0.15000000      -0.45000000       0.05000000 </v>
   <v>      -0.35000000      -0.35000000       0.05000000 </v>
   <v>      -0.25000000      -0.35000000       0.05000000 </v>
   <v>      -0.15000000      -0.35000000       0.05000000 </v>
   <v>      -0.25000000      -0.25000000       0.05000000 </v>
   <v>      -0.15000000      -0.25000000       0.05000000 </v>
   <v>      -0.15000000      -0.15000000       0.05000000 </v>
   <v>       0.15000000       0.15000000       0.15000000 </v>
   <v>       0.25000000       0.15000000       0.15000000 </v>
   <v>       0.35000000       0.15000000       0.15000000 </v>
   <v>       0.45000000       0.15000000       0.15000000 </v>
   <v>      -0.45000000       0.15000000       0.15000000 </v>
   <v>      -0.35000000       0.15000000       0.15000000 </v>
   <v>      -0.25000000       0.15000000       0.15000000 </v>
   <v>      -0.15000000       0.15000000       0.15000000 </v>
   <v>       0.25000000       0.25000000       0.15000000 </v>
   <v>       0.35000000       0.25000000       0.15000000 </v>
   <v>       0.45000000       0.25000000       0.15000000 </v>
   <v>      -0.45000000       0.25000000       0.15000000 </v>
   <v>      -0.35000000       0.25000000       0.15000000 </v>
   <v>      -0.25000000       0.25000000       0.15000000 </v>
   <v>      -0.15000000       0.25000000       0.15000000 </v>
   <v>       0.35000000       0.35000000       0.15000000 </v>
   <v>       0.45000000       0.35000000       0.15000000 </v>
   <v>      -0.45000000       0.35000000       0.15000000 </v>
   <v>      -0.35000000       0.35000000       0.15000000 </v>
   <v>      -0.25000000       0.35000000       0.15000000 </v>
   <v>      -0.15000000       0.35000000       0.15000000 </v>
   <v>       0.45000000       0.45000000       0.15000000 </v>
   <v>      -0.45000000       0.45000000       0.15000000 </v>
   <v>      -0.35000000       0.45000000       0.15000000 </v>
   <v>      -0.25000000       0.45000000       0.15000000 </v>
   <v>      -0.15000000       0.45000000       0.15000000 </v>
   <v>      -0.45000000      -0.45000000       0.15000000 </v>
   <v>      -0.35000000      -0.45000000       0.15000000 </v>
   <v>      -0.25000000      -0.45000000       0.15000000 </v>
   <v>      -0.35000000      -0.35000000       0.15000000 </v>
   <v>      -0.25000000      -0.35000000       0.15000000 </v>
   <v>      -0.25000000      -0.25000000       0.15000000 </v>
   <v>       0.25000000       0.25000000       0.25000000 </v>
   <v>       0.35000000       0.25000000       0.25000000 </v>
   <v>       0.45000000       0.25000000       0.25000000 </v>
   <v>      -0.45000000       0.25000000       0.25000000 </v>
   <v>      -0.35000000       0.25000000       0.25000000 </v>
   <v>      -0.25000000       0.25000000       0.25000000 </v>
   <v>       0.35000000       0.35000000       0.25000000 </v>
   <v>       0.45000000       0.35000000       0.25000000 </v>
   <v>      -0.45000000       0.35000000       0.25000000 </v>
   <v>      -0.35000000       0.35000000       0.25000000 </v>
   <v>      -0.25000000       0.35000000       0.25000000 </v>
   <v>       0.45000000       0.45000000       0.25000000 </v>
   <v>      -0.45000000       0.45000000       0.25000000 </v>
   <v>      -0.35000000       0.45000000       0.25000000 </v>
   <v>      -0.25000000       0.45000000       0.25000000 </v>
   <v>      -0.45000000      -0.45000000       0.25000000 </v>
   <v>      -0.35000000      -0.45000000       0.25000000 </v>
   <v>      -0.35000000      -0.35000000       0.25000000 </v>
   <v>       0.35000000       0.35000000       0.35000000 </v>
   <v>       0.45000000       0.35000000       0.35000000 </v>
   <v>      -0.45000000       0.35000000       0.35000000 </v>
   <v>      -0.35000000       0.35000000       0.35000000 </v>
   <v>       0.45000000       0.45000000       0.35000000 </v>
   <v>      -0.45000000       0.45000000       0.35000000 </v>
   <v>      -0.35000000       0.45000000       0.35000000 </v>
   <v>      -0.45000000      -0.45000000       0.35000000 </v>
   <v>       0.45000000       0.45000000       0.45000000 </v>
   <v>      -0.45000000       0.45000000       0.45000000 </v>
  </varray>
  <varray name="weights" >
   <v>       0.00200000 </v>
   <v>       0.00600000 </v>
   <v>       0.00600000 </v>
   <v>       0.00600000 </v>
   <v>       0.00600000 </v>
   <v>       0.00600000 </v>
   <v>       0.00600000 </v>
   <v>       0.00600000 </v>
   <v>       0.00600000 </v>
   <v>       0.00600000 </v>
   <v>       0.00600000 </v>
   <v>       0.01200000 </v>
   <v>       0.01200000 </v>
   <v>       0.01200000 </v>
   <v>       0.01200000 </v>
   <v>       0.01200000 </v>
   <v>       0.01200000 </v>
   <v>       0.01200000 </v>
   <v>       0.01200000 </v>
   <v>       0.00600000 </v>
   <v>       0.01200000 </v>
   <v>       0.01200000 </v>
   <v>       0.01200000 </v>
   <v>       0.01200000 </v>
   <v>       0.01200000 </v>
   <v>       0.01200000 </v>
   <v>       0.01200000 </v>
   <v>       0.00600000 </v>
   <v>       0.01200000 </v>
   <v>       0.01200000 </v>
   <v>       0.01200000 </v>
   <v>       0.01200000 </v>
   <v>       0.01200000 </v>
   <v>       0.01200000 </v>
   <v>       0.00600000 </v>
   <v>       0.01200000 </v>
   <v>       0.01200000 </v>
   <v>       0.01200000 </v>
   <v>       0.01200000 </v>
   <v>       0.01200000 </v>
   <v>       0.00600000 </v>
   <v>       0.01200000 </v>
   <v>       0.01200000 </v>
   <v>       0.01200000 </v>
   <v>       0.00600000 </v>
   <v>       0.01200000 </v>
   <v>       0.01200000 </v>
   <v>       0.00600000 </v>
   <v>       0.01200000 </v>
   <v>       0.00600000 </v>
   <v>       0.00200000 </v>
   <v>       0.00600000 </v>
   <v>       0.00600000 </v>
   <v>       0.00600000 </v>
   <v>       0.00600000 </v>
   <v>       0.00600000 </v>
   <v>       0.00600000 </v>
   <v>       0.00600000 </v>
   <v>       0.00600000 </v>
   <v>       0.01200000 </v>
   <v>       0.01200000 </v>
   <v>       0.01200000 </v>
   <v>       0.01200000 </v>
   <v>       0.01200000 </v>
   <v>       0.01200000 </v>
   <v>       0.00600000 </v>
   <v>       0.01200000 </v>
   <v>       0.01200000 </v>
   <v>       0.01200000 </v>
   <v>       0.01200000 </v>
   <v>       0.01200000 </v>
   <v>       0.00600000 </v>
   <v>       0.01200000 </v>
   <v>       0.01200000 </v>
   <v>       0.01200000 </v>
   <v>       0.01200000 </v>
   <v>       0.00600000 </v>
   <v>       0.01200000 </v>
   <v>       0.01200000 </v>
   <v>       0.00600000 </v>
   <v>       0.01200000 </v>
   <v>       0.00600000 </v>
   <v>       0.00200000 </v>
   <v>       0.00600000 </v>
   <v>       0.00600000 </v>
   <v>       0.00600000 </v>
   <v>       0.00600000 </v>
   <v>       0.00600000 </v>
   <v>       0.00600000 </v>
   <v>       0.01200000 </v>
   <v>       0.01200000 </v>
   <v>       0.01200000 </v>
   <v>       0.01200000 </v>
   <v>       0.00600000 </v>
   <v>       0.01200000 </v>
   <v>       0.01200000 </v>
   <v>       0.01200000 </v>
   <v>       0.00600000 </v>
   <v>       0.01200000 </v>
   <v>       0.00600000 </v>
   <v>       0.00200000 </v>
   <v>       0.00600000 </v>
   <v>       0.00600000 </v>
   <v>       0.00600000 </v>
   <v>       0.00600000 </v>
   <v>       0.01200000 </v>
   <v>       0.01200000 </v>
   <v>       0.00600000 </v>
   <v>       0.00200000 </v>
   <v>       0.00600000 </v>
  </varray>
  <varray name="tetrahedronlist"  type="int" >
   <v type="int" >       24        1        2       10       51 </v>
   <v type="int" >       24        2        9       10       19 </v>
   <v type="int" >       24        9       10       11       19 </v>
   <v type="int" >       24        2        9       10       51 </v>
   <v type="int" >       24       11       12       19       59 </v>
   <v type="int" >       24       11       12       50       59 </v>
   <v type="int" >       24        9       11       19       59 </v>
   <v type="int" >       24       12       49       50       58 </v>
   <v type="int" >       24       20       49       50       58 </v>
   <v type="int" >       24       12       50       58       59 </v>
   <v type="int" >       24       20       21       49       66 </v>
   <v type="int" >       24       20       21       48       66 </v>
   <v type="int" >       24       20       49       58       66 </v>
   <v type="int" >       24       21       46       48       82 </v>
   <v type="int" >       24       28       46       48       82 </v>
   <v type="int" >       24       21       48       66       82 </v>
   <v type="int" >       24       28       29       46       72 </v>
   <v type="int" >       24       28       29       45       72 </v>
   <v type="int" >       24       28       46       72       82 </v>
   <v type="int" >       24       29       42       45       80 </v>
   <v type="int" >       24       35       42       45       80 </v>
   <v type="int" >       24       29       45       72       80 </v>
   <v type="int" >       24       35       36       42       77 </v>
   <v type="int" >       24       35       36       41       77 </v>
   <v type="int" >       24       35       42       77       80 </v>
   <v type="int" >       24       36       36       41       77 </v>
   <v type="int" >       24       36       41       41       77 </v>
   <v type="int" >       24       36       41       77       77 </v>
   <v type="int" >       24       36       41       42       80 </v>
   <v type="int" >       24       35       41       42       80 </v>
   <v type="int" >       24       36       41       77       80 </v>
   <v type="int" >       24       29       35       42       72 </v>
   <v type="int" >       24       29       35       45       72 </v>
   <v type="int" >       24       35       42       72       80 </v>
   <v type="int" >       24       29       45       46       82 </v>
   <v type="int" >       24       28       45       46       82 </v>
   <v type="int" >       24       29       45       72       82 </v>
   <v type="int" >       24       21       28       46       66 </v>
   <v type="int" >       24       21       28       48       66 </v>
   <v type="int" >       24       28       46       66       82 </v>
   <v type="int" >       24       21       48       49       58 </v>
   <v type="int" >       24       20       48       49       58 </v>
   <v type="int" >       24       21       48       58       66 </v>
   <v type="int" >       24       12       20       49       59 </v>
   <v type="int" >       24       12       20       50       59 </v>
   <v type="int" >       24       20       49       58       59 </v>
   <v type="int" >       24        9       12       19       50 </v>
   <v type="int" >       24        9       11       19       50 </v>
   <v type="int" >       24        9       12       50       59 </v>
   <v type="int" >       24        2       11       19       51 </v>
   <v type="int" >       24        2       10       11       51 </v>
   <v type="int" >       24        9       11       19       51 </v>
   <v type="int" >       36        2        2       10       10 </v>
   <v type="int" >       48        1        2       10       10 </v>
   <v type="int" >       24        2        2       10       51 </v>
   <v type="int" >       24        1        1        2       10 </v>
   <v type="int" >       24        1        2        2       10 </v>
   <v type="int" >       24        2        3       19       52 </v>
   <v type="int" >       24        2        3        9       19 </v>
   <v type="int" >       24        2        3        9       51 </v>
   <v type="int" >       24       18       19       27       52 </v>
   <v type="int" >       24       12       18       19       27 </v>
   <v type="int" >       24       12       19       27       59 </v>
   <v type="int" >       24        3       19       27       52 </v>
   <v type="int" >       24        3        9       19       27 </v>
   <v type="int" >       24        9       19       27       59 </v>
   <v type="int" >       24       12       13       18       60 </v>
   <v type="int" >       24       12       13       49       60 </v>
   <v type="int" >       24       12       13       49       58 </v>
   <v type="int" >       24       12       13       18       27 </v>
   <v type="int" >       24       12       13       27       59 </v>
   <v type="int" >       24       12       13       58       59 </v>
   <v type="int" >       24       47       49       60       65 </v>
   <v type="int" >       24       21       47       49       65 </v>
   <v type="int" >       24       21       47       49       66 </v>
   <v type="int" >       24       13       47       49       60 </v>
   <v type="int" >       24       13       47       49       58 </v>
   <v type="int" >       24       47       49       58       66 </v>
   <v type="int" >       24       21       22       65       67 </v>
   <v type="int" >       24       21       22       46       67 </v>
   <v type="int" >       24       21       22       46       82 </v>
   <v type="int" >       24       21       22       47       65 </v>
   <v type="int" >       24       21       22       47       66 </v>
   <v type="int" >       24       21       22       66       82 </v>
   <v type="int" >       24       43       46       67       81 </v>
   <v type="int" >       24       29       43       46       81 </v>
   <v type="int" >       24       29       43       46       72 </v>
   <v type="int" >       24       22       43       46       67 </v>
   <v type="int" >       24       22       43       46       82 </v>
   <v type="int" >       24       43       46       72       82 </v>
   <v type="int" >       24       29       30       73       81 </v>
   <v type="int" >       24       29       30       42       73 </v>
   <v type="int" >       24       29       30       42       80 </v>
   <v type="int" >       24       29       30       43       81 </v>
   <v type="int" >       24       29       30       43       72 </v>
   <v type="int" >       24       29       30       72       80 </v>
   <v type="int" >       24       37       42       73       78 </v>
   <v type="int" >       24       36       37       42       78 </v>
   <v type="int" >       24       36       37       42       77 </v>
   <v type="int" >       24       30       37       42       73 </v>
   <v type="int" >       24       30       37       42       80 </v>
   <v type="int" >       24       37       42       77       80 </v>
   <v type="int" >       24       36       37       78       78 </v>
   <v type="int" >       24       36       36       37       78 </v>
   <v type="int" >       24       36       36       37       77 </v>
   <v type="int" >       24       36       37       37       78 </v>
   <v type="int" >       24       36       37       37       77 </v>
   <v type="int" >       24       36       37       77       77 </v>
   <v type="int" >       24       30       36       73       78 </v>
   <v type="int" >       24       30       36       42       73 </v>
   <v type="int" >       24       30       36       42       80 </v>
   <v type="int" >       24       30       36       37       78 </v>
   <v type="int" >       24       30       36       37       77 </v>
   <v type="int" >       24       30       36       77       80 </v>
   <v type="int" >       24       42       43       73       81 </v>
   <v type="int" >       24       29       42       43       81 </v>
   <v type="int" >       24       29       42       43       72 </v>
   <v type="int" >       24       30       42       43       73 </v>
   <v type="int" >       24       30       42       43       80 </v>
   <v type="int" >       24       42       43       72       80 </v>
   <v type="int" >       24       22       29       67       81 </v>
   <v type="int" >       24       22       29       46       67 </v>
   <v type="int" >       24       22       29       46       82 </v>
   <v type="int" >       24       22       29       43       81 </v>
   <v type="int" >       24       22       29       43       72 </v>
   <v type="int" >       24       22       29       72       82 </v>
   <v type="int" >       24       46       47       65       67 </v>
   <v type="int" >       24       21       46       47       65 </v>
   <v type="int" >       24       21       46       47       66 </v>
   <v type="int" >       24       22       46       47       67 </v>
   <v type="int" >       24       22       46       47       82 </v>
   <v type="int" >       24       46       47       66       82 </v>
   <v type="int" >       24       13       21       60       65 </v>
   <v type="int" >       24       13       21       49       60 </v>
   <v type="int" >       24       13       21       49       58 </v>
   <v type="int" >       24       13       21       47       65 </v>
   <v type="int" >       24       13       21       47       66 </v>
   <v type="int" >       24       13       21       58       66 </v>
   <v type="int" >       24       18       27       49       60 </v>
   <v type="int" >       24       12       18       27       49 </v>
   <v type="int" >       24       12       27       49       59 </v>
   <v type="int" >       24       13       27       49       60 </v>
   <v type="int" >       24       13       27       49       58 </v>
   <v type="int" >       24       27       49       58       59 </v>
   <v type="int" >       24        3       12       18       52 </v>
   <v type="int" >       24        3       12       19       52 </v>
   <v type="int" >       24        3        9       12       19 </v>
   <v type="int" >       24        3       12       18       27 </v>
   <v type="int" >       24        3       12       27       59 </v>
   <v type="int" >       24        3        9       12       59 </v>
   <v type="int" >       24        9       19       19       52 </v>
   <v type="int" >       48        2        9       19       19 </v>
   <v type="int" >       48        2        9       19       51 </v>
   <v type="int" >       24        3        9       19       52 </v>
   <v type="int" >       24        3        9        9       19 </v>
   <v type="int" >       24        9        9       19       51 </v>
   <v type="int" >       48        2       11       19       19 </v>
   <v type="int" >       24        2       10       11       19 </v>
   <v type="int" >       48        2        2       10       19 </v>
   <v type="int" >       24        2        2       19       51 </v>
   <v type="int" >       24       10       11       11       19 </v>
   <v type="int" >       24       10       10       11       19 </v>
   <v type="int" >       24        2       10       10       19 </v>
   <v type="int" >       24       10       11       19       19 </v>
   <v type="int" >       24        2       10       19       19 </v>
   <v type="int" >       24       18       52       53       84 </v>
   <v type="int" >       24       18       27       52       84 </v>
   <v type="int" >       24        3       27       52       84 </v>
   <v type="int" >       24       17       18       26       53 </v>
   <v type="int" >       24       17       18       26       60 </v>
   <v type="int" >       24       13       17       18       60 </v>
   <v type="int" >       24       17       18       53       84 </v>
   <v type="int" >       24       17       18       27       84 </v>
   <v type="int" >       24       13       17       18       27 </v>
   <v type="int" >       24       26       60       61       90 </v>
   <v type="int" >       24       60       61       65       90 </v>
   <v type="int" >       24       47       60       65       90 </v>
   <v type="int" >       24       17       26       60       90 </v>
   <v type="int" >       24       13       17       60       90 </v>
   <v type="int" >       24       13       47       60       90 </v>
   <v type="int" >       24       61       64       65       71 </v>
   <v type="int" >       24       64       65       67       71 </v>
   <v type="int" >       24       22       64       65       67 </v>
   <v type="int" >       24       61       64       65       90 </v>
   <v type="int" >       24       47       64       65       90 </v>
   <v type="int" >       24       22       47       64       65 </v>
   <v type="int" >       24       67       68       71       95 </v>
   <v type="int" >       24       67       68       81       95 </v>
   <v type="int" >       24       43       67       81       95 </v>
   <v type="int" >       24       64       67       71       95 </v>
   <v type="int" >       24       22       64       67       95 </v>
   <v type="int" >       24       22       43       67       95 </v>
   <v type="int" >       24       68       79       81       93 </v>
   <v type="int" >       24       73       79       81       93 </v>
   <v type="int" >       24       30       73       81       93 </v>
   <v type="int" >       24       68       81       93       95 </v>
   <v type="int" >       24       43       81       93       95 </v>
   <v type="int" >       24       30       43       81       93 </v>
   <v type="int" >       24       73       74       79       99 </v>
   <v type="int" >       24       73       74       78       99 </v>
   <v type="int" >       24       37       73       78       99 </v>
   <v type="int" >       24       73       79       93       99 </v>
   <v type="int" >       24       30       73       93       99 </v>
   <v type="int" >       24       30       37       73       99 </v>
   <v type="int" >       24       74       74       78       99 </v>
   <v type="int" >       24       74       78       78       99 </v>
   <v type="int" >       24       37       78       78       99 </v>
   <v type="int" >       24       74       78       99       99 </v>
   <v type="int" >       24       37       78       99       99 </v>
   <v type="int" >       24       37       37       78       99 </v>
   <v type="int" >       24       74       78       79       93 </v>
   <v type="int" >       24       73       78       79       93 </v>
   <v type="int" >       24       30       73       78       93 </v>
   <v type="int" >       24       74       78       93       99 </v>
   <v type="int" >       24       37       78       93       99 </v>
   <v type="int" >       24       30       37       78       93 </v>
   <v type="int" >       24       68       73       79       95 </v>
   <v type="int" >       24       68       73       81       95 </v>
   <v type="int" >       24       43       73       81       95 </v>
   <v type="int" >       24       73       79       93       95 </v>
   <v type="int" >       24       30       73       93       95 </v>
   <v type="int" >       24       30       43       73       95 </v>
   <v type="int" >       24       64       68       71       81 </v>
   <v type="int" >       24       64       67       71       81 </v>
   <v type="int" >       24       22       64       67       81 </v>
   <v type="int" >       24       64       68       81       95 </v>
   <v type="int" >       24       43       64       81       95 </v>
   <v type="int" >       24       22       43       64       81 </v>
   <v type="int" >       24       61       67       71       90 </v>
   <v type="int" >       24       61       65       67       90 </v>
   <v type="int" >       24       47       65       67       90 </v>
   <v type="int" >       24       64       67       71       90 </v>
   <v type="int" >       24       22       64       67       90 </v>
   <v type="int" >       24       22       47       67       90 </v>
   <v type="int" >       24       17       26       61       65 </v>
   <v type="int" >       24       17       26       60       65 </v>
   <v type="int" >       24       13       17       60       65 </v>
   <v type="int" >       24       17       61       65       90 </v>
   <v type="int" >       24       17       47       65       90 </v>
   <v type="int" >       24       13       17       47       65 </v>
   <v type="int" >       24       26       53       60       84 </v>
   <v type="int" >       24       18       53       60       84 </v>
   <v type="int" >       24       18       27       60       84 </v>
   <v type="int" >       24       17       26       60       84 </v>
   <v type="int" >       24       13       17       60       84 </v>
   <v type="int" >       24       13       27       60       84 </v>
   <v type="int" >       24       18       18       27       53 </v>
   <v type="int" >       24       18       18       27       52 </v>
   <v type="int" >       24        3       18       27       52 </v>
   <v type="int" >       24       18       27       53       84 </v>
   <v type="int" >       24       18       27       27       84 </v>
   <v type="int" >       24        3       18       27       27 </v>
   <v type="int" >       24       12       18       52       59 </v>
   <v type="int" >       24       12       19       52       59 </v>
   <v type="int" >       24        9       19       52       59 </v>
   <v type="int" >       24       18       27       52       59 </v>
   <v type="int" >       24        3       27       52       59 </v>
   <v type="int" >       24        3        9       52       59 </v>
   <v type="int" >       48       12       12       19       50 </v>
   <v type="int" >       24       11       12       19       50 </v>
   <v type="int" >       48       11       12       19       19 </v>
   <v type="int" >       24       12       12       19       59 </v>
   <v type="int" >       24        9       12       19       59 </v>
   <v type="int" >       24        9       12       19       19 </v>
   <v type="int" >       24       11       12       50       50 </v>
   <v type="int" >       24       11       11       12       50 </v>
   <v type="int" >       24       11       11       12       19 </v>
   <v type="int" >       24       11       12       12       50 </v>
   <v type="int" >       24       11       12       12       19 </v>
   <v type="int" >       24       26       53       54       85 </v>
   <v type="int" >       24       17       26       53       54 </v>
   <v type="int" >       24       17       53       54       84 </v>
   <v type="int" >       24       25       26       33       85 </v>
   <v type="int" >       24       25       26       33       61 </v>
   <v type="int" >       24       26       33       61       90 </v>
   <v type="int" >       24       26       33       54       85 </v>
   <v type="int" >       24       17       26       33       54 </v>
   <v type="int" >       24       17       26       33       90 </v>
   <v type="int" >       24       25       61       62       91 </v>
   <v type="int" >       24       61       62       71       91 </v>
   <v type="int" >       24       61       62       64       71 </v>
   <v type="int" >       24       25       33       61       62 </v>
   <v type="int" >       24       33       61       62       90 </v>
   <v type="int" >       24       61       62       64       90 </v>
   <v type="int" >       24       70       71       76       91 </v>
   <v type="int" >       24       68       70       71       76 </v>
   <v type="int" >       24       68       71       76       95 </v>
   <v type="int" >       24       62       71       76       91 </v>
   <v type="int" >       24       62       64       71       76 </v>
   <v type="int" >       24       64       71       76       95 </v>
   <v type="int" >       24       68       69       70       96 </v>
   <v type="int" >       24       68       69       79       96 </v>
   <v type="int" >       24       68       69       79       93 </v>
   <v type="int" >       24       68       69       70       76 </v>
   <v type="int" >       24       68       69       76       95 </v>
   <v type="int" >       24       68       69       93       95 </v>
   <v type="int" >       24       75       79       96       97 </v>
   <v type="int" >       24       74       75       79       97 </v>
   <v type="int" >       24       74       75       79       99 </v>
   <v type="int" >       24       69       75       79       96 </v>
   <v type="int" >       24       69       75       79       93 </v>
   <v type="int" >       24       75       79       93       99 </v>
   <v type="int" >       24       74       75       97       97 </v>
   <v type="int" >       24       74       74       75       97 </v>
   <v type="int" >       24       74       74       75       99 </v>
   <v type="int" >       24       74       75       75       97 </v>
   <v type="int" >       24       74       75       75       99 </v>
   <v type="int" >       24       74       75       99       99 </v>
   <v type="int" >       24       69       74       96       97 </v>
   <v type="int" >       24       69       74       79       96 </v>
   <v type="int" >       24       69       74       79       93 </v>
   <v type="int" >       24       69       74       75       97 </v>
   <v type="int" >       24       69       74       75       99 </v>
   <v type="int" >       24       69       74       93       99 </v>
   <v type="int" >       24       70       76       79       96 </v>
   <v type="int" >       24       68       70       76       79 </v>
   <v type="int" >       24       68       76       79       95 </v>
   <v type="int" >       24       69       76       79       96 </v>
   <v type="int" >       24       69       76       79       93 </v>
   <v type="int" >       24       76       79       93       95 </v>
   <v type="int" >       24       62       68       70       91 </v>
   <v type="int" >       24       62       68       71       91 </v>
   <v type="int" >       24       62       64       68       71 </v>
   <v type="int" >       24       62       68       70       76 </v>
   <v type="int" >       24       62       68       76       95 </v>
   <v type="int" >       24       62       64       68       95 </v>
   <v type="int" >       24       25       33       71       91 </v>
   <v type="int" >       24       25       33       61       71 </v>
   <v type="int" >       24       33       61       71       90 </v>
   <v type="int" >       24       33       62       71       91 </v>
   <v type="int" >       24       33       62       64       71 </v>
   <v type="int" >       24       33       64       71       90 </v>
   <v type="int" >       24       25       54       61       85 </v>
   <v type="int" >       24       26       54       61       85 </v>
   <v type="int" >       24       17       26       54       61 </v>
   <v type="int" >       24       25       33       54       61 </v>
   <v type="int" >       24       33       54       61       90 </v>
   <v type="int" >       24       17       54       61       90 </v>
   <v type="int" >       24       17       26       26       85 </v>
   <v type="int" >       24       17       26       26       53 </v>
   <v type="int" >       24       17       26       53       84 </v>
   <v type="int" >       24       17       26       54       85 </v>
   <v type="int" >       24       17       17       26       54 </v>
   <v type="int" >       24       17       17       26       84 </v>
   <v type="int" >       24       13       26       53       60 </v>
   <v type="int" >       24       13       18       53       60 </v>
   <v type="int" >       24       13       18       27       53 </v>
   <v type="int" >       24       13       17       26       53 </v>
   <v type="int" >       24       13       17       53       84 </v>
   <v type="int" >       24       13       27       53       84 </v>
   <v type="int" >       24       18       49       58       60 </v>
   <v type="int" >       24       12       18       49       58 </v>
   <v type="int" >       24       12       18       58       59 </v>
   <v type="int" >       24       13       18       58       60 </v>
   <v type="int" >       24       13       18       27       58 </v>
   <v type="int" >       24       18       27       58       59 </v>
   <v type="int" >       48       12       20       49       49 </v>
   <v type="int" >       24       12       20       49       50 </v>
   <v type="int" >       48       12       12       49       50 </v>
   <v type="int" >       24       12       49       49       58 </v>
   <v type="int" >       24       12       49       58       59 </v>
   <v type="int" >       24       12       12       49       59 </v>
   <v type="int" >       24       20       20       49       50 </v>
   <v type="int" >       24       20       49       50       50 </v>
   <v type="int" >       24       12       49       50       50 </v>
   <v type="int" >       24       20       49       49       50 </v>
   <v type="int" >       24       12       49       49       50 </v>
   <v type="int" >       24       25       85       86      103 </v>
   <v type="int" >       24       25       33       85      103 </v>
   <v type="int" >       24       33       54       85      103 </v>
   <v type="int" >       24       24       25       32       86 </v>
   <v type="int" >       24       24       25       32       91 </v>
   <v type="int" >       24       24       25       62       91 </v>
   <v type="int" >       24       24       25       86      103 </v>
   <v type="int" >       24       24       25       33      103 </v>
   <v type="int" >       24       24       25       33       62 </v>
   <v type="int" >       24       32       91       92      107 </v>
   <v type="int" >       24       70       91       92      107 </v>
   <v type="int" >       24       70       76       91      107 </v>
   <v type="int" >       24       24       32       91      107 </v>
   <v type="int" >       24       24       62       91      107 </v>
   <v type="int" >       24       62       76       91      107 </v>
   <v type="int" >       24       69       70       75       92 </v>
   <v type="int" >       24       69       70       75       96 </v>
   <v type="int" >       24       69       69       70       96 </v>
   <v type="int" >       24       69       70       92      107 </v>
   <v type="int" >       24       69       70       76      107 </v>
   <v type="int" >       24       69       69       70       76 </v>
   <v type="int" >       72       75       96       96       97 </v>
   <v type="int" >       36       96       96       97       97 </v>
   <v type="int" >       24       69       75       96       96 </v>
   <v type="int" >       12       69       69       96       96 </v>
   <v type="int" >       48       96       97       97       97 </v>
   <v type="int" >       48       75       96       97       97 </v>
   <v type="int" >       72       75       75       96       97 </v>
   <v type="int" >       24       69       75       97       97 </v>
   <v type="int" >       48       69       75       96       97 </v>
   <v type="int" >       24       69       69       96       97 </v>
   <v type="int" >       24       69       96       97       97 </v>
   <v type="int" >       24       69       69       75       97 </v>
   <v type="int" >       24       75       92       96      107 </v>
   <v type="int" >       24       70       92       96      107 </v>
   <v type="int" >       24       70       76       96      107 </v>
   <v type="int" >       24       69       75       96      107 </v>
   <v type="int" >       24       69       69       96      107 </v>
   <v type="int" >       24       69       76       96      107 </v>
   <v type="int" >       24       24       32       70       92 </v>
   <v type="int" >       24       24       32       70       91 </v>
   <v type="int" >       24       24       62       70       91 </v>
   <v type="int" >       24       24       70       92      107 </v>
   <v type="int" >       24       24       70       76      107 </v>
   <v type="int" >       24       24       62       70       76 </v>
   <v type="int" >       24       32       86       91      103 </v>
   <v type="int" >       24       25       86       91      103 </v>
   <v type="int" >       24       25       33       91      103 </v>
   <v type="int" >       24       24       32       91      103 </v>
   <v type="int" >       24       24       62       91      103 </v>
   <v type="int" >       24       33       62       91      103 </v>
   <v type="int" >       24       25       25       33       86 </v>
   <v type="int" >       24       25       25       33       85 </v>
   <v type="int" >       24       25       33       54       85 </v>
   <v type="int" >       24       25       33       86      103 </v>
   <v type="int" >       24       25       33       33      103 </v>
   <v type="int" >       24       25       33       33       54 </v>
   <v type="int" >       24       25       61       85       90 </v>
   <v type="int" >       24       26       61       85       90 </v>
   <v type="int" >       24       17       26       85       90 </v>
   <v type="int" >       24       25       33       85       90 </v>
   <v type="int" >       24       33       54       85       90 </v>
   <v type="int" >       24       17       54       85       90 </v>
   <v type="int" >       24       26       47       61       65 </v>
   <v type="int" >       24       26       47       60       65 </v>
   <v type="int" >       24       13       26       47       60 </v>
   <v type="int" >       24       26       47       61       90 </v>
   <v type="int" >       24       17       26       47       90 </v>
   <v type="int" >       24       13       17       26       47 </v>
   <v type="int" >       24       21       60       65       66 </v>
   <v type="int" >       24       21       49       60       66 </v>
   <v type="int" >       24       49       58       60       66 </v>
   <v type="int" >       24       47       60       65       66 </v>
   <v type="int" >       24       13       47       60       66 </v>
   <v type="int" >       24       13       58       60       66 </v>
   <v type="int" >       48       21       21       48       49 </v>
   <v type="int" >       24       20       21       48       49 </v>
   <v type="int" >       48       20       21       49       49 </v>
   <v type="int" >       24       21       21       49       66 </v>
   <v type="int" >       24       21       49       58       66 </v>
   <v type="int" >       24       21       49       49       58 </v>
   <v type="int" >       24       20       21       48       48 </v>
   <v type="int" >       24       20       20       21       48 </v>
   <v type="int" >       24       20       20       21       49 </v>
   <v type="int" >       24       20       21       21       48 </v>
   <v type="int" >       24       20       21       21       49 </v>
   <v type="int" >       24       32       86       87      104 </v>
   <v type="int" >       24       24       32       86       87 </v>
   <v type="int" >       24       24       86       87      103 </v>
   <v type="int" >       24       31       32       38      104 </v>
   <v type="int" >       24       31       32       38       92 </v>
   <v type="int" >       24       32       38       92      107 </v>
   <v type="int" >       24       32       38       87      104 </v>
   <v type="int" >       24       24       32       38       87 </v>
   <v type="int" >       24       24       32       38      107 </v>
   <v type="int" >       24       31       92       93       99 </v>
   <v type="int" >       24       75       92       93       99 </v>
   <v type="int" >       24       69       75       92       93 </v>
   <v type="int" >       24       31       38       92       93 </v>
   <v type="int" >       24       38       92       93      107 </v>
   <v type="int" >       24       69       92       93      107 </v>
   <v type="int" >       24       74       74       79       97 </v>
   <v type="int" >       24       74       79       97       97 </v>
   <v type="int" >       24       79       96       97       97 </v>
   <v type="int" >       24       74       79       79       97 </v>
   <v type="int" >       24       79       79       96       97 </v>
   <v type="int" >       24       79       96       96       97 </v>
   <v type="int" >       24       74       93       97       99 </v>
   <v type="int" >       24       75       93       97       99 </v>
   <v type="int" >       24       69       75       93       97 </v>
   <v type="int" >       24       74       79       93       97 </v>
   <v type="int" >       24       79       93       96       97 </v>
   <v type="int" >       24       69       93       96       97 </v>
   <v type="int" >       24       31       38       75       99 </v>
   <v type="int" >       24       31       38       75       92 </v>
   <v type="int" >       24       38       75       92      107 </v>
   <v type="int" >       24       38       75       93       99 </v>
   <v type="int" >       24       38       69       75       93 </v>
   <v type="int" >       24       38       69       75      107 </v>
   <v type="int" >       24       31       87       92      104 </v>
   <v type="int" >       24       32       87       92      104 </v>
   <v type="int" >       24       24       32       87       92 </v>
   <v type="int" >       24       31       38       87       92 </v>
   <v type="int" >       24       38       87       92      107 </v>
   <v type="int" >       24       24       87       92      107 </v>
   <v type="int" >       24       24       32       32      104 </v>
   <v type="int" >       24       24       32       32       86 </v>
   <v type="int" >       24       24       32       86      103 </v>
   <v type="int" >       24       24       32       87      104 </v>
   <v type="int" >       24       24       24       32       87 </v>
   <v type="int" >       24       24       24       32      103 </v>
   <v type="int" >       24       32       62       86       91 </v>
   <v type="int" >       24       25       62       86       91 </v>
   <v type="int" >       24       25       33       62       86 </v>
   <v type="int" >       24       24       32       62       86 </v>
   <v type="int" >       24       24       62       86      103 </v>
   <v type="int" >       24       33       62       86      103 </v>
   <v type="int" >       24       25       64       71       91 </v>
   <v type="int" >       24       25       61       64       71 </v>
   <v type="int" >       24       25       61       64       90 </v>
   <v type="int" >       24       25       62       64       91 </v>
   <v type="int" >       24       25       33       62       64 </v>
   <v type="int" >       24       25       33       64       90 </v>
   <v type="int" >       24       22       61       67       71 </v>
   <v type="int" >       24       22       61       65       67 </v>
   <v type="int" >       24       22       47       61       65 </v>
   <v type="int" >       24       22       61       64       71 </v>
   <v type="int" >       24       22       61       64       90 </v>
   <v type="int" >       24       22       47       61       90 </v>
   <v type="int" >       24       46       65       67       82 </v>
   <v type="int" >       24       21       46       65       82 </v>
   <v type="int" >       24       21       65       66       82 </v>
   <v type="int" >       24       22       65       67       82 </v>
   <v type="int" >       24       22       47       65       82 </v>
   <v type="int" >       24       47       65       66       82 </v>
   <v type="int" >       48       21       28       46       46 </v>
   <v type="int" >       24       21       28       46       48 </v>
   <v type="int" >       48       21       21       46       48 </v>
   <v type="int" >       24       21       46       46       82 </v>
   <v type="int" >       24       21       46       66       82 </v>
   <v type="int" >       24       21       21       46       66 </v>
   <v type="int" >       24       28       28       46       48 </v>
   <v type="int" >       24       28       46       48       48 </v>
   <v type="int" >       24       21       46       48       48 </v>
   <v type="int" >       24       28       46       46       48 </v>
   <v type="int" >       24       21       46       46       48 </v>
   <v type="int" >       24       31       98      100      104 </v>
   <v type="int" >       24       31       38       98      104 </v>
   <v type="int" >       24       38       87       98      104 </v>
   <v type="int" >       24       30       31       37      100 </v>
   <v type="int" >       24       30       31       37       99 </v>
   <v type="int" >       24       30       31       93       99 </v>
   <v type="int" >       24       30       31       98      100 </v>
   <v type="int" >       24       30       31       38       98 </v>
   <v type="int" >       24       30       31       38       93 </v>
   <v type="int" >       24       73       74       78       78 </v>
   <v type="int" >       24       73       74       74       78 </v>
   <v type="int" >       24       73       74       74       79 </v>
   <v type="int" >       24       73       73       74       78 </v>
   <v type="int" >       24       73       73       74       79 </v>
   <v type="int" >       24       73       74       79       79 </v>
   <v type="int" >       24       30       37       74       78 </v>
   <v type="int" >       24       30       37       74       99 </v>
   <v type="int" >       24       30       74       93       99 </v>
   <v type="int" >       24       30       73       74       78 </v>
   <v type="int" >       24       30       73       74       79 </v>
   <v type="int" >       24       30       74       79       93 </v>
   <v type="int" >       24       37       98       99      100 </v>
   <v type="int" >       24       31       98       99      100 </v>
   <v type="int" >       24       31       38       98       99 </v>
   <v type="int" >       24       30       37       98       99 </v>
   <v type="int" >       24       30       93       98       99 </v>
   <v type="int" >       24       38       93       98       99 </v>
   <v type="int" >       24       31       31       38      100 </v>
   <v type="int" >       24       31       31       38      104 </v>
   <v type="int" >       24       31       38       87      104 </v>
   <v type="int" >       24       31       38       98      100 </v>
   <v type="int" >       24       31       38       38       98 </v>
   <v type="int" >       24       31       38       38       87 </v>
   <v type="int" >       24       31       92      104      107 </v>
   <v type="int" >       24       32       92      104      107 </v>
   <v type="int" >       24       24       32      104      107 </v>
   <v type="int" >       24       31       38      104      107 </v>
   <v type="int" >       24       38       87      104      107 </v>
   <v type="int" >       24       24       87      104      107 </v>
   <v type="int" >       24       32       70       76       92 </v>
   <v type="int" >       24       32       70       76       91 </v>
   <v type="int" >       24       32       62       76       91 </v>
   <v type="int" >       24       32       76       92      107 </v>
   <v type="int" >       24       24       32       76      107 </v>
   <v type="int" >       24       24       32       62       76 </v>
   <v type="int" >       24       68       70       91       95 </v>
   <v type="int" >       24       68       71       91       95 </v>
   <v type="int" >       24       64       71       91       95 </v>
   <v type="int" >       24       70       76       91       95 </v>
   <v type="int" >       24       62       76       91       95 </v>
   <v type="int" >       24       62       64       91       95 </v>
   <v type="int" >       24       43       68       71       81 </v>
   <v type="int" >       24       43       67       71       81 </v>
   <v type="int" >       24       22       43       67       71 </v>
   <v type="int" >       24       43       68       71       95 </v>
   <v type="int" >       24       43       64       71       95 </v>
   <v type="int" >       24       22       43       64       71 </v>
   <v type="int" >       24       29       67       72       81 </v>
   <v type="int" >       24       29       46       67       72 </v>
   <v type="int" >       24       46       67       72       82 </v>
   <v type="int" >       24       43       67       72       81 </v>
   <v type="int" >       24       22       43       67       72 </v>
   <v type="int" >       24       22       67       72       82 </v>
   <v type="int" >       48       29       29       45       46 </v>
   <v type="int" >       24       28       29       45       46 </v>
   <v type="int" >       48       28       29       46       46 </v>
   <v type="int" >       24       29       29       46       72 </v>
   <v type="int" >       24       29       46       72       82 </v>
   <v type="int" >       24       29       46       46       82 </v>
   <v type="int" >       24       28       29       45       45 </v>
   <v type="int" >       24       28       28       29       45 </v>
   <v type="int" >       24       28       28       29       46 </v>
   <v type="int" >       24       28       29       29       45 </v>
   <v type="int" >       24       28       29       29       46 </v>
   <v type="int" >       24       37       77       80      100 </v>
   <v type="int" >       24       30       37       80      100 </v>
   <v type="int" >       24       30       80       98      100 </v>
   <v type="int" >       24       36       36       42       78 </v>
   <v type="int" >       24       36       42       78       78 </v>
   <v type="int" >       24       42       73       78       78 </v>
   <v type="int" >       24       36       42       42       78 </v>
   <v type="int" >       24       42       42       73       78 </v>
   <v type="int" >       24       42       73       73       78 </v>
   <v type="int" >       24       36       77       78       80 </v>
   <v type="int" >       24       37       77       78       80 </v>
   <v type="int" >       24       30       37       78       80 </v>
   <v type="int" >       24       36       42       78       80 </v>
   <v type="int" >       24       42       73       78       80 </v>
   <v type="int" >       24       30       73       78       80 </v>
   <v type="int" >       24       30       37       37       77 </v>
   <v type="int" >       24       30       37       37      100 </v>
   <v type="int" >       24       30       37       98      100 </v>
   <v type="int" >       24       30       37       77       80 </v>
   <v type="int" >       24       30       30       37       80 </v>
   <v type="int" >       24       30       30       37       98 </v>
   <v type="int" >       24       37       93       99      100 </v>
   <v type="int" >       24       31       93       99      100 </v>
   <v type="int" >       24       31       38       93      100 </v>
   <v type="int" >       24       30       37       93      100 </v>
   <v type="int" >       24       30       93       98      100 </v>
   <v type="int" >       24       38       93       98      100 </v>
   <v type="int" >       24       31       69       75       99 </v>
   <v type="int" >       24       31       69       75       92 </v>
   <v type="int" >       24       31       69       92      107 </v>
   <v type="int" >       24       31       69       93       99 </v>
   <v type="int" >       24       31       38       69       93 </v>
   <v type="int" >       24       31       38       69      107 </v>
   <v type="int" >       24       69       75       92       96 </v>
   <v type="int" >       24       69       70       92       96 </v>
   <v type="int" >       24       69       70       76       92 </v>
   <v type="int" >       24       69       69       75       92 </v>
   <v type="int" >       24       69       69       92      107 </v>
   <v type="int" >       24       69       76       92      107 </v>
   <v type="int" >       24       70       79       93       96 </v>
   <v type="int" >       24       68       70       79       93 </v>
   <v type="int" >       24       68       70       93       95 </v>
   <v type="int" >       24       69       70       93       96 </v>
   <v type="int" >       24       69       70       76       93 </v>
   <v type="int" >       24       70       76       93       95 </v>
   <v type="int" >       24       30       68       73       79 </v>
   <v type="int" >       24       30       68       73       81 </v>
   <v type="int" >       24       30       43       68       81 </v>
   <v type="int" >       24       30       68       79       93 </v>
   <v type="int" >       24       30       68       93       95 </v>
   <v type="int" >       24       30       43       68       95 </v>
   <v type="int" >       24       42       73       80       81 </v>
   <v type="int" >       24       29       42       80       81 </v>
   <v type="int" >       24       29       72       80       81 </v>
   <v type="int" >       24       30       73       80       81 </v>
   <v type="int" >       24       30       43       80       81 </v>
   <v type="int" >       24       43       72       80       81 </v>
   <v type="int" >       48       29       35       42       42 </v>
   <v type="int" >       24       29       35       42       45 </v>
   <v type="int" >       48       29       29       42       45 </v>
   <v type="int" >       24       29       42       42       80 </v>
   <v type="int" >       24       29       42       72       80 </v>
   <v type="int" >       24       29       29       42       72 </v>
   <v type="int" >       24       35       35       42       45 </v>
   <v type="int" >       24       35       42       45       45 </v>
   <v type="int" >       24       29       42       45       45 </v>
   <v type="int" >       24       35       42       42       45 </v>
   <v type="int" >       24       29       42       42       45 </v>
   <v type="int" >       24       35       36       41       41 </v>
   <v type="int" >       24       35       36       36       41 </v>
   <v type="int" >       24       35       36       36       42 </v>
   <v type="int" >       24       35       35       36       41 </v>
   <v type="int" >       24       35       35       36       42 </v>
   <v type="int" >       48       35       36       42       42 </v>
   <v type="int" >       48       36       36       41       42 </v>
   <v type="int" >       24       36       36       42       77 </v>
   <v type="int" >       24       36       42       77       80 </v>
   <v type="int" >       24       35       36       41       42 </v>
   <v type="int" >       24       36       42       42       80 </v>
   <v type="int" >       24       36       73       77       78 </v>
   <v type="int" >       24       37       73       77       78 </v>
   <v type="int" >       24       30       37       73       77 </v>
   <v type="int" >       24       36       42       73       77 </v>
   <v type="int" >       24       42       73       77       80 </v>
   <v type="int" >       24       30       73       77       80 </v>
   <v type="int" >       24       37       74       78       79 </v>
   <v type="int" >       24       37       74       79       99 </v>
   <v type="int" >       24       37       79       93       99 </v>
   <v type="int" >       24       37       73       78       79 </v>
   <v type="int" >       24       30       37       73       79 </v>
   <v type="int" >       24       30       37       79       93 </v>
   <v type="int" >       24       74       96       97       99 </v>
   <v type="int" >       24       75       96       97       99 </v>
   <v type="int" >       24       69       75       96       99 </v>
   <v type="int" >       24       74       79       96       99 </v>
   <v type="int" >       24       79       93       96       99 </v>
   <v type="int" >       24       69       93       96       99 </v>
   <v type="int" >       36       75       75       97       97 </v>
   <v type="int" >       24       69       75       75       96 </v>
   <v type="int" >       12       69       69       75       75 </v>
   <v type="int" >       24       35       41       41       41 </v>
   <v type="int" >       24       35       35       41       41 </v>
   <v type="int" >       24       35       35       35       41 </v>
   <v type="int" >       24       36       41       41       42 </v>
   <v type="int" >       24       36       41       42       42 </v>
   <v type="int" >       24       35       41       41       42 </v>
   <v type="int" >       24       35       35       41       42 </v>
   <v type="int" >       24       35       41       42       42 </v>
   <v type="int" >       24       36       36       73       78 </v>
   <v type="int" >       24       36       73       78       78 </v>
   <v type="int" >       24       36       73       73       78 </v>
   <v type="int" >       24       36       36       42       73 </v>
   <v type="int" >       24       36       42       42       73 </v>
   <v type="int" >       24       36       42       73       73 </v>
   <v type="int" >       24       74       78       78       79 </v>
   <v type="int" >       24       74       74       78       79 </v>
   <v type="int" >       24       74       78       79       79 </v>
   <v type="int" >       24       73       78       78       79 </v>
   <v type="int" >       24       73       73       78       79 </v>
   <v type="int" >       24       73       78       79       79 </v>
   <v type="int" >       24       74       74       96       97 </v>
   <v type="int" >       24       74       96       97       97 </v>
   <v type="int" >       24       74       96       96       97 </v>
   <v type="int" >       24       74       74       79       96 </v>
   <v type="int" >       24       74       79       79       96 </v>
   <v type="int" >       24       74       79       96       96 </v>
   <v type="int" >       48       75       97       97       97 </v>
   <v type="int" >       24       74       97       97       99 </v>
   <v type="int" >       24       74       74       97       99 </v>
   <v type="int" >       24       74       97       99       99 </v>
   <v type="int" >       24       75       97       97       99 </v>
   <v type="int" >       24       75       75       97       99 </v>
   <v type="int" >       24       75       97       99       99 </v>
   <v type="int" >       24       37       74       74       78 </v>
   <v type="int" >       24       37       74       78       78 </v>
   <v type="int" >       24       37       37       74       78 </v>
   <v type="int" >       24       37       74       74       99 </v>
   <v type="int" >       24       37       74       99       99 </v>
   <v type="int" >       24       37       37       74       99 </v>
   <v type="int" >       24       36       77       78       78 </v>
   <v type="int" >       24       36       36       77       78 </v>
   <v type="int" >       24       36       77       77       78 </v>
   <v type="int" >       24       37       77       78       78 </v>
   <v type="int" >       24       37       37       77       78 </v>
   <v type="int" >       24       37       77       77       78 </v>
   <v type="int" >       72       36       36       36       41 </v>
   <v type="int" >       60       36       36       41       41 </v>
   <v type="int" >       24       36       36       36       77 </v>
   <v type="int" >       12       36       36       77       77 </v>
   <v type="int" >       48       36       41       41       41 </v>
   <v type="int" >       24       37       77       98      100 </v>
   <v type="int" >       24       30       37       77       98 </v>
   <v type="int" >       24       30       77       80       98 </v>
   <v type="int" >       24       31       37       38      100 </v>
   <v type="int" >       24       31       37       38       99 </v>
   <v type="int" >       24       37       38       93       99 </v>
   <v type="int" >       24       37       38       98      100 </v>
   <v type="int" >       24       30       37       38       98 </v>
   <v type="int" >       24       30       37       38       93 </v>
   <v type="int" >       24       31       92       99      107 </v>
   <v type="int" >       24       75       92       99      107 </v>
   <v type="int" >       24       69       75       99      107 </v>
   <v type="int" >       24       31       38       99      107 </v>
   <v type="int" >       24       38       93       99      107 </v>
   <v type="int" >       24       69       93       99      107 </v>
   <v type="int" >       24       70       75       76       92 </v>
   <v type="int" >       24       70       75       76       96 </v>
   <v type="int" >       24       69       75       76       96 </v>
   <v type="int" >       24       75       76       92      107 </v>
   <v type="int" >       24       69       75       76      107 </v>
   <v type="int" >       24       69       69       75       76 </v>
   <v type="int" >       24       68       70       95       96 </v>
   <v type="int" >       24       68       79       95       96 </v>
   <v type="int" >       24       79       93       95       96 </v>
   <v type="int" >       24       70       76       95       96 </v>
   <v type="int" >       24       69       76       95       96 </v>
   <v type="int" >       24       69       93       95       96 </v>
   <v type="int" >       24       43       68       79       81 </v>
   <v type="int" >       24       43       73       79       81 </v>
   <v type="int" >       24       30       43       73       79 </v>
   <v type="int" >       24       43       68       79       95 </v>
   <v type="int" >       24       43       79       93       95 </v>
   <v type="int" >       24       30       43       79       93 </v>
   <v type="int" >       24       29       72       73       81 </v>
   <v type="int" >       24       29       42       72       73 </v>
   <v type="int" >       24       42       72       73       80 </v>
   <v type="int" >       24       43       72       73       81 </v>
   <v type="int" >       24       30       43       72       73 </v>
   <v type="int" >       24       30       72       73       80 </v>
   <v type="int" >       24       29       35       45       45 </v>
   <v type="int" >       24       29       35       35       45 </v>
   <v type="int" >       24       29       35       35       42 </v>
   <v type="int" >       24       29       29       35       45 </v>
   <v type="int" >       24       29       29       35       42 </v>
   <v type="int" >       24       31       87      100      104 </v>
   <v type="int" >       24       31       38       87      100 </v>
   <v type="int" >       24       38       87       98      100 </v>
   <v type="int" >       24       24       31       32      104 </v>
   <v type="int" >       24       24       31       32       92 </v>
   <v type="int" >       24       24       31       92      107 </v>
   <v type="int" >       24       24       31       87      104 </v>
   <v type="int" >       24       24       31       38       87 </v>
   <v type="int" >       24       24       31       38      107 </v>
   <v type="int" >       24       32       62       91       92 </v>
   <v type="int" >       24       62       70       91       92 </v>
   <v type="int" >       24       62       70       76       92 </v>
   <v type="int" >       24       24       32       62       92 </v>
   <v type="int" >       24       24       62       92      107 </v>
   <v type="int" >       24       62       76       92      107 </v>
   <v type="int" >       24       64       70       71       91 </v>
   <v type="int" >       24       64       68       70       71 </v>
   <v type="int" >       24       64       68       70       95 </v>
   <v type="int" >       24       62       64       70       91 </v>
   <v type="int" >       24       62       64       70       76 </v>
   <v type="int" >       24       64       70       76       95 </v>
   <v type="int" >       24       22       67       68       71 </v>
   <v type="int" >       24       22       67       68       81 </v>
   <v type="int" >       24       22       43       68       81 </v>
   <v type="int" >       24       22       64       68       71 </v>
   <v type="int" >       24       22       64       68       95 </v>
   <v type="int" >       24       22       43       68       95 </v>
   <v type="int" >       24       46       67       81       82 </v>
   <v type="int" >       24       29       46       81       82 </v>
   <v type="int" >       24       29       72       81       82 </v>
   <v type="int" >       24       22       67       81       82 </v>
   <v type="int" >       24       22       43       81       82 </v>
   <v type="int" >       24       43       72       81       82 </v>
   <v type="int" >       24       28       28       45       46 </v>
   <v type="int" >       24       28       45       45       46 </v>
   <v type="int" >       24       29       45       45       46 </v>
   <v type="int" >       24       28       45       46       46 </v>
   <v type="int" >       24       29       45       46       46 </v>
   <v type="int" >       24       32       86      103      104 </v>
   <v type="int" >       24       24       32      103      104 </v>
   <v type="int" >       24       24       87      103      104 </v>
   <v type="int" >       24       25       32       33       86 </v>
   <v type="int" >       24       25       32       33       91 </v>
   <v type="int" >       24       32       33       62       91 </v>
   <v type="int" >       24       32       33       86      103 </v>
   <v type="int" >       24       24       32       33      103 </v>
   <v type="int" >       24       24       32       33       62 </v>
   <v type="int" >       24       25       61       90       91 </v>
   <v type="int" >       24       61       71       90       91 </v>
   <v type="int" >       24       64       71       90       91 </v>
   <v type="int" >       24       25       33       90       91 </v>
   <v type="int" >       24       33       62       90       91 </v>
   <v type="int" >       24       62       64       90       91 </v>
   <v type="int" >       24       47       61       65       71 </v>
   <v type="int" >       24       47       65       67       71 </v>
   <v type="int" >       24       22       47       67       71 </v>
   <v type="int" >       24       47       61       71       90 </v>
   <v type="int" >       24       47       64       71       90 </v>
   <v type="int" >       24       22       47       64       71 </v>
   <v type="int" >       24       21       65       66       67 </v>
   <v type="int" >       24       21       46       66       67 </v>
   <v type="int" >       24       46       66       67       82 </v>
   <v type="int" >       24       47       65       66       67 </v>
   <v type="int" >       24       22       47       66       67 </v>
   <v type="int" >       24       22       66       67       82 </v>
   <v type="int" >       24       21       28       48       48 </v>
   <v type="int" >       24       21       28       28       48 </v>
   <v type="int" >       24       21       28       28       46 </v>
   <v type="int" >       24       21       21       28       48 </v>
   <v type="int" >       24       21       21       28       46 </v>
   <v type="int" >       24       25       54       85       86 </v>
   <v type="int" >       24       25       33       54       86 </v>
   <v type="int" >       24       33       54       86      103 </v>
   <v type="int" >       24       17       25       26       85 </v>
   <v type="int" >       24       17       25       26       61 </v>
   <v type="int" >       24       17       25       61       90 </v>
   <v type="int" >       24       17       25       54       85 </v>
   <v type="int" >       24       17       25       33       54 </v>
   <v type="int" >       24       17       25       33       90 </v>
   <v type="int" >       24       13       26       60       61 </v>
   <v type="int" >       24       13       60       61       65 </v>
   <v type="int" >       24       13       47       61       65 </v>
   <v type="int" >       24       13       17       26       61 </v>
   <v type="int" >       24       13       17       61       90 </v>
   <v type="int" >       24       13       47       61       90 </v>
   <v type="int" >       24       49       58       60       65 </v>
   <v type="int" >       24       21       49       58       65 </v>
   <v type="int" >       24       21       58       65       66 </v>
   <v type="int" >       24       13       58       60       65 </v>
   <v type="int" >       24       13       47       58       65 </v>
   <v type="int" >       24       47       58       65       66 </v>
   <v type="int" >       24       20       20       48       49 </v>
   <v type="int" >       24       20       48       48       49 </v>
   <v type="int" >       24       21       48       48       49 </v>
   <v type="int" >       24       20       48       49       49 </v>
   <v type="int" >       24       21       48       49       49 </v>
   <v type="int" >       24       26       53       84       85 </v>
   <v type="int" >       24       17       26       84       85 </v>
   <v type="int" >       24       17       54       84       85 </v>
   <v type="int" >       24       18       26       27       53 </v>
   <v type="int" >       24       18       26       27       60 </v>
   <v type="int" >       24       13       26       27       60 </v>
   <v type="int" >       24       26       27       53       84 </v>
   <v type="int" >       24       17       26       27       84 </v>
   <v type="int" >       24       13       17       26       27 </v>
   <v type="int" >       24       12       18       59       60 </v>
   <v type="int" >       24       12       49       59       60 </v>
   <v type="int" >       24       49       58       59       60 </v>
   <v type="int" >       24       18       27       59       60 </v>
   <v type="int" >       24       13       27       59       60 </v>
   <v type="int" >       24       13       58       59       60 </v>
   <v type="int" >       24       12       20       50       50 </v>
   <v type="int" >       24       12       20       20       50 </v>
   <v type="int" >       24       12       20       20       49 </v>
   <v type="int" >       24       12       12       20       50 </v>
   <v type="int" >       24       12       12       20       49 </v>
   <v type="int" >       24        3       18       52       53 </v>
   <v type="int" >       24        3       18       27       53 </v>
   <v type="int" >       24        3       27       53       84 </v>
   <v type="int" >       24        9       18       19       52 </v>
   <v type="int" >       24        9       12       18       19 </v>
   <v type="int" >       24        9       12       18       59 </v>
   <v type="int" >       24        3        9       18       52 </v>
   <v type="int" >       24        3        9       18       27 </v>
   <v type="int" >       24        9       18       27       59 </v>
   <v type="int" >       24       11       11       19       50 </v>
   <v type="int" >       24       11       19       50       50 </v>
   <v type="int" >       24       12       19       50       50 </v>
   <v type="int" >       24       11       19       19       50 </v>
   <v type="int" >       24       12       19       19       50 </v>
   <v type="int" >       24        2       19       51       52 </v>
   <v type="int" >       24        9       19       51       52 </v>
   <v type="int" >       24        3        9       51       52 </v>
   <v type="int" >       24        2       10       10       11 </v>
   <v type="int" >       24        2       10       11       11 </v>
   <v type="int" >       24        2       11       11       19 </v>
   <v type="int" >       24        2        2       10       11 </v>
   <v type="int" >       24        2        2       11       19 </v>
   <v type="int" >       36        1        1       10       10 </v>
   <v type="int" >       48        1       10       10       10 </v>
   <v type="int" >       24        2       10       10       10 </v>
   <v type="int" >       24        1        1        1       10 </v>
   <v type="int" >       24        3        9       51       83 </v>
   <v type="int" >       24        3        8        9       27 </v>
   <v type="int" >       24        8        9       27       59 </v>
   <v type="int" >       24        3        8        9       83 </v>
   <v type="int" >       24       13       27       59       89 </v>
   <v type="int" >       24       13       58       59       89 </v>
   <v type="int" >       24        8       27       59       89 </v>
   <v type="int" >       24       13       47       57       58 </v>
   <v type="int" >       24       47       57       58       66 </v>
   <v type="int" >       24       13       57       58       89 </v>
   <v type="int" >       24       22       47       66       94 </v>
   <v type="int" >       24       22       66       82       94 </v>
   <v type="int" >       24       47       57       66       94 </v>
   <v type="int" >       24       22       43       82       88 </v>
   <v type="int" >       24       43       72       82       88 </v>
   <v type="int" >       24       22       82       88       94 </v>
   <v type="int" >       24       30       43       72       98 </v>
   <v type="int" >       24       30       72       80       98 </v>
   <v type="int" >       24       43       72       88       98 </v>
   <v type="int" >       24       37       37       77      100 </v>
   <v type="int" >       24       37       77       77      100 </v>
   <v type="int" >       24       37       77      100      100 </v>
   <v type="int" >       24       30       43       80       88 </v>
   <v type="int" >       24       43       72       80       88 </v>
   <v type="int" >       24       30       80       88       98 </v>
   <v type="int" >       24       22       43       72       94 </v>
   <v type="int" >       24       22       72       82       94 </v>
   <v type="int" >       24       43       72       88       94 </v>
   <v type="int" >       24       22       47       57       82 </v>
   <v type="int" >       24       47       57       66       82 </v>
   <v type="int" >       24       22       57       82       94 </v>
   <v type="int" >       24       13       47       66       89 </v>
   <v type="int" >       24       13       58       66       89 </v>
   <v type="int" >       24       47       57       66       89 </v>
   <v type="int" >       24        8       13       27       58 </v>
   <v type="int" >       24        8       27       58       59 </v>
   <v type="int" >       24        8       13       58       89 </v>
   <v type="int" >       24        3       27       59       83 </v>
   <v type="int" >       24        3        9       59       83 </v>
   <v type="int" >       24        8       27       59       83 </v>
   <v type="int" >       24        3        3        9        9 </v>
   <v type="int" >       24        3        9        9       51 </v>
   <v type="int" >       24        3        3        9       83 </v>
   <v type="int" >       24        2       19       19       52 </v>
   <v type="int" >       24        2        2       19       52 </v>
   <v type="int" >       24        2       19       52       52 </v>
   <v type="int" >       24        3        4       27       84 </v>
   <v type="int" >       24        3        4        8       27 </v>
   <v type="int" >       24        3        4        8       83 </v>
[...]
        <r>  0.0009  0.3132  0.0041 </r>
       </set>
       <set comment="band 10">
        <r>  0.0779  0.0737  0.0295 </r>
        <r>  0.0372  0.1016  0.0420 </r>
       </set>
       <set comment="band 11">
        <r>  0.0855  0.0519  0.0270 </r>
        <r>  0.0130  0.2168  0.0436 </r>
       </set>
       <set comment="band 12">
        <r>  0.0128  0.1662  0.0298 </r>
        <r>  0.0369  0.1179  0.0493 </r>
       </set>
       <set comment="band 13">
        <r>  0.0292  0.1688  0.0224 </r>
        <r>  0.0184  0.1354  0.0587 </r>
       </set>
      </set>
      <set comment="kpoint 100">
       <set comment="band 1">
        <r>  0.0001  0.0009  0.9407 </r>
        <r>  0.0258  0.0000  0.0001 </r>
       </set>
       <set comment="band 2">
        <r>  0.0000  0.0001  0.9782 </r>
        <r>  0.0002  0.0020  0.0007 </r>
       </set>
       <set comment="band 3">
        <r>  0.0000  0.0001  0.9796 </r>
        <r>  0.0000  0.0021  0.0007 </r>
       </set>
       <set comment="band 4">
        <r>  0.0000  0.0000  0.9794 </r>
        <r>  0.0000  0.0003  0.0004 </r>
       </set>
       <set comment="band 5">
        <r>  0.0000  0.0000  0.9822 </r>
        <r>  0.0000  0.0001  0.0001 </r>
       </set>
       <set comment="band 6">
        <r>  0.0127  0.0385  0.0490 </r>
        <r>  0.5767  0.0010  0.0004 </r>
       </set>
       <set comment="band 7">
        <r>  0.3615  0.0058  0.0025 </r>
        <r>  0.0111  0.1558  0.0079 </r>
       </set>
       <set comment="band 8">
        <r>  0.0015  0.1274  0.0064 </r>
        <r>  0.0007  0.2661  0.0024 </r>
       </set>
       <set comment="band 9">
        <r>  0.0000  0.1465  0.0090 </r>
        <r>  0.0000  0.3433  0.0029 </r>
       </set>
       <set comment="band 10">
        <r>  0.0843  0.0692  0.0293 </r>
        <r>  0.0426  0.0606  0.0431 </r>
       </set>
       <set comment="band 11">
        <r>  0.0805  0.0580  0.0270 </r>
        <r>  0.0141  0.2054  0.0444 </r>
       </set>
       <set comment="band 12">
        <r>  0.0336  0.1801  0.0191 </r>
        <r>  0.0409  0.1456  0.0404 </r>
       </set>
       <set comment="band 13">
        <r>  0.0000  0.1975  0.0271 </r>
        <r>  0.0000  0.1812  0.0633 </r>
       </set>
      </set>
      <set comment="kpoint 101">
       <set comment="band 1">
        <r>  0.0010  0.0005  0.9464 </r>
        <r>  0.0200  0.0007  0.0002 </r>
       </set>
       <set comment="band 2">
        <r>  0.0000  0.0001  0.9762 </r>
        <r>  0.0000  0.0033  0.0005 </r>
       </set>
       <set comment="band 3">
        <r>  0.0000  0.0001  0.9762 </r>
        <r>  0.0000  0.0033  0.0005 </r>
       </set>
       <set comment="band 4">
        <r>  0.0000  0.0000  0.9818 </r>
        <r>  0.0000  0.0000  0.0003 </r>
       </set>
       <set comment="band 5">
        <r>  0.0000  0.0000  0.9818 </r>
        <r>  0.0000  0.0000  0.0003 </r>
       </set>
       <set comment="band 6">
        <r>  0.0998  0.0152  0.0332 </r>
        <r>  0.4601  0.0062  0.0007 </r>
       </set>
       <set comment="band 7">
        <r>  0.1883  0.0535  0.0091 </r>
        <r>  0.0830  0.1774  0.0039 </r>
       </set>
       <set comment="band 8">
        <r>  0.0000  0.1272  0.0226 </r>
        <r>  0.0000  0.4050  0.0056 </r>
       </set>
       <set comment="band 9">
        <r>  0.0000  0.1272  0.0226 </r>
        <r>  0.0000  0.4050  0.0056 </r>
       </set>
       <set comment="band 10">
        <r>  0.2269  0.0539  0.0099 </r>
        <r>  0.1447  0.0514  0.0262 </r>
       </set>
       <set comment="band 11">
        <r>  0.0000  0.2022  0.0287 </r>
        <r>  0.0000  0.0798  0.0712 </r>
       </set>
       <set comment="band 12">
        <r>  0.0000  0.2022  0.0287 </r>
        <r>  0.0000  0.0798  0.0712 </r>
       </set>
       <set comment="band 13">
        <r>  0.0169  0.0779  0.0178 </r>
        <r>  0.0249  0.2628  0.0111 </r>
       </set>
      </set>
      <set comment="kpoint 102">
       <set comment="band 1">
        <r>  0.0008  0.0006  0.9443 </r>
        <r>  0.0219  0.0004  0.0002 </r>
       </set>
       <set comment="band 2">
        <r>  0.0000  0.0001  0.9766 </r>
        <r>  0.0000  0.0031  0.0005 </r>
       </set>
       <set comment="band 3">
        <r>  0.0000  0.0001  0.9766 </r>
        <r>  0.0000  0.0029  0.0006 </r>
       </set>
       <set comment="band 4">
        <r>  0.0000  0.0000  0.9816 </r>
        <r>  0.0000  0.0000  0.0003 </r>
       </set>
       <set comment="band 5">
        <r>  0.0000  0.0000  0.9819 </r>
        <r>  0.0000  0.0000  0.0003 </r>
       </set>
       <set comment="band 6">
        <r>  0.0875  0.0188  0.0374 </r>
        <r>  0.4774  0.0059  0.0008 </r>
       </set>
       <set comment="band 7">
        <r>  0.2092  0.0481  0.0068 </r>
        <r>  0.0708  0.1726  0.0039 </r>
       </set>
       <set comment="band 8">
        <r>  0.0386  0.1168  0.0160 </r>
        <r>  0.0212  0.3091  0.0072 </r>
       </set>
       <set comment="band 9">
        <r>  0.0000  0.1301  0.0213 </r>
        <r>  0.0000  0.4030  0.0054 </r>
       </set>
       <set comment="band 10">
        <r>  0.1862  0.0680  0.0131 </r>
        <r>  0.1120  0.1279  0.0249 </r>
       </set>
       <set comment="band 11">
        <r>  0.0068  0.1505  0.0318 </r>
        <r>  0.0059  0.0846  0.0644 </r>
       </set>
       <set comment="band 12">
        <r>  0.0000  0.1980  0.0292 </r>
        <r>  0.0000  0.0806  0.0703 </r>
       </set>
       <set comment="band 13">
        <r>  0.0213  0.0958  0.0197 </r>
        <r>  0.0205  0.2479  0.0247 </r>
       </set>
      </set>
      <set comment="kpoint 103">
       <set comment="band 1">
        <r>  0.0005  0.0007  0.9424 </r>
        <r>  0.0240  0.0003  0.0001 </r>
       </set>
       <set comment="band 2">
        <r>  0.0000  0.0001  0.9770 </r>
        <r>  0.0000  0.0024  0.0007 </r>
       </set>
       <set comment="band 3">
        <r>  0.0000  0.0001  0.9777 </r>
        <r>  0.0000  0.0028  0.0006 </r>
       </set>
       <set comment="band 4">
        <r>  0.0000  0.0000  0.9813 </r>
        <r>  0.0000  0.0000  0.0003 </r>
       </set>
       <set comment="band 5">
        <r>  0.0000  0.0000  0.9815 </r>
        <r>  0.0000  0.0001  0.0003 </r>
       </set>
       <set comment="band 6">
        <r>  0.0655  0.0249  0.0424 </r>
        <r>  0.5075  0.0053  0.0008 </r>
       </set>
       <set comment="band 7">
        <r>  0.2589  0.0350  0.0050 </r>
        <r>  0.0578  0.1644  0.0054 </r>
       </set>
       <set comment="band 8">
        <r>  0.0371  0.1144  0.0109 </r>
        <r>  0.0164  0.2668  0.0053 </r>
       </set>
       <set comment="band 9">
        <r>  0.0000  0.1374  0.0171 </r>
        <r>  0.0000  0.3791  0.0052 </r>
       </set>
       <set comment="band 10">
        <r>  0.1396  0.0806  0.0192 </r>
        <r>  0.0723  0.1137  0.0340 </r>
       </set>
       <set comment="band 11">
        <r>  0.0410  0.0957  0.0261 </r>
        <r>  0.0240  0.1559  0.0481 </r>
       </set>
       <set comment="band 12">
        <r>  0.0000  0.1949  0.0295 </r>
        <r>  0.0000  0.1130  0.0684 </r>
       </set>
       <set comment="band 13">
        <r>  0.0383  0.0999  0.0243 </r>
        <r>  0.0278  0.2468  0.0337 </r>
       </set>
      </set>
      <set comment="kpoint 104">
       <set comment="band 1">
        <r>  0.0002  0.0008  0.9411 </r>
        <r>  0.0254  0.0001  0.0001 </r>
       </set>
       <set comment="band 2">
        <r>  0.0000  0.0001  0.9776 </r>
        <r>  0.0001  0.0021  0.0007 </r>
       </set>
       <set comment="band 3">
        <r>  0.0000  0.0001  0.9788 </r>
        <r>  0.0000  0.0024  0.0006 </r>
       </set>
       <set comment="band 4">
        <r>  0.0000  0.0000  0.9804 </r>
        <r>  0.0000  0.0001  0.0004 </r>
       </set>
       <set comment="band 5">
        <r>  0.0000  0.0000  0.9817 </r>
        <r>  0.0000  0.0001  0.0002 </r>
       </set>
       <set comment="band 6">
        <r>  0.0347  0.0327  0.0473 </r>
        <r>  0.5493  0.0031  0.0005 </r>
       </set>
       <set comment="band 7">
        <r>  0.3293  0.0161  0.0032 </r>
        <r>  0.0337  0.1559  0.0076 </r>
       </set>
       <set comment="band 8">
        <r>  0.0086  0.1219  0.0074 </r>
        <r>  0.0034  0.2605  0.0026 </r>
       </set>
       <set comment="band 9">
        <r>  0.0000  0.1433  0.0125 </r>
        <r>  0.0000  0.3571  0.0041 </r>
       </set>
       <set comment="band 10">
        <r>  0.0989  0.0751  0.0264 </r>
        <r>  0.0485  0.0737  0.0416 </r>
       </set>
       <set comment="band 11">
        <r>  0.1059  0.0212  0.0117 </r>
        <r>  0.0052  0.3333  0.0379 </r>
       </set>
       <set comment="band 12">
        <r>  0.0000  0.1988  0.0269 </r>
        <r>  0.0000  0.1554  0.0646 </r>
       </set>
       <set comment="band 13">
        <r>  0.0092  0.1768  0.0387 </r>
        <r>  0.0568  0.1065  0.0358 </r>
       </set>
      </set>
      <set comment="kpoint 105">
       <set comment="band 1">
        <r>  0.0008  0.0006  0.9431 </r>
        <r>  0.0228  0.0003  0.0002 </r>
       </set>
       <set comment="band 2">
        <r>  0.0000  0.0001  0.9765 </r>
        <r>  0.0000  0.0029  0.0006 </r>
       </set>
       <set comment="band 3">
        <r>  0.0000  0.0001  0.9769 </r>
        <r>  0.0000  0.0030  0.0005 </r>
       </set>
       <set comment="band 4">
        <r>  0.0000  0.0000  0.9814 </r>
        <r>  0.0000  0.0001  0.0004 </r>
       </set>
       <set comment="band 5">
        <r>  0.0000  0.0000  0.9822 </r>
        <r>  0.0000  0.0000  0.0003 </r>
       </set>
       <set comment="band 6">
        <r>  0.0789  0.0209  0.0404 </r>
        <r>  0.4915  0.0047  0.0010 </r>
       </set>
       <set comment="band 7">
        <r>  0.2180  0.0463  0.0043 </r>
        <r>  0.0552  0.1717  0.0036 </r>
       </set>
       <set comment="band 8">
        <r>  0.0455  0.1128  0.0172 </r>
        <r>  0.0262  0.3128  0.0075 </r>
       </set>
       <set comment="band 9">
        <r>  0.0000  0.1359  0.0178 </r>
        <r>  0.0000  0.3814  0.0050 </r>
       </set>
       <set comment="band 10">
        <r>  0.1792  0.0641  0.0152 </r>
        <r>  0.1054  0.1399  0.0253 </r>
       </set>
       <set comment="band 11">
        <r>  0.0098  0.1569  0.0296 </r>
        <r>  0.0080  0.0713  0.0631 </r>
       </set>
       <set comment="band 12">
        <r>  0.0000  0.1786  0.0345 </r>
        <r>  0.0000  0.0940  0.0735 </r>
       </set>
       <set comment="band 13">
        <r>  0.0100  0.1037  0.0246 </r>
        <r>  0.0106  0.1960  0.0327 </r>
       </set>
      </set>
      <set comment="kpoint 106">
       <set comment="band 1">
        <r>  0.0006  0.0007  0.9420 </r>
        <r>  0.0242  0.0002  0.0001 </r>
       </set>
       <set comment="band 2">
        <r>  0.0000  0.0001  0.9770 </r>
        <r>  0.0000  0.0025  0.0006 </r>
       </set>
       <set comment="band 3">
        <r>  0.0000  0.0001  0.9775 </r>
        <r>  0.0000  0.0028  0.0006 </r>
       </set>
       <set comment="band 4">
        <r>  0.0000  0.0000  0.9811 </r>
        <r>  0.0000  0.0001  0.0004 </r>
       </set>
       <set comment="band 5">
        <r>  0.0000  0.0000  0.9820 </r>
        <r>  0.0000  0.0000  0.0003 </r>
       </set>
       <set comment="band 6">
        <r>  0.0619  0.0255  0.0439 </r>
        <r>  0.5151  0.0039  0.0009 </r>
       </set>
       <set comment="band 7">
        <r>  0.2521  0.0375  0.0028 </r>
        <r>  0.0428  0.1673  0.0045 </r>
       </set>
       <set comment="band 8">
        <r>  0.0483  0.1113  0.0129 </r>
        <r>  0.0247  0.2753  0.0062 </r>
       </set>
       <set comment="band 9">
        <r>  0.0013  0.1376  0.0157 </r>
        <r>  0.0005  0.3613  0.0054 </r>
       </set>
       <set comment="band 10">
        <r>  0.1607  0.0697  0.0176 </r>
        <r>  0.0819  0.1686  0.0274 </r>
       </set>
       <set comment="band 11">
        <r>  0.0061  0.1272  0.0314 </r>
        <r>  0.0126  0.0723  0.0585 </r>
       </set>
       <set comment="band 12">
        <r>  0.0150  0.1643  0.0290 </r>
        <r>  0.0026  0.1446  0.0668 </r>
       </set>
       <set comment="band 13">
        <r>  0.0185  0.1193  0.0324 </r>
        <r>  0.0177  0.1829  0.0456 </r>
       </set>
      </set>
      <set comment="kpoint 107">
       <set comment="band 1">
        <r>  0.0003  0.0008  0.9411 </r>
        <r>  0.0254  0.0001  0.0001 </r>
       </set>
       <set comment="band 2">
        <r>  0.0000  0.0001  0.9776 </r>
        <r>  0.0000  0.0021  0.0008 </r>
       </set>
       <set comment="band 3">
        <r>  0.0000  0.0001  0.9785 </r>
        <r>  0.0000  0.0025  0.0005 </r>
       </set>
       <set comment="band 4">
        <r>  0.0000  0.0000  0.9805 </r>
        <r>  0.0000  0.0001  0.0004 </r>
       </set>
       <set comment="band 5">
        <r>  0.0000  0.0000  0.9818 </r>
        <r>  0.0000  0.0001  0.0002 </r>
       </set>
       <set comment="band 6">
        <r>  0.0367  0.0321  0.0472 </r>
        <r>  0.5474  0.0029  0.0006 </r>
       </set>
       <set comment="band 7">
        <r>  0.3144  0.0205  0.0024 </r>
        <r>  0.0301  0.1591  0.0068 </r>
       </set>
       <set comment="band 8">
        <r>  0.0241  0.1174  0.0091 </r>
        <r>  0.0107  0.2631  0.0037 </r>
       </set>
       <set comment="band 9">
        <r>  0.0021  0.1397  0.0120 </r>
        <r>  0.0007  0.3320  0.0052 </r>
       </set>
       <set comment="band 10">
        <r>  0.1097  0.0733  0.0254 </r>
        <r>  0.0467  0.1348  0.0378 </r>
       </set>
       <set comment="band 11">
        <r>  0.0422  0.1006  0.0268 </r>
        <r>  0.0273  0.1499  0.0475 </r>
       </set>
       <set comment="band 12">
        <r>  0.0537  0.0977  0.0187 </r>
        <r>  0.0034  0.2503  0.0503 </r>
       </set>
       <set comment="band 13">
        <r>  0.0006  0.2604  0.0279 </r>
        <r>  0.0393  0.0510  0.0457 </r>
       </set>
      </set>
      <set comment="kpoint 108">
       <set comment="band 1">
        <r>  0.0005  0.0008  0.9416 </r>
        <r>  0.0247  0.0001  0.0001 </r>
       </set>
       <set comment="band 2">
        <r>  0.0000  0.0001  0.9771 </r>
        <r>  0.0001  0.0024  0.0006 </r>
       </set>
       <set comment="band 3">
        <r>  0.0000  0.0001  0.9780 </r>
        <r>  0.0000  0.0026  0.0006 </r>
       </set>
       <set comment="band 4">
        <r>  0.0000  0.0000  0.9808 </r>
        <r>  0.0000  0.0001  0.0004 </r>
       </set>
       <set comment="band 5">
        <r>  0.0000  0.0000  0.9821 </r>
        <r>  0.0000  0.0000  0.0002 </r>
       </set>
       <set comment="band 6">
        <r>  0.0519  0.0280  0.0456 </r>
        <r>  0.5290  0.0031  0.0009 </r>
       </set>
       <set comment="band 7">
        <r>  0.2713  0.0325  0.0020 </r>
        <r>  0.0338  0.1654  0.0050 </r>
       </set>
       <set comment="band 8">
        <r>  0.0432  0.1122  0.0117 </r>
        <r>  0.0213  0.2678  0.0056 </r>
       </set>
       <set comment="band 9">
        <r>  0.0000  0.1412  0.0142 </r>
        <r>  0.0000  0.3644  0.0044 </r>
       </set>
       <set comment="band 10">
        <r>  0.1236  0.0756  0.0225 </r>
        <r>  0.0626  0.1062  0.0366 </r>
       </set>
       <set comment="band 11">
        <r>  0.0586  0.0946  0.0232 </r>
        <r>  0.0291  0.1767  0.0442 </r>
       </set>
       <set comment="band 12">
        <r>  0.0000  0.1749  0.0351 </r>
        <r>  0.0000  0.1170  0.0730 </r>
       </set>
       <set comment="band 13">
        <r>  0.0187  0.1279  0.0323 </r>
        <r>  0.0190  0.1541  0.0492 </r>
       </set>
      </set>
      <set comment="kpoint 109">
       <set comment="band 1">
        <r>  0.0009  0.0006  0.9425 </r>
        <r>  0.0231  0.0001  0.0002 </r>
       </set>
       <set comment="band 2">
        <r>  0.0000  0.0001  0.9764 </r>
        <r>  0.0000  0.0031  0.0005 </r>
       </set>
       <set comment="band 3">
        <r>  0.0000  0.0001  0.9764 </r>
        <r>  0.0000  0.0031  0.0005 </r>
       </set>
       <set comment="band 4">
        <r>  0.0000  0.0000  0.9821 </r>
        <r>  0.0000  0.0000  0.0003 </r>
       </set>
       <set comment="band 5">
        <r>  0.0000  0.0000  0.9821 </r>
        <r>  0.0000  0.0000  0.0003 </r>
       </set>
       <set comment="band 6">
        <r>  0.0768  0.0209  0.0424 </r>
        <r>  0.4986  0.0029  0.0012 </r>
       </set>
       <set comment="band 7">
        <r>  0.2131  0.0484  0.0017 </r>
        <r>  0.0409  0.1733  0.0027 </r>
       </set>
       <set comment="band 8">
        <r>  0.0000  0.1328  0.0199 </r>
        <r>  0.0000  0.3996  0.0048 </r>
       </set>
       <set comment="band 9">
        <r>  0.0000  0.1328  0.0198 </r>
        <r>  0.0000  0.3996  0.0048 </r>
       </set>
       <set comment="band 10">
        <r>  0.2344  0.0441  0.0121 </r>
        <r>  0.1462  0.0459  0.0273 </r>
       </set>
       <set comment="band 11">
        <r>  0.0000  0.1787  0.0338 </r>
        <r>  0.0000  0.0711  0.0733 </r>
       </set>
       <set comment="band 12">
        <r>  0.0000  0.1787  0.0338 </r>
        <r>  0.0000  0.0710  0.0733 </r>
       </set>
       <set comment="band 13">
        <r>  0.0040  0.0401  0.0190 </r>
        <r>  0.0015  0.1187  0.0049 </r>
       </set>
      </set>
      <set comment="kpoint 110">
       <set comment="band 1">
        <r>  0.0008  0.0007  0.9419 </r>
        <r>  0.0238  0.0001  0.0002 </r>
       </set>
       <set comment="band 2">
        <r>  0.0000  0.0001  0.9766 </r>
        <r>  0.0000  0.0028  0.0006 </r>
       </set>
       <set comment="band 3">
        <r>  0.0000  0.0001  0.9769 </r>
        <r>  0.0000  0.0030  0.0005 </r>
       </set>
       <set comment="band 4">
        <r>  0.0000  0.0000  0.9818 </r>
        <r>  0.0000  0.0000  0.0003 </r>
       </set>
       <set comment="band 5">
        <r>  0.0000  0.0000  0.9821 </r>
        <r>  0.0000  0.0000  0.0003 </r>
       </set>
       <set comment="band 6">
        <r>  0.0678  0.0233  0.0443 </r>
        <r>  0.5113  0.0024  0.0011 </r>
       </set>
       <set comment="band 7">
        <r>  0.2293  0.0444  0.0008 </r>
        <r>  0.0338  0.1717  0.0032 </r>
       </set>
       <set comment="band 8">
        <r>  0.0441  0.1148  0.0158 </r>
        <r>  0.0251  0.3075  0.0070 </r>
       </set>
       <set comment="band 9">
        <r>  0.0000  0.1356  0.0182 </r>
        <r>  0.0000  0.3890  0.0049 </r>
       </set>
       <set comment="band 10">
        <r>  0.1846  0.0637  0.0148 </r>
        <r>  0.1094  0.1300  0.0257 </r>
       </set>
       <set comment="band 11">
        <r>  0.0070  0.1417  0.0328 </r>
        <r>  0.0055  0.0747  0.0643 </r>
       </set>
       <set comment="band 12">
        <r>  0.0000  0.1761  0.0345 </r>
        <r>  0.0000  0.0832  0.0731 </r>
       </set>
       <set comment="band 13">
        <r>  0.0012  0.0926  0.0205 </r>
        <r>  0.0009  0.1956  0.0148 </r>
       </set>
      </set>
     </set>
    </set>
   </array>
  </projected>
 </calculation>
 <structure name="finalpos" >
  <crystal>
   <varray name="basis" >
    <v>       2.82500000       2.82500000       0.00000000 </v>
    <v>       0.00000000       2.82500000       2.82500000 </v>
    <v>       2.82500000       0.00000000       2.82500000 </v>
   </varray>
   <i name="volume">     45.09053125 </i>
   <varray name="rec_basis" >
    <v>       0.17699115       0.17699115      -0.17699115 </v>
    <v>      -0.17699115       0.17699115       0.17699115 </v>
    <v>       0.17699115      -0.17699115       0.17699115 </v>
   </varray>
  </crystal>
  <varray name="positions" >
   <v>       0.00000000       0.00000000       0.00000000 </v>
   <v>       0.25000000       0.25000000       0.25000000 </v>
  </varray>
 </structure>
</modeling>
