 vasp.5.3.5 31Mar14 (build Dec 14 2018 19:18:10) complex                        
 vasp.5.3.5 31Mar14 (build Dec 14 2018 19:18:10) complex                        
 vasp.5.3.5 31Mar14 (build Dec 14 2018 19:18:10) complex                        
 vasp.5.3.5 31Mar14 (build Dec 14 2018 19:18:10) complex                        
 vasp.5.3.5 31Mar14 (build Dec 14 2018 19:18:10) complex                        
 vasp.5.3.5 31Mar14 (build Dec 14 2018 19:18:10) complex                        
 vasp.5.3.5 31Mar14 (build Dec 14 2018 19:18:10) complex                        
 vasp.5.3.5 31Mar14 (build Dec 14 2018 19:18:10) complex                        
 vasp.5.3.5 31Mar14 (build Dec 14 2018 19:18:10) complex                        
 vasp.5.3.5 31Mar14 (build Dec 14 2018 19:18:10) complex                        
 vasp.5.3.5 31Mar14 (build Dec 14 2018 19:18:10) complex                        
 vasp.5.3.5 31Mar14 (build Dec 14 2018 19:18:10) complex                        
 vasp.5.3.5 31Mar14 (build Dec 14 2018 19:18:10) complex                        
 vasp.5.3.5 31Mar14 (build Dec 14 2018 19:18:10) complex                        
 vasp.5.3.5 31Mar14 (build Dec 14 2018 19:18:10) complex                        
 vasp.5.3.5 31Mar14 (build Dec 14 2018 19:18:10) complex                        
 vasp.5.3.5 31Mar14 (build Dec 14 2018 19:18:10) complex                        
 vasp.5.3.5 31Mar14 (build Dec 14 2018 19:18:10) complex                        
 vasp.5.3.5 31Mar14 (build Dec 14 2018 19:18:10) complex                        
 vasp.5.3.5 31Mar14 (build Dec 14 2018 19:18:10) complex                        
 vasp.5.3.5 31Mar14 (build Dec 14 2018 19:18:10) complex                        
 vasp.5.3.5 31Mar14 (build Dec 14 2018 19:18:10) complex                        
 vasp.5.3.5 31Mar14 (build Dec 14 2018 19:18:10) complex                        
 vasp.5.3.5 31Mar14 (build Dec 14 2018 19:18:10) complex                        
 vasp.5.3.5 31Mar14 (build Dec 14 2018 19:18:10) complex                        
 vasp.5.3.5 31Mar14 (build Dec 14 2018 19:18:10) complex                        
 vasp.5.3.5 31Mar14 (build Dec 14 2018 19:18:10) complex                        
 vasp.5.3.5 31Mar14 (build Dec 14 2018 19:18:10) complex                        
 vasp.5.3.5 31Mar14 (build Dec 14 2018 19:18:10) complex                        
 vasp.5.3.5 31Mar14 (build Dec 14 2018 19:18:10) complex                        
 vasp.5.3.5 31Mar14 (build Dec 14 2018 19:18:10) complex                        
 vasp.5.3.5 31Mar14 (build Dec 14 2018 19:18:10) complex                        
 vasp.5.3.5 31Mar14 (build Dec 14 2018 19:18:10) complex                        
 vasp.5.3.5 31Mar14 (build Dec 14 2018 19:18:10) complex                        
 vasp.5.3.5 31Mar14 (build Dec 14 2018 19:18:10) complex                        
 vasp.5.3.5 31Mar14 (build Dec 14 2018 19:18:10) complex                        
 vasp.5.3.5 31Mar14 (build Dec 14 2018 19:18:10) complex                        
 vasp.5.3.5 31Mar14 (build Dec 14 2018 19:18:10) complex                        
 vasp.5.3.5 31Mar14 (build Dec 14 2018 19:18:10) complex                        
 vasp.5.3.5 31Mar14 (build Dec 14 2018 19:18:10) complex                        
  
  
  
  
  
  
  
  
  
  
  
  
  
  
  
  
  
  
  
  
  
  
  
  
  
  
  
  
  
  
  
  
  
  
  
  
  
  
  
  
 POSCAR found type information on POSCAR  Ga As
 POSCAR found type information on POSCAR  Ga As
 POSCAR found type information on POSCAR  Ga As
 POSCAR found type information on POSCAR  Ga As
 POSCAR found type information on POSCAR  Ga As
 POSCAR found type information on POSCAR  Ga As
 POSCAR found type information on POSCAR  Ga As
 POSCAR found type information on POSCAR  Ga As
 POSCAR found type information on POSCAR  Ga As
 POSCAR found type information on POSCAR  Ga As
 POSCAR found type information on POSCAR  Ga As
 POSCAR found type information on POSCAR  Ga As
 POSCAR found type information on POSCAR  Ga As
 POSCAR found type information on POSCAR  Ga As
 POSCAR found type information on POSCAR  Ga As
 POSCAR found type information on POSCAR  Ga As
 POSCAR found type information on POSCAR  Ga As
 POSCAR found type information on POSCAR  Ga As
 POSCAR found type information on POSCAR  Ga As
 POSCAR found type information on POSCAR  Ga As
 POSCAR found type information on POSCAR  Ga As
 POSCAR found type information on POSCAR  Ga As
 POSCAR found type information on POSCAR  Ga As
 POSCAR found type information on POSCAR  Ga As
 POSCAR found type information on POSCAR  Ga As
 POSCAR found type information on POSCAR  Ga As
 POSCAR found type information on POSCAR  Ga As
 POSCAR found type information on POSCAR  Ga As
 POSCAR found type information on POSCAR  Ga As
 POSCAR found type information on POSCAR  Ga As
 POSCAR found type information on POSCAR  Ga As
 POSCAR found type information on POSCAR  Ga As
 POSCAR found type information on POSCAR  Ga As
 POSCAR found type information on POSCAR  Ga As
 POSCAR found type information on POSCAR  Ga As
 POSCAR found type information on POSCAR  Ga As
 POSCAR found type information on POSCAR  Ga As
 POSCAR found type information on POSCAR  Ga As
 POSCAR found type information on POSCAR  Ga As
 POSCAR found type information on POSCAR  Ga As
 POSCAR found :  2 types and       2 ions
 POSCAR found :  2 types and       2 ions
 POSCAR found :  2 types and       2 ions
 POSCAR found :  2 types and       2 ions
 POSCAR found :  2 types and       2 ions
 POSCAR found :  2 types and       2 ions
 POSCAR found :  2 types and       2 ions
 POSCAR found :  2 types and       2 ions
 POSCAR found :  2 types and       2 ions
 POSCAR found :  2 types and       2 ions
 POSCAR found :  2 types and       2 ions
 POSCAR found :  2 types and       2 ions
 POSCAR found :  2 types and       2 ions
 POSCAR found :  2 types and       2 ions
 POSCAR found :  2 types and       2 ions
 POSCAR found :  2 types and       2 ions
 POSCAR found :  2 types and       2 ions
 POSCAR found :  2 types and       2 ions
 POSCAR found :  2 types and       2 ions
 POSCAR found :  2 types and       2 ions
 POSCAR found :  2 types and       2 ions
 POSCAR found :  2 types and       2 ions
 POSCAR found :  2 types and       2 ions
 POSCAR found :  2 types and       2 ions
 POSCAR found :  2 types and       2 ions
 POSCAR found :  2 types and       2 ions
 POSCAR found :  2 types and       2 ions
 POSCAR found :  2 types and       2 ions
 POSCAR found :  2 types and       2 ions
 POSCAR found :  2 types and       2 ions
 POSCAR found :  2 types and       2 ions
 POSCAR found :  2 types and       2 ions
 POSCAR found :  2 types and       2 ions
 POSCAR found :  2 types and       2 ions
 POSCAR found :  2 types and       2 ions
 POSCAR found :  2 types and       2 ions
 POSCAR found :  2 types and       2 ions
 POSCAR found :  2 types and       2 ions
 POSCAR found :  2 types and       2 ions
 POSCAR found :  2 types and       2 ions
 LDA part: xc-table for Ceperly-Alder, standard interpolation
 LDA part: xc-table for Ceperly-Alder, standard interpolation
 LDA part: xc-table for Ceperly-Alder, standard interpolation
 LDA part: xc-table for Ceperly-Alder, standard interpolation
 LDA part: xc-table for Ceperly-Alder, standard interpolation
 LDA part: xc-table for Ceperly-Alder, standard interpolation
 LDA part: xc-table for Ceperly-Alder, standard interpolation
 LDA part: xc-table for Ceperly-Alder, standard interpolation
 LDA part: xc-table for Ceperly-Alder, standard interpolation
 LDA part: xc-table for Ceperly-Alder, standard interpolation
 LDA part: xc-table for Ceperly-Alder, standard interpolation
 LDA part: xc-table for Ceperly-Alder, standard interpolation
 LDA part: xc-table for Ceperly-Alder, standard interpolation
 LDA part: xc-table for Ceperly-Alder, standard interpolation
 LDA part: xc-table for Ceperly-Alder, standard interpolation
 LDA part: xc-table for Ceperly-Alder, standard interpolation
 LDA part: xc-table for Ceperly-Alder, standard interpolation
 LDA part: xc-table for Ceperly-Alder, standard interpolation
 LDA part: xc-table for Ceperly-Alder, standard interpolation
 LDA part: xc-table for Ceperly-Alder, standard interpolation
 LDA part: xc-table for Ceperly-Alder, standard interpolation
 LDA part: xc-table for Ceperly-Alder, standard interpolation
 LDA part: xc-table for Ceperly-Alder, standard interpolation
 LDA part: xc-table for Ceperly-Alder, standard interpolation
 LDA part: xc-table for Ceperly-Alder, standard interpolation
 LDA part: xc-table for Ceperly-Alder, standard interpolation
 LDA part: xc-table for Ceperly-Alder, standard interpolation
 LDA part: xc-table for Ceperly-Alder, standard interpolation
 LDA part: xc-table for Ceperly-Alder, standard interpolation
 LDA part: xc-table for Ceperly-Alder, standard interpolation
 LDA part: xc-table for Ceperly-Alder, standard interpolation
 LDA part: xc-table for Ceperly-Alder, standard interpolation
 LDA part: xc-table for Ceperly-Alder, standard interpolation
 LDA part: xc-table for Ceperly-Alder, standard interpolation
 LDA part: xc-table for Ceperly-Alder, standard interpolation
 LDA part: xc-table for Ceperly-Alder, standard interpolation
 LDA part: xc-table for Ceperly-Alder, standard interpolation
 LDA part: xc-table for Ceperly-Alder, standard interpolation
 LDA part: xc-table for Ceperly-Alder, standard interpolation
 LDA part: xc-table for Ceperly-Alder, standard interpolation
 POSCAR, INCAR and KPOINTS ok, starting setup
 POSCAR, INCAR and KPOINTS ok, starting setup
 POSCAR, INCAR and KPOINTS ok, starting setup
 POSCAR, INCAR and KPOINTS ok, starting setup
 WARNING: small aliasing (wrap around) errors must be expected
 WARNING: small aliasing (wrap around) errors must be expected
 WARNING: small aliasing (wrap around) errors must be expected
 WARNING: small aliasing (wrap around) errors must be expected
 FFT: planning ...
 FFT: planning ...
 FFT: planning ...
 FFT: planning ...
 WAVECAR not read
 WAVECAR not read
 WAVECAR not read
 WAVECAR not read
 POSCAR, INCAR and KPOINTS ok, starting setup
 WARNING: small aliasing (wrap around) errors must be expected
 FFT: planning ...
 WAVECAR not read
 POSCAR, INCAR and KPOINTS ok, starting setup
 WARNING: small aliasing (wrap around) errors must be expected
 FFT: planning ...
 WAVECAR not read
 POSCAR, INCAR and KPOINTS ok, starting setup
 POSCAR, INCAR and KPOINTS ok, starting setup
 WARNING: random wavefunctions but no delay for mixing, default for NELMDL
 WARNING: random wavefunctions but no delay for mixing, default for NELMDL
 WARNING: random wavefunctions but no delay for mixing, default for NELMDL
 WARNING: random wavefunctions but no delay for mixing, default for NELMDL
 WARNING: small aliasing (wrap around) errors must be expected
 FFT: planning ...
 WARNING: small aliasing (wrap around) errors must be expected
 FFT: planning ...
 POSCAR, INCAR and KPOINTS ok, starting setup
 WAVECAR not read
 WAVECAR not read
 WARNING: small aliasing (wrap around) errors must be expected
 FFT: planning ...
 WARNING: random wavefunctions but no delay for mixing, default for NELMDL
 WAVECAR not read
 WARNING: random wavefunctions but no delay for mixing, default for NELMDL
 POSCAR, INCAR and KPOINTS ok, starting setup
 POSCAR, INCAR and KPOINTS ok, starting setup
 WARNING: small aliasing (wrap around) errors must be expected
 FFT: planning ...
 WARNING: small aliasing (wrap around) errors must be expected
 WARNING: random wavefunctions but no delay for mixing, default for NELMDL
 FFT: planning ...
 WARNING: random wavefunctions but no delay for mixing, default for NELMDL
 WAVECAR not read
 POSCAR, INCAR and KPOINTS ok, starting setup
 WAVECAR not read
 POSCAR, INCAR and KPOINTS ok, starting setup
 POSCAR, INCAR and KPOINTS ok, starting setup
 WARNING: random wavefunctions but no delay for mixing, default for NELMDL
 WARNING: small aliasing (wrap around) errors must be expected
 FFT: planning ...
 WARNING: small aliasing (wrap around) errors must be expected
 WARNING: small aliasing (wrap around) errors must be expected
 FFT: planning ...
 FFT: planning ...
 WAVECAR not read
 WAVECAR not read
 WAVECAR not read
 WARNING: random wavefunctions but no delay for mixing, default for NELMDL
 WARNING: random wavefunctions but no delay for mixing, default for NELMDL
 WARNING: random wavefunctions but no delay for mixing, default for NELMDL
 WARNING: random wavefunctions but no delay for mixing, default for NELMDL
 POSCAR, INCAR and KPOINTS ok, starting setup
 POSCAR, INCAR and KPOINTS ok, starting setup
 WARNING: small aliasing (wrap around) errors must be expected
 FFT: planning ...
 WARNING: small aliasing (wrap around) errors must be expected
 FFT: planning ...
 POSCAR, INCAR and KPOINTS ok, starting setup
 POSCAR, INCAR and KPOINTS ok, starting setup
 WAVECAR not read
 WAVECAR not read
 WARNING: small aliasing (wrap around) errors must be expected
 WARNING: small aliasing (wrap around) errors must be expected
 FFT: planning ...
 FFT: planning ...
 WAVECAR not read
 WAVECAR not read
 POSCAR, INCAR and KPOINTS ok, starting setup
 WARNING: small aliasing (wrap around) errors must be expected
 FFT: planning ...
 WAVECAR not read
 WARNING: random wavefunctions but no delay for mixing, default for NELMDL
 WARNING: random wavefunctions but no delay for mixing, default for NELMDL
 POSCAR, INCAR and KPOINTS ok, starting setup
 POSCAR, INCAR and KPOINTS ok, starting setup
 WARNING: small aliasing (wrap around) errors must be expected
 FFT: planning ...
 POSCAR, INCAR and KPOINTS ok, starting setup
 WARNING: random wavefunctions but no delay for mixing, default for NELMDL
 WARNING: random wavefunctions but no delay for mixing, default for NELMDL
 WARNING: small aliasing (wrap around) errors must be expected
 FFT: planning ...
 WAVECAR not read
 POSCAR, INCAR and KPOINTS ok, starting setup
 POSCAR, INCAR and KPOINTS ok, starting setup
 WAVECAR not read
 WARNING: small aliasing (wrap around) errors must be expected
 FFT: planning ...
 WARNING: small aliasing (wrap around) errors must be expected
 FFT: planning ...
 WARNING: small aliasing (wrap around) errors must be expected
 WAVECAR not read
 FFT: planning ...
 WAVECAR not read
 WARNING: random wavefunctions but no delay for mixing, default for NELMDL
 WAVECAR not read
 POSCAR, INCAR and KPOINTS ok, starting setup
 POSCAR, INCAR and KPOINTS ok, starting setup
 WARNING: small aliasing (wrap around) errors must be expected
 FFT: planning ...
 WARNING: small aliasing (wrap around) errors must be expected
 WAVECAR not read
 FFT: planning ...
 POSCAR, INCAR and KPOINTS ok, starting setup
 POSCAR, INCAR and KPOINTS ok, starting setup
 WARNING: random wavefunctions but no delay for mixing, default for NELMDL
 WAVECAR not read
 WARNING: random wavefunctions but no delay for mixing, default for NELMDL
 WARNING: small aliasing (wrap around) errors must be expected
 WARNING: small aliasing (wrap around) errors must be expected
 FFT: planning ...
 FFT: planning ...
 WAVECAR not read
 WAVECAR not read
 WARNING: random wavefunctions but no delay for mixing, default for NELMDL
 WARNING: random wavefunctions but no delay for mixing, default for NELMDL
 POSCAR, INCAR and KPOINTS ok, starting setup
 WARNING: small aliasing (wrap around) errors must be expected
 FFT: planning ...
 POSCAR, INCAR and KPOINTS ok, starting setup
 POSCAR, INCAR and KPOINTS ok, starting setup
 WAVECAR not read
 WARNING: small aliasing (wrap around) errors must be expected
 WARNING: small aliasing (wrap around) errors must be expected
 FFT: planning ...
 FFT: planning ...
 WARNING: random wavefunctions but no delay for mixing, default for NELMDL
 WAVECAR not read
 WAVECAR not read
 WARNING: random wavefunctions but no delay for mixing, default for NELMDL
 WARNING: random wavefunctions but no delay for mixing, default for NELMDL
 WARNING: random wavefunctions but no delay for mixing, default for NELMDL
 POSCAR, INCAR and KPOINTS ok, starting setup
 WARNING: small aliasing (wrap around) errors must be expected
 FFT: planning ...
 POSCAR, INCAR and KPOINTS ok, starting setup
 WARNING: random wavefunctions but no delay for mixing, default for NELMDL
 WAVECAR not read
 WARNING: small aliasing (wrap around) errors must be expected
 FFT: planning ...
 WARNING: random wavefunctions but no delay for mixing, default for NELMDL
 WARNING: random wavefunctions but no delay for mixing, default for NELMDL
 WAVECAR not read
 POSCAR, INCAR and KPOINTS ok, starting setup
 WARNING: small aliasing (wrap around) errors must be expected
 FFT: planning ...
 WARNING: random wavefunctions but no delay for mixing, default for NELMDL
 WAVECAR not read
 WARNING: random wavefunctions but no delay for mixing, default for NELMDL
 entering main loop
 entering main loop
 POSCAR, INCAR and KPOINTS ok, starting setup
 POSCAR, INCAR and KPOINTS ok, starting setup
 WARNING: random wavefunctions but no delay for mixing, default for NELMDL
 WARNING: small aliasing (wrap around) errors must be expected
 FFT: planning ...
 WARNING: small aliasing (wrap around) errors must be expected
 FFT: planning ...
 POSCAR, INCAR and KPOINTS ok, starting setup
 POSCAR, INCAR and KPOINTS ok, starting setup
 POSCAR, INCAR and KPOINTS ok, starting setup
 POSCAR, INCAR and KPOINTS ok, starting setup
 WAVECAR not read
 WAVECAR not read
 entering main loop
 WARNING: small aliasing (wrap around) errors must be expected
 WARNING: small aliasing (wrap around) errors must be expected
 WARNING: small aliasing (wrap around) errors must be expected
 WARNING: small aliasing (wrap around) errors must be expected
 FFT: planning ...
 FFT: planning ...
 FFT: planning ...
 FFT: planning ...
 entering main loop
 WAVECAR not read
 WAVECAR not read
 WAVECAR not read
 WAVECAR not read
 entering main loop
 entering main loop
 entering main loop
 entering main loop
       N       E                     dE             d eps       ncg     rms          rms(c)
       N       E                     dE             d eps       ncg     rms          rms(c)
       N       E                     dE             d eps       ncg     rms          rms(c)
       N       E                     dE             d eps       ncg     rms          rms(c)
       N       E                     dE             d eps       ncg     rms          rms(c)
       N       E                     dE             d eps       ncg     rms          rms(c)
 entering main loop
       N       E                     dE             d eps       ncg     rms          rms(c)
       N       E                     dE             d eps       ncg     rms          rms(c)
 WARNING: random wavefunctions but no delay for mixing, default for NELMDL
 WARNING: random wavefunctions but no delay for mixing, default for NELMDL
 WARNING: random wavefunctions but no delay for mixing, default for NELMDL
 WARNING: random wavefunctions but no delay for mixing, default for NELMDL
 WARNING: random wavefunctions but no delay for mixing, default for NELMDL
 WARNING: random wavefunctions but no delay for mixing, default for NELMDL
       N       E                     dE             d eps       ncg     rms          rms(c)
 entering main loop
 entering main loop
 entering main loop
 entering main loop
       N       E                     dE             d eps       ncg     rms          rms(c)
       N       E                     dE             d eps       ncg     rms          rms(c)
       N       E                     dE             d eps       ncg     rms          rms(c)
       N       E                     dE             d eps       ncg     rms          rms(c)
 entering main loop
 entering main loop
 entering main loop
 entering main loop
       N       E                     dE             d eps       ncg     rms          rms(c)
 entering main loop
 entering main loop
       N       E                     dE             d eps       ncg     rms          rms(c)
       N       E                     dE             d eps       ncg     rms          rms(c)
       N       E                     dE             d eps       ncg     rms          rms(c)
       N       E                     dE             d eps       ncg     rms          rms(c)
       N       E                     dE             d eps       ncg     rms          rms(c)
 entering main loop
 entering main loop
 entering main loop
       N       E                     dE             d eps       ncg     rms          rms(c)
 entering main loop
 entering main loop
 entering main loop
 entering main loop
 entering main loop
 entering main loop
       N       E                     dE             d eps       ncg     rms          rms(c)
 entering main loop
       N       E                     dE             d eps       ncg     rms          rms(c)
 entering main loop
 entering main loop
 entering main loop
       N       E                     dE             d eps       ncg     rms          rms(c)
       N       E                     dE             d eps       ncg     rms          rms(c)
       N       E                     dE             d eps       ncg     rms          rms(c)
       N       E                     dE             d eps       ncg     rms          rms(c)
       N       E                     dE             d eps       ncg     rms          rms(c)
 entering main loop
 entering main loop
       N       E                     dE             d eps       ncg     rms          rms(c)
       N       E                     dE             d eps       ncg     rms          rms(c)
       N       E                     dE             d eps       ncg     rms          rms(c)
       N       E                     dE             d eps       ncg     rms          rms(c)
       N       E                     dE             d eps       ncg     rms          rms(c)
       N       E                     dE             d eps       ncg     rms          rms(c)
       N       E                     dE             d eps       ncg     rms          rms(c)
 entering main loop
 entering main loop
 entering main loop
 entering main loop
 entering main loop
 entering main loop
       N       E                     dE             d eps       ncg     rms          rms(c)
       N       E                     dE             d eps       ncg     rms          rms(c)
       N       E                     dE             d eps       ncg     rms          rms(c)
       N       E                     dE             d eps       ncg     rms          rms(c)
       N       E                     dE             d eps       ncg     rms          rms(c)
       N       E                     dE             d eps       ncg     rms          rms(c)
DAV:   1     0.650962248058E+02    0.65096E+02   -0.68494E+03  2873   0.153E+03
DAV:   1     0.650962248058E+02    0.65096E+02   -0.68494E+03  2873   0.153E+03
DAV:   1     0.650962248058E+02    0.65096E+02   -0.68494E+03  2873   0.153E+03
DAV:   1     0.650962248058E+02    0.65096E+02   -0.68494E+03  2873   0.153E+03
DAV:   1     0.650962248058E+02    0.65096E+02   -0.68494E+03  2873   0.153E+03
DAV:   1     0.650962248058E+02    0.65096E+02   -0.68494E+03  2873   0.153E+03
DAV:   1     0.650962248058E+02    0.65096E+02   -0.68494E+03  2873   0.153E+03
DAV:   1     0.650962248058E+02    0.65096E+02   -0.68494E+03  2873   0.153E+03
DAV:   1     0.650962248058E+02    0.65096E+02   -0.68494E+03  2873   0.153E+03
DAV:   1     0.650962248058E+02    0.65096E+02   -0.68494E+03  2873   0.153E+03
DAV:   1     0.650962248058E+02    0.65096E+02   -0.68494E+03  2873   0.153E+03
DAV:   1     0.650962248058E+02    0.65096E+02   -0.68494E+03  2873   0.153E+03
DAV:   1     0.650962248058E+02    0.65096E+02   -0.68494E+03  2873   0.153E+03
DAV:   1     0.650962248058E+02    0.65096E+02   -0.68494E+03  2873   0.153E+03
DAV:   1     0.650962248058E+02    0.65096E+02   -0.68494E+03  2873   0.153E+03
DAV:   1     0.650962248058E+02    0.65096E+02   -0.68494E+03  2873   0.153E+03
DAV:   1     0.650962248058E+02    0.65096E+02   -0.68494E+03  2873   0.153E+03
DAV:   1     0.650962248058E+02    0.65096E+02   -0.68494E+03  2873   0.153E+03
DAV:   1     0.650962248058E+02    0.65096E+02   -0.68494E+03  2873   0.153E+03
DAV:   1     0.650962248058E+02    0.65096E+02   -0.68494E+03  2873   0.153E+03
DAV:   1     0.650962248058E+02    0.65096E+02   -0.68494E+03  2873   0.153E+03
DAV:   1     0.650962248058E+02    0.65096E+02   -0.68494E+03  2873   0.153E+03
DAV:   1     0.650962248058E+02    0.65096E+02   -0.68494E+03  2873   0.153E+03
DAV:   1     0.650962248058E+02    0.65096E+02   -0.68494E+03  2873   0.153E+03
DAV:   1     0.650962248058E+02    0.65096E+02   -0.68494E+03  2873   0.153E+03
DAV:   1     0.650962248058E+02    0.65096E+02   -0.68494E+03  2873   0.153E+03
DAV:   1     0.650962248058E+02    0.65096E+02   -0.68494E+03  2873   0.153E+03
DAV:   1     0.650962248058E+02    0.65096E+02   -0.68494E+03  2873   0.153E+03
DAV:   1     0.650962248058E+02    0.65096E+02   -0.68494E+03  2873   0.153E+03
DAV:   1     0.650962248058E+02    0.65096E+02   -0.68494E+03  2873   0.153E+03
DAV:   1     0.650962248058E+02    0.65096E+02   -0.68494E+03  2873   0.153E+03
DAV:   1     0.650962248058E+02    0.65096E+02   -0.68494E+03  2873   0.153E+03
DAV:   1     0.650962248058E+02    0.65096E+02   -0.68494E+03  2873   0.153E+03
DAV:   1     0.650962248058E+02    0.65096E+02   -0.68494E+03  2873   0.153E+03
DAV:   1     0.650962248058E+02    0.65096E+02   -0.68494E+03  2873   0.153E+03
DAV:   1     0.650962248058E+02    0.65096E+02   -0.68494E+03  2873   0.153E+03
DAV:   1     0.650962248058E+02    0.65096E+02   -0.68494E+03  2873   0.153E+03
DAV:   1     0.650962248058E+02    0.65096E+02   -0.68494E+03  2873   0.153E+03
DAV:   1     0.650962248058E+02    0.65096E+02   -0.68494E+03  2873   0.153E+03
DAV:   1     0.650962248058E+02    0.65096E+02   -0.68494E+03  2873   0.153E+03
DAV:   2    -0.457114536064E+01   -0.69667E+02   -0.67702E+02  3015   0.266E+02
DAV:   2    -0.457114536064E+01   -0.69667E+02   -0.67702E+02  3015   0.266E+02
DAV:   2    -0.457114536064E+01   -0.69667E+02   -0.67702E+02  3015   0.266E+02
DAV:   2    -0.457114536064E+01   -0.69667E+02   -0.67702E+02  3015   0.266E+02
DAV:   2    -0.457114536064E+01   -0.69667E+02   -0.67702E+02  3015   0.266E+02
DAV:   2    -0.457114536064E+01   -0.69667E+02   -0.67702E+02  3015   0.266E+02
DAV:   2    -0.457114536064E+01   -0.69667E+02   -0.67702E+02  3015   0.266E+02
DAV:   2    -0.457114536064E+01   -0.69667E+02   -0.67702E+02  3015   0.266E+02
DAV:   2    -0.457114536064E+01   -0.69667E+02   -0.67702E+02  3015   0.266E+02
DAV:   2    -0.457114536064E+01   -0.69667E+02   -0.67702E+02  3015   0.266E+02
DAV:   2    -0.457114536064E+01   -0.69667E+02   -0.67702E+02  3015   0.266E+02
DAV:   2    -0.457114536064E+01   -0.69667E+02   -0.67702E+02  3015   0.266E+02
DAV:   2    -0.457114536064E+01   -0.69667E+02   -0.67702E+02  3015   0.266E+02
DAV:   2    -0.457114536064E+01   -0.69667E+02   -0.67702E+02  3015   0.266E+02
DAV:   2    -0.457114536064E+01   -0.69667E+02   -0.67702E+02  3015   0.266E+02
DAV:   2    -0.457114536064E+01   -0.69667E+02   -0.67702E+02  3015   0.266E+02
DAV:   2    -0.457114536064E+01   -0.69667E+02   -0.67702E+02  3015   0.266E+02
DAV:   2    -0.457114536064E+01   -0.69667E+02   -0.67702E+02  3015   0.266E+02
DAV:   2    -0.457114536064E+01   -0.69667E+02   -0.67702E+02  3015   0.266E+02
DAV:   2    -0.457114536064E+01   -0.69667E+02   -0.67702E+02  3015   0.266E+02
DAV:   2    -0.457114536064E+01   -0.69667E+02   -0.67702E+02  3015   0.266E+02
DAV:   2    -0.457114536064E+01   -0.69667E+02   -0.67702E+02  3015   0.266E+02
DAV:   2    -0.457114536064E+01   -0.69667E+02   -0.67702E+02  3015   0.266E+02
DAV:   2    -0.457114536064E+01   -0.69667E+02   -0.67702E+02  3015   0.266E+02
DAV:   2    -0.457114536064E+01   -0.69667E+02   -0.67702E+02  3015   0.266E+02
DAV:   2    -0.457114536064E+01   -0.69667E+02   -0.67702E+02  3015   0.266E+02
DAV:   2    -0.457114536064E+01   -0.69667E+02   -0.67702E+02  3015   0.266E+02
DAV:   2    -0.457114536064E+01   -0.69667E+02   -0.67702E+02  3015   0.266E+02
DAV:   2    -0.457114536064E+01   -0.69667E+02   -0.67702E+02  3015   0.266E+02
DAV:   2    -0.457114536064E+01   -0.69667E+02   -0.67702E+02  3015   0.266E+02
DAV:   2    -0.457114536064E+01   -0.69667E+02   -0.67702E+02  3015   0.266E+02
DAV:   2    -0.457114536064E+01   -0.69667E+02   -0.67702E+02  3015   0.266E+02
DAV:   2    -0.457114536064E+01   -0.69667E+02   -0.67702E+02  3015   0.266E+02
DAV:   2    -0.457114536064E+01   -0.69667E+02   -0.67702E+02  3015   0.266E+02
DAV:   2    -0.457114536064E+01   -0.69667E+02   -0.67702E+02  3015   0.266E+02
DAV:   2    -0.457114536064E+01   -0.69667E+02   -0.67702E+02  3015   0.266E+02
DAV:   2    -0.457114536064E+01   -0.69667E+02   -0.67702E+02  3015   0.266E+02
DAV:   2    -0.457114536064E+01   -0.69667E+02   -0.67702E+02  3015   0.266E+02
DAV:   2    -0.457114536064E+01   -0.69667E+02   -0.67702E+02  3015   0.266E+02
DAV:   2    -0.457114536064E+01   -0.69667E+02   -0.67702E+02  3015   0.266E+02
DAV:   3    -0.976082377109E+01   -0.51897E+01   -0.51689E+01  3665   0.681E+01
DAV:   3    -0.976082377109E+01   -0.51897E+01   -0.51689E+01  3665   0.681E+01
DAV:   3    -0.976082377109E+01   -0.51897E+01   -0.51689E+01  3665   0.681E+01
DAV:   3    -0.976082377109E+01   -0.51897E+01   -0.51689E+01  3665   0.681E+01
DAV:   3    -0.976082377109E+01   -0.51897E+01   -0.51689E+01  3665   0.681E+01
DAV:   3    -0.976082377109E+01   -0.51897E+01   -0.51689E+01  3665   0.681E+01
DAV:   3    -0.976082377109E+01   -0.51897E+01   -0.51689E+01  3665   0.681E+01
DAV:   3    -0.976082377109E+01   -0.51897E+01   -0.51689E+01  3665   0.681E+01
DAV:   3    -0.976082377109E+01   -0.51897E+01   -0.51689E+01  3665   0.681E+01
DAV:   3    -0.976082377109E+01   -0.51897E+01   -0.51689E+01  3665   0.681E+01
DAV:   3    -0.976082377109E+01   -0.51897E+01   -0.51689E+01  3665   0.681E+01
DAV:   3    -0.976082377109E+01   -0.51897E+01   -0.51689E+01  3665   0.681E+01
DAV:   3    -0.976082377109E+01   -0.51897E+01   -0.51689E+01  3665   0.681E+01
DAV:   3    -0.976082377109E+01   -0.51897E+01   -0.51689E+01  3665   0.681E+01
DAV:   3    -0.976082377109E+01   -0.51897E+01   -0.51689E+01  3665   0.681E+01
DAV:   3    -0.976082377109E+01   -0.51897E+01   -0.51689E+01  3665   0.681E+01
DAV:   3    -0.976082377109E+01   -0.51897E+01   -0.51689E+01  3665   0.681E+01
DAV:   3    -0.976082377109E+01   -0.51897E+01   -0.51689E+01  3665   0.681E+01
DAV:   3    -0.976082377109E+01   -0.51897E+01   -0.51689E+01  3665   0.681E+01
DAV:   3    -0.976082377109E+01   -0.51897E+01   -0.51689E+01  3665   0.681E+01
DAV:   3    -0.976082377109E+01   -0.51897E+01   -0.51689E+01  3665   0.681E+01
DAV:   3    -0.976082377109E+01   -0.51897E+01   -0.51689E+01  3665   0.681E+01
DAV:   3    -0.976082377109E+01   -0.51897E+01   -0.51689E+01  3665   0.681E+01
DAV:   3    -0.976082377109E+01   -0.51897E+01   -0.51689E+01  3665   0.681E+01
DAV:   3    -0.976082377109E+01   -0.51897E+01   -0.51689E+01  3665   0.681E+01
DAV:   3    -0.976082377109E+01   -0.51897E+01   -0.51689E+01  3665   0.681E+01
DAV:   3    -0.976082377109E+01   -0.51897E+01   -0.51689E+01  3665   0.681E+01
DAV:   3    -0.976082377109E+01   -0.51897E+01   -0.51689E+01  3665   0.681E+01
DAV:   3    -0.976082377109E+01   -0.51897E+01   -0.51689E+01  3665   0.681E+01
DAV:   3    -0.976082377109E+01   -0.51897E+01   -0.51689E+01  3665   0.681E+01
DAV:   3    -0.976082377109E+01   -0.51897E+01   -0.51689E+01  3665   0.681E+01
DAV:   3    -0.976082377109E+01   -0.51897E+01   -0.51689E+01  3665   0.681E+01
DAV:   3    -0.976082377109E+01   -0.51897E+01   -0.51689E+01  3665   0.681E+01
DAV:   3    -0.976082377109E+01   -0.51897E+01   -0.51689E+01  3665   0.681E+01
DAV:   3    -0.976082377109E+01   -0.51897E+01   -0.51689E+01  3665   0.681E+01
DAV:   3    -0.976082377109E+01   -0.51897E+01   -0.51689E+01  3665   0.681E+01
DAV:   3    -0.976082377109E+01   -0.51897E+01   -0.51689E+01  3665   0.681E+01
DAV:   3    -0.976082377109E+01   -0.51897E+01   -0.51689E+01  3665   0.681E+01
DAV:   3    -0.976082377109E+01   -0.51897E+01   -0.51689E+01  3665   0.681E+01
DAV:   3    -0.976082377109E+01   -0.51897E+01   -0.51689E+01  3665   0.681E+01
DAV:   4    -0.983345602060E+01   -0.72632E-01   -0.72621E-01  3095   0.913E+00
DAV:   4    -0.983345602060E+01   -0.72632E-01   -0.72621E-01  3095   0.913E+00
DAV:   4    -0.983345602060E+01   -0.72632E-01   -0.72621E-01  3095   0.913E+00
DAV:   4    -0.983345602060E+01   -0.72632E-01   -0.72621E-01  3095   0.913E+00
DAV:   4    -0.983345602060E+01   -0.72632E-01   -0.72621E-01  3095   0.913E+00
DAV:   4    -0.983345602060E+01   -0.72632E-01   -0.72621E-01  3095   0.913E+00
DAV:   4    -0.983345602060E+01   -0.72632E-01   -0.72621E-01  3095   0.913E+00
DAV:   4    -0.983345602060E+01   -0.72632E-01   -0.72621E-01  3095   0.913E+00
DAV:   4    -0.983345602060E+01   -0.72632E-01   -0.72621E-01  3095   0.913E+00
DAV:   4    -0.983345602060E+01   -0.72632E-01   -0.72621E-01  3095   0.913E+00
DAV:   4    -0.983345602060E+01   -0.72632E-01   -0.72621E-01  3095   0.913E+00
DAV:   4    -0.983345602060E+01   -0.72632E-01   -0.72621E-01  3095   0.913E+00
DAV:   4    -0.983345602060E+01   -0.72632E-01   -0.72621E-01  3095   0.913E+00
DAV:   4    -0.983345602060E+01   -0.72632E-01   -0.72621E-01  3095   0.913E+00
DAV:   4    -0.983345602060E+01   -0.72632E-01   -0.72621E-01  3095   0.913E+00
DAV:   4    -0.983345602060E+01   -0.72632E-01   -0.72621E-01  3095   0.913E+00
DAV:   4    -0.983345602060E+01   -0.72632E-01   -0.72621E-01  3095   0.913E+00
DAV:   4    -0.983345602060E+01   -0.72632E-01   -0.72621E-01  3095   0.913E+00
DAV:   4    -0.983345602060E+01   -0.72632E-01   -0.72621E-01  3095   0.913E+00
DAV:   4    -0.983345602060E+01   -0.72632E-01   -0.72621E-01  3095   0.913E+00
DAV:   4    -0.983345602060E+01   -0.72632E-01   -0.72621E-01  3095   0.913E+00
DAV:   4    -0.983345602060E+01   -0.72632E-01   -0.72621E-01  3095   0.913E+00
DAV:   4    -0.983345602060E+01   -0.72632E-01   -0.72621E-01  3095   0.913E+00
DAV:   4    -0.983345602060E+01   -0.72632E-01   -0.72621E-01  3095   0.913E+00
DAV:   4    -0.983345602060E+01   -0.72632E-01   -0.72621E-01  3095   0.913E+00
DAV:   4    -0.983345602060E+01   -0.72632E-01   -0.72621E-01  3095   0.913E+00
DAV:   4    -0.983345602060E+01   -0.72632E-01   -0.72621E-01  3095   0.913E+00
DAV:   4    -0.983345602060E+01   -0.72632E-01   -0.72621E-01  3095   0.913E+00
DAV:   4    -0.983345602060E+01   -0.72632E-01   -0.72621E-01  3095   0.913E+00
DAV:   4    -0.983345602060E+01   -0.72632E-01   -0.72621E-01  3095   0.913E+00
DAV:   4    -0.983345602060E+01   -0.72632E-01   -0.72621E-01  3095   0.913E+00
DAV:   4    -0.983345602060E+01   -0.72632E-01   -0.72621E-01  3095   0.913E+00
DAV:   4    -0.983345602060E+01   -0.72632E-01   -0.72621E-01  3095   0.913E+00
DAV:   4    -0.983345602060E+01   -0.72632E-01   -0.72621E-01  3095   0.913E+00
DAV:   4    -0.983345602060E+01   -0.72632E-01   -0.72621E-01  3095   0.913E+00
DAV:   4    -0.983345602060E+01   -0.72632E-01   -0.72621E-01  3095   0.913E+00
DAV:   4    -0.983345602060E+01   -0.72632E-01   -0.72621E-01  3095   0.913E+00
DAV:   4    -0.983345602060E+01   -0.72632E-01   -0.72621E-01  3095   0.913E+00
DAV:   4    -0.983345602060E+01   -0.72632E-01   -0.72621E-01  3095   0.913E+00
DAV:   4    -0.983345602060E+01   -0.72632E-01   -0.72621E-01  3095   0.913E+00
DAV:   5    -0.983417193086E+01   -0.71591E-03   -0.71590E-03  3555   0.895E-01    0.246E+00
DAV:   5    -0.983417193086E+01   -0.71591E-03   -0.71590E-03  3555   0.895E-01    0.246E+00
DAV:   5    -0.983417193086E+01   -0.71591E-03   -0.71590E-03  3555   0.895E-01    0.246E+00
DAV:   5    -0.983417193086E+01   -0.71591E-03   -0.71590E-03  3555   0.895E-01    0.246E+00
DAV:   5    -0.983417193086E+01   -0.71591E-03   -0.71590E-03  3555   0.895E-01    0.246E+00
DAV:   5    -0.983417193086E+01   -0.71591E-03   -0.71590E-03  3555   0.895E-01    0.246E+00
DAV:   5    -0.983417193086E+01   -0.71591E-03   -0.71590E-03  3555   0.895E-01    0.246E+00
DAV:   5    -0.983417193086E+01   -0.71591E-03   -0.71590E-03  3555   0.895E-01    0.246E+00
DAV:   5    -0.983417193086E+01   -0.71591E-03   -0.71590E-03  3555   0.895E-01    0.246E+00
DAV:   5    -0.983417193086E+01   -0.71591E-03   -0.71590E-03  3555   0.895E-01    0.246E+00
DAV:   5    -0.983417193086E+01   -0.71591E-03   -0.71590E-03  3555   0.895E-01    0.246E+00
DAV:   5    -0.983417193086E+01   -0.71591E-03   -0.71590E-03  3555   0.895E-01    0.246E+00
DAV:   5    -0.983417193086E+01   -0.71591E-03   -0.71590E-03  3555   0.895E-01    0.246E+00
DAV:   5    -0.983417193086E+01   -0.71591E-03   -0.71590E-03  3555   0.895E-01    0.246E+00
DAV:   5    -0.983417193086E+01   -0.71591E-03   -0.71590E-03  3555   0.895E-01    0.246E+00
DAV:   5    -0.983417193086E+01   -0.71591E-03   -0.71590E-03  3555   0.895E-01    0.246E+00
DAV:   5    -0.983417193086E+01   -0.71591E-03   -0.71590E-03  3555   0.895E-01    0.246E+00
DAV:   5    -0.983417193086E+01   -0.71591E-03   -0.71590E-03  3555   0.895E-01    0.246E+00
DAV:   5    -0.983417193086E+01   -0.71591E-03   -0.71590E-03  3555   0.895E-01    0.246E+00
DAV:   5    -0.983417193086E+01   -0.71591E-03   -0.71590E-03  3555   0.895E-01    0.246E+00
DAV:   5    -0.983417193086E+01   -0.71591E-03   -0.71590E-03  3555   0.895E-01    0.246E+00
DAV:   5    -0.983417193086E+01   -0.71591E-03   -0.71590E-03  3555   0.895E-01    0.246E+00
DAV:   5    -0.983417193086E+01   -0.71591E-03   -0.71590E-03  3555   0.895E-01    0.246E+00
DAV:   5    -0.983417193086E+01   -0.71591E-03   -0.71590E-03  3555   0.895E-01    0.246E+00
DAV:   5    -0.983417193086E+01   -0.71591E-03   -0.71590E-03  3555   0.895E-01    0.246E+00
DAV:   5    -0.983417193086E+01   -0.71591E-03   -0.71590E-03  3555   0.895E-01    0.246E+00
DAV:   5    -0.983417193086E+01   -0.71591E-03   -0.71590E-03  3555   0.895E-01    0.246E+00
DAV:   5    -0.983417193086E+01   -0.71591E-03   -0.71590E-03  3555   0.895E-01    0.246E+00
DAV:   5    -0.983417193086E+01   -0.71591E-03   -0.71590E-03  3555   0.895E-01    0.246E+00
DAV:   5    -0.983417193086E+01   -0.71591E-03   -0.71590E-03  3555   0.895E-01    0.246E+00
DAV:   5    -0.983417193086E+01   -0.71591E-03   -0.71590E-03  3555   0.895E-01    0.246E+00
DAV:   5    -0.983417193086E+01   -0.71591E-03   -0.71590E-03  3555   0.895E-01    0.246E+00
DAV:   5    -0.983417193086E+01   -0.71591E-03   -0.71590E-03  3555   0.895E-01    0.246E+00
DAV:   5    -0.983417193086E+01   -0.71591E-03   -0.71590E-03  3555   0.895E-01    0.246E+00
DAV:   5    -0.983417193086E+01   -0.71591E-03   -0.71590E-03  3555   0.895E-01    0.246E+00
DAV:   5    -0.983417193086E+01   -0.71591E-03   -0.71590E-03  3555   0.895E-01    0.246E+00
DAV:   5    -0.983417193086E+01   -0.71591E-03   -0.71590E-03  3555   0.895E-01    0.246E+00
DAV:   5    -0.983417193086E+01   -0.71591E-03   -0.71590E-03  3555   0.895E-01    0.246E+00
DAV:   5    -0.983417193086E+01   -0.71591E-03   -0.71590E-03  3555   0.895E-01    0.246E+00
DAV:   5    -0.983417193086E+01   -0.71591E-03   -0.71590E-03  3555   0.895E-01    0.246E+00
DAV:   6    -0.965023590496E+01    0.18394E+00   -0.25754E-01  4396   0.106E+01    0.130E+00
DAV:   6    -0.965023590496E+01    0.18394E+00   -0.25754E-01  4396   0.106E+01    0.130E+00
DAV:   6    -0.965023590496E+01    0.18394E+00   -0.25754E-01  4396   0.106E+01    0.130E+00
DAV:   6    -0.965023590496E+01    0.18394E+00   -0.25754E-01  4396   0.106E+01    0.130E+00
DAV:   6    -0.965023590496E+01    0.18394E+00   -0.25754E-01  4396   0.106E+01    0.130E+00
DAV:   6    -0.965023590496E+01    0.18394E+00   -0.25754E-01  4396   0.106E+01    0.130E+00
DAV:   6    -0.965023590496E+01    0.18394E+00   -0.25754E-01  4396   0.106E+01    0.130E+00
DAV:   6    -0.965023590496E+01    0.18394E+00   -0.25754E-01  4396   0.106E+01    0.130E+00
DAV:   6    -0.965023590496E+01    0.18394E+00   -0.25754E-01  4396   0.106E+01    0.130E+00
DAV:   6    -0.965023590496E+01    0.18394E+00   -0.25754E-01  4396   0.106E+01    0.130E+00
DAV:   6    -0.965023590496E+01    0.18394E+00   -0.25754E-01  4396   0.106E+01    0.130E+00
DAV:   6    -0.965023590496E+01    0.18394E+00   -0.25754E-01  4396   0.106E+01    0.130E+00
DAV:   6    -0.965023590496E+01    0.18394E+00   -0.25754E-01  4396   0.106E+01    0.130E+00
DAV:   6    -0.965023590496E+01    0.18394E+00   -0.25754E-01  4396   0.106E+01    0.130E+00
DAV:   6    -0.965023590496E+01    0.18394E+00   -0.25754E-01  4396   0.106E+01    0.130E+00
DAV:   6    -0.965023590496E+01    0.18394E+00   -0.25754E-01  4396   0.106E+01    0.130E+00
DAV:   6    -0.965023590496E+01    0.18394E+00   -0.25754E-01  4396   0.106E+01    0.130E+00
DAV:   6    -0.965023590496E+01    0.18394E+00   -0.25754E-01  4396   0.106E+01    0.130E+00
DAV:   6    -0.965023590496E+01    0.18394E+00   -0.25754E-01  4396   0.106E+01    0.130E+00
DAV:   6    -0.965023590496E+01    0.18394E+00   -0.25754E-01  4396   0.106E+01    0.130E+00
DAV:   6    -0.965023590496E+01    0.18394E+00   -0.25754E-01  4396   0.106E+01    0.130E+00
DAV:   6    -0.965023590496E+01    0.18394E+00   -0.25754E-01  4396   0.106E+01    0.130E+00
DAV:   6    -0.965023590496E+01    0.18394E+00   -0.25754E-01  4396   0.106E+01    0.130E+00
DAV:   6    -0.965023590496E+01    0.18394E+00   -0.25754E-01  4396   0.106E+01    0.130E+00
DAV:   6    -0.965023590496E+01    0.18394E+00   -0.25754E-01  4396   0.106E+01    0.130E+00
DAV:   6    -0.965023590496E+01    0.18394E+00   -0.25754E-01  4396   0.106E+01    0.130E+00
DAV:   6    -0.965023590496E+01    0.18394E+00   -0.25754E-01  4396   0.106E+01    0.130E+00
DAV:   6    -0.965023590496E+01    0.18394E+00   -0.25754E-01  4396   0.106E+01    0.130E+00
DAV:   6    -0.965023590496E+01    0.18394E+00   -0.25754E-01  4396   0.106E+01    0.130E+00
DAV:   6    -0.965023590496E+01    0.18394E+00   -0.25754E-01  4396   0.106E+01    0.130E+00
DAV:   6    -0.965023590496E+01    0.18394E+00   -0.25754E-01  4396   0.106E+01    0.130E+00
DAV:   6    -0.965023590496E+01    0.18394E+00   -0.25754E-01  4396   0.106E+01    0.130E+00
DAV:   6    -0.965023590496E+01    0.18394E+00   -0.25754E-01  4396   0.106E+01    0.130E+00
DAV:   6    -0.965023590496E+01    0.18394E+00   -0.25754E-01  4396   0.106E+01    0.130E+00
DAV:   6    -0.965023590496E+01    0.18394E+00   -0.25754E-01  4396   0.106E+01    0.130E+00
DAV:   6    -0.965023590496E+01    0.18394E+00   -0.25754E-01  4396   0.106E+01    0.130E+00
DAV:   6    -0.965023590496E+01    0.18394E+00   -0.25754E-01  4396   0.106E+01    0.130E+00
DAV:   6    -0.965023590496E+01    0.18394E+00   -0.25754E-01  4396   0.106E+01    0.130E+00
DAV:   6    -0.965023590496E+01    0.18394E+00   -0.25754E-01  4396   0.106E+01    0.130E+00
DAV:   6    -0.965023590496E+01    0.18394E+00   -0.25754E-01  4396   0.106E+01    0.130E+00
DAV:   7    -0.960689514521E+01    0.43341E-01   -0.67971E-02  3522   0.215E+00    0.422E-01
DAV:   7    -0.960689514521E+01    0.43341E-01   -0.67971E-02  3522   0.215E+00    0.422E-01
DAV:   7    -0.960689514521E+01    0.43341E-01   -0.67971E-02  3522   0.215E+00    0.422E-01
DAV:   7    -0.960689514521E+01    0.43341E-01   -0.67971E-02  3522   0.215E+00    0.422E-01
DAV:   7    -0.960689514521E+01    0.43341E-01   -0.67971E-02  3522   0.215E+00    0.422E-01
DAV:   7    -0.960689514521E+01    0.43341E-01   -0.67971E-02  3522   0.215E+00    0.422E-01
DAV:   7    -0.960689514521E+01    0.43341E-01   -0.67971E-02  3522   0.215E+00    0.422E-01
DAV:   7    -0.960689514521E+01    0.43341E-01   -0.67971E-02  3522   0.215E+00    0.422E-01
DAV:   7    -0.960689514521E+01    0.43341E-01   -0.67971E-02  3522   0.215E+00    0.422E-01
DAV:   7    -0.960689514521E+01    0.43341E-01   -0.67971E-02  3522   0.215E+00    0.422E-01
DAV:   7    -0.960689514521E+01    0.43341E-01   -0.67971E-02  3522   0.215E+00    0.422E-01
DAV:   7    -0.960689514521E+01    0.43341E-01   -0.67971E-02  3522   0.215E+00    0.422E-01
DAV:   7    -0.960689514521E+01    0.43341E-01   -0.67971E-02  3522   0.215E+00    0.422E-01
DAV:   7    -0.960689514521E+01    0.43341E-01   -0.67971E-02  3522   0.215E+00    0.422E-01
DAV:   7    -0.960689514521E+01    0.43341E-01   -0.67971E-02  3522   0.215E+00    0.422E-01
DAV:   7    -0.960689514521E+01    0.43341E-01   -0.67971E-02  3522   0.215E+00    0.422E-01
DAV:   7    -0.960689514521E+01    0.43341E-01   -0.67971E-02  3522   0.215E+00    0.422E-01
DAV:   7    -0.960689514521E+01    0.43341E-01   -0.67971E-02  3522   0.215E+00    0.422E-01
DAV:   7    -0.960689514521E+01    0.43341E-01   -0.67971E-02  3522   0.215E+00    0.422E-01
DAV:   7    -0.960689514521E+01    0.43341E-01   -0.67971E-02  3522   0.215E+00    0.422E-01
DAV:   7    -0.960689514521E+01    0.43341E-01   -0.67971E-02  3522   0.215E+00    0.422E-01
DAV:   7    -0.960689514521E+01    0.43341E-01   -0.67971E-02  3522   0.215E+00    0.422E-01
DAV:   7    -0.960689514521E+01    0.43341E-01   -0.67971E-02  3522   0.215E+00    0.422E-01
DAV:   7    -0.960689514521E+01    0.43341E-01   -0.67971E-02  3522   0.215E+00    0.422E-01
DAV:   7    -0.960689514521E+01    0.43341E-01   -0.67971E-02  3522   0.215E+00    0.422E-01
DAV:   7    -0.960689514521E+01    0.43341E-01   -0.67971E-02  3522   0.215E+00    0.422E-01
DAV:   7    -0.960689514521E+01    0.43341E-01   -0.67971E-02  3522   0.215E+00    0.422E-01
DAV:   7    -0.960689514521E+01    0.43341E-01   -0.67971E-02  3522   0.215E+00    0.422E-01
DAV:   7    -0.960689514521E+01    0.43341E-01   -0.67971E-02  3522   0.215E+00    0.422E-01
DAV:   7    -0.960689514521E+01    0.43341E-01   -0.67971E-02  3522   0.215E+00    0.422E-01
DAV:   7    -0.960689514521E+01    0.43341E-01   -0.67971E-02  3522   0.215E+00    0.422E-01
DAV:   7    -0.960689514521E+01    0.43341E-01   -0.67971E-02  3522   0.215E+00    0.422E-01
DAV:   7    -0.960689514521E+01    0.43341E-01   -0.67971E-02  3522   0.215E+00    0.422E-01
DAV:   7    -0.960689514521E+01    0.43341E-01   -0.67971E-02  3522   0.215E+00    0.422E-01
DAV:   7    -0.960689514521E+01    0.43341E-01   -0.67971E-02  3522   0.215E+00    0.422E-01
DAV:   7    -0.960689514521E+01    0.43341E-01   -0.67971E-02  3522   0.215E+00    0.422E-01
DAV:   7    -0.960689514521E+01    0.43341E-01   -0.67971E-02  3522   0.215E+00    0.422E-01
DAV:   7    -0.960689514521E+01    0.43341E-01   -0.67971E-02  3522   0.215E+00    0.422E-01
DAV:   7    -0.960689514521E+01    0.43341E-01   -0.67971E-02  3522   0.215E+00    0.422E-01
DAV:   7    -0.960689514521E+01    0.43341E-01   -0.67971E-02  3522   0.215E+00    0.422E-01
DAV:   8    -0.960327898576E+01    0.36162E-02   -0.87433E-03  3513   0.121E+00    0.711E-02
DAV:   8    -0.960327898576E+01    0.36162E-02   -0.87433E-03  3513   0.121E+00    0.711E-02
DAV:   8    -0.960327898576E+01    0.36162E-02   -0.87433E-03  3513   0.121E+00    0.711E-02
DAV:   8    -0.960327898576E+01    0.36162E-02   -0.87433E-03  3513   0.121E+00    0.711E-02
DAV:   8    -0.960327898576E+01    0.36162E-02   -0.87433E-03  3513   0.121E+00    0.711E-02
DAV:   8    -0.960327898576E+01    0.36162E-02   -0.87433E-03  3513   0.121E+00    0.711E-02
DAV:   8    -0.960327898576E+01    0.36162E-02   -0.87433E-03  3513   0.121E+00    0.711E-02
DAV:   8    -0.960327898576E+01    0.36162E-02   -0.87433E-03  3513   0.121E+00    0.711E-02
DAV:   8    -0.960327898576E+01    0.36162E-02   -0.87433E-03  3513   0.121E+00    0.711E-02
DAV:   8    -0.960327898576E+01    0.36162E-02   -0.87433E-03  3513   0.121E+00    0.711E-02
DAV:   8    -0.960327898576E+01    0.36162E-02   -0.87433E-03  3513   0.121E+00    0.711E-02
DAV:   8    -0.960327898576E+01    0.36162E-02   -0.87433E-03  3513   0.121E+00    0.711E-02
DAV:   8    -0.960327898576E+01    0.36162E-02   -0.87433E-03  3513   0.121E+00    0.711E-02
DAV:   8    -0.960327898576E+01    0.36162E-02   -0.87433E-03  3513   0.121E+00    0.711E-02
DAV:   8    -0.960327898576E+01    0.36162E-02   -0.87433E-03  3513   0.121E+00    0.711E-02
DAV:   8    -0.960327898576E+01    0.36162E-02   -0.87433E-03  3513   0.121E+00    0.711E-02
DAV:   8    -0.960327898576E+01    0.36162E-02   -0.87433E-03  3513   0.121E+00    0.711E-02
DAV:   8    -0.960327898576E+01    0.36162E-02   -0.87433E-03  3513   0.121E+00    0.711E-02
DAV:   8    -0.960327898576E+01    0.36162E-02   -0.87433E-03  3513   0.121E+00    0.711E-02
DAV:   8    -0.960327898576E+01    0.36162E-02   -0.87433E-03  3513   0.121E+00    0.711E-02
DAV:   8    -0.960327898576E+01    0.36162E-02   -0.87433E-03  3513   0.121E+00    0.711E-02
DAV:   8    -0.960327898576E+01    0.36162E-02   -0.87433E-03  3513   0.121E+00    0.711E-02
DAV:   8    -0.960327898576E+01    0.36162E-02   -0.87433E-03  3513   0.121E+00    0.711E-02
DAV:   8    -0.960327898576E+01    0.36162E-02   -0.87433E-03  3513   0.121E+00    0.711E-02
DAV:   8    -0.960327898576E+01    0.36162E-02   -0.87433E-03  3513   0.121E+00    0.711E-02
DAV:   8    -0.960327898576E+01    0.36162E-02   -0.87433E-03  3513   0.121E+00    0.711E-02
DAV:   8    -0.960327898576E+01    0.36162E-02   -0.87433E-03  3513   0.121E+00    0.711E-02
DAV:   8    -0.960327898576E+01    0.36162E-02   -0.87433E-03  3513   0.121E+00    0.711E-02
DAV:   8    -0.960327898576E+01    0.36162E-02   -0.87433E-03  3513   0.121E+00    0.711E-02
DAV:   8    -0.960327898576E+01    0.36162E-02   -0.87433E-03  3513   0.121E+00    0.711E-02
DAV:   8    -0.960327898576E+01    0.36162E-02   -0.87433E-03  3513   0.121E+00    0.711E-02
DAV:   8    -0.960327898576E+01    0.36162E-02   -0.87433E-03  3513   0.121E+00    0.711E-02
DAV:   8    -0.960327898576E+01    0.36162E-02   -0.87433E-03  3513   0.121E+00    0.711E-02
DAV:   8    -0.960327898576E+01    0.36162E-02   -0.87433E-03  3513   0.121E+00    0.711E-02
DAV:   8    -0.960327898576E+01    0.36162E-02   -0.87433E-03  3513   0.121E+00    0.711E-02
DAV:   8    -0.960327898576E+01    0.36162E-02   -0.87433E-03  3513   0.121E+00    0.711E-02
DAV:   8    -0.960327898576E+01    0.36162E-02   -0.87433E-03  3513   0.121E+00    0.711E-02
DAV:   8    -0.960327898576E+01    0.36162E-02   -0.87433E-03  3513   0.121E+00    0.711E-02
DAV:   8    -0.960327898576E+01    0.36162E-02   -0.87433E-03  3513   0.121E+00    0.711E-02
DAV:   8    -0.960327898576E+01    0.36162E-02   -0.87433E-03  3513   0.121E+00    0.711E-02
DAV:   9    -0.960325117687E+01    0.27809E-04   -0.78188E-04  3400   0.452E-01
   1 F= -.96032512E+01 E0= -.96032512E+01  d E =0.000000E+00
 writing wavefunctions
 optical routines
 imaginary and real dielectric function
 recalculating local potential from charge density
 direction            1
DAV:   9    -0.960325117687E+01    0.27809E-04   -0.78188E-04  3400   0.452E-01
   1 F= -.96032512E+01 E0= -.96032512E+01  d E =0.000000E+00
 writing wavefunctions
 optical routines
 imaginary and real dielectric function
 recalculating local potential from charge density
 direction            1
 direction            2
 direction            2
DAV:   9    -0.960325117687E+01    0.27809E-04   -0.78188E-04  3400   0.452E-01
 direction            3
   1 F= -.96032512E+01 E0= -.96032512E+01  d E =0.000000E+00
 writing wavefunctions
 optical routines
 imaginary and real dielectric function
 recalculating local potential from charge density
 direction            1
DAV:   9    -0.960325117687E+01    0.27809E-04   -0.78188E-04  3400   0.452E-01
DAV:   9    -0.960325117687E+01    0.27809E-04   -0.78188E-04  3400   0.452E-01
 direction            3
   1 F= -.96032512E+01 E0= -.96032512E+01  d E =0.000000E+00
 writing wavefunctions
 optical routines
 imaginary and real dielectric function
 recalculating local potential from charge density
 direction            1
   1 F= -.96032512E+01 E0= -.96032512E+01  d E =0.000000E+00
 writing wavefunctions
 optical routines
 imaginary and real dielectric function
 recalculating local potential from charge density
 direction            1
DAV:   9    -0.960325117687E+01    0.27809E-04   -0.78188E-04  3400   0.452E-01
DAV:   9    -0.960325117687E+01    0.27809E-04   -0.78188E-04  3400   0.452E-01
 direction            2
   1 F= -.96032512E+01 E0= -.96032512E+01  d E =0.000000E+00
   1 F= -.96032512E+01 E0= -.96032512E+01  d E =0.000000E+00
 writing wavefunctions
DAV:   9    -0.960325117687E+01    0.27809E-04   -0.78188E-04  3400   0.452E-01
DAV:   9    -0.960325117687E+01    0.27809E-04   -0.78188E-04  3400   0.452E-01
 writing wavefunctions
 optical routines
 imaginary and real dielectric function
 recalculating local potential from charge density
 direction            1
 optical routines
 imaginary and real dielectric function
 recalculating local potential from charge density
 direction            1
DAV:   9    -0.960325117687E+01    0.27809E-04   -0.78188E-04  3400   0.452E-01
DAV:   9    -0.960325117687E+01    0.27809E-04   -0.78188E-04  3400   0.452E-01
   1 F= -.96032512E+01 E0= -.96032512E+01  d E =0.000000E+00
 direction            2
   1 F= -.96032512E+01 E0= -.96032512E+01  d E =0.000000E+00
 writing wavefunctions
 writing wavefunctions
DAV:   9    -0.960325117687E+01    0.27809E-04   -0.78188E-04  3400   0.452E-01
 direction            2
 optical routines
 imaginary and real dielectric function
 recalculating local potential from charge density
 direction            1
 optical routines
 imaginary and real dielectric function
 recalculating local potential from charge density
 direction            1
DAV:   9    -0.960325117687E+01    0.27809E-04   -0.78188E-04  3400   0.452E-01
DAV:   9    -0.960325117687E+01    0.27809E-04   -0.78188E-04  3400   0.452E-01
DAV:   9    -0.960325117687E+01    0.27809E-04   -0.78188E-04  3400   0.452E-01
 direction            3
DAV:   9    -0.960325117687E+01    0.27809E-04   -0.78188E-04  3400   0.452E-01
   1 F= -.96032512E+01 E0= -.96032512E+01  d E =0.000000E+00
DAV:   9    -0.960325117687E+01    0.27809E-04   -0.78188E-04  3400   0.452E-01
 writing wavefunctions
DAV:   9    -0.960325117687E+01    0.27809E-04   -0.78188E-04  3400   0.452E-01
   1 F= -.96032512E+01 E0= -.96032512E+01  d E =0.000000E+00
DAV:   9    -0.960325117687E+01    0.27809E-04   -0.78188E-04  3400   0.452E-01
DAV:   9    -0.960325117687E+01    0.27809E-04   -0.78188E-04  3400   0.452E-01
 writing wavefunctions
 optical routines
 imaginary and real dielectric function
 recalculating local potential from charge density
 direction            1
 optical routines
 imaginary and real dielectric function
 recalculating local potential from charge density
   1 F= -.96032512E+01 E0= -.96032512E+01  d E =0.000000E+00
 direction            1
 writing wavefunctions
DAV:   9    -0.960325117687E+01    0.27809E-04   -0.78188E-04  3400   0.452E-01
 optical routines
 imaginary and real dielectric function
 recalculating local potential from charge density
 direction            1
   1 F= -.96032512E+01 E0= -.96032512E+01  d E =0.000000E+00
   1 F= -.96032512E+01 E0= -.96032512E+01  d E =0.000000E+00
   1 F= -.96032512E+01 E0= -.96032512E+01  d E =0.000000E+00
 writing wavefunctions
 direction            2
 writing wavefunctions
 writing wavefunctions
   1 F= -.96032512E+01 E0= -.96032512E+01  d E =0.000000E+00
   1 F= -.96032512E+01 E0= -.96032512E+01  d E =0.000000E+00
 writing wavefunctions
 direction            2
   1 F= -.96032512E+01 E0= -.96032512E+01  d E =0.000000E+00
 writing wavefunctions
 optical routines
 imaginary and real dielectric function
 recalculating local potential from charge density
 direction            1
 writing wavefunctions
   1 F= -.96032512E+01 E0= -.96032512E+01  d E =0.000000E+00
   1 F= -.96032512E+01 E0= -.96032512E+01  d E =0.000000E+00
 optical routines
 imaginary and real dielectric function
 recalculating local potential from charge density
 optical routines
 imaginary and real dielectric function
 recalculating local potential from charge density
 writing wavefunctions
 direction            1
 direction            1
 writing wavefunctions
 optical routines
 imaginary and real dielectric function
 recalculating local potential from charge density
 direction            1
 optical routines
 imaginary and real dielectric function
 recalculating local potential from charge density
 direction            1
DAV:   9    -0.960325117687E+01    0.27809E-04   -0.78188E-04  3400   0.452E-01
 optical routines
 imaginary and real dielectric function
 recalculating local potential from charge density
 direction            1
   1 F= -.96032512E+01 E0= -.96032512E+01  d E =0.000000E+00
 direction            3
 optical routines
 imaginary and real dielectric function
 optical routines
 imaginary and real dielectric function
 recalculating local potential from charge density
 recalculating local potential from charge density
 direction            1
 direction            1
DAV:   9    -0.960325117687E+01    0.27809E-04   -0.78188E-04  3400   0.452E-01
 writing wavefunctions
DAV:   9    -0.960325117687E+01    0.27809E-04   -0.78188E-04  3400   0.452E-01
 optical routines
 imaginary and real dielectric function
 recalculating local potential from charge density
 direction            1
DAV:   9    -0.960325117687E+01    0.27809E-04   -0.78188E-04  3400   0.452E-01
 direction            2
 direction            2
 direction            3
   1 F= -.96032512E+01 E0= -.96032512E+01  d E =0.000000E+00
 writing wavefunctions
   1 F= -.96032512E+01 E0= -.96032512E+01  d E =0.000000E+00
 direction            2
 direction            2
 writing wavefunctions
 optical routines
 imaginary and real dielectric function
 recalculating local potential from charge density
 direction            1
DAV:   9    -0.960325117687E+01    0.27809E-04   -0.78188E-04  3400   0.452E-01
 direction            2
DAV:   9    -0.960325117687E+01    0.27809E-04   -0.78188E-04  3400   0.452E-01
   1 F= -.96032512E+01 E0= -.96032512E+01  d E =0.000000E+00
 optical routines
 imaginary and real dielectric function
 recalculating local potential from charge density
 writing wavefunctions
   1 F= -.96032512E+01 E0= -.96032512E+01  d E =0.000000E+00
 direction            1
DAV:   9    -0.960325117687E+01    0.27809E-04   -0.78188E-04  3400   0.452E-01
 writing wavefunctions
 optical routines
 imaginary and real dielectric function
 recalculating local potential from charge density
 direction            1
 optical routines
 imaginary and real dielectric function
 recalculating local potential from charge density
 direction            1
DAV:   9    -0.960325117687E+01    0.27809E-04   -0.78188E-04  3400   0.452E-01
 direction            3
 direction            2
 direction            3
 direction            2
 direction            2
DAV:   9    -0.960325117687E+01    0.27809E-04   -0.78188E-04  3400   0.452E-01
 direction            2
 direction            2
 direction            2
   1 F= -.96032512E+01 E0= -.96032512E+01  d E =0.000000E+00
   1 F= -.96032512E+01 E0= -.96032512E+01  d E =0.000000E+00
 writing wavefunctions
 writing wavefunctions
 direction            2
 direction            2
   1 F= -.96032512E+01 E0= -.96032512E+01  d E =0.000000E+00
 direction            2
 writing wavefunctions
 optical routines
 imaginary and real dielectric function
 recalculating local potential from charge density
 direction            1
 optical routines
 imaginary and real dielectric function
 recalculating local potential from charge density
 direction            1
   1 F= -.96032512E+01 E0= -.96032512E+01  d E =0.000000E+00
 optical routines
 imaginary and real dielectric function
 recalculating local potential from charge density
 direction            1
 writing wavefunctions
DAV:   9    -0.960325117687E+01    0.27809E-04   -0.78188E-04  3400   0.452E-01
DAV:   9    -0.960325117687E+01    0.27809E-04   -0.78188E-04  3400   0.452E-01
 optical routines
 imaginary and real dielectric function
 recalculating local potential from charge density
 direction            1
   1 F= -.96032512E+01 E0= -.96032512E+01  d E =0.000000E+00
 writing wavefunctions
 direction            3
 direction            3
 direction            2
DAV:   9    -0.960325117687E+01    0.27809E-04   -0.78188E-04  3400   0.452E-01
 optical routines
 imaginary and real dielectric function
 recalculating local potential from charge density
 direction            1
 direction            3
 direction            3
 direction            2
 direction            3
 direction            2
   1 F= -.96032512E+01 E0= -.96032512E+01  d E =0.000000E+00
 direction            2
   1 F= -.96032512E+01 E0= -.96032512E+01  d E =0.000000E+00
 writing wavefunctions
 writing wavefunctions
 optical routines
 imaginary and real dielectric function
 recalculating local potential from charge density
 direction            1
 optical routines
 imaginary and real dielectric function
 recalculating local potential from charge density
 direction            3
 direction            1
   1 F= -.96032512E+01 E0= -.96032512E+01  d E =0.000000E+00
 writing wavefunctions
 optical routines
 imaginary and real dielectric function
 recalculating local potential from charge density
 direction            1
 direction            3
 direction            3
 direction            3
 direction            3
 direction            3
 direction            2
 direction            3
 direction            3
 direction            3
 direction            2
 direction            2
DAV:   9    -0.960325117687E+01    0.27809E-04   -0.78188E-04  3400   0.452E-01
 direction            2
DAV:   9    -0.960325117687E+01    0.27809E-04   -0.78188E-04  3400   0.452E-01
DAV:   9    -0.960325117687E+01    0.27809E-04   -0.78188E-04  3400   0.452E-01
 direction            2
 direction            3
   1 F= -.96032512E+01 E0= -.96032512E+01  d E =0.000000E+00
 writing wavefunctions
   1 F= -.96032512E+01 E0= -.96032512E+01  d E =0.000000E+00
   1 F= -.96032512E+01 E0= -.96032512E+01  d E =0.000000E+00
 direction            3
 direction            3
 writing wavefunctions
 writing wavefunctions
 direction            3
 optical routines
 imaginary and real dielectric function
 recalculating local potential from charge density
 direction            1
 direction            2
 direction            2
DAV:   9    -0.960325117687E+01    0.27809E-04   -0.78188E-04  3400   0.452E-01
 optical routines
 imaginary and real dielectric function
 recalculating local potential from charge density
 direction            2
DAV:   9    -0.960325117687E+01    0.27809E-04   -0.78188E-04  3400   0.452E-01
 direction            1
 optical routines
 imaginary and real dielectric function
 recalculating local potential from charge density
 direction            1
 direction            3
   1 F= -.96032512E+01 E0= -.96032512E+01  d E =0.000000E+00
 direction            3
 direction            3
   1 F= -.96032512E+01 E0= -.96032512E+01  d E =0.000000E+00
 writing wavefunctions
 writing wavefunctions
 direction            3
 optical routines
 imaginary and real dielectric function
 recalculating local potential from charge density
 direction            1
 optical routines
 imaginary and real dielectric function
 recalculating local potential from charge density
 direction            1
 direction            3
 direction            2
 direction            2
 direction            3
 direction            2
 direction            3
 direction            3
DAV:   9    -0.960325117687E+01    0.27809E-04   -0.78188E-04  3400   0.452E-01
 direction            2
   1 F= -.96032512E+01 E0= -.96032512E+01  d E =0.000000E+00
 writing wavefunctions
 direction            2
 optical routines
 imaginary and real dielectric function
 recalculating local potential from charge density
 direction            1
 direction            3
 direction            3
 direction            3
DAV:   9    -0.960325117687E+01    0.27809E-04   -0.78188E-04  3400   0.452E-01
 direction            3
 direction            3
 direction            2
   1 F= -.96032512E+01 E0= -.96032512E+01  d E =0.000000E+00
 writing wavefunctions
 optical routines
 imaginary and real dielectric function
 recalculating local potential from charge density
 direction            1
 direction            3
 direction            2
 direction            3
