GaAs                                    
           1
     2.825000    2.825000    0.000000
     0.000000    2.825000    2.825000
     2.825000    0.000000    2.825000
   Ga   As
   1   1
Direct configuration=     1
   0.00000000  0.00000000  0.00000000
   0.25000000  0.25000000  0.25000000
