   5   5   0   0
  0.3155450E+02  0.3160000E-09  0.3160000E-09  0.1580000E-08  0.5000000E-15
  1.000000000000000E-004
  CAR 
 unknown system                          
     17.70176937     -8.16068634  301      1.81909018      1.00000000
     -8.161  0.0000E+00  0.0000E+00
     -8.074  0.0000E+00  0.0000E+00
     -7.988  0.0000E+00  0.0000E+00
     -7.902  0.0000E+00  0.0000E+00
     -7.816  0.0000E+00  0.0000E+00
     -7.730  0.0000E+00  0.0000E+00
     -7.643  0.0000E+00  0.0000E+00
     -7.557  0.0000E+00  0.0000E+00
     -7.471  0.0000E+00  0.0000E+00
     -7.385  0.0000E+00  0.0000E+00
     -7.299  0.0000E+00  0.0000E+00
     -7.212  0.5121E-10  0.4415E-11
     -7.126  0.2761E-04  0.2381E-05
     -7.040  0.5882E-01  0.5073E-02
     -6.954  0.1103E+01  0.1001E+00
     -6.868  0.1023E+01  0.1883E+00
     -6.781  0.5631E+00  0.2368E+00
     -6.695  0.5672E+00  0.2857E+00
     -6.609  0.3495E+00  0.3159E+00
     -6.523  0.3113E+00  0.3427E+00
     -6.437  0.5009E+00  0.3859E+00
     -6.350  0.1652E+00  0.4001E+00
     -6.264  0.2781E+00  0.4241E+00
     -6.178  0.4758E+00  0.4651E+00
     -6.092  0.7459E-01  0.4715E+00
     -6.005  0.3063E+00  0.4979E+00
     -5.919  0.2810E+00  0.5222E+00
     -5.833  0.3035E+00  0.5483E+00
     -5.747  0.2087E+00  0.5663E+00
     -5.661  0.2026E-01  0.5681E+00
     -5.574  0.4923E+00  0.6105E+00
     -5.488  0.2630E+00  0.6332E+00
     -5.402  0.1452E-01  0.6344E+00
     -5.316  0.2692E+00  0.6576E+00
     -5.230  0.2541E+00  0.6796E+00
     -5.143  0.3624E+00  0.7108E+00
     -5.057  0.1656E+01  0.8536E+00
     -4.971  0.1202E+01  0.9572E+00
     -4.885  0.7607E+00  0.1023E+01
     -4.799  0.1115E+01  0.1119E+01
     -4.712  0.7129E+00  0.1180E+01
     -4.626  0.4344E+00  0.1218E+01
     -4.540  0.7602E+00  0.1283E+01
     -4.454  0.8437E+00  0.1356E+01
     -4.368  0.6453E+00  0.1412E+01
     -4.281  0.7342E+00  0.1475E+01
     -4.195  0.8138E+00  0.1545E+01
     -4.109  0.1215E+01  0.1650E+01
     -4.023  0.3236E+01  0.1929E+01
     -3.936  0.2918E+01  0.2180E+01
     -3.850  0.1183E+01  0.2282E+01
     -3.764  0.1377E+01  0.2401E+01
     -3.678  0.3239E+01  0.2680E+01
     -3.592  0.3790E+01  0.3007E+01
     -3.505  0.4635E+01  0.3407E+01
     -3.419  0.5477E+01  0.3879E+01
     -3.333  0.5950E+01  0.4392E+01
     -3.247  0.5548E+01  0.4870E+01
     -3.161  0.2347E+01  0.5072E+01
     -3.074  0.2057E+01  0.5250E+01
     -2.988  0.3044E+01  0.5512E+01
     -2.902  0.2973E+01  0.5768E+01
     -2.816  0.2385E+01  0.5974E+01
     -2.730  0.1890E+01  0.6137E+01
     -2.643  0.1635E+01  0.6278E+01
     -2.557  0.2129E+01  0.6461E+01
     -2.471  0.4087E+01  0.6814E+01
     -2.385  0.8139E+01  0.7515E+01
     -2.299  0.7889E+01  0.8195E+01
     -2.212  0.6204E+01  0.8730E+01
     -2.126  0.7817E+01  0.9404E+01
     -2.040  0.3975E+01  0.9747E+01
     -1.954  0.1868E+01  0.9908E+01
     -1.867  0.2802E+01  0.1015E+02
     -1.781  0.2976E+01  0.1041E+02
     -1.695  0.5652E+01  0.1089E+02
     -1.609  0.3429E+01  0.1119E+02
     -1.523  0.3360E+01  0.1148E+02
     -1.436  0.3521E+01  0.1178E+02
     -1.350  0.5739E+01  0.1228E+02
     -1.264  0.1086E+02  0.1321E+02
     -1.178  0.6887E+01  0.1381E+02
     -1.092  0.4285E+01  0.1418E+02
     -1.005  0.5132E+01  0.1462E+02
     -0.919  0.3801E+01  0.1495E+02
     -0.833  0.4766E+01  0.1536E+02
     -0.747  0.5235E+01  0.1581E+02
     -0.661  0.8279E+01  0.1652E+02
     -0.574  0.7981E+01  0.1721E+02
     -0.488  0.7838E+01  0.1789E+02
     -0.402  0.7153E+01  0.1850E+02
     -0.316  0.4252E+01  0.1887E+02
     -0.230  0.4146E+01  0.1923E+02
     -0.143  0.3866E+01  0.1956E+02
     -0.057  0.3196E+01  0.1984E+02
      0.029  0.3027E+01  0.2010E+02
      0.115  0.3865E+01  0.2043E+02
      0.202  0.4896E+01  0.2085E+02
      0.288  0.4802E+01  0.2127E+02
      0.374  0.5224E+01  0.2172E+02
      0.460  0.5820E+01  0.2222E+02
      0.546  0.6725E+01  0.2280E+02
      0.633  0.6746E+01  0.2338E+02
      0.719  0.3936E+01  0.2372E+02
      0.805  0.5284E+01  0.2417E+02
      0.891  0.5585E+01  0.2466E+02
      0.977  0.6351E+01  0.2520E+02
      1.064  0.6808E+01  0.2579E+02
      1.150  0.6103E+01  0.2632E+02
      1.236  0.3822E+01  0.2665E+02
      1.322  0.3835E+01  0.2698E+02
      1.408  0.5493E+01  0.2745E+02
      1.495  0.7535E+01  0.2810E+02
      1.581  0.6248E+01  0.2864E+02
      1.667  0.6470E+01  0.2920E+02
      1.753  0.5635E+01  0.2968E+02
      1.839  0.5283E+01  0.3014E+02
      1.926  0.6192E+01  0.3067E+02
      2.012  0.4109E+01  0.3102E+02
      2.098  0.3079E+01  0.3129E+02
      2.184  0.4121E+01  0.3165E+02
      2.271  0.2907E+01  0.3190E+02
      2.357  0.3688E+01  0.3221E+02
      2.443  0.4311E+01  0.3259E+02
      2.529  0.5061E+01  0.3302E+02
      2.615  0.5088E+01  0.3346E+02
      2.702  0.3831E+01  0.3379E+02
      2.788  0.4276E+01  0.3416E+02
      2.874  0.5419E+01  0.3463E+02
      2.960  0.6612E+01  0.3520E+02
      3.046  0.5855E+01  0.3570E+02
      3.133  0.8720E+01  0.3645E+02
      3.219  0.8642E+01  0.3720E+02
      3.305  0.7932E+01  0.3788E+02
      3.391  0.6673E+01  0.3846E+02
      3.477  0.7079E+01  0.3907E+02
      3.564  0.1012E+02  0.3994E+02
      3.650  0.7992E+01  0.4063E+02
      3.736  0.8051E+01  0.4132E+02
      3.822  0.5779E+01  0.4182E+02
      3.908  0.3953E+01  0.4216E+02
      3.995  0.3366E+01  0.4245E+02
      4.081  0.3592E+01  0.4276E+02
      4.167  0.4596E+01  0.4316E+02
      4.253  0.5862E+01  0.4366E+02
      4.340  0.7264E+01  0.4429E+02
      4.426  0.6743E+01  0.4487E+02
      4.512  0.6514E+01  0.4543E+02
      4.598  0.4896E+01  0.4585E+02
      4.684  0.5054E+01  0.4629E+02
      4.771  0.6998E+01  0.4689E+02
      4.857  0.6308E+01  0.4744E+02
      4.943  0.8104E+01  0.4814E+02
      5.029  0.7545E+01  0.4879E+02
      5.115  0.9085E+01  0.4957E+02
      5.202  0.7868E+01  0.5025E+02
      5.288  0.8494E+01  0.5098E+02
      5.374  0.6700E+01  0.5156E+02
      5.460  0.7773E+01  0.5223E+02
      5.546  0.7352E+01  0.5286E+02
      5.633  0.3919E+01  0.5320E+02
      5.719  0.5753E+01  0.5369E+02
      5.805  0.3862E+01  0.5403E+02
      5.891  0.3084E+01  0.5429E+02
      5.977  0.3880E+01  0.5463E+02
      6.064  0.5161E+01  0.5507E+02
      6.150  0.4953E+01  0.5550E+02
      6.236  0.3905E+01  0.5584E+02
      6.322  0.2394E+01  0.5604E+02
      6.408  0.3054E+01  0.5631E+02
      6.495  0.3820E+01  0.5664E+02
      6.581  0.1798E+01  0.5679E+02
      6.667  0.2047E+01  0.5697E+02
      6.753  0.1915E+01  0.5713E+02
      6.840  0.3494E+01  0.5743E+02
      6.926  0.3468E+01  0.5773E+02
      7.012  0.3394E+01  0.5802E+02
      7.098  0.3924E+01  0.5836E+02
      7.184  0.3455E+01  0.5866E+02
      7.271  0.2772E+01  0.5890E+02
      7.357  0.1573E+01  0.5904E+02
      7.443  0.2993E+01  0.5929E+02
      7.529  0.9290E+00  0.5937E+02
      7.615  0.1433E+01  0.5950E+02
      7.702  0.2332E+01  0.5970E+02
      7.788  0.2031E+01  0.5987E+02
      7.874  0.1438E+01  0.6000E+02
      7.960  0.1941E+01  0.6016E+02
      8.046  0.1931E+01  0.6033E+02
      8.133  0.3247E+01  0.6061E+02
      8.219  0.3483E+01  0.6091E+02
      8.305  0.4067E+01  0.6126E+02
      8.391  0.3907E+01  0.6160E+02
      8.477  0.2527E+01  0.6182E+02
      8.564  0.1743E+01  0.6197E+02
      8.650  0.2527E+01  0.6218E+02
      8.736  0.2235E+01  0.6238E+02
      8.822  0.1367E+01  0.6250E+02
      8.909  0.1351E+01  0.6261E+02
      8.995  0.1413E+01  0.6273E+02
      9.081  0.1528E+01  0.6287E+02
      9.167  0.1439E+01  0.6299E+02
      9.253  0.2143E+01  0.6317E+02
      9.340  0.1565E+01  0.6331E+02
      9.426  0.2961E+01  0.6356E+02
      9.512  0.6529E+01  0.6413E+02
      9.598  0.4532E+01  0.6452E+02
      9.684  0.4196E+01  0.6488E+02
      9.771  0.4255E+01  0.6525E+02
      9.857  0.3882E+01  0.6558E+02
      9.943  0.3087E+01  0.6585E+02
     10.029  0.3446E+01  0.6614E+02
     10.115  0.3107E+01  0.6641E+02
     10.202  0.1848E+01  0.6657E+02
     10.288  0.1403E+01  0.6669E+02
     10.374  0.2570E+01  0.6691E+02
     10.460  0.2781E+01  0.6715E+02
     10.546  0.1526E+01  0.6729E+02
     10.633  0.1933E+01  0.6745E+02
     10.719  0.1853E+01  0.6761E+02
     10.805  0.2240E+01  0.6780E+02
     10.891  0.2571E+01  0.6803E+02
     10.978  0.1155E+01  0.6813E+02
     11.064  0.1514E+01  0.6826E+02
     11.150  0.2851E+01  0.6850E+02
     11.236  0.3431E+01  0.6880E+02
     11.322  0.4093E+01  0.6915E+02
     11.409  0.4306E+01  0.6952E+02
     11.495  0.3731E+01  0.6984E+02
     11.581  0.4595E+01  0.7024E+02
     11.667  0.3852E+01  0.7057E+02
     11.753  0.6751E+01  0.7115E+02
     11.840  0.5424E+01  0.7162E+02
     11.926  0.4526E+01  0.7201E+02
     12.012  0.4795E+01  0.7243E+02
     12.098  0.5593E+01  0.7291E+02
     12.184  0.2912E+01  0.7316E+02
     12.271  0.3308E+01  0.7344E+02
     12.357  0.4185E+01  0.7380E+02
     12.443  0.3543E+01  0.7411E+02
     12.529  0.1457E+01  0.7424E+02
     12.615  0.2670E+01  0.7447E+02
     12.702  0.2942E+01  0.7472E+02
     12.788  0.2814E+01  0.7496E+02
     12.874  0.2150E+01  0.7515E+02
     12.960  0.2976E+01  0.7540E+02
     13.047  0.2125E+01  0.7559E+02
     13.133  0.2552E+01  0.7581E+02
     13.219  0.1224E+01  0.7591E+02
     13.305  0.1793E+01  0.7607E+02
     13.391  0.2124E+01  0.7625E+02
     13.478  0.2671E+01  0.7648E+02
     13.564  0.1241E+01  0.7659E+02
     13.650  0.2211E+01  0.7678E+02
     13.736  0.1971E+01  0.7695E+02
     13.822  0.1794E+01  0.7710E+02
     13.909  0.1846E+01  0.7726E+02
     13.995  0.1488E+01  0.7739E+02
     14.081  0.1328E+01  0.7750E+02
     14.167  0.1634E+01  0.7765E+02
     14.253  0.1139E+01  0.7774E+02
     14.340  0.1667E+01  0.7789E+02
     14.426  0.2316E+01  0.7809E+02
     14.512  0.3305E+01  0.7837E+02
     14.598  0.3567E+01  0.7868E+02
     14.684  0.1884E+01  0.7884E+02
     14.771  0.9864E+00  0.7893E+02
     14.857  0.8705E+00  0.7900E+02
     14.943  0.9888E+00  0.7909E+02
     15.029  0.4892E+00  0.7913E+02
     15.116  0.7225E+00  0.7919E+02
     15.202  0.5118E+00  0.7924E+02
     15.288  0.1735E+01  0.7938E+02
     15.374  0.1869E+01  0.7955E+02
     15.460  0.1576E+01  0.7968E+02
     15.547  0.6270E+00  0.7974E+02
     15.633  0.6216E+00  0.7979E+02
     15.719  0.1202E+00  0.7980E+02
     15.805  0.4309E-03  0.7980E+02
     15.891  0.3375E-01  0.7980E+02
     15.978  0.2988E+00  0.7983E+02
     16.064  0.7115E-01  0.7983E+02
     16.150  0.2804E+00  0.7986E+02
     16.236  0.8888E-01  0.7987E+02
     16.322  0.4874E-03  0.7987E+02
     16.409  0.1215E+00  0.7988E+02
     16.495  0.8966E+00  0.7995E+02
     16.581  0.5036E+00  0.8000E+02
     16.667  0.2467E-01  0.8000E+02
     16.753  0.1282E-04  0.8000E+02
     16.840  0.2495E-10  0.8000E+02
     16.926  0.0000E+00  0.8000E+02
     17.012  0.0000E+00  0.8000E+02
     17.098  0.0000E+00  0.8000E+02
     17.185  0.0000E+00  0.8000E+02
     17.271  0.0000E+00  0.8000E+02
     17.357  0.0000E+00  0.8000E+02
     17.443  0.0000E+00  0.8000E+02
     17.529  0.0000E+00  0.8000E+02
     17.616  0.0000E+00  0.8000E+02
     17.702  0.0000E+00  0.8000E+02
