    5    5    1    1
  0.3155450E+02  0.3160000E-09  0.3160000E-09  0.1580000E-08  0.5000000E-15
  1.000000000000000E-004
  CAR 
 unknown system                          
     30     60     40
 
  0.0000000E+00  0.0000000E+00  0.0000000E+00  0.1666667E-01
    1       -6.985120   1.000000
    2       -5.098980   1.000000
    3       -3.591054   1.000000
    4       -3.495586   1.000000
    5       -2.968624   1.000000
    6       -2.316413   1.000000
    7       -2.308320   1.000000
    8       -0.603852   1.000000
    9        0.593351   1.000000
   10        0.593351   1.000000
   11        0.937282   1.000000
   12        1.025872   1.000000
   13        1.025872   1.000000
   14        1.405286   1.000000
   15        1.453305   1.000000
   16        1.500028   1.000000
   17        1.874336   0.059076
   18        1.874336   0.059076
   19        2.092396   0.000000
   20        3.265204   0.000000
   21        3.502859   0.000000
   22        3.502859   0.000000
   23        3.553347   0.000000
   24        4.490946   0.000000
   25        5.230884   0.000000
   26        5.328967   0.000000
   27        5.434449   0.000000
   28        5.689497   0.000000
   29        5.689497   0.000000
   30        6.492335   0.000000
   31        6.760190   0.000000
   32        7.099593   0.000000
   33        9.430114   0.000000
   34       11.337993   0.000000
   35       11.545946   0.000000
   36       11.545946   0.000000
   37       14.581252   0.000000
   38       14.581252   0.000000
   39       15.276688   0.000000
   40       16.444361   0.000000
 
  0.2631579E-01  0.0000000E+00  0.0000000E+00  0.1666667E-01
    1       -6.969651   1.000000
    2       -5.087505   1.000000
    3       -3.579918   1.000000
    4       -3.486419   1.000000
    5       -2.961386   1.000000
    6       -2.315491   1.000000
    7       -2.293959   1.000000
    8       -0.609834   1.000000
    9        0.573457   1.000000
   10        0.580421   1.000000
   11        0.823773   1.000000
   12        1.039516   1.000000
   13        1.124984   1.000000
   14        1.358001   1.000000
   15        1.468386   1.000000
   16        1.503164   1.000000
   17        1.765589   0.934893
   18        1.946628   0.000155
   19        2.207396   0.000000
   20        3.255180   0.000000
   21        3.293442   0.000000
   22        3.499131   0.000000
   23        3.768224   0.000000
   24        4.477893   0.000000
   25        5.151473   0.000000
   26        5.323579   0.000000
   27        5.447554   0.000000
   28        5.613489   0.000000
   29        5.774319   0.000000
   30        6.466456   0.000000
   31        6.789882   0.000000
   32        7.146964   0.000000
   33        9.483183   0.000000
   34       11.311610   0.000000
   35       11.515785   0.000000
   36       11.604882   0.000000
   37       14.439973   0.000000
   38       14.593071   0.000000
   39       15.291788   0.000000
   40       16.485170   0.000000
 
  0.5263158E-01  0.0000000E+00  0.0000000E+00  0.1666667E-01
    1       -6.923386   1.000000
    2       -5.053476   1.000000
    3       -3.549180   1.000000
    4       -3.456958   1.000000
    5       -2.940534   1.000000
    6       -2.322881   1.000000
    7       -2.241029   1.000000
    8       -0.624030   1.000000
    9        0.519718   1.000000
   10        0.539790   1.000000
   11        0.667094   1.000000
   12        1.074186   1.000000
   13        1.236167   1.000000
   14        1.254195   1.000000
   15        1.515442   1.000000
   16        1.526851   1.000000
   17        1.607290   1.000000
   18        2.106223   0.000000
   19        2.384336   0.000000
   20        3.077087   0.000000
   21        3.221152   0.000000
   22        3.496072   0.000000
   23        4.000984   0.000000
   24        4.440093   0.000000
   25        5.000467   0.000000
   26        5.302569   0.000000
   27        5.421704   0.000000
   28        5.484967   0.000000
   29        5.943077   0.000000
   30        6.396224   0.000000
   31        6.875998   0.000000
   32        7.263155   0.000000
   33        9.636067   0.000000
   34       11.160680   0.000000
   35       11.507183   0.000000
   36       11.776369   0.000000
   37       14.083343   0.000000
   38       14.629238   0.000000
   39       15.327431   0.000000
   40       16.123970   0.000000
 
  0.7894737E-01  0.0000000E+00  0.0000000E+00  0.1666667E-01
    1       -6.846861   1.000000
    2       -4.998082   1.000000
    3       -3.506539   1.000000
    4       -3.401753   1.000000
    5       -2.908457   1.000000
    6       -2.336229   1.000000
    7       -2.152732   1.000000
    8       -0.636507   1.000000
    9        0.445387   1.000000
   10        0.467503   1.000000
   11        0.503691   1.000000
   12        1.111674   1.000000
   13        1.149058   1.000000
   14        1.316194   1.000000
   15        1.467976   1.000000
   16        1.546357   1.000000
   17        1.616114   1.000000
   18        2.296825   0.000000
   19        2.552886   0.000000
   20        2.888684   0.000000
   21        3.161994   0.000000
   22        3.503995   0.000000
   23        4.216361   0.000000
   24        4.382414   0.000000
   25        4.853172   0.000000
   26        5.132091   0.000000
   27        5.302584   0.000000
   28        5.542536   0.000000
   29        6.124991   0.000000
   30        6.301773   0.000000
   31        7.010271   0.000000
   32        7.408498   0.000000
   33        9.870717   0.000000
   34       10.867593   0.000000
   35       11.562534   0.000000
   36       12.046822   0.000000
   37       13.615403   0.000000
   38       14.691750   0.000000
   39       15.373575   0.000000
   40       15.575542   0.000000
 
  0.1052632E+00  0.0000000E+00  0.0000000E+00  0.1666667E-01
    1       -6.740957   1.000000
    2       -4.923331   1.000000
    3       -3.459652   1.000000
    4       -3.317342   1.000000
    5       -2.868355   1.000000
    6       -2.355185   1.000000
    7       -2.030690   1.000000
    8       -0.634161   1.000000
    9        0.338308   1.000000
   10        0.361826   1.000000
   11        0.364393   1.000000
   12        1.059564   1.000000
   13        1.127669   1.000000
   14        1.350573   1.000000
   15        1.359111   1.000000
   16        1.609461   1.000000
   17        1.726481   0.995596
   18        2.495821   0.000000
   19        2.694350   0.000000
   20        2.741109   0.000000
   21        3.089810   0.000000
   22        3.517629   0.000000
   23        4.315508   0.000000
   24        4.398476   0.000000
   25        4.739213   0.000000
   26        4.838573   0.000000
   27        5.270129   0.000000
   28        5.616469   0.000000
   29        6.211644   0.000000
   30        6.297576   0.000000
   31        7.180823   0.000000
   32        7.563193   0.000000
   33       10.158772   0.000000
   34       10.486920   0.000000
   35       11.655469   0.000000
   36       12.399346   0.000000
   37       13.106753   0.000000
   38       14.783544   0.000000
   39       15.012813   0.000000
   40       15.415846   0.000000
 
  0.1315789E+00  0.0000000E+00  0.0000000E+00  0.1666667E-01
    1       -6.606896   1.000000
    2       -4.832105   1.000000
    3       -3.411559   1.000000
    4       -3.207722   1.000000
    5       -2.822525   1.000000
    6       -2.379400   1.000000
    7       -1.876772   1.000000
    8       -0.603598   1.000000
    9        0.173797   1.000000
   10        0.227152   1.000000
   11        0.288556   1.000000
   12        0.989811   1.000000
   13        1.107542   1.000000
   14        1.279310   1.000000
   15        1.329580   1.000000
   16        1.709742   0.999009
   17        1.852019   0.175835
   18        2.642084   0.000000
   19        2.689750   0.000000
   20        2.796396   0.000000
   21        3.020988   0.000000
   22        3.517452   0.000000
   23        4.258888   0.000000
   24        4.529920   0.000000
   25        4.535903   0.000000
   26        4.675779   0.000000
   27        5.237711   0.000000
   28        5.704465   0.000000
   29        6.157076   0.000000
   30        6.451039   0.000000
   31        7.374252   0.000000
   32        7.722449   0.000000
   33       10.053756   0.000000
   34       10.456712   0.000000
   35       11.773717   0.000000
   36       12.612936   0.000000
   37       12.817788   0.000000
   38       14.456003   0.000000
   39       14.907941   0.000000
   40       15.399880   0.000000
 
  0.1578947E+00  0.0000000E+00  0.0000000E+00  0.1666667E-01
    1       -6.446343   1.000000
    2       -4.728198   1.000000
    3       -3.365131   1.000000
    4       -3.081795   1.000000
    5       -2.769143   1.000000
    6       -2.407937   1.000000
    7       -1.693538   1.000000
    8       -0.533544   1.000000
    9        0.012358   1.000000
   10        0.072870   1.000000
   11        0.227088   1.000000
   12        0.940367   1.000000
   13        1.053207   1.000000
   14        1.219836   1.000000
   15        1.255431   1.000000
   16        1.838769   0.288905
   17        1.988590   0.000001
   18        2.586266   0.000000
   19        2.854384   0.000000
   20        2.865129   0.000000
   21        2.967289   0.000000
   22        3.478103   0.000000
   23        4.238702   0.000000
   24        4.246478   0.000000
   25        4.599750   0.000000
   26        4.670465   0.000000
   27        5.205787   0.000000
   28        5.805303   0.000000
   29        6.161646   0.000000
   30        6.580163   0.000000
   31        7.577062   0.000000
   32        7.886736   0.000000
   33        9.592070   0.000000
   34       10.675146   0.000000
   35       11.905134   0.000000
   36       12.222385   0.000000
   37       13.288584   0.000000
   38       13.923272   0.000000
   39       15.068050   0.000000
   40       15.182246   0.000000
 
  0.1842105E+00  0.0000000E+00  0.0000000E+00  0.1666667E-01
    1       -6.261340   1.000000
    2       -4.616340   1.000000
    3       -3.326008   1.000000
    4       -2.953221   1.000000
    5       -2.697806   1.000000
    6       -2.438953   1.000000
    7       -1.484412   1.000000
    8       -0.416673   1.000000
    9       -0.144160   1.000000
   10       -0.090928   1.000000
   11        0.186771   1.000000
   12        0.910842   1.000000
   13        0.973732   1.000000
   14        1.142646   1.000000
   15        1.170124   1.000000
   16        1.984471   0.000001
   17        2.132109   0.000000
   18        2.555231   0.000000
   19        2.875217   0.000000
   20        2.933780   0.000000
   21        3.003170   0.000000
   22        3.387116   0.000000
   23        3.992203   0.000000
   24        4.270583   0.000000
   25        4.615666   0.000000
   26        4.718274   0.000000
   27        5.179145   0.000000
   28        5.918031   0.000000
   29        6.228323   0.000000
   30        6.682704   0.000000
   31        7.775939   0.000000
   32        8.057022   0.000000
   33        9.119926   0.000000
   34       10.636952   0.000000
   35       12.022860   0.000000
   36       12.106470   0.000000
   37       13.445404   0.000000
   38       13.800964   0.000000
   39       14.773549   0.000000
   40       15.280446   0.000000
 
  0.2105263E+00  0.0000000E+00  0.0000000E+00  0.1666667E-01
    1       -6.054462   1.000000
    2       -4.502136   1.000000
    3       -3.301462   1.000000
    4       -2.838756   1.000000
    5       -2.591531   1.000000
    6       -2.469675   1.000000
    7       -1.254024   1.000000
    8       -0.294159   1.000000
    9       -0.256129   1.000000
   10       -0.250545   1.000000
   11        0.172403   1.000000
   12        0.878955   1.000000
   13        0.900430   1.000000
   14        1.009059   1.000000
   15        1.121358   1.000000
   16        2.135623   0.000000
   17        2.276003   0.000000
   18        2.527529   0.000000
   19        2.874710   0.000000
   20        2.918564   0.000000
   21        3.075689   0.000000
   22        3.258986   0.000000
   23        3.804505   0.000000
   24        4.347655   0.000000
   25        4.602691   0.000000
   26        4.803864   0.000000
   27        5.164302   0.000000
   28        6.041212   0.000000
   29        6.339992   0.000000
   30        6.759037   0.000000
   31        7.955718   0.000000
   32        8.233179   0.000000
   33        8.653484   0.000000
   34       10.301156   0.000000
   35       12.053768   0.000000
   36       12.297492   0.000000
   37       13.096335   0.000000
   38       14.307015   0.000000
   39       14.346478   0.000000
   40       14.855856   0.000000
 
  0.2368421E+00  0.0000000E+00  0.0000000E+00  0.1666667E-01
    1       -5.828813   1.000000
    2       -4.391732   1.000000
    3       -3.296578   1.000000
    4       -2.740469   1.000000
    5       -2.496595   1.000000
    6       -2.448537   1.000000
    7       -1.008612   1.000000
    8       -0.436212   1.000000
    9       -0.416933   1.000000
   10       -0.037276   1.000000
   11        0.187351   1.000000
   12        0.777906   1.000000
   13        0.868864   1.000000
   14        0.907730   1.000000
   15        1.067791   1.000000
   16        2.277995   0.000000
   17        2.405328   0.000000
   18        2.487501   0.000000
   19        2.869879   0.000000
   20        2.908399   0.000000
   21        3.066963   0.000000
   22        3.131720   0.000000
   23        3.710515   0.000000
   24        4.453777   0.000000
   25        4.587467   0.000000
   26        4.908627   0.000000
   27        5.168089   0.000000
   28        6.172108   0.000000
   29        6.474086   0.000000
   30        6.812018   0.000000
   31        8.061371   0.000000
   32        8.246021   0.000000
   33        8.413621   0.000000
   34        9.834639   0.000000
   35       11.888427   0.000000
   36       12.612823   0.000000
   37       12.977803   0.000000
   38       13.843510   0.000000
   39       14.382582   0.000000
   40       14.918390   0.000000
 
  0.2631579E+00  0.0000000E+00  0.0000000E+00  0.1666667E-01
    1       -5.588125   1.000000
    2       -4.291311   1.000000
    3       -3.310811   1.000000
    4       -2.646343   1.000000
    5       -2.516001   1.000000
    6       -2.286139   1.000000
    7       -0.756543   1.000000
    8       -0.569314   1.000000
    9       -0.569017   1.000000
   10        0.217507   1.000000
   11        0.234021   1.000000
   12        0.677776   1.000000
   13        0.731457   1.000000
   14        0.930217   1.000000
   15        1.006983   1.000000
   16        2.381632   0.000000
   17        2.428129   0.000000
   18        2.484633   0.000000
   19        2.873126   0.000000
   20        2.873477   0.000000
   21        3.039491   0.000000
   22        3.074059   0.000000
   23        3.682892   0.000000
   24        4.575171   0.000000
   25        4.586921   0.000000
   26        5.015893   0.000000
   27        5.194854   0.000000
   28        6.304999   0.000000
   29        6.612753   0.000000
   30        6.846618   0.000000
   31        7.737486   0.000000
   32        8.249769   0.000000
   33        8.595211   0.000000
   34        9.332318   0.000000
   35       11.581963   0.000000
   36       12.886949   0.000000
   37       12.993951   0.000000
   38       13.468772   0.000000
   39       13.998894   0.000000
   40       15.511487   0.000000
 
  0.2894737E+00  0.0000000E+00  0.0000000E+00  0.1666667E-01
    1       -5.337072   1.000000
    2       -4.206216   1.000000
    3       -3.338671   1.000000
    4       -2.552023   1.000000
    5       -2.524920   1.000000
    6       -2.118890   1.000000
    7       -0.710452   1.000000
    8       -0.691387   1.000000
    9       -0.508718   1.000000
   10        0.313904   1.000000
   11        0.504575   1.000000
   12        0.583372   1.000000
   13        0.602639   1.000000
   14        0.939471   1.000000
   15        0.963646   1.000000
   16        2.350148   0.000000
   17        2.389305   0.000000
   18        2.477753   0.000000
   19        2.859488   0.000000
   20        2.890722   0.000000
   21        3.087522   0.000000
   22        3.104931   0.000000
   23        3.670323   0.000000
   24        4.606876   0.000000
   25        4.701597   0.000000
   26        5.112582   0.000000
   27        5.243158   0.000000
   28        6.425947   0.000000
   29        6.744366   0.000000
   30        6.869197   0.000000
   31        7.355511   0.000000
   32        8.294717   0.000000
   33        8.768656   0.000000
   34        8.832107   0.000000
   35       11.264397   0.000000
   36       12.754519   0.000000
   37       12.895396   0.000000
   38       13.523019   0.000000
   39       13.843700   0.000000
   40       15.609891   0.000000
 
  0.3157895E+00  0.0000000E+00  0.0000000E+00  0.1666667E-01
    1       -5.081418   1.000000
    2       -4.139780   1.000000
    3       -3.372723   1.000000
    4       -2.522044   1.000000
    5       -2.462696   1.000000
    6       -1.953128   1.000000
    7       -0.838316   1.000000
    8       -0.802216   1.000000
    9       -0.277747   1.000000
   10        0.425972   1.000000
   11        0.485940   1.000000
   12        0.490385   1.000000
   13        0.815701   1.000000
   14        0.867964   1.000000
   15        1.002278   1.000000
   16        2.259319   0.000000
   17        2.303291   0.000000
   18        2.424073   0.000000
   19        2.910501   0.000000
   20        2.923824   0.000000
   21        3.187008   0.000000
   22        3.202942   0.000000
   23        3.656605   0.000000
   24        4.645433   0.000000
   25        4.825164   0.000000
   26        5.189436   0.000000
   27        5.304796   0.000000
   28        6.491661   0.000000
   29        6.862063   0.000000
   30        6.886404   0.000000
   31        7.051989   0.000000
   32        8.276454   0.000000
   33        8.332179   0.000000
   34        8.944046   0.000000
   35       10.993133   0.000000
   36       12.388849   0.000000
   37       12.612264   0.000000
   38       13.825266   0.000000
   39       13.944720   0.000000
   40       15.228807   0.000000
 
  0.3421053E+00  0.0000000E+00  0.0000000E+00  0.1666667E-01
    1       -4.828521   1.000000
    2       -4.092629   1.000000
    3       -3.405491   1.000000
    4       -2.508313   1.000000
    5       -2.388188   1.000000
    6       -1.788578   1.000000
    7       -0.951427   1.000000
    8       -0.900508   1.000000
    9       -0.074401   1.000000
   10        0.383406   1.000000
   11        0.396639   1.000000
   12        0.561064   1.000000
   13        0.796269   1.000000
   14        1.042163   1.000000
   15        1.127330   1.000000
   16        2.163351   0.000000
   17        2.206872   0.000000
   18        2.385788   0.000000
   19        2.970085   0.000000
   20        2.975194   0.000000
   21        3.303615   0.000000
   22        3.315610   0.000000
   23        3.668659   0.000000
   24        4.696848   0.000000
   25        4.939698   0.000000
   26        5.241266   0.000000
   27        5.367156   0.000000
   28        6.401645   0.000000
   29        6.903719   0.000000
   30        6.917360   0.000000
   31        6.962285   0.000000
   32        7.858902   0.000000
   33        8.205471   0.000000
   34        9.096469   0.000000
   35       10.774096   0.000000
   36       12.033644   0.000000
   37       12.293442   0.000000
   38       14.127826   0.000000
   39       14.147530   0.000000
   40       14.861454   0.000000
 
  0.3684211E+00  0.0000000E+00  0.0000000E+00  0.1666667E-01
    1       -4.588203   1.000000
    2       -4.062755   1.000000
    3       -3.429606   1.000000
    4       -2.486779   1.000000
    5       -2.338475   1.000000
    6       -1.620594   1.000000
    7       -1.048672   1.000000
    8       -0.985345   1.000000
    9        0.096937   1.000000
   10        0.289542   1.000000
   11        0.296182   1.000000
   12        0.692263   1.000000
   13        0.728405   1.000000
   14        1.091296   1.000000
   15        1.401782   1.000000
   16        2.069819   0.000000
   17        2.173101   0.000000
   18        2.390165   0.000000
   19        3.025066   0.000000
   20        3.030087   0.000000
   21        3.355111   0.000000
   22        3.437083   0.000000
   23        3.763281   0.000000
   24        4.754274   0.000000
   25        5.041162   0.000000
   26        5.267402   0.000000
   27        5.417030   0.000000
   28        6.192009   0.000000
   29        6.883536   0.000000
   30        6.924094   0.000000
   31        7.043776   0.000000
   32        7.413315   0.000000
   33        8.132774   0.000000
   34        9.224618   0.000000
   35       10.575523   0.000000
   36       11.727738   0.000000
   37       12.035962   0.000000
   38       14.352500   0.000000
   39       14.368164   0.000000
   40       14.530249   0.000000
 
  0.3947368E+00  0.0000000E+00  0.0000000E+00  0.1666667E-01
    1       -4.373494   1.000000
    2       -4.046378   1.000000
    3       -3.437257   1.000000
    4       -2.461657   1.000000
    5       -2.319139   1.000000
    6       -1.444040   1.000000
    7       -1.129214   1.000000
    8       -1.055921   1.000000
    9        0.158890   1.000000
   10        0.224810   1.000000
   11        0.237641   1.000000
   12        0.668006   1.000000
   13        0.776482   1.000000
   14        1.175098   1.000000
   15        1.572404   1.000000
   16        1.985163   0.000001
   17        2.272113   0.000000
   18        2.434096   0.000000
   19        3.073428   0.000000
   20        3.083131   0.000000
   21        3.335253   0.000000
   22        3.569130   0.000000
   23        3.928532   0.000000
   24        4.811154   0.000000
   25        5.128782   0.000000
   26        5.271646   0.000000
   27        5.444042   0.000000
   28        5.983180   0.000000
   29        6.791134   0.000000
   30        6.947413   0.000000
   31        7.004178   0.000000
   32        7.106872   0.000000
   33        8.129090   0.000000
   34        9.322043   0.000000
   35       10.353596   0.000000
   36       11.484764   0.000000
   37       11.886001   0.000000
   38       14.176701   0.000000
   39       14.309230   0.000000
   40       14.577458   0.000000
 
  0.4210526E+00  0.0000000E+00  0.0000000E+00  0.1666667E-01
    1       -4.200295   1.000000
    2       -4.039099   1.000000
    3       -3.421190   1.000000
    4       -2.437239   1.000000
    5       -2.328384   1.000000
    6       -1.256643   1.000000
    7       -1.192442   1.000000
    8       -1.111557   1.000000
    9        0.000700   1.000000
   10        0.169457   1.000000
   11        0.349549   1.000000
   12        0.618056   1.000000
   13        0.800607   1.000000
   14        1.295945   1.000000
   15        1.633037   1.000000
   16        1.914441   0.003499
   17        2.493730   0.000000
   18        2.493748   0.000000
   19        3.106218   0.000000
   20        3.138022   0.000000
   21        3.309074   0.000000
   22        3.684203   0.000000
   23        4.116317   0.000000
   24        4.861773   0.000000
   25        5.206545   0.000000
   26        5.261223   0.000000
   27        5.443631   0.000000
   28        5.811055   0.000000
   29        6.609549   0.000000
   30        6.643125   0.000000
   31        6.971130   0.000000
   32        7.152956   0.000000
   33        8.221493   0.000000
   34        9.386932   0.000000
   35       10.093874   0.000000
   36       11.308532   0.000000
   37       11.844151   0.000000
   38       13.888987   0.000000
   39       14.041069   0.000000
   40       14.675451   0.000000
 
  0.4473684E+00  0.0000000E+00  0.0000000E+00  0.1666667E-01
    1       -4.081593   1.000000
    2       -4.036943   1.000000
    3       -3.381559   1.000000
    4       -2.417182   1.000000
    5       -2.356506   1.000000
    6       -1.237899   1.000000
    7       -1.151696   1.000000
    8       -1.060347   1.000000
    9       -0.180353   1.000000
   10        0.130067   1.000000
   11        0.432132   1.000000
   12        0.580818   1.000000
   13        0.794127   1.000000
   14        1.417299   1.000000
   15        1.649299   0.999999
   16        1.861382   0.115810
   17        2.540841   0.000000
   18        2.738868   0.000000
   19        3.129109   0.000000
   20        3.183340   0.000000
   21        3.301223   0.000000
   22        3.768826   0.000000
   23        4.296884   0.000000
   24        4.901461   0.000000
   25        5.244944   0.000000
   26        5.283763   0.000000
   27        5.419757   0.000000
   28        5.678561   0.000000
   29        6.347924   0.000000
   30        6.391251   0.000000
   31        6.991628   0.000000
   32        7.183926   0.000000
   33        8.378886   0.000000
   34        9.423751   0.000000
   35        9.820876   0.000000
   36       11.193998   0.000000
   37       11.872782   0.000000
   38       13.646087   0.000000
   39       13.824179   0.000000
   40       14.610970   0.000000
 
  0.4736842E+00  0.0000000E+00  0.0000000E+00  0.1666667E-01
    1       -4.036891   1.000000
    2       -4.017567   1.000000
    3       -3.336520   1.000000
    4       -2.404115   1.000000
    5       -2.386831   1.000000
    6       -1.265292   1.000000
    7       -1.175944   1.000000
    8       -0.865006   1.000000
    9       -0.369406   1.000000
   10        0.106513   1.000000
   11        0.483186   1.000000
   12        0.557861   1.000000
   13        0.782399   1.000000
   14        1.505091   1.000000
   15        1.654421   0.999998
   16        1.828556   0.394457
   17        2.563187   0.000000
   18        2.926864   0.000000
   19        3.142554   0.000000
   20        3.213320   0.000000
   21        3.309745   0.000000
   22        3.815364   0.000000
   23        4.437845   0.000000
   24        4.926724   0.000000
   25        5.231152   0.000000
   26        5.370364   0.000000
   27        5.387056   0.000000
   28        5.574184   0.000000
   29        6.146563   0.000000
   30        6.209595   0.000000
   31        7.005479   0.000000
   32        7.201607   0.000000
   33        8.545566   0.000000
   34        9.440890   0.000000
   35        9.585120   0.000000
   36       11.131123   0.000000
   37       11.921757   0.000000
   38       13.477045   0.000000
   39       13.689674   0.000000
   40       14.518983   0.000000
 
  0.5000000E+00  0.0000000E+00  0.0000000E+00  0.1666667E-01
    1       -4.037087   1.000000
    2       -3.998131   1.000000
    3       -3.316346   1.000000
    4       -2.400094   1.000000
    5       -2.399586   1.000000
    6       -1.274443   1.000000
    7       -1.184056   1.000000
    8       -0.740464   1.000000
    9       -0.492384   1.000000
   10        0.098678   1.000000
   11        0.500507   1.000000
   12        0.550110   1.000000
   13        0.777359   1.000000
   14        1.537151   1.000000
   15        1.655807   0.999998
   16        1.817451   0.518492
   17        2.568316   0.000000
   18        2.998469   0.000000
   19        3.146948   0.000000
   20        3.223821   0.000000
   21        3.316156   0.000000
   22        3.828594   0.000000
   23        4.493938   0.000000
   24        4.935395   0.000000
   25        5.225832   0.000000
   26        5.370696   0.000000
   27        5.447510   0.000000
   28        5.496582   0.000000
   29        6.073572   0.000000
   30        6.137060   0.000000
   31        7.010363   0.000000
   32        7.207332   0.000000
   33        8.627549   0.000000
   34        9.445684   0.000000
   35        9.480021   0.000000
   36       11.111238   0.000000
   37       11.945032   0.000000
   38       13.415042   0.000000
   39       13.644411   0.000000
   40       14.480862   0.000000
 
  0.5000000E+00  0.0000000E+00  0.0000000E+00  0.1666667E-01
    1       -4.037087   1.000000
    2       -3.998131   1.000000
    3       -3.316346   1.000000
    4       -2.400094   1.000000
    5       -2.399586   1.000000
    6       -1.274443   1.000000
    7       -1.184056   1.000000
    8       -0.740464   1.000000
    9       -0.492384   1.000000
   10        0.098678   1.000000
   11        0.500507   1.000000
   12        0.550110   1.000000
   13        0.777359   1.000000
   14        1.537151   1.000000
   15        1.655807   0.999998
   16        1.817451   0.518492
   17        2.568316   0.000000
   18        2.998469   0.000000
   19        3.146948   0.000000
   20        3.223821   0.000000
   21        3.316156   0.000000
   22        3.828594   0.000000
   23        4.493938   0.000000
   24        4.935395   0.000000
   25        5.225832   0.000000
   26        5.370696   0.000000
   27        5.447510   0.000000
   28        5.496582   0.000000
   29        6.073572   0.000000
   30        6.137060   0.000000
   31        7.010363   0.000000
   32        7.207332   0.000000
   33        8.627549   0.000000
   34        9.445684   0.000000
   35        9.480021   0.000000
   36       11.111238   0.000000
   37       11.945032   0.000000
   38       13.415043   0.000000
   39       13.644412   0.000000
   40       14.480937   0.000000
 
  0.5000000E+00  0.2631579E-01  0.0000000E+00  0.1666667E-01
    1       -4.020536   1.000000
    2       -3.982744   1.000000
    3       -3.304912   1.000000
    4       -2.397496   1.000000
    5       -2.387175   1.000000
    6       -1.279825   1.000000
    7       -1.193755   1.000000
    8       -0.756004   1.000000
    9       -0.527608   1.000000
   10        0.146465   1.000000
   11        0.427201   1.000000
   12        0.494493   1.000000
   13        0.899911   1.000000
   14        1.506057   1.000000
   15        1.667822   0.999991
   16        1.835014   0.326211
   17        2.487144   0.000000
   18        2.973412   0.000000
   19        3.149157   0.000000
   20        3.303174   0.000000
   21        3.326336   0.000000