       N       E                     dE             d eps       ncg     rms          rms(c)
DAV:   1     0.599060190046E+02    0.59906E+02   -0.13747E+04  4800   0.683E+02
DAV:   2    -0.627117758157E+02   -0.12262E+03   -0.12073E+03  7240   0.124E+02
DAV:   3    -0.646905956575E+02   -0.19788E+01   -0.19778E+01  5040   0.181E+01
DAV:   4    -0.646993890204E+02   -0.87934E-02   -0.87933E-02  9440   0.104E+00
DAV:   5    -0.646993897923E+02   -0.77188E-06   -0.77193E-06  5080   0.742E-03
DAV:   6    -0.646993897940E+02   -0.17217E-08   -0.17664E-08  9520   0.371E-04
   1 F= -.64699390E+02 E0= -.64695438E+02  d E =-.790337E-02
