 vasp.5.4.4.18Apr17-6-g9f103f2a35 (build May 20 2018 16:52:39) complex          
  
 executed on             LinuxIFC date 2022.11.18  01:50:56
 running on   40 total cores
 distrk:  each k-point on   40 cores,    1 groups
 distr:  one band on NCORES_PER_BAND=   1 cores,   40 groups


--------------------------------------------------------------------------------------------------------


 INCAR:
 POTCAR:    PAW W                                 

 ----------------------------------------------------------------------------- 
|                                                                             |
|           W    W    AA    RRRRR   N    N  II  N    N   GGGG   !!!           |
|           W    W   A  A   R    R  NN   N  II  NN   N  G    G  !!!           |
|           W    W  A    A  R    R  N N  N  II  N N  N  G       !!!           |
|           W WW W  AAAAAA  RRRRR   N  N N  II  N  N N  G  GGG   !            |
|           WW  WW  A    A  R   R   N   NN  II  N   NN  G    G                |
|           W    W  A    A  R    R  N    N  II  N    N   GGGG   !!!           |
|                                                                             |
|      For optimal performance we recommend to set                            |
|        NCORE= 4 - approx SQRT( number of cores)                             |
|      NCORE specifies how many cores store one orbital (NPAR=cpu/NCORE).     |
|      This setting can  greatly improve the performance of VASP for DFT.     |
|      The default,   NCORE=1            might be grossly inefficient         |
|      on modern multi-core architectures or massively parallel machines.     |
|      Do your own testing !!!!                                               |
|      Unfortunately you need to use the default for GW and RPA calculations. |
|      (for HF NCORE is supported but not extensively tested yet)             |
|                                                                             |
 ----------------------------------------------------------------------------- 

 POTCAR:    PAW W                                 
   VRHFIN =W: 5p6s5d                                                            
   LEXCH  = CA                                                                  
   EATOM  =   206.5370 eV,   15.1800 Ry                                         
                                                                                
   TITEL  = PAW W                                                               
   LULTRA =        F    use ultrasoft PP ?                                      
   IUNSCR =        1    unscreen: 0-lin 1-nonlin 2-no                           
   RPACOR =    2.330    partial core radius                                     
   POMASS =  183.850; ZVAL   =    6.000    mass and valenz                      
   RCORE  =    2.750    outmost cutoff radius                                   
   RWIGS  =    2.750; RWIGS  =    1.455    wigner-seitz radius (au A)           
   ENMAX  =  223.126; ENMIN  =  167.344 eV                                      
   RCLOC  =    2.147    cutoff for local pot                                    
   LCOR   =        T    correct aug charges                                     
   LPAW   =        T    paw PP                                                  
   EAUG   =  373.438                                                            
   DEXC   =    -.048                                                            
   RMAX   =    3.087    core radius for proj-oper                               
   RAUG   =    1.300    factor for augmentation sphere                          
   RDEP   =    2.886    radius for radial grids                                 
   QCUT   =   -4.050; QGAM   =    8.099    optimization parameters              
                                                                                
   Description                                                                  
     l     E      TYP  RCUT    TYP  RCUT                                        
     2   .000     23  2.500                                                     
     2   .000     23  2.500                                                     
     0   .000     23  2.500                                                     
     0   .000     23  2.500                                                     
     1   .200     23  2.750                                                     
     1  2.000     23  2.750                                                     
     3   .000      7   .000                                                     
  local pseudopotential read in
  partial core-charges read in
  atomic valenz-charges read in
  non local Contribution for L=           2  read in
    real space projection operators read in
  non local Contribution for L=           2  read in
    real space projection operators read in
  non local Contribution for L=           0  read in
    real space projection operators read in
  non local Contribution for L=           0  read in
    real space projection operators read in
  non local Contribution for L=           1  read in
    real space projection operators read in
  non local Contribution for L=           1  read in
    real space projection operators read in
    PAW grid and wavefunctions read in
 
   number of l-projection  operators is LMAX  =           6
   number of lm-projection operators is LMMAX =          18
 
  PAW W                                 :
 energy of atom  1       EATOM= -206.5370
 kinetic energy error for atom=    0.0005 (will be added to EATOM!!)
 
 
 POSCAR: BCC W 5-layers                          
  positions in direct lattice
  No initial velocities read in
 exchange correlation table for  LEXCH =        2
   RHO(1)=    0.500       N(1)  =     2000
   RHO(2)=  100.500       N(2)  =     4000
 


--------------------------------------------------------------------------------------------------------


 ion  position               nearest neighbor table
   1  0.000  0.000  0.000-   2 2.74   2 2.74   2 2.74   2 2.74   3 3.16
   2  0.500  0.500  0.100-   1 2.74   3 2.74   1 2.74   3 2.74   1 2.74   3 2.74   1 2.74   3 2.74
                             4 3.16
   3  0.000  0.000  0.200-   4 2.74   4 2.74   4 2.74   4 2.74   2 2.74   2 2.74   2 2.74   2 2.74
                             5 3.16   1 3.16
   4  0.500  0.500  0.300-   3 2.74   3 2.74   3 2.74   3 2.74   5 2.74   5 2.74   5 2.74   5 2.74
                             2 3.16
   5  0.000  0.000  0.400-   4 2.74   4 2.74   4 2.74   4 2.74   3 3.16
 
  LATTYP: Found a simple tetragonal cell.
 ALAT       =     3.1600000000
 C/A-ratio  =     5.0000000000
  
  Lattice vectors:
  
 A1 = (   3.1600000000,   0.0000000000,   0.0000000000)
 A2 = (   0.0000000000,   3.1600000000,   0.0000000000)
 A3 = (   0.0000000000,   0.0000000000,  15.8000000000)


Analysis of symmetry for initial positions (statically):
=====================================================================
 Subroutine PRICEL returns:
 Original cell was already a primitive cell.
 

 Routine SETGRP: Setting up the symmetry group for a 
 simple tetragonal supercell.


 Subroutine GETGRP returns: Found 16 space group operations
 (whereof  8 operations were pure point group operations)
 out of a pool of 16 trial point group operations.


The static configuration has the point symmetry C_4v.
 The point group associated with its full space group is D_4h.


Analysis of symmetry for dynamics (positions and initial velocities):
=====================================================================
 Subroutine PRICEL returns:
 Original cell was already a primitive cell.
 

 Routine SETGRP: Setting up the symmetry group for a 
 simple tetragonal supercell.


 Subroutine GETGRP returns: Found 16 space group operations
 (whereof  8 operations were pure point group operations)
 out of a pool of 16 trial point group operations.


The dynamic configuration has the point symmetry C_4v.
 The point group associated with its full space group is D_4h.


 Subroutine INISYM returns: Found 16 space group operations
 (whereof  8 operations are pure point group operations),
 and found     1 'primitive' translations

 
 
 KPOINTS: K-Path Generated by VASPKIT.            
  interpolating k-points between supplied coordinates
  k-points in reciprocal lattice
Space group operators:
 irot       det(A)        alpha          n_x          n_y          n_z        tau_x        tau_y        tau_z
    1     1.000000     0.000000     1.000000     0.000000     0.000000     0.000000     0.000000     0.000000
    2     1.000000    90.000000     0.000000     0.000000    -1.000000     0.000000     0.000000     0.000000
    3     1.000000   180.000000     0.000000     0.000000     1.000000     0.000000     0.000000     0.000000
    4     1.000000    90.000000     0.000000     0.000000     1.000000     0.000000     0.000000     0.000000
    5    -1.000000   180.000000     0.000000     1.000000     0.000000     0.000000     0.000000     0.000000
    6    -1.000000   180.000000     0.707107     0.707107     0.000000     0.000000     0.000000     0.000000
    7    -1.000000   180.000000     1.000000     0.000000     0.000000     0.000000     0.000000     0.000000
    8    -1.000000   180.000000     0.707107    -0.707107     0.000000     0.000000     0.000000     0.000000
    9    -1.000000     0.000000     1.000000     0.000000     0.000000     0.000000     0.000000     0.400000
   10    -1.000000    90.000000     0.000000     0.000000    -1.000000     0.000000     0.000000     0.400000
   11    -1.000000   180.000000     0.000000     0.000000     1.000000     0.000000     0.000000     0.400000
   12    -1.000000    90.000000     0.000000     0.000000     1.000000     0.000000     0.000000     0.400000
   13     1.000000   180.000000     0.000000     1.000000     0.000000     0.000000     0.000000     0.400000
   14     1.000000   180.000000     0.707107     0.707107     0.000000     0.000000     0.000000     0.400000
   15     1.000000   180.000000     1.000000     0.000000     0.000000     0.000000     0.000000     0.400000
   16     1.000000   180.000000     0.707107    -0.707107     0.000000     0.000000     0.000000     0.400000


--------------------------------------------------------------------------------------------------------




 Dimension of arrays:
   k-points           NKPTS =     60   k-points in BZ     NKDIM =     60   number of bands    NBANDS=     40
   number of dos      NEDOS =    301   number of ions     NIONS =      5
   non local maximal  LDIM  =      6   non local SUM 2l+1 LMDIM =     18
   total plane-waves  NPLWV =  38400
   max r-space proj   IRMAX =      1   max aug-charges    IRDMAX=  14091
   dimension x,y,z NGX =    20 NGY =   20 NGZ =   96
   dimension x,y,z NGXF=    40 NGYF=   40 NGZF=  192
   support grid    NGXF=    40 NGYF=   40 NGZF=  192
   ions per type =               5
   NGX,Y,Z   is equivalent  to a cutoff of  10.52, 10.52, 10.10 a.u.
   NGXF,Y,Z  is equivalent  to a cutoff of  21.04, 21.04, 20.20 a.u.

 SYSTEM =  unknown system                          
 POSCAR =  BCC W 5-layers                          

 Startparameter for this run:
   NWRITE =      2    write-flag & timer
   PREC   = normal    normal or accurate (medium, high low for compatibility)
   ISTART =      0    job   : 0-new  1-cont  2-samecut
   ICHARG =     11    charge: 1-file 2-atom 10-const
   ISPIN  =      1    spin polarized calculation?
   LNONCOLLINEAR =      F non collinear calculations
   LSORBIT =      F    spin-orbit coupling
   INIWAV =      1    electr: 0-lowe 1-rand  2-diag
   LASPH  =      F    aspherical Exc in radial PAW
   METAGGA=      F    non-selfconsistent MetaGGA calc.

 Electronic Relaxation 1
   ENCUT  =  600.0 eV  44.10 Ry    6.64 a.u.   6.31  6.31 31.56*2*pi/ulx,y,z
   ENINI  =  600.0     initial cutoff
   ENAUG  =  373.4 eV  augmentation charge cutoff
   NELM   =     60;   NELMIN=  2; NELMDL= -5     # of ELM steps 
   EDIFF  = 0.1E-05   stopping-criterion for ELM
   LREAL  =      F    real-space projection
   NLSPLINE    = F    spline interpolate recip. space projectors
   LCOMPAT=      F    compatible to vasp.4.4
   GGA_COMPAT  = T    GGA compatible to vasp.4.4-vasp.4.6
   LMAXPAW     = -100 max onsite density
   LMAXMIX     =    2 max onsite mixed and CHGCAR
   VOSKOWN=      0    Vosko Wilk Nusair interpolation
   ROPT   =    0.00000
 Ionic relaxation
   EDIFFG = 0.1E-04   stopping-criterion for IOM
   NSW    =      0    number of steps for IOM
   NBLOCK =      1;   KBLOCK =      1    inner block; outer block 
   IBRION =     -1    ionic relax: 0-MD 1-quasi-New 2-CG
   NFREE  =      0    steps in history (QN), initial steepest desc. (CG)
   ISIF   =      2    stress and relaxation
   IWAVPR =     10    prediction:  0-non 1-charg 2-wave 3-comb
   ISYM   =      2    0-nonsym 1-usesym 2-fastsym
   LCORR  =      T    Harris-Foulkes like correction to forces

   POTIM  = 0.5000    time-step for ionic-motion
   TEIN   =    0.0    initial temperature
   TEBEG  =    0.0;   TEEND  =   0.0 temperature during run
   SMASS  =  -3.00    Nose mass-parameter (am)
   estimated Nose-frequenzy (Omega)   =  0.10E-29 period in steps =****** mass=  -0.228E-27a.u.
   SCALEE = 1.0000    scale energy and forces
   NPACO  =    256;   APACO  = 16.0  distance and # of slots for P.C.
   PSTRESS=    0.0 pullay stress

  Mass of Ions in am
   POMASS = 183.85
  Ionic Valenz
   ZVAL   =   6.00
  Atomic Wigner-Seitz radii
   RWIGS  =  -1.00
  virtual crystal weights 
   VCA    =   1.00
   NELECT =      30.0000    total number of electrons
   NUPDOWN=      -1.0000    fix difference up-down

 DOS related values:
   EMIN   =  10.00;   EMAX   =-10.00  energy-range for DOS
   EFERMI =   0.00
   ISMEAR =     0;   SIGMA  =   0.05  broadening in eV -4-tet -1-fermi 0-gaus

 Electronic relaxation 2 (details)
   IALGO  =     38    algorithm
   LDIAG  =      T    sub-space diagonalisation (order eigenvalues)
   LSUBROT=      F    optimize rotation matrix (better conditioning)
   TURBO    =      0    0=normal 1=particle mesh
   IRESTART =      0    0=no restart 2=restart with 2 vectors
   NREBOOT  =      0    no. of reboots
   NMIN     =      0    reboot dimension
   EREF     =   0.00    reference energy to select bands
   IMIX   =      4    mixing-type and parameters
     AMIX     =   0.40;   BMIX     =  1.00
     AMIX_MAG =   1.60;   BMIX_MAG =  1.00
     AMIN     =   0.10
     WC   =   100.;   INIMIX=   1;  MIXPRE=   1;  MAXMIX= -45

 Intra band minimization:
   WEIMIN = 0.0000     energy-eigenvalue tresh-hold
   EBREAK =  0.62E-08  absolut break condition
   DEPER  =   0.30     relativ break condition  

   TIME   =   0.40     timestep for ELM

  volume/ion in A,a.u.               =      31.55       212.94
  Fermi-wavevector in a.u.,A,eV,Ry     =   0.941394  1.778977 12.057795  0.886223
  Thomas-Fermi vector in A             =   2.068901
 
 Write flags
   LWAVE        =      T    write WAVECAR
   LDOWNSAMPLE  =      F    k-point downsampling of WAVECAR
   LCHARG       =      F    write CHGCAR
   LVTOT        =      F    write LOCPOT, total local potential
   LVHAR        =      F    write LOCPOT, Hartree potential only
   LELF         =      F    write electronic localiz. function (ELF)
   LORBIT       =      0    0 simple, 1 ext, 2 COOP (PROOUT), +10 PAW based schemes


 Dipole corrections
   LMONO  =      F    monopole corrections only (constant potential shift)
   LDIPOL =      F    correct potential (dipole corrections)
   IDIPOL =      0    1-x, 2-y, 3-z, 4-all directions 
   EPSILON=  1.0000000 bulk dielectric constant

 Exchange correlation treatment:
   GGA     =    --    GGA type
   LEXCH   =     2    internal setting for exchange type
   VOSKOWN=      0    Vosko Wilk Nusair interpolation
   LHFCALC =     F    Hartree Fock is set to
   LHFONE  =     F    Hartree Fock one center treatment
   AEXX    =    0.0000 exact exchange contribution

 Linear response parameters
   LEPSILON=     F    determine dielectric tensor
   LRPA    =     F    only Hartree local field effects (RPA)
   LNABLA  =     F    use nabla operator in PAW spheres
   LVEL    =     F    velocity operator in full k-point grid
   LINTERFAST=   F  fast interpolation
   KINTER  =     0    interpolate to denser k-point grid
   CSHIFT  =0.1000    complex shift for real part using Kramers Kronig
   OMEGAMAX=  -1.0    maximum frequency
   DEG_THRESHOLD= 0.2000000E-02 threshold for treating states as degnerate
   RTIME   =   -0.100 relaxation time in fs
  (WPLASMAI=    0.000 imaginary part of plasma frequency in eV, 0.658/RTIME)
   DFIELD  = 0.0000000 0.0000000 0.0000000 field for delta impulse in time
 
 Orbital magnetization related:
   ORBITALMAG=     F  switch on orbital magnetization
   LCHIMAG   =     F  perturbation theory with respect to B field
   DQ        =  0.001000  dq finite difference perturbation B field
   LLRAUG    =     F  two centre corrections for induced B field



--------------------------------------------------------------------------------------------------------


 Static calculation
 charge density and potential remain constant during run
 non-spin polarized calculation
 Variant of blocked Davidson
 Davidson routine will perform the subspace rotation
 perform sub-space diagonalisation
    after iterative eigenvector-optimisation
 no mixing
 using additional bands           25
 reciprocal scheme for non local part
 use partial core corrections
 calculate Harris-corrections to forces 
   (improved forces if not selfconsistent)
 use of overlap-Matrix (Vanderbilt PP)
 Gauss-broadening in eV      SIGMA  =   0.05


--------------------------------------------------------------------------------------------------------


  energy-cutoff  :      600.00
  volume of cell :      157.77
      direct lattice vectors                 reciprocal lattice vectors
     3.160000000  0.000000000  0.000000000     0.316455696  0.000000000  0.000000000
     0.000000000  3.160000000  0.000000000     0.000000000  0.316455696  0.000000000
     0.000000000  0.000000000 15.800000000     0.000000000  0.000000000  0.063291139

  length of vectors
     3.160000000  3.160000000 15.800000000     0.316455696  0.316455696  0.063291139


 
 k-points in units of 2pi/SCALE and weight: K-Path Generated by VASPKIT.            
   0.00000000  0.00000000  0.00000000       0.017
   0.02631579  0.00000000  0.00000000       0.017
   0.05263158  0.00000000  0.00000000       0.017
   0.07894737  0.00000000  0.00000000       0.017
   0.10526316  0.00000000  0.00000000       0.017
   0.13157895  0.00000000  0.00000000       0.017
   0.15789474  0.00000000  0.00000000       0.017
   0.18421053  0.00000000  0.00000000       0.017
   0.21052632  0.00000000  0.00000000       0.017
   0.23684211  0.00000000  0.00000000       0.017
   0.26315789  0.00000000  0.00000000       0.017
   0.28947368  0.00000000  0.00000000       0.017
   0.31578947  0.00000000  0.00000000       0.017
   0.34210526  0.00000000  0.00000000       0.017
   0.36842105  0.00000000  0.00000000       0.017
   0.39473684  0.00000000  0.00000000       0.017
   0.42105263  0.00000000  0.00000000       0.017
   0.44736842  0.00000000  0.00000000       0.017
   0.47368421  0.00000000  0.00000000       0.017
   0.50000000  0.00000000  0.00000000       0.017
   0.50000000  0.00000000  0.00000000       0.017
   0.50000000  0.02631579  0.00000000       0.017
   0.50000000  0.05263158  0.00000000       0.017
   0.50000000  0.07894737  0.00000000       0.017
   0.50000000  0.10526316  0.00000000       0.017
   0.50000000  0.13157895  0.00000000       0.017
   0.50000000  0.15789474  0.00000000       0.017
   0.50000000  0.18421053  0.00000000       0.017
   0.50000000  0.21052632  0.00000000       0.017
   0.50000000  0.23684211  0.00000000       0.017
   0.50000000  0.26315789  0.00000000       0.017
   0.50000000  0.28947368  0.00000000       0.017
   0.50000000  0.31578947  0.00000000       0.017
   0.50000000  0.34210526  0.00000000       0.017
   0.50000000  0.36842105  0.00000000       0.017
   0.50000000  0.39473684  0.00000000       0.017
   0.50000000  0.42105263  0.00000000       0.017
   0.50000000  0.44736842  0.00000000       0.017
   0.50000000  0.47368421  0.00000000       0.017
   0.50000000  0.50000000  0.00000000       0.017
   0.50000000  0.50000000  0.00000000       0.017
   0.47368421  0.47368421  0.00000000       0.017
   0.44736842  0.44736842  0.00000000       0.017
   0.42105263  0.42105263  0.00000000       0.017
   0.39473684  0.39473684  0.00000000       0.017
   0.36842105  0.36842105  0.00000000       0.017
   0.34210526  0.34210526  0.00000000       0.017
   0.31578947  0.31578947  0.00000000       0.017
   0.28947368  0.28947368  0.00000000       0.017
   0.26315789  0.26315789  0.00000000       0.017
   0.23684211  0.23684211  0.00000000       0.017
   0.21052632  0.21052632  0.00000000       0.017
   0.18421053  0.18421053  0.00000000       0.017
   0.15789474  0.15789474  0.00000000       0.017
   0.13157895  0.13157895  0.00000000       0.017
   0.10526316  0.10526316  0.00000000       0.017
   0.07894737  0.07894737  0.00000000       0.017
   0.05263158  0.05263158  0.00000000       0.017
   0.02631579  0.02631579  0.00000000       0.017
   0.00000000  0.00000000  0.00000000       0.017
 
 k-points in reciprocal lattice and weights: K-Path Generated by VASPKIT.            
   0.00000000  0.00000000  0.00000000       0.017
   0.02631579  0.00000000  0.00000000       0.017
   0.05263158  0.00000000  0.00000000       0.017
   0.07894737  0.00000000  0.00000000       0.017
   0.10526316  0.00000000  0.00000000       0.017
   0.13157895  0.00000000  0.00000000       0.017
   0.15789474  0.00000000  0.00000000       0.017
   0.18421053  0.00000000  0.00000000       0.017
   0.21052632  0.00000000  0.00000000       0.017
   0.23684211  0.00000000  0.00000000       0.017
   0.26315789  0.00000000  0.00000000       0.017
   0.28947368  0.00000000  0.00000000       0.017
   0.31578947  0.00000000  0.00000000       0.017
   0.34210526  0.00000000  0.00000000       0.017
   0.36842105  0.00000000  0.00000000       0.017
   0.39473684  0.00000000  0.00000000       0.017
   0.42105263  0.00000000  0.00000000       0.017
   0.44736842  0.00000000  0.00000000       0.017
   0.47368421  0.00000000  0.00000000       0.017
   0.50000000  0.00000000  0.00000000       0.017
   0.50000000  0.00000000  0.00000000       0.017
   0.50000000  0.02631579  0.00000000       0.017
   0.50000000  0.05263158  0.00000000       0.017
   0.50000000  0.07894737  0.00000000       0.017
   0.50000000  0.10526316  0.00000000       0.017
   0.50000000  0.13157895  0.00000000       0.017
   0.50000000  0.15789474  0.00000000       0.017
   0.50000000  0.18421053  0.00000000       0.017
   0.50000000  0.21052632  0.00000000       0.017
   0.50000000  0.23684211  0.00000000       0.017
   0.50000000  0.26315789  0.00000000       0.017
   0.50000000  0.28947368  0.00000000       0.017
   0.50000000  0.31578947  0.00000000       0.017
   0.50000000  0.34210526  0.00000000       0.017
   0.50000000  0.36842105  0.00000000       0.017
   0.50000000  0.39473684  0.00000000       0.017
   0.50000000  0.42105263  0.00000000       0.017
   0.50000000  0.44736842  0.00000000       0.017
   0.50000000  0.47368421  0.00000000       0.017
   0.50000000  0.50000000  0.00000000       0.017
   0.50000000  0.50000000  0.00000000       0.017
   0.47368421  0.47368421  0.00000000       0.017
   0.44736842  0.44736842  0.00000000       0.017
   0.42105263  0.42105263  0.00000000       0.017
   0.39473684  0.39473684  0.00000000       0.017
   0.36842105  0.36842105  0.00000000       0.017
   0.34210526  0.34210526  0.00000000       0.017
   0.31578947  0.31578947  0.00000000       0.017
   0.28947368  0.28947368  0.00000000       0.017
   0.26315789  0.26315789  0.00000000       0.017
   0.23684211  0.23684211  0.00000000       0.017
   0.21052632  0.21052632  0.00000000       0.017
   0.18421053  0.18421053  0.00000000       0.017
   0.15789474  0.15789474  0.00000000       0.017
   0.13157895  0.13157895  0.00000000       0.017
   0.10526316  0.10526316  0.00000000       0.017
   0.07894737  0.07894737  0.00000000       0.017
   0.05263158  0.05263158  0.00000000       0.017
   0.02631579  0.02631579  0.00000000       0.017
   0.00000000  0.00000000  0.00000000       0.017
 
 position of ions in fractional coordinates (direct lattice) 
   0.00000000  0.00000000  0.00000000
   0.50000000  0.50000000  0.10000000
   0.00000000  0.00000000  0.20000000
   0.50000000  0.50000000  0.30000000
   0.00000000  0.00000000  0.40000000
 
 position of ions in cartesian coordinates  (Angst):
   0.00000000  0.00000000  0.00000000
   1.58000000  1.58000000  1.58000000
   0.00000000  0.00000000  3.16000000
   1.58000000  1.58000000  4.74000000
   0.00000000  0.00000000  6.32000000
 


--------------------------------------------------------------------------------------------------------


 k-point  1 :   0.0000 0.0000 0.0000  plane waves:    5231
 k-point  2 :   0.0263 0.0000 0.0000  plane waves:    5235
 k-point  3 :   0.0526 0.0000 0.0000  plane waves:    5255
 k-point  4 :   0.0789 0.0000 0.0000  plane waves:    5251
 k-point  5 :   0.1053 0.0000 0.0000  plane waves:    5259
 k-point  6 :   0.1316 0.0000 0.0000  plane waves:    5247
 k-point  7 :   0.1579 0.0000 0.0000  plane waves:    5265
 k-point  8 :   0.1842 0.0000 0.0000  plane waves:    5271
 k-point  9 :   0.2105 0.0000 0.0000  plane waves:    5281
 k-point 10 :   0.2368 0.0000 0.0000  plane waves:    5289
 k-point 11 :   0.2632 0.0000 0.0000  plane waves:    5285
 k-point 12 :   0.2895 0.0000 0.0000  plane waves:    5291
 k-point 13 :   0.3158 0.0000 0.0000  plane waves:    5274
 k-point 14 :   0.3421 0.0000 0.0000  plane waves:    5290
 k-point 15 :   0.3684 0.0000 0.0000  plane waves:    5300
 k-point 16 :   0.3947 0.0000 0.0000  plane waves:    5292
 k-point 17 :   0.4211 0.0000 0.0000  plane waves:    5288
 k-point 18 :   0.4474 0.0000 0.0000  plane waves:    5296
 k-point 19 :   0.4737 0.0000 0.0000  plane waves:    5300
 k-point 20 :   0.5000 0.0000 0.0000  plane waves:    5296
 k-point 21 :   0.5000 0.0000 0.0000  plane waves:    5296
 k-point 22 :   0.5000 0.0263 0.0000  plane waves:    5292
 k-point 23 :   0.5000 0.0526 0.0000  plane waves:    5296
 k-point 24 :   0.5000 0.0789 0.0000  plane waves:    5280
 k-point 25 :   0.5000 0.1053 0.0000  plane waves:    5266
 k-point 26 :   0.5000 0.1316 0.0000  plane waves:    5256
 k-point 27 :   0.5000 0.1579 0.0000  plane waves:    5268
 k-point 28 :   0.5000 0.1842 0.0000  plane waves:    5268
 k-point 29 :   0.5000 0.2105 0.0000  plane waves:    5278
 k-point 30 :   0.5000 0.2368 0.0000  plane waves:    5278
 k-point 31 :   0.5000 0.2632 0.0000  plane waves:    5252
 k-point 32 :   0.5000 0.2895 0.0000  plane waves:    5248
 k-point 33 :   0.5000 0.3158 0.0000  plane waves:    5242
 k-point 34 :   0.5000 0.3421 0.0000  plane waves:    5250
 k-point 35 :   0.5000 0.3684 0.0000  plane waves:    5250
 k-point 36 :   0.5000 0.3947 0.0000  plane waves:    5250
 k-point 37 :   0.5000 0.4211 0.0000  plane waves:    5238
 k-point 38 :   0.5000 0.4474 0.0000  plane waves:    5236
 k-point 39 :   0.5000 0.4737 0.0000  plane waves:    5248
 k-point 40 :   0.5000 0.5000 0.0000  plane waves:    5248
 k-point 41 :   0.5000 0.5000 0.0000  plane waves:    5248
 k-point 42 :   0.4737 0.4737 0.0000  plane waves:    5256
 k-point 43 :   0.4474 0.4474 0.0000  plane waves:    5245
 k-point 44 :   0.4211 0.4211 0.0000  plane waves:    5251
 k-point 45 :   0.3947 0.3947 0.0000  plane waves:    5249
 k-point 46 :   0.3684 0.3684 0.0000  plane waves:    5241
 k-point 47 :   0.3421 0.3421 0.0000  plane waves:    5245
 k-point 48 :   0.3158 0.3158 0.0000  plane waves:    5243
 k-point 49 :   0.2895 0.2895 0.0000  plane waves:    5249
 k-point 50 :   0.2632 0.2632 0.0000  plane waves:    5255
 k-point 51 :   0.2368 0.2368 0.0000  plane waves:    5255
 k-point 52 :   0.2105 0.2105 0.0000  plane waves:    5257
 k-point 53 :   0.1842 0.1842 0.0000  plane waves:    5265
 k-point 54 :   0.1579 0.1579 0.0000  plane waves:    5293
 k-point 55 :   0.1316 0.1316 0.0000  plane waves:    5283
 k-point 56 :   0.1053 0.1053 0.0000  plane waves:    5281
 k-point 57 :   0.0789 0.0789 0.0000  plane waves:    5271
 k-point 58 :   0.0526 0.0526 0.0000  plane waves:    5261
 k-point 59 :   0.0263 0.0263 0.0000  plane waves:    5249
 k-point 60 :   0.0000 0.0000 0.0000  plane waves:    5231

 maximum and minimum number of plane-waves per node :      5300     5231

 maximum number of plane-waves:      5300
 maximum index in each direction: 
   IXMAX=    6   IYMAX=    6   IZMAX=   31
   IXMIN=   -6   IYMIN=   -6   IZMIN=  -31


 serial   3D FFT for wavefunctions
 parallel 3D FFT for charge:
    minimum data exchange during FFTs selected (reduces bandwidth)


 total amount of memory used by VASP MPI-rank0    84384. kBytes
=======================================================================

   base      :      30000. kBytes
   nonl-proj :      46390. kBytes
   fftplans  :        852. kBytes
   grid      :       1843. kBytes
   one-center:         77. kBytes
   wavefun   :       5222. kBytes
 
     INWAV:  cpu time    0.0000: real time    0.0000
 initial charge density was supplied:
 number of electron      30.0000001 magnetization 
 keeping initial charge density in first step


--------------------------------------------------------------------------------------------------------


 Maximum index for augmentation-charges          677 (set IRDMAX)


--------------------------------------------------------------------------------------------------------


 First call to EWALD:  gamma=   0.328
 Maximum number of real-space cells 4x 4x 1
 Maximum number of reciprocal cells 2x 2x 7

    FEWALD:  cpu time    0.0017: real time    0.0023


--------------------------------------- Iteration      1(   1)  ---------------------------------------


    POTLOK:  cpu time    0.0096: real time    0.0164
    SETDIJ:  cpu time    0.0061: real time    0.0088
     EDDAV:  cpu time    1.2088: real time    1.2311
       DOS:  cpu time    0.0018: real time    0.0052
    --------------------------------------------
      LOOP:  cpu time    1.2262: real time    1.2616

 eigenvalue-minimisations  :  4800
 total energy-change (2. order) : 0.5990602E+02  (-0.1374702E+04)
 number of electron      30.0000001 magnetization 
 augmentation part       30.0000001 magnetization 

 Free energy of the ion-electron system (eV)
  ---------------------------------------------------
  alpha Z        PSCENC =       110.60728398
  Ewald energy   TEWEN  =      1319.42101824
  -Hartree energ DENC   =     -2540.01703233
  -exchange      EXHF   =         0.00000000
  -V(xc)+E(xc)   XCENC  =      -236.30648985
  PAW double counting   =      1120.75045550     -838.64837968
  entropy T*S    EENTRO =        -0.00506125
  eigenvalues    EBANDS =        91.42190133
  atomic energy  EATOM  =      1032.68232307
  Solvation  Ediel_sol  =         0.00000000
  ---------------------------------------------------
  free energy    TOTEN  =        59.90601900 eV

  energy without entropy =       59.91108026  energy(sigma->0) =       59.90854963


--------------------------------------------------------------------------------------------------------




--------------------------------------- Iteration      1(   2)  ---------------------------------------


     EDDAV:  cpu time    1.9426: real time    1.9497
       DOS:  cpu time    0.0008: real time    0.0007
    --------------------------------------------
      LOOP:  cpu time    1.9434: real time    1.9504

 eigenvalue-minimisations  :  7240
 total energy-change (2. order) :-0.1226178E+03  (-0.1207316E+03)
 number of electron      30.0000001 magnetization 
 augmentation part       30.0000001 magnetization 

 Free energy of the ion-electron system (eV)
  ---------------------------------------------------
  alpha Z        PSCENC =       110.60728398
  Ewald energy   TEWEN  =      1319.42101824
  -Hartree energ DENC   =     -2540.01703233
  -exchange      EXHF   =         0.00000000
  -V(xc)+E(xc)   XCENC  =      -236.30648985
  PAW double counting   =      1120.75045550     -838.64837968
  entropy T*S    EENTRO =        -0.00807656
  eigenvalues    EBANDS =       -31.19287818
  atomic energy  EATOM  =      1032.68232307
  Solvation  Ediel_sol  =         0.00000000
  ---------------------------------------------------
  free energy    TOTEN  =       -62.71177582 eV

  energy without entropy =      -62.70369926  energy(sigma->0) =      -62.70773754


--------------------------------------------------------------------------------------------------------




--------------------------------------- Iteration      1(   3)  ---------------------------------------


     EDDAV:  cpu time    1.3047: real time    1.3110
       DOS:  cpu time    0.0007: real time    0.0007
    --------------------------------------------
      LOOP:  cpu time    1.3054: real time    1.3116

 eigenvalue-minimisations  :  5040
 total energy-change (2. order) :-0.1978820E+01  (-0.1977775E+01)
 number of electron      30.0000001 magnetization 
 augmentation part       30.0000001 magnetization 

 Free energy of the ion-electron system (eV)
  ---------------------------------------------------
  alpha Z        PSCENC =       110.60728398
  Ewald energy   TEWEN  =      1319.42101824
  -Hartree energ DENC   =     -2540.01703233
  -exchange      EXHF   =         0.00000000
  -V(xc)+E(xc)   XCENC  =      -236.30648985
  PAW double counting   =      1120.75045550     -838.64837968
  entropy T*S    EENTRO =        -0.00790574
  eigenvalues    EBANDS =       -33.17186884
  atomic energy  EATOM  =      1032.68232307
  Solvation  Ediel_sol  =         0.00000000
  ---------------------------------------------------
  free energy    TOTEN  =       -64.69059566 eV

  energy without entropy =      -64.68268992  energy(sigma->0) =      -64.68664279


--------------------------------------------------------------------------------------------------------




--------------------------------------- Iteration      1(   4)  ---------------------------------------


     EDDAV:  cpu time    2.9664: real time    2.9789
       DOS:  cpu time    0.0008: real time    0.0007
    --------------------------------------------
      LOOP:  cpu time    2.9671: real time    2.9796

 eigenvalue-minimisations  :  9440
 total energy-change (2. order) :-0.8793363E-02  (-0.8793294E-02)
 number of electron      30.0000001 magnetization 
 augmentation part       30.0000001 magnetization 

 Free energy of the ion-electron system (eV)
  ---------------------------------------------------
  alpha Z        PSCENC =       110.60728398
  Ewald energy   TEWEN  =      1319.42101824
  -Hartree energ DENC   =     -2540.01703233
  -exchange      EXHF   =         0.00000000
  -V(xc)+E(xc)   XCENC  =      -236.30648985
  PAW double counting   =      1120.75045550     -838.64837968
  entropy T*S    EENTRO =        -0.00790337
  eigenvalues    EBANDS =       -33.18066458
  atomic energy  EATOM  =      1032.68232307
  Solvation  Ediel_sol  =         0.00000000
  ---------------------------------------------------
  free energy    TOTEN  =       -64.69938902 eV

  energy without entropy =      -64.69148565  energy(sigma->0) =      -64.69543734


--------------------------------------------------------------------------------------------------------




--------------------------------------- Iteration      1(   5)  ---------------------------------------


     EDDAV:  cpu time    1.2611: real time    1.2695
       DOS:  cpu time    0.0009: real time    0.0007
    --------------------------------------------
      LOOP:  cpu time    1.2620: real time    1.2703

 eigenvalue-minimisations  :  5080
 total energy-change (2. order) :-0.7718818E-06  (-0.7719284E-06)
 number of electron      30.0000001 magnetization 
 augmentation part       30.0000001 magnetization 

 Free energy of the ion-electron system (eV)
  ---------------------------------------------------
  alpha Z        PSCENC =       110.60728398
  Ewald energy   TEWEN  =      1319.42101824
  -Hartree energ DENC   =     -2540.01703233
  -exchange      EXHF   =         0.00000000
  -V(xc)+E(xc)   XCENC  =      -236.30648985
  PAW double counting   =      1120.75045550     -838.64837968
  entropy T*S    EENTRO =        -0.00790337
  eigenvalues    EBANDS =       -33.18066535
  atomic energy  EATOM  =      1032.68232307
  Solvation  Ediel_sol  =         0.00000000
  ---------------------------------------------------
  free energy    TOTEN  =       -64.69938979 eV

  energy without entropy =      -64.69148643  energy(sigma->0) =      -64.69543811


--------------------------------------------------------------------------------------------------------




--------------------------------------- Iteration      1(   6)  ---------------------------------------


     EDDAV:  cpu time    2.9722: real time    2.9982
       DOS:  cpu time    0.0010: real time    0.0007
    --------------------------------------------
      LOOP:  cpu time    2.9732: real time    2.9990

 eigenvalue-minimisations  :  9520
 total energy-change (2. order) :-0.1721673E-08  (-0.1766364E-08)
 number of electron      30.0000001 magnetization 
 augmentation part       30.0000001 magnetization 

 Free energy of the ion-electron system (eV)
  ---------------------------------------------------
  alpha Z        PSCENC =       110.60728398
  Ewald energy   TEWEN  =      1319.42101824
  -Hartree energ DENC   =     -2540.01703233
  -exchange      EXHF   =         0.00000000
  -V(xc)+E(xc)   XCENC  =      -236.30648985
  PAW double counting   =      1120.75045550     -838.64837968
  entropy T*S    EENTRO =        -0.00790337
  eigenvalues    EBANDS =       -33.18066535
  atomic energy  EATOM  =      1032.68232307
  Solvation  Ediel_sol  =         0.00000000
  ---------------------------------------------------
  free energy    TOTEN  =       -64.69938979 eV

  energy without entropy =      -64.69148643  energy(sigma->0) =      -64.69543811


--------------------------------------------------------------------------------------------------------




 average (electrostatic) potential at core
  the test charge radii are     1.1823
  (the norm of the test charge is              1.0000)
       1 -44.2569       2 -44.0779       3 -44.2910       4 -44.0779       5 -44.2568
 
 
 
 E-fermi :   1.8191     XC(G=0):  -8.1888     alpha+bet : -7.3928


 k-point     1 :       0.0000    0.0000    0.0000
  band No.  band energies     occupation 
      1      -6.9851      2.00000
      2      -5.0990      2.00000
      3      -3.5911      2.00000
      4      -3.4956      2.00000
      5      -2.9686      2.00000
      6      -2.3164      2.00000
      7      -2.3083      2.00000
      8      -0.6039      2.00000
      9       0.5934      2.00000
     10       0.5934      2.00000
     11       0.9373      2.00000
     12       1.0259      2.00000
     13       1.0259      2.00000
     14       1.4053      2.00000
     15       1.4533      2.00000
     16       1.5000      2.00000
     17       1.8743      0.11815
     18       1.8743      0.11815
     19       2.0924      0.00000
     20       3.2652      0.00000
     21       3.5029      0.00000
     22       3.5029      0.00000
     23       3.5533      0.00000
     24       4.4909      0.00000
     25       5.2309      0.00000
     26       5.3290      0.00000
     27       5.4344      0.00000
     28       5.6895      0.00000
     29       5.6895      0.00000
     30       6.4923      0.00000
     31       6.7602      0.00000
     32       7.0996      0.00000
     33       9.4301      0.00000
     34      11.3380      0.00000
     35      11.5459      0.00000
     36      11.5459      0.00000
     37      14.5813      0.00000
     38      14.5813      0.00000
     39      15.2767      0.00000
     40      16.4444      0.00000

 k-point     2 :       0.0263    0.0000    0.0000
  band No.  band energies     occupation 
      1      -6.9697      2.00000
      2      -5.0875      2.00000
      3      -3.5799      2.00000
      4      -3.4864      2.00000
      5      -2.9614      2.00000
      6      -2.3155      2.00000
      7      -2.2940      2.00000
      8      -0.6098      2.00000
      9       0.5735      2.00000
     10       0.5804      2.00000
     11       0.8238      2.00000
     12       1.0395      2.00000
     13       1.1250      2.00000
     14       1.3580      2.00000
     15       1.4684      2.00000
     16       1.5032      2.00000
     17       1.7656      1.86979
     18       1.9466      0.00031
     19       2.2074      0.00000
     20       3.2552      0.00000
     21       3.2934      0.00000
     22       3.4991      0.00000
     23       3.7682      0.00000
     24       4.4779      0.00000
     25       5.1515      0.00000
     26       5.3236      0.00000
     27       5.4476      0.00000
     28       5.6135      0.00000
     29       5.7743      0.00000
     30       6.4665      0.00000
     31       6.7899      0.00000
     32       7.1470      0.00000
     33       9.4832      0.00000
     34      11.3116      0.00000
     35      11.5158      0.00000
     36      11.6049      0.00000
     37      14.4400      0.00000
     38      14.5931      0.00000
     39      15.2918      0.00000
     40      16.4852      0.00000

 k-point     3 :       0.0526    0.0000    0.0000
  band No.  band energies     occupation 
      1      -6.9234      2.00000
      2      -5.0535      2.00000
      3      -3.5492      2.00000
      4      -3.4570      2.00000
      5      -2.9405      2.00000
      6      -2.3229      2.00000
      7      -2.2410      2.00000
      8      -0.6240      2.00000
      9       0.5197      2.00000
     10       0.5398      2.00000
     11       0.6671      2.00000
     12       1.0742      2.00000
     13       1.2362      2.00000
     14       1.2542      2.00000
     15       1.5154      2.00000
     16       1.5269      2.00000
     17       1.6073      2.00000
     18       2.1062      0.00000
     19       2.3843      0.00000
     20       3.0771      0.00000
     21       3.2212      0.00000
     22       3.4961      0.00000
     23       4.0010      0.00000
     24       4.4401      0.00000
     25       5.0005      0.00000
     26       5.3026      0.00000
     27       5.4217      0.00000
     28       5.4850      0.00000
     29       5.9431      0.00000
     30       6.3962      0.00000
     31       6.8760      0.00000
     32       7.2632      0.00000
     33       9.6361      0.00000
     34      11.1607      0.00000
     35      11.5072      0.00000
     36      11.7764      0.00000
     37      14.0833      0.00000
     38      14.6292      0.00000
     39      15.3274      0.00000
     40      16.1240      0.00000

 k-point     4 :       0.0789    0.0000    0.0000
  band No.  band energies     occupation 
      1      -6.8469      2.00000
      2      -4.9981      2.00000
      3      -3.5065      2.00000
      4      -3.4018      2.00000
      5      -2.9085      2.00000
      6      -2.3362      2.00000
      7      -2.1527      2.00000
      8      -0.6365      2.00000
      9       0.4454      2.00000
     10       0.4675      2.00000
     11       0.5037      2.00000
     12       1.1117      2.00000
     13       1.1491      2.00000
     14       1.3162      2.00000
     15       1.4680      2.00000
     16       1.5464      2.00000
     17       1.6161      2.00000
     18       2.2968      0.00000
     19       2.5529      0.00000
     20       2.8887      0.00000
     21       3.1620      0.00000
     22       3.5040      0.00000
     23       4.2164      0.00000
     24       4.3824      0.00000
     25       4.8532      0.00000
     26       5.1321      0.00000
     27       5.3026      0.00000
     28       5.5425      0.00000
     29       6.1250      0.00000
     30       6.3018      0.00000
     31       7.0103      0.00000
     32       7.4085      0.00000
     33       9.8707      0.00000
     34      10.8676      0.00000
     35      11.5625      0.00000
     36      12.0468      0.00000
     37      13.6154      0.00000
     38      14.6918      0.00000
     39      15.3736      0.00000
     40      15.5755      0.00000

 k-point     5 :       0.1053    0.0000    0.0000
  band No.  band energies     occupation 
      1      -6.7410      2.00000
      2      -4.9233      2.00000
      3      -3.4597      2.00000
      4      -3.3173      2.00000
      5      -2.8684      2.00000
      6      -2.3552      2.00000
      7      -2.0307      2.00000
      8      -0.6342      2.00000
      9       0.3383      2.00000
     10       0.3618      2.00000
     11       0.3644      2.00000
     12       1.0596      2.00000
     13       1.1277      2.00000
     14       1.3506      2.00000
     15       1.3591      2.00000
     16       1.6095      2.00000
     17       1.7265      1.99119
     18       2.4958      0.00000
     19       2.6944      0.00000
     20       2.7411      0.00000
     21       3.0898      0.00000
     22       3.5176      0.00000
     23       4.3155      0.00000
     24       4.3985      0.00000
     25       4.7392      0.00000
     26       4.8386      0.00000
     27       5.2701      0.00000
     28       5.6165      0.00000
     29       6.2116      0.00000
     30       6.2976      0.00000
     31       7.1808      0.00000
     32       7.5632      0.00000
     33      10.1588      0.00000
     34      10.4869      0.00000
     35      11.6555      0.00000
     36      12.3993      0.00000
     37      13.1068      0.00000
     38      14.7835      0.00000
     39      15.0128      0.00000
     40      15.4158      0.00000

 k-point     6 :       0.1316    0.0000    0.0000
  band No.  band energies     occupation 
      1      -6.6069      2.00000
      2      -4.8321      2.00000
      3      -3.4116      2.00000
      4      -3.2077      2.00000
      5      -2.8225      2.00000
      6      -2.3794      2.00000
      7      -1.8768      2.00000
      8      -0.6036      2.00000
      9       0.1738      2.00000
     10       0.2272      2.00000
     11       0.2886      2.00000
     12       0.9898      2.00000
     13       1.1075      2.00000
     14       1.2793      2.00000
     15       1.3296      2.00000
     16       1.7097      1.99802
     17       1.8520      0.35167
     18       2.6421      0.00000
     19       2.6898      0.00000
     20       2.7964      0.00000
     21       3.0210      0.00000
     22       3.5175      0.00000
     23       4.2589      0.00000
     24       4.5299      0.00000
     25       4.5359      0.00000
     26       4.6758      0.00000
     27       5.2377      0.00000
     28       5.7045      0.00000
     29       6.1571      0.00000
     30       6.4510      0.00000
     31       7.3743      0.00000
     32       7.7224      0.00000
     33      10.0538      0.00000
     34      10.4567      0.00000
     35      11.7737      0.00000
     36      12.6129      0.00000
     37      12.8178      0.00000
     38      14.4560      0.00000
     39      14.9079      0.00000
     40      15.3999      0.00000

 k-point     7 :       0.1579    0.0000    0.0000
  band No.  band energies     occupation 
      1      -6.4463      2.00000
      2      -4.7282      2.00000
      3      -3.3651      2.00000
      4      -3.0818      2.00000
      5      -2.7691      2.00000
      6      -2.4079      2.00000
      7      -1.6935      2.00000
      8      -0.5335      2.00000
      9       0.0124      2.00000
     10       0.0729      2.00000
     11       0.2271      2.00000
     12       0.9404      2.00000
     13       1.0532      2.00000
     14       1.2198      2.00000
     15       1.2554      2.00000
     16       1.8388      0.57781
     17       1.9886      0.00000
     18       2.5863      0.00000
     19       2.8544      0.00000
     20       2.8651      0.00000
     21       2.9673      0.00000
     22       3.4781      0.00000
     23       4.2387      0.00000
     24       4.2465      0.00000
     25       4.5997      0.00000
     26       4.6705      0.00000
     27       5.2058      0.00000
     28       5.8053      0.00000
     29       6.1616      0.00000
     30       6.5802      0.00000
     31       7.5771      0.00000
     32       7.8867      0.00000
     33       9.5921      0.00000
     34      10.6751      0.00000
     35      11.9051      0.00000
     36      12.2224      0.00000
     37      13.2886      0.00000
     38      13.9233      0.00000
     39      15.0680      0.00000
     40      15.1822      0.00000

 k-point     8 :       0.1842    0.0000    0.0000
  band No.  band energies     occupation 
      1      -6.2613      2.00000
      2      -4.6163      2.00000
      3      -3.3260      2.00000
      4      -2.9532      2.00000
      5      -2.6978      2.00000
      6      -2.4390      2.00000
      7      -1.4844      2.00000
      8      -0.4167      2.00000
      9      -0.1442      2.00000
     10      -0.0909      2.00000
     11       0.1868      2.00000
     12       0.9108      2.00000
     13       0.9737      2.00000
     14       1.1426      2.00000
     15       1.1701      2.00000
     16       1.9845      0.00000
     17       2.1321      0.00000
     18       2.5552      0.00000
     19       2.8752      0.00000
     20       2.9338      0.00000
     21       3.0032      0.00000
     22       3.3871      0.00000
     23       3.9922      0.00000
     24       4.2706      0.00000
     25       4.6157      0.00000
     26       4.7183      0.00000
     27       5.1791      0.00000
     28       5.9180      0.00000
     29       6.2283      0.00000
     30       6.6827      0.00000
     31       7.7759      0.00000
     32       8.0570      0.00000
     33       9.1199      0.00000
     34      10.6370      0.00000
     35      12.0229      0.00000
     36      12.1065      0.00000
     37      13.4454      0.00000
     38      13.8010      0.00000
     39      14.7735      0.00000
     40      15.2804      0.00000

 k-point     9 :       0.2105    0.0000    0.0000
  band No.  band energies     occupation 
      1      -6.0545      2.00000
      2      -4.5021      2.00000
      3      -3.3015      2.00000
      4      -2.8388      2.00000
      5      -2.5915      2.00000
      6      -2.4697      2.00000
      7      -1.2540      2.00000
      8      -0.2942      2.00000
      9      -0.2561      2.00000
     10      -0.2505      2.00000
     11       0.1724      2.00000
     12       0.8790      2.00000
     13       0.9004      2.00000
     14       1.0091      2.00000
     15       1.1214      2.00000
     16       2.1356      0.00000
     17       2.2760      0.00000
     18       2.5275      0.00000
     19       2.8747      0.00000
     20       2.9186      0.00000
     21       3.0757      0.00000
     22       3.2590      0.00000
     23       3.8045      0.00000
     24       4.3477      0.00000
     25       4.6027      0.00000
     26       4.8039      0.00000
     27       5.1643      0.00000
     28       6.0412      0.00000
     29       6.3400      0.00000
     30       6.7590      0.00000
     31       7.9557      0.00000
     32       8.2332      0.00000
     33       8.6535      0.00000
     34      10.3012      0.00000
     35      12.0538      0.00000
     36      12.2975      0.00000
     37      13.0963      0.00000
     38      14.3070      0.00000
     39      14.3465      0.00000
     40      14.8559      0.00000

 k-point    10 :       0.2368    0.0000    0.0000
  band No.  band energies     occupation 
      1      -5.8288      2.00000
      2      -4.3917      2.00000
      3      -3.2966      2.00000
      4      -2.7405      2.00000
      5      -2.4966      2.00000
      6      -2.4485      2.00000
      7      -1.0086      2.00000
      8      -0.4362      2.00000
      9      -0.4169      2.00000
     10      -0.0373      2.00000
     11       0.1874      2.00000
     12       0.7779      2.00000
     13       0.8689      2.00000
     14       0.9077      2.00000
     15       1.0678      2.00000
     16       2.2780      0.00000
     17       2.4053      0.00000
     18       2.4875      0.00000
     19       2.8699      0.00000
     20       2.9084      0.00000
     21       3.0670      0.00000
     22       3.1317      0.00000
     23       3.7105      0.00000
     24       4.4538      0.00000
     25       4.5875      0.00000
     26       4.9086      0.00000
     27       5.1681      0.00000
     28       6.1721      0.00000
     29       6.4741      0.00000
     30       6.8120      0.00000
     31       8.0614      0.00000
     32       8.2460      0.00000
     33       8.4136      0.00000
     34       9.8346      0.00000
     35      11.8884      0.00000
     36      12.6128      0.00000
     37      12.9778      0.00000
     38      13.8435      0.00000
     39      14.3826      0.00000
     40      14.9184      0.00000

 k-point    11 :       0.2632    0.0000    0.0000
  band No.  band energies     occupation 
      1      -5.5881      2.00000
      2      -4.2913      2.00000
      3      -3.3108      2.00000
      4      -2.6463      2.00000
      5      -2.5160      2.00000
      6      -2.2861      2.00000
      7      -0.7565      2.00000
      8      -0.5693      2.00000
      9      -0.5690      2.00000
     10       0.2175      2.00000
     11       0.2340      2.00000
     12       0.6778      2.00000
     13       0.7315      2.00000
     14       0.9302      2.00000
     15       1.0070      2.00000
     16       2.3816      0.00000
     17       2.4281      0.00000
     18       2.4846      0.00000
     19       2.8731      0.00000
     20       2.8735      0.00000
     21       3.0395      0.00000
     22       3.0741      0.00000
     23       3.6829      0.00000
     24       4.5752      0.00000
     25       4.5869      0.00000
     26       5.0159      0.00000
     27       5.1949      0.00000
     28       6.3050      0.00000
     29       6.6128      0.00000
     30       6.8466      0.00000
     31       7.7375      0.00000
     32       8.2498      0.00000
     33       8.5952      0.00000
     34       9.3323      0.00000
     35      11.5820      0.00000
     36      12.8869      0.00000
     37      12.9940      0.00000
     38      13.4688      0.00000
     39      13.9989      0.00000
     40      15.5115      0.00000

 k-point    12 :       0.2895    0.0000    0.0000
  band No.  band energies     occupation 
      1      -5.3371      2.00000
      2      -4.2062      2.00000
      3      -3.3387      2.00000
      4      -2.5520      2.00000
      5      -2.5249      2.00000
      6      -2.1189      2.00000
      7      -0.7105      2.00000
      8      -0.6914      2.00000
      9      -0.5087      2.00000
     10       0.3139      2.00000
     11       0.5046      2.00000
     12       0.5834      2.00000
     13       0.6026      2.00000
     14       0.9395      2.00000
     15       0.9636      2.00000
     16       2.3501      0.00000
     17       2.3893      0.00000
     18       2.4778      0.00000
     19       2.8595      0.00000
     20       2.8907      0.00000
     21       3.0875      0.00000
     22       3.1049      0.00000
     23       3.6703      0.00000
     24       4.6069      0.00000
     25       4.7016      0.00000
     26       5.1126      0.00000
     27       5.2432      0.00000
     28       6.4259      0.00000
     29       6.7444      0.00000
     30       6.8692      0.00000
     31       7.3555      0.00000
     32       8.2947      0.00000
     33       8.7687      0.00000
     34       8.8321      0.00000
     35      11.2644      0.00000
     36      12.7545      0.00000
     37      12.8954      0.00000
     38      13.5230      0.00000
     39      13.8437      0.00000
     40      15.6099      0.00000

 k-point    13 :       0.3158    0.0000    0.0000
  band No.  band energies     occupation 
      1      -5.0814      2.00000
      2      -4.1398      2.00000
      3      -3.3727      2.00000
      4      -2.5220      2.00000
      5      -2.4627      2.00000
      6      -1.9531      2.00000
      7      -0.8383      2.00000
      8      -0.8022      2.00000
      9      -0.2777      2.00000
     10       0.4260      2.00000
     11       0.4859      2.00000
     12       0.4904      2.00000
     13       0.8157      2.00000
     14       0.8680      2.00000
     15       1.0023      2.00000
     16       2.2593      0.00000
     17       2.3033      0.00000
     18       2.4241      0.00000
     19       2.9105      0.00000
     20       2.9238      0.00000
     21       3.1870      0.00000
     22       3.2029      0.00000
     23       3.6566      0.00000
     24       4.6454      0.00000
     25       4.8252      0.00000
     26       5.1894      0.00000
     27       5.3048      0.00000
     28       6.4917      0.00000
     29       6.8621      0.00000
     30       6.8864      0.00000
     31       7.0520      0.00000
     32       8.2765      0.00000
     33       8.3322      0.00000
     34       8.9440      0.00000
     35      10.9931      0.00000
     36      12.3888      0.00000
     37      12.6123      0.00000
     38      13.8253      0.00000
     39      13.9447      0.00000
     40      15.2288      0.00000

 k-point    14 :       0.3421    0.0000    0.0000
  band No.  band energies     occupation 
      1      -4.8285      2.00000
      2      -4.0926      2.00000
      3      -3.4055      2.00000
      4      -2.5083      2.00000
      5      -2.3882      2.00000
      6      -1.7886      2.00000
      7      -0.9514      2.00000
      8      -0.9005      2.00000
      9      -0.0744      2.00000
     10       0.3834      2.00000
     11       0.3966      2.00000
     12       0.5611      2.00000
     13       0.7963      2.00000
     14       1.0422      2.00000
     15       1.1273      2.00000
     16       2.1634      0.00000
     17       2.2069      0.00000
     18       2.3858      0.00000
     19       2.9701      0.00000
     20       2.9752      0.00000
     21       3.3036      0.00000
     22       3.3156      0.00000
     23       3.6687      0.00000
     24       4.6968      0.00000
     25       4.9397      0.00000
     26       5.2413      0.00000
     27       5.3672      0.00000
     28       6.4016      0.00000
     29       6.9037      0.00000
     30       6.9174      0.00000
     31       6.9623      0.00000
     32       7.8589      0.00000
     33       8.2055      0.00000
     34       9.0965      0.00000
     35      10.7741      0.00000
     36      12.0336      0.00000
     37      12.2934      0.00000
     38      14.1278      0.00000
     39      14.1475      0.00000
     40      14.8615      0.00000

 k-point    15 :       0.3684    0.0000    0.0000
  band No.  band energies     occupation 
      1      -4.5882      2.00000
      2      -4.0628      2.00000
      3      -3.4296      2.00000
      4      -2.4868      2.00000
      5      -2.3385      2.00000
      6      -1.6206      2.00000
      7      -1.0487      2.00000
      8      -0.9853      2.00000
      9       0.0969      2.00000
     10       0.2895      2.00000
     11       0.2962      2.00000
     12       0.6923      2.00000
     13       0.7284      2.00000
     14       1.0913      2.00000
     15       1.4018      2.00000
     16       2.0698      0.00000
     17       2.1731      0.00000
     18       2.3902      0.00000
     19       3.0251      0.00000
     20       3.0301      0.00000
     21       3.3551      0.00000
     22       3.4371      0.00000
     23       3.7633      0.00000
     24       4.7543      0.00000
     25       5.0412      0.00000
     26       5.2674      0.00000
     27       5.4170      0.00000
     28       6.1920      0.00000
     29       6.8835      0.00000
     30       6.9241      0.00000
     31       7.0438      0.00000
     32       7.4133      0.00000
     33       8.1328      0.00000
     34       9.2246      0.00000
     35      10.5755      0.00000
     36      11.7277      0.00000
     37      12.0360      0.00000
     38      14.3525      0.00000
     39      14.3682      0.00000
     40      14.5302      0.00000

 k-point    16 :       0.3947    0.0000    0.0000
  band No.  band energies     occupation 
      1      -4.3735      2.00000
      2      -4.0464      2.00000
      3      -3.4373      2.00000
      4      -2.4617      2.00000
      5      -2.3191      2.00000
      6      -1.4440      2.00000
      7      -1.1292      2.00000
      8      -1.0559      2.00000
      9       0.1589      2.00000
     10       0.2248      2.00000
     11       0.2376      2.00000
     12       0.6680      2.00000
     13       0.7765      2.00000
     14       1.1751      2.00000
     15       1.5724      2.00000
     16       1.9852      0.00000
     17       2.2721      0.00000
     18       2.4341      0.00000
     19       3.0734      0.00000
     20       3.0831      0.00000
     21       3.3353      0.00000
     22       3.5691      0.00000
     23       3.9285      0.00000
     24       4.8112      0.00000
     25       5.1288      0.00000
     26       5.2716      0.00000
     27       5.4440      0.00000
     28       5.9832      0.00000
     29       6.7911      0.00000
     30       6.9474      0.00000
     31       7.0042      0.00000
     32       7.1069      0.00000
     33       8.1291      0.00000
     34       9.3220      0.00000
     35      10.3536      0.00000
     36      11.4848      0.00000
     37      11.8860      0.00000
     38      14.1767      0.00000
     39      14.3092      0.00000
     40      14.5775      0.00000

 k-point    17 :       0.4211    0.0000    0.0000
  band No.  band energies     occupation 
      1      -4.2003      2.00000
      2      -4.0391      2.00000
      3      -3.4212      2.00000
      4      -2.4372      2.00000
      5      -2.3284      2.00000
      6      -1.2566      2.00000
      7      -1.1924      2.00000
      8      -1.1116      2.00000
      9       0.0007      2.00000
     10       0.1695      2.00000
     11       0.3495      2.00000
     12       0.6181      2.00000
     13       0.8006      2.00000
     14       1.2959      2.00000
     15       1.6330      2.00000
     16       1.9144      0.00700
     17       2.4937      0.00000
     18       2.4937      0.00000
     19       3.1062      0.00000
     20       3.1380      0.00000
     21       3.3091      0.00000
     22       3.6842      0.00000
     23       4.1163      0.00000
     24       4.8618      0.00000
     25       5.2065      0.00000
     26       5.2612      0.00000
     27       5.4436      0.00000
     28       5.8111      0.00000
     29       6.6095      0.00000
     30       6.6431      0.00000
     31       6.9711      0.00000
     32       7.1530      0.00000
     33       8.2215      0.00000
     34       9.3869      0.00000
     35      10.0939      0.00000
     36      11.3085      0.00000
     37      11.8442      0.00000
     38      13.8890      0.00000
     39      14.0411      0.00000
     40      14.6755      0.00000

 k-point    18 :       0.4474    0.0000    0.0000
  band No.  band energies     occupation 
      1      -4.0816      2.00000
      2      -4.0369      2.00000
      3      -3.3816      2.00000
      4      -2.4172      2.00000
      5      -2.3565      2.00000
      6      -1.2379      2.00000
      7      -1.1517      2.00000
      8      -1.0603      2.00000
      9      -0.1804      2.00000
     10       0.1301      2.00000
     11       0.4321      2.00000
     12       0.5808      2.00000
     13       0.7941      2.00000
     14       1.4173      2.00000
     15       1.6493      2.00000
     16       1.8614      0.23162
     17       2.5408      0.00000
     18       2.7389      0.00000
     19       3.1291      0.00000
     20       3.1833      0.00000
     21       3.3012      0.00000
     22       3.7688      0.00000
     23       4.2969      0.00000
     24       4.9015      0.00000
     25       5.2449      0.00000
     26       5.2838      0.00000
     27       5.4198      0.00000
     28       5.6786      0.00000
     29       6.3479      0.00000
     30       6.3913      0.00000
     31       6.9916      0.00000
     32       7.1839      0.00000
     33       8.3789      0.00000
     34       9.4238      0.00000
     35       9.8209      0.00000
     36      11.1940      0.00000
     37      11.8728      0.00000
     38      13.6461      0.00000
     39      13.8242      0.00000
     40      14.6110      0.00000

 k-point    19 :       0.4737    0.0000    0.0000
  band No.  band energies     occupation 
      1      -4.0369      2.00000
      2      -4.0176      2.00000
      3      -3.3365      2.00000
      4      -2.4041      2.00000
      5      -2.3868      2.00000
      6      -1.2653      2.00000
      7      -1.1759      2.00000
      8      -0.8650      2.00000
      9      -0.3694      2.00000
     10       0.1065      2.00000
     11       0.4832      2.00000
     12       0.5579      2.00000
     13       0.7824      2.00000
     14       1.5051      2.00000
     15       1.6544      2.00000
     16       1.8286      0.78891
     17       2.5632      0.00000
     18       2.9269      0.00000
     19       3.1426      0.00000
     20       3.2133      0.00000
     21       3.3097      0.00000
     22       3.8154      0.00000
     23       4.4378      0.00000
     24       4.9267      0.00000
     25       5.2312      0.00000
     26       5.3704      0.00000
     27       5.3871      0.00000
     28       5.5742      0.00000
     29       6.1466      0.00000
     30       6.2096      0.00000
     31       7.0055      0.00000
     32       7.2016      0.00000
     33       8.5456      0.00000
     34       9.4409      0.00000
     35       9.5851      0.00000
     36      11.1311      0.00000
     37      11.9218      0.00000
     38      13.4770      0.00000
     39      13.6897      0.00000
     40      14.5190      0.00000

 k-point    20 :       0.5000    0.0000    0.0000
  band No.  band energies     occupation 
      1      -4.0371      2.00000
      2      -3.9981      2.00000
      3      -3.3163      2.00000
      4      -2.4001      2.00000
      5      -2.3996      2.00000
      6      -1.2744      2.00000
      7      -1.1841      2.00000
      8      -0.7405      2.00000
      9      -0.4924      2.00000
     10       0.0987      2.00000
     11       0.5005      2.00000
     12       0.5501      2.00000
     13       0.7774      2.00000
     14       1.5372      2.00000
     15       1.6558      2.00000
     16       1.8175      1.03698
     17       2.5683      0.00000
     18       2.9985      0.00000
     19       3.1469      0.00000
     20       3.2238      0.00000
     21       3.3162      0.00000
     22       3.8286      0.00000
     23       4.4939      0.00000
     24       4.9354      0.00000
     25       5.2258      0.00000
     26       5.3707      0.00000
     27       5.4475      0.00000
     28       5.4966      0.00000
     29       6.0736      0.00000
     30       6.1371      0.00000
     31       7.0104      0.00000
     32       7.2073      0.00000
     33       8.6275      0.00000
     34       9.4457      0.00000
     35       9.4800      0.00000
     36      11.1112      0.00000
     37      11.9450      0.00000
     38      13.4150      0.00000
     39      13.6444      0.00000
     40      14.4809      0.00000

 k-point    21 :       0.5000    0.0000    0.0000
  band No.  band energies     occupation 
      1      -4.0371      2.00000
      2      -3.9981      2.00000
      3      -3.3163      2.00000
      4      -2.4001      2.00000
      5      -2.3996      2.00000
      6      -1.2744      2.00000
      7      -1.1841      2.00000
      8      -0.7405      2.00000
      9      -0.4924      2.00000
     10       0.0987      2.00000
     11       0.5005      2.00000
     12       0.5501      2.00000
     13       0.7774      2.00000
     14       1.5372      2.00000
     15       1.6558      2.00000
     16       1.8175      1.03698
     17       2.5683      0.00000
     18       2.9985      0.00000
     19       3.1469      0.00000
     20       3.2238      0.00000
     21       3.3162      0.00000
     22       3.8286      0.00000
     23       4.4939      0.00000
     24       4.9354      0.00000
     25       5.2258      0.00000
     26       5.3707      0.00000
     27       5.4475      0.00000
     28       5.4966      0.00000
     29       6.0736      0.00000
     30       6.1371      0.00000
     31       7.0104      0.00000
     32       7.2073      0.00000
     33       8.6275      0.00000
     34       9.4457      0.00000
     35       9.4800      0.00000
     36      11.1112      0.00000
     37      11.9450      0.00000
     38      13.4150      0.00000
     39      13.6444      0.00000
     40      14.4809      0.00000

 k-point    22 :       0.5000    0.0263    0.0000
  band No.  band energies     occupation 
      1      -4.0205      2.00000
      2      -3.9827      2.00000
      3      -3.3049      2.00000
      4      -2.3975      2.00000
      5      -2.3872      2.00000
      6      -1.2798      2.00000
      7      -1.1938      2.00000
      8      -0.7560      2.00000
      9      -0.5276      2.00000
     10       0.1465      2.00000
     11       0.4272      2.00000
     12       0.4945      2.00000
     13       0.8999      2.00000
     14       1.5061      2.00000
     15       1.6678      1.99998
     16       1.8350      0.65242
     17       2.4871      0.00000
     18       2.9734      0.00000
     19       3.1492      0.00000
     20       3.3032      0.00000
     21       3.3263      0.00000
     22       3.8153      0.00000
     23       4.4775      0.00000
     24       4.8984      0.00000
     25       5.1700      0.00000
     26       5.4452      0.00000
     27       5.4691      0.00000
     28       5.5448      0.00000
     29       6.0806      0.00000
     30       6.1642      0.00000
     31       7.0600      0.00000
     32       7.2575      0.00000
     33       8.6375      0.00000
     34       9.4535      0.00000
     35       9.4911      0.00000
     36      11.1220      0.00000
     37      11.9520      0.00000
     38      13.4063      0.00000
     39      13.6242      0.00000
     40      14.4854      0.00000

 k-point    23 :       0.5000    0.0526    0.0000
  band No.  band energies     occupation 
      1      -3.9711      2.00000
      2      -3.9371      2.00000
      3      -3.2717      2.00000
      4      -2.3919      2.00000
      5      -2.3511      2.00000
      6      -1.2944      2.00000
      7      -1.2214      2.00000
      8      -0.7994      2.00000
      9      -0.6023      2.00000
     10       0.2359      2.00000
     11       0.2606      2.00000
     12       0.4746      2.00000
     13       1.0885      2.00000
     14       1.4180      2.00000
     15       1.7033      1.99894
     16       1.8800      0.08516
     17       2.3172      0.00000
     18       2.9066      0.00000
     19       3.1545      0.00000
     20       3.3576      0.00000
     21       3.4606      0.00000
     22       3.7788      0.00000
     23       4.4431      0.00000
     24       4.8243      0.00000
     25       5.1058      0.00000
     26       5.4412      0.00000
     27       5.6445      0.00000
     28       5.6568      0.00000
     29       6.1042      0.00000
     30       6.2515      0.00000
     31       7.1999      0.00000
     32       7.4006      0.00000
     33       8.6673      0.00000
     34       9.4767      0.00000
     35       9.5241      0.00000
     36      11.1538      0.00000
     37      11.9725      0.00000
     38      13.3785      0.00000
     39      13.5637      0.00000
     40      14.4953      0.00000

 k-point    24 :       0.5000    0.0789    0.0000
  band No.  band energies     occupation 
      1      -3.8897      2.00000
      2      -3.8627      2.00000
      3      -3.2203      2.00000
      4      -2.3891      2.00000
      5      -2.2953      2.00000
      6      -1.3137      2.00000
      7      -1.2620      2.00000
      8      -0.8629      2.00000
      9      -0.6711      2.00000
     10       0.0409      2.00000
     11       0.4006      2.00000
     12       0.4361      2.00000
     13       1.2260      2.00000
     14       1.3352      2.00000
     15       1.7608      1.90066
     16       1.9272      0.00223
     17       2.1345      0.00000
     18       2.8250      0.00000
     19       3.1592      0.00000
     20       3.4111      0.00000
     21       3.5959      0.00000
     22       3.7302      0.00000
     23       4.4332      0.00000
     24       4.7573      0.00000
     25       5.0636      0.00000
     26       5.4417      0.00000
     27       5.7377      0.00000
     28       5.8913      0.00000
     29       6.1487      0.00000
     30       6.4057      0.00000
     31       7.4098      0.00000
     32       7.6192      0.00000
     33       8.7175      0.00000
     34       9.5148      0.00000
     35       9.5785      0.00000
     36      11.2058      0.00000
     37      12.0057      0.00000
     38      13.3271      0.00000
     39      13.4634      0.00000
     40      14.5074      0.00000

 k-point    25 :       0.5000    0.1053    0.0000
  band No.  band energies     occupation 
      1      -3.7774      2.00000
      2      -3.7624      2.00000
      3      -3.1571      2.00000
      4      -2.3968      2.00000
      5      -2.2271      2.00000
      6      -1.3295      2.00000
      7      -1.3068      2.00000
      8      -0.9372      2.00000
      9      -0.7053      2.00000
     10      -0.1491      2.00000
     11       0.3732      2.00000
     12       0.5442      2.00000
     13       1.0783      2.00000
     14       1.4960      2.00000
     15       1.8377      0.59950
     16       1.9321      0.00139
     17       1.9693      0.00002
     18       2.7763      0.00000
     19       3.1570      0.00000
     20       3.4874      0.00000
     21       3.6507      0.00000
     22       3.6878      0.00000
     23       4.4959      0.00000
     24       4.7125      0.00000
     25       5.0399      0.00000
     26       5.4514      0.00000
     27       5.8083      0.00000
     28       6.1614      0.00000
     29       6.2186      0.00000
     30       6.6159      0.00000
     31       7.6689      0.00000
     32       7.8927      0.00000
     33       8.7894      0.00000
     34       9.5669      0.00000
     35       9.6534      0.00000
     36      11.2762      0.00000
     37      12.0500      0.00000
     38      13.2457      0.00000
     39      13.3247      0.00000
     40      14.5103      0.00000

 k-point    26 :       0.5000    0.1316    0.0000
  band No.  band energies     occupation 
      1      -3.6416      2.00000
      2      -3.6362      2.00000
      3      -3.0920      2.00000
      4      -2.4197      2.00000
      5      -2.1580      2.00000
      6      -1.3421      2.00000
      7      -1.3309      2.00000
      8      -1.0149      2.00000
      9      -0.6892      2.00000
     10      -0.3301      2.00000
     11       0.2825      2.00000
     12       0.6805      2.00000
     13       0.8736      2.00000
     14       1.6818      1.99990
     15       1.8339      0.67462
     16       1.8471      0.42801
     17       1.9366      0.00089
     18       2.8058      0.00000
     19       3.1437      0.00000
     20       3.5855      0.00000
     21       3.6271      0.00000
     22       3.6701      0.00000
     23       4.6305      0.00000
     24       4.6899      0.00000
     25       5.0296      0.00000
     26       5.4716      0.00000
     27       5.8626      0.00000
     28       6.3172      0.00000
     29       6.4580      0.00000
     30       6.8607      0.00000
     31       7.9606      0.00000
     32       8.2008      0.00000
     33       8.8864      0.00000
     34       9.6315      0.00000
     35       9.7469      0.00000
     36      11.3624      0.00000
     37      12.1030      0.00000
     38      13.1290      0.00000
     39      13.1512      0.00000
     40      14.4963      0.00000

 k-point    27 :       0.5000    0.1579    0.0000
  band No.  band energies     occupation 
      1      -3.5093      2.00000
      2      -3.4688      2.00000
      3      -3.0382      2.00000
      4      -2.4538      2.00000
      5      -2.1028      2.00000
      6      -1.3507      2.00000
      7      -1.3056      2.00000
      8      -1.0907      2.00000
      9      -0.6184      2.00000
     10      -0.4992      2.00000
     11       0.1660      2.00000
     12       0.6508      2.00000
     13       0.8048      2.00000
     14       1.6871      1.99981
     15       1.7323      1.98587
     16       1.8636      0.20829
     17       2.0460      0.00000
     18       2.9102      0.00000
     19       3.1232      0.00000
     20       3.5694      0.00000
     21       3.6854      0.00000
     22       3.7026      0.00000
     23       4.6855      0.00000
     24       4.7950      0.00000
     25       5.0285      0.00000
     26       5.5014      0.00000
     27       5.9082      0.00000
     28       6.4472      0.00000
     29       6.7724      0.00000
     30       7.1222      0.00000
     31       8.2722      0.00000
     32       8.5193      0.00000
     33       9.0196      0.00000
     34       9.7065      0.00000
     35       9.8565      0.00000
     36      11.4604      0.00000
     37      12.1615      0.00000
     38      12.9485      0.00000
     39      12.9757      0.00000
     40      14.4506      0.00000

 k-point    28 :       0.5000    0.1842    0.0000
  band No.  band energies     occupation 
      1      -3.3823      2.00000
      2      -3.2787      2.00000
      3      -3.0090      2.00000
      4      -2.4822      2.00000
      5      -2.0734      2.00000
      6      -1.3163      2.00000
      7      -1.2479      2.00000
      8      -1.1607      2.00000
      9      -0.6536      2.00000
     10      -0.4989      2.00000
     11       0.0320      2.00000
     12       0.4200      2.00000
     13       0.9183      2.00000
     14       1.4798      2.00000
     15       1.6644      1.99999
     16       2.0400      0.00000
     17       2.1700      0.00000
     18       3.0572      0.00000
     19       3.1068      0.00000
     20       3.5113      0.00000
     21       3.7301      0.00000
     22       3.8352      0.00000
     23       4.6950      0.00000
     24       4.9569      0.00000
     25       5.0339      0.00000
     26       5.5380      0.00000
     27       5.9486      0.00000
     28       6.6093      0.00000
     29       7.0966      0.00000
     30       7.3882      0.00000
     31       8.5938      0.00000
     32       8.8079      0.00000
     33       9.2185      0.00000
     34       9.7887      0.00000
     35       9.9778      0.00000
     36      11.5646      0.00000
     37      12.2206      0.00000
     38      12.7244      0.00000
     39      12.7908      0.00000
     40      14.3685      0.00000

 k-point    29 :       0.5000    0.2105    0.0000
  band No.  band energies     occupation 
      1      -3.2886      2.00000
      2      -3.0706      2.00000
      3      -3.0128      2.00000
      4      -2.4742      2.00000
      5      -2.0707      2.00000
      6      -1.2492      2.00000
      7      -1.2019      2.00000
      8      -1.1681      2.00000
      9      -0.7901      2.00000
     10      -0.3448      2.00000
     11      -0.1060      2.00000
     12       0.1879      2.00000
     13       1.0299      2.00000
     14       1.2523      2.00000
     15       1.6310      2.00000
     16       2.2114      0.00000
[...]
     34      11.2342      0.00000
     35      12.0162      0.00000
     36      12.0684      0.00000
     37      12.7354      0.00000
     38      13.0839      0.00000
     39      13.3096      0.00000
     40      14.7021      0.00000

 k-point    55 :       0.1316    0.1316    0.0000
  band No.  band energies     occupation 
      1      -6.2407      2.00000
      2      -4.5333      2.00000
      3      -3.0862      2.00000
      4      -3.0345      2.00000
      5      -2.6061      2.00000
      6      -1.9831      2.00000
      7      -1.9250      2.00000
      8      -0.8251      2.00000
      9      -0.1804      2.00000
     10      -0.1444      2.00000
     11       0.0213      2.00000
     12       0.7215      2.00000
     13       1.0131      2.00000
     14       1.2291      2.00000
     15       1.4007      2.00000
     16       1.6324      2.00000
     17       2.0890      0.00000
     18       2.6214      0.00000
     19       2.6834      0.00000
     20       2.8370      0.00000
     21       3.3765      0.00000
     22       4.0010      0.00000
     23       4.0180      0.00000
     24       4.1074      0.00000
     25       4.5373      0.00000
     26       5.1849      0.00000
     27       5.2037      0.00000
     28       5.8236      0.00000
     29       5.8509      0.00000
     30       6.1817      0.00000
     31       8.1653      0.00000
     32       8.1698      0.00000
     33      11.0936      0.00000
     34      11.2034      0.00000
     35      11.4229      0.00000
     36      12.4320      0.00000
     37      12.4455      0.00000
     38      13.4323      0.00000
     39      13.8981      0.00000
     40      15.0857      0.00000

 k-point    56 :       0.1053    0.1053    0.0000
  band No.  band energies     occupation 
      1      -6.5015      2.00000
      2      -4.7345      2.00000
      3      -3.2323      2.00000
      4      -3.2243      2.00000
      5      -2.7341      2.00000
      6      -2.0954      2.00000
      7      -2.0582      2.00000
      8      -0.7621      2.00000
      9       0.0410      2.00000
     10       0.0934      2.00000
     11       0.1852      2.00000
     12       1.0187      2.00000
     13       1.0886      2.00000
     14       1.1754      2.00000
     15       1.4236      2.00000
     16       1.5535      2.00000
     17       2.0100      0.00000
     18       2.5628      0.00000
     19       2.6666      0.00000
     20       2.7349      0.00000
     21       3.2881      0.00000
     22       3.8728      0.00000
     23       4.1270      0.00000
     24       4.1706      0.00000
     25       4.4050      0.00000
     26       5.2279      0.00000
     27       5.4684      0.00000
     28       5.7504      0.00000
     29       5.7772      0.00000
     30       6.0280      0.00000
     31       7.7322      0.00000
     32       7.8989      0.00000
     33      10.8345      0.00000
     34      11.1966      0.00000
     35      11.2613      0.00000
     36      12.1416      0.00000
     37      12.9086      0.00000
     38      13.7649      0.00000
     39      14.5623      0.00000
     40      15.4347      0.00000

 k-point    57 :       0.0789    0.0789    0.0000
  band No.  band energies     occupation 
      1      -6.7101      2.00000
      2      -4.8930      2.00000
      3      -3.3882      2.00000
      4      -3.3388      2.00000
      5      -2.8364      2.00000
      6      -2.1866      2.00000
      7      -2.1683      2.00000
      8      -0.7020      2.00000
      9       0.2273      2.00000
     10       0.3506      2.00000
     11       0.3662      2.00000
     12       1.0348      2.00000
     13       1.1217      2.00000
     14       1.3602      2.00000
     15       1.4458      2.00000
     16       1.4674      2.00000
     17       1.8835      0.06842
     18       2.3061      0.00000
     19       2.6882      0.00000
     20       2.7472      0.00000
     21       3.2408      0.00000
     22       3.7483      0.00000
     23       4.2095      0.00000
     24       4.3148      0.00000
     25       4.3725      0.00000
     26       5.2619      0.00000
     27       5.5843      0.00000
     28       5.7273      0.00000
     29       5.7396      0.00000
     30       6.0692      0.00000
     31       7.3371      0.00000
     32       7.6448      0.00000
     33      10.2893      0.00000
     34      11.2158      0.00000
     35      11.3883      0.00000
     36      11.9031      0.00000
     37      13.4276      0.00000
     38      14.0701      0.00000
     39      15.2520      0.00000
     40      15.4333      0.00000

 k-point    58 :       0.0526    0.0526    0.0000
  band No.  band energies     occupation 
      1      -6.8619      2.00000
      2      -5.0072      2.00000
      3      -3.5005      2.00000
      4      -3.4246      2.00000
      5      -2.9100      2.00000
      6      -2.2536      2.00000
      7      -2.2498      2.00000
      8      -0.6510      2.00000
      9       0.4019      2.00000
     10       0.5219      2.00000
     11       0.5616      2.00000
     12       1.0732      2.00000
     13       1.1385      2.00000
     14       1.3382      2.00000
     15       1.4591      2.00000
     16       1.4924      2.00000
     17       1.7948      1.50833
     18       2.0853      0.00000
     19       2.5694      0.00000
     20       2.8652      0.00000
     21       3.2322      0.00000
     22       3.6337      0.00000
     23       4.0744      0.00000
     24       4.3920      0.00000
     25       4.7148      0.00000
     26       5.2946      0.00000
     27       5.5272      0.00000
     28       5.7119      0.00000
     29       5.7270      0.00000
     30       6.2733      0.00000
     31       7.0215      0.00000
     32       7.4011      0.00000
     33       9.8374      0.00000
     34      11.2574      0.00000
     35      11.4768      0.00000
     36      11.7212      0.00000
     37      13.9535      0.00000
     38      14.3294      0.00000
     39      15.3677      0.00000
     40      15.9394      0.00000

 k-point    59 :       0.0263    0.0263    0.0000
  band No.  band energies     occupation 
      1      -6.9542      2.00000
      2      -5.0760      2.00000
      3      -3.5684      2.00000
      4      -3.4776      2.00000
      5      -2.9540      2.00000
      6      -2.2996      2.00000
      7      -2.2946      2.00000
      8      -0.6163      2.00000
      9       0.5385      2.00000
     10       0.5827      2.00000
     11       0.7667      2.00000
     12       1.0386      2.00000
     13       1.1825      2.00000
     14       1.3182      2.00000
     15       1.4584      2.00000
     16       1.5042      2.00000
     17       1.7887      1.60956
     18       1.9303      0.00166
     19       2.2954      0.00000
     20       3.1785      0.00000
     21       3.2502      0.00000
     22       3.5422      0.00000
     23       3.8391      0.00000
     24       4.4650      0.00000
     25       5.0641      0.00000
     26       5.3194      0.00000
     27       5.4603      0.00000
     28       5.6951      0.00000
     29       5.7123      0.00000
     30       6.4370      0.00000
     31       6.8233      0.00000
     32       7.1917      0.00000
     33       9.5360      0.00000
     34      11.3089      0.00000
     35      11.5288      0.00000
     36      11.5968      0.00000
     37      14.3934      0.00000
     38      14.5129      0.00000
     39      15.3055      0.00000
     40      16.5262      0.00000

 k-point    60 :       0.0000    0.0000    0.0000
  band No.  band energies     occupation 
      1      -6.9851      2.00000
      2      -5.0990      2.00000
      3      -3.5911      2.00000
      4      -3.4956      2.00000
      5      -2.9686      2.00000
      6      -2.3164      2.00000
      7      -2.3083      2.00000
      8      -0.6039      2.00000
      9       0.5934      2.00000
     10       0.5934      2.00000
     11       0.9373      2.00000
     12       1.0259      2.00000
     13       1.0259      2.00000
     14       1.4053      2.00000
     15       1.4533      2.00000
     16       1.5000      2.00000
     17       1.8743      0.11815
     18       1.8743      0.11815
     19       2.0924      0.00000
     20       3.2652      0.00000
     21       3.5029      0.00000
     22       3.5029      0.00000
     23       3.5533      0.00000
     24       4.4909      0.00000
     25       5.2309      0.00000
     26       5.3290      0.00000
     27       5.4344      0.00000
     28       5.6895      0.00000
     29       5.6895      0.00000
     30       6.4923      0.00000
     31       6.7602      0.00000
     32       7.0996      0.00000
     33       9.4301      0.00000
     34      11.3380      0.00000
     35      11.5459      0.00000
     36      11.5459      0.00000
     37      14.5813      0.00000
     38      14.5813      0.00000
     39      15.2767      0.00000
     40      16.4464      0.00000


--------------------------------------------------------------------------------------------------------


 soft charge-density along one line, spin component           1
         0         1         2         3         4         5         6         7         8         9
 total charge-density along one line
 
 pseudopotential strength for first ion, spin component:           1
 -7.944   0.000   0.000   0.000  -0.000   0.000  -0.000   0.000   0.000   0.000   0.028   0.000   0.000   0.000  -0.000   0.000
  0.000   0.000  -7.976   0.000  -0.000   0.000   0.000   0.000   0.000   0.000   0.000   0.000   0.025   0.000  -0.000   0.000
 -0.000   0.000  -0.000   0.000  -7.983   0.000   0.000   0.000  -0.000   0.000  -0.000   0.000  -0.000   0.000   0.025   0.000
 -0.000   0.000   0.000   0.000   0.000   0.000  -7.976   0.000   0.000   0.000  -0.000   0.000   0.000   0.000   0.000   0.000
  0.000   0.000   0.000   0.000  -0.000   0.000   0.000   0.000  -7.943   0.000   0.000   0.000   0.000   0.000  -0.000   0.000
  0.028   0.000   0.000   0.000  -0.000   0.000  -0.000   0.000   0.000   0.000   0.077   0.000   0.000   0.000  -0.000   0.000
  0.000   0.000   0.025   0.000  -0.000   0.000   0.000   0.000   0.000   0.000   0.000   0.000   0.077   0.000  -0.000   0.000
 -0.000   0.000  -0.000   0.000   0.025   0.000   0.000   0.000  -0.000   0.000  -0.000   0.000  -0.000   0.000   0.077   0.000
 -0.000   0.000   0.000   0.000   0.000   0.000   0.025   0.000   0.000   0.000  -0.000   0.000   0.000   0.000   0.000   0.000
  0.000   0.000   0.000   0.000  -0.000   0.000   0.000   0.000   0.028   0.000  -0.000   0.000   0.000   0.000  -0.000   0.000
 -0.000   0.000   0.000   0.000   0.016   0.000  -0.000   0.000  -0.000   0.000  -0.000   0.000   0.000   0.000   0.001   0.000
  0.000   0.000  -0.000   0.000  -0.002   0.000   0.000   0.000   0.000   0.000   0.000   0.000  -0.000   0.000  -0.000   0.000
 -0.000   0.000  -0.025   0.000   0.000   0.000   0.000   0.000   0.000   0.000  -0.000   0.000  -0.001   0.000   0.000   0.000
  0.000   0.000  -0.000   0.000  -0.043   0.000   0.000   0.000  -0.000   0.000  -0.000   0.000  -0.000   0.000  -0.001   0.000
 -0.000   0.000   0.000   0.000  -0.000   0.000  -0.025   0.000   0.000   0.000  -0.000   0.000  -0.000   0.000   0.000   0.000
 -0.000   0.000   0.021   0.000  -0.000   0.000  -0.000   0.000  -0.000   0.000  -0.000   0.000   0.001   0.000  -0.000   0.000
 -0.000   0.000   0.000   0.000   0.031   0.000   0.000   0.000   0.000   0.000   0.000   0.000   0.000   0.000   0.001   0.000
  0.000   0.000  -0.000   0.000   0.000   0.000   0.021   0.000  -0.000   0.000   0.000   0.000   0.000   0.000   0.000   0.000
 total augmentation occupancy for first ion, spin component:           1
  1.000   0.000   0.000   0.000   0.000   0.000   0.000   0.000   0.000   0.000   0.000   0.000   0.000   0.000   0.000   0.000
  0.000   1.000   0.000   0.000   0.000   0.000   0.000   0.000   0.000   0.000   0.000   0.000   0.000   0.000   0.000   0.000
  0.000   0.000   1.000   0.000   0.000   0.000   0.000   0.000   0.000   0.000   0.000   0.000   0.000   0.000   0.000   0.000
  0.000   0.000   0.000   1.000   0.000   0.000   0.000   0.000   0.000   0.000   0.000   0.000   0.000   0.000   0.000   0.000
  0.000   0.000   0.000   0.000   1.000   0.000   0.000   0.000   0.000   0.000   0.000   0.000   0.000   0.000   0.000   0.000
  0.000   0.000   0.000   0.000   0.000   0.000   0.000   0.000   0.000   0.000   0.000   0.000   0.000   0.000   0.000   0.000
  0.000   0.000   0.000   0.000   0.000   0.000   0.000   0.000   0.000   0.000   0.000   0.000   0.000   0.000   0.000   0.000
  0.000   0.000   0.000   0.000   0.000   0.000   0.000   0.000   0.000   0.000   0.000   0.000   0.000   0.000   0.000   0.000
  0.000   0.000   0.000   0.000   0.000   0.000   0.000   0.000   0.000   0.000   0.000   0.000   0.000   0.000   0.000   0.000
  0.000   0.000   0.000   0.000   0.000   0.000   0.000   0.000   0.000   0.000   0.000   0.000   0.000   0.000   0.000   0.000
  0.000   0.000   0.000   0.000   0.000   0.000   0.000   0.000   0.000   0.000   1.000   0.000   0.000   0.000   0.000   0.000
  0.000   0.000   0.000   0.000   0.000   0.000   0.000   0.000   0.000   0.000   0.000   0.000   0.000   0.000   0.000   0.000
  0.000   0.000   0.000   0.000   0.000   0.000   0.000   0.000   0.000   0.000   0.000   0.000   0.000   0.000   0.000   0.000
  0.000   0.000   0.000   0.000   0.000   0.000   0.000   0.000   0.000   0.000   0.000   0.000   0.000   0.000   0.000   0.000
  0.000   0.000   0.000   0.000   0.000   0.000   0.000   0.000   0.000   0.000   0.000   0.000   0.000   0.000   0.000   0.000
  0.000   0.000   0.000   0.000   0.000   0.000   0.000   0.000   0.000   0.000   0.000   0.000   0.000   0.000   0.000   0.000
  0.000   0.000   0.000   0.000   0.000   0.000   0.000   0.000   0.000   0.000   0.000   0.000   0.000   0.000   0.000   0.000
  0.000   0.000   0.000   0.000   0.000   0.000   0.000   0.000   0.000   0.000   0.000   0.000   0.000   0.000   0.000   0.000


------------------------ aborting loop because EDIFF is reached ----------------------------------------


    CHARGE:  cpu time    0.0449: real time    0.0497
    FORLOC:  cpu time    0.0010: real time    0.0019
    FORNL :  cpu time    0.2738: real time    0.2776
    STRESS:  cpu time    1.4541: real time    1.4604
    FORCOR:  cpu time    0.0037: real time    0.0050
    FORHAR:  cpu time    0.0029: real time    0.0036
    OFIELD:  cpu time    0.0003: real time    0.0014

  FORCE on cell =-STRESS in cart. coord.  units (eV):
  Direction    XX          YY          ZZ          XY          YZ          ZX
  --------------------------------------------------------------------------------------
  Alpha Z   110.60728   110.60728   110.60728
  Ewald    2279.68535  2279.68535 -3239.94969     0.00000     0.00000    -0.00000
  Hartree  2497.55085  2497.55085 -2483.85147    -0.00000    -0.00000    -0.00000
  E(xc)    -132.30194  -132.30194  -132.26455    -0.00000    -0.00000     0.00000
  Local   -5108.49101 -5108.49101  5386.96447    -0.00000    -0.00000    -0.00000
  n-local   -81.29306   -69.40022   -77.20392     1.56679    -0.00000    -0.00000
  augment    26.47414    26.47414    26.52778     0.00000     0.00000     0.00000
  Kinetic   371.22390   400.86479   401.04760     1.20811     0.00000     0.00000
  Fock        0.00000     0.00000     0.00000     0.00000     0.00000     0.00000
  -------------------------------------------------------------------------------------
  Total     -15.77761   -15.77761    -8.12249     0.00000     0.00000    -0.00000
  in kB    -160.22141  -160.22141   -82.48381     0.00000     0.00000    -0.00000
  external pressure =     -134.31 kB  Pullay stress =        0.00 kB


 VOLUME and BASIS-vectors are now :
 -----------------------------------------------------------------------------
  energy-cutoff  :      600.00
  volume of cell :      157.77
      direct lattice vectors                 reciprocal lattice vectors
     3.160000000  0.000000000  0.000000000     0.316455696  0.000000000  0.000000000
     0.000000000  3.160000000  0.000000000     0.000000000  0.316455696  0.000000000
     0.000000000  0.000000000 15.800000000     0.000000000  0.000000000  0.063291139

  length of vectors
     3.160000000  3.160000000 15.800000000     0.316455696  0.316455696  0.063291139


 FORCES acting on ions
    electron-ion (+dipol)            ewald-force                    non-local-force                 convergence-correction
 -----------------------------------------------------------------------------------------------
   -.115E-14 -.972E-16 0.616E+03   0.195E-14 0.846E-16 -.614E+03   0.000E+00 0.000E+00 -.457E+01   -.228E-13 0.289E-13 0.391E+01
   -.244E-14 -.738E-14 0.328E+03   -.118E-14 0.891E-15 -.329E+03   -.207E-24 0.000E+00 0.327E+00   0.508E-14 -.159E-13 -.458E-01
   0.157E-14 0.322E-14 -.216E-05   0.194E-14 -.139E-14 -.101E-10   0.207E-24 0.103E-24 -.847E-21   -.715E-15 0.815E-14 -.115E-05
   -.445E-14 -.443E-13 -.328E+03   0.580E-15 -.465E-15 0.329E+03   0.207E-24 0.258E-25 -.327E+00   0.212E-14 0.521E-14 0.458E-01
   0.142E-14 0.285E-14 -.616E+03   -.189E-14 0.500E-15 0.614E+03   0.775E-25 0.000E+00 0.457E+01   0.370E-15 0.793E-14 -.391E+01
 -----------------------------------------------------------------------------------------------
   -.505E-14 -.457E-13 -.126E-04   0.140E-14 -.384E-15 -.227E-12   0.284E-24 0.129E-24 0.000E+00   -.160E-13 0.343E-13 -.521E-05
 
 
 POSITION                                       TOTAL-FORCE (eV/Angst)
 -----------------------------------------------------------------------------------
      0.00000      0.00000      0.00000         0.000000     -0.000000      1.081899
      1.58000      1.58000      1.58000         0.000000      0.000000     -0.577084
      0.00000      0.00000      3.16000        -0.000000     -0.000000      0.000000
      1.58000      1.58000      4.74000        -0.000000     -0.000000      0.577084
      0.00000      0.00000      6.32000        -0.000000     -0.000000     -1.081899
 -----------------------------------------------------------------------------------
    total drift:                               -0.000000     -0.000000     -0.000018


--------------------------------------------------------------------------------------------------------



  FREE ENERGIE OF THE ION-ELECTRON SYSTEM (eV)
  ---------------------------------------------------
  free  energy   TOTEN  =       -64.69938979 eV

  energy  without entropy=      -64.69148643  energy(sigma->0) =      -64.69543811
 


--------------------------------------------------------------------------------------------------------


    POTLOK:  cpu time    0.0068: real time    0.0089


--------------------------------------------------------------------------------------------------------


 writing wavefunctions
     LOOP+:  cpu time   14.1534: real time   14.3436
    4ORBIT:  cpu time    0.0000: real time    0.0000

 total amount of memory used by VASP MPI-rank0    84384. kBytes
=======================================================================

   base      :      30000. kBytes
   nonl-proj :      46390. kBytes
   fftplans  :        852. kBytes
   grid      :       1843. kBytes
   one-center:         77. kBytes
   wavefun   :       5222. kBytes
 
  
  
 General timing and accounting informations for this job:
 ========================================================
  
                  Total CPU time used (sec):       17.055
                            User time (sec):       15.135
                          System time (sec):        1.920
                         Elapsed time (sec):       17.411
  
                   Maximum memory used (kb):      127176.
                   Average memory used (kb):           0.
  
                          Minor page faults:        27757
                          Major page faults:           51
                 Voluntary context switches:         1254
