<?xml version="1.0" encoding="ISO-8859-1"?>
<modeling>
 <generator>
  <i name="program" type="string">vasp </i>
  <i name="version" type="string">5.4.4.18Apr17-6-g9f103f2a35  </i>
  <i name="subversion" type="string">(build May 20 2018 16:52:39) complex            parallel </i>
  <i name="platform" type="string">LinuxIFC </i>
  <i name="date" type="string">2022 11 18 </i>
  <i name="time" type="string">01:50:56 </i>
 </generator>
 <incar>
  <i type="string" name="PREC">normal</i>
  <i type="int" name="ICHARG">    11</i>
  <i name="EDIFF">      0.00000100</i>
  <i name="ENCUT">    600.00000000</i>
  <i type="int" name="ISMEAR">     0</i>
  <i name="SIGMA">      0.05000000</i>
  <i type="logical" name="LCHARG"> F  </i>
  <v type="int" name="KPOINT_BSE">    -1     0     0     0</v>
 </incar>
 <structure name="primitive_cell" >
  <crystal>
   <varray name="basis" >
    <v>       3.16000000       0.00000000       0.00000000 </v>
    <v>       0.00000000       3.16000000       0.00000000 </v>
    <v>       0.00000000       0.00000000      15.80000000 </v>
   </varray>
   <i name="volume">    157.77248000 </i>
   <varray name="rec_basis" >
    <v>       0.31645570       0.00000000       0.00000000 </v>
    <v>       0.00000000       0.31645570       0.00000000 </v>
    <v>       0.00000000       0.00000000       0.06329114 </v>
   </varray>
  </crystal>
  <varray name="positions" >
   <v>       0.00000000       0.00000000       0.00000000 </v>
   <v>      -0.50000000      -0.50000000       0.10000000 </v>
   <v>       0.00000000       0.00000000       0.20000000 </v>
   <v>      -0.50000000      -0.50000000       0.30000000 </v>
   <v>       0.00000000       0.00000000       0.40000000 </v>
  </varray>
 </structure>
 <varray name="primitive_index" >
  <v type="int" >        1 </v>
  <v type="int" >        2 </v>
  <v type="int" >        3 </v>
  <v type="int" >        4 </v>
  <v type="int" >        5 </v>
 </varray>
 <kpoints>
  <generation param="listgenerated">
   <i name="divisions" type="int">      20 </i>
   <v>       0.00000000       0.00000000       0.00000000 </v>
   <v>       0.50000000       0.00000000       0.00000000 </v>
   <v>       0.50000000       0.50000000       0.00000000 </v>
   <v>       0.00000000       0.00000000       0.00000000 </v>
  </generation>
  <varray name="kpointlist" >
   <v>       0.00000000       0.00000000       0.00000000 </v>
   <v>       0.02631579       0.00000000       0.00000000 </v>
   <v>       0.05263158       0.00000000       0.00000000 </v>
   <v>       0.07894737       0.00000000       0.00000000 </v>
   <v>       0.10526316       0.00000000       0.00000000 </v>
   <v>       0.13157895       0.00000000       0.00000000 </v>
   <v>       0.15789474       0.00000000       0.00000000 </v>
   <v>       0.18421053       0.00000000       0.00000000 </v>
   <v>       0.21052632       0.00000000       0.00000000 </v>
   <v>       0.23684211       0.00000000       0.00000000 </v>
   <v>       0.26315789       0.00000000       0.00000000 </v>
   <v>       0.28947368       0.00000000       0.00000000 </v>
   <v>       0.31578947       0.00000000       0.00000000 </v>
   <v>       0.34210526       0.00000000       0.00000000 </v>
   <v>       0.36842105       0.00000000       0.00000000 </v>
   <v>       0.39473684       0.00000000       0.00000000 </v>
   <v>       0.42105263       0.00000000       0.00000000 </v>
   <v>       0.44736842       0.00000000       0.00000000 </v>
   <v>       0.47368421       0.00000000       0.00000000 </v>
   <v>       0.50000000       0.00000000       0.00000000 </v>
   <v>       0.50000000       0.00000000       0.00000000 </v>
   <v>       0.50000000       0.02631579       0.00000000 </v>
   <v>       0.50000000       0.05263158       0.00000000 </v>
   <v>       0.50000000       0.07894737       0.00000000 </v>
   <v>       0.50000000       0.10526316       0.00000000 </v>
   <v>       0.50000000       0.13157895       0.00000000 </v>
   <v>       0.50000000       0.15789474       0.00000000 </v>
   <v>       0.50000000       0.18421053       0.00000000 </v>
   <v>       0.50000000       0.21052632       0.00000000 </v>
   <v>       0.50000000       0.23684211       0.00000000 </v>
   <v>       0.50000000       0.26315789       0.00000000 </v>
   <v>       0.50000000       0.28947368       0.00000000 </v>
   <v>       0.50000000       0.31578947       0.00000000 </v>
   <v>       0.50000000       0.34210526       0.00000000 </v>
   <v>       0.50000000       0.36842105       0.00000000 </v>
   <v>       0.50000000       0.39473684       0.00000000 </v>
   <v>       0.50000000       0.42105263       0.00000000 </v>
   <v>       0.50000000       0.44736842       0.00000000 </v>
   <v>       0.50000000       0.47368421       0.00000000 </v>
   <v>       0.50000000       0.50000000       0.00000000 </v>
   <v>       0.50000000       0.50000000       0.00000000 </v>
   <v>       0.47368421       0.47368421       0.00000000 </v>
   <v>       0.44736842       0.44736842       0.00000000 </v>
   <v>       0.42105263       0.42105263       0.00000000 </v>
   <v>       0.39473684       0.39473684       0.00000000 </v>
   <v>       0.36842105       0.36842105       0.00000000 </v>
   <v>       0.34210526       0.34210526       0.00000000 </v>
   <v>       0.31578947       0.31578947       0.00000000 </v>
   <v>       0.28947368       0.28947368       0.00000000 </v>
   <v>       0.26315789       0.26315789       0.00000000 </v>
   <v>       0.23684211       0.23684211       0.00000000 </v>
   <v>       0.21052632       0.21052632       0.00000000 </v>
   <v>       0.18421053       0.18421053       0.00000000 </v>
   <v>       0.15789474       0.15789474       0.00000000 </v>
   <v>       0.13157895       0.13157895       0.00000000 </v>
   <v>       0.10526316       0.10526316       0.00000000 </v>
   <v>       0.07894737       0.07894737       0.00000000 </v>
   <v>       0.05263158       0.05263158       0.00000000 </v>
   <v>       0.02631579       0.02631579       0.00000000 </v>
   <v>       0.00000000       0.00000000       0.00000000 </v>
  </varray>
  <varray name="weights" >
   <v>       0.01666667 </v>
   <v>       0.01666667 </v>
   <v>       0.01666667 </v>
   <v>       0.01666667 </v>
   <v>       0.01666667 </v>
   <v>       0.01666667 </v>
   <v>       0.01666667 </v>
   <v>       0.01666667 </v>
   <v>       0.01666667 </v>
   <v>       0.01666667 </v>
   <v>       0.01666667 </v>
   <v>       0.01666667 </v>
   <v>       0.01666667 </v>
   <v>       0.01666667 </v>
   <v>       0.01666667 </v>
   <v>       0.01666667 </v>
   <v>       0.01666667 </v>
   <v>       0.01666667 </v>
   <v>       0.01666667 </v>
   <v>       0.01666667 </v>
   <v>       0.01666667 </v>
   <v>       0.01666667 </v>
   <v>       0.01666667 </v>
   <v>       0.01666667 </v>
   <v>       0.01666667 </v>
   <v>       0.01666667 </v>
   <v>       0.01666667 </v>
   <v>       0.01666667 </v>
   <v>       0.01666667 </v>
   <v>       0.01666667 </v>
   <v>       0.01666667 </v>
   <v>       0.01666667 </v>
   <v>       0.01666667 </v>
   <v>       0.01666667 </v>
   <v>       0.01666667 </v>
   <v>       0.01666667 </v>
   <v>       0.01666667 </v>
   <v>       0.01666667 </v>
   <v>       0.01666667 </v>
   <v>       0.01666667 </v>
   <v>       0.01666667 </v>
   <v>       0.01666667 </v>
   <v>       0.01666667 </v>
   <v>       0.01666667 </v>
   <v>       0.01666667 </v>
   <v>       0.01666667 </v>
   <v>       0.01666667 </v>
   <v>       0.01666667 </v>
   <v>       0.01666667 </v>
   <v>       0.01666667 </v>
   <v>       0.01666667 </v>
   <v>       0.01666667 </v>
   <v>       0.01666667 </v>
   <v>       0.01666667 </v>
   <v>       0.01666667 </v>
   <v>       0.01666667 </v>
   <v>       0.01666667 </v>
   <v>       0.01666667 </v>
   <v>       0.01666667 </v>
   <v>       0.01666667 </v>
  </varray>
 </kpoints>
 <parameters>
  <separator name="general" >
   <i type="string" name="SYSTEM">unknown system</i>
   <i type="logical" name="LCOMPAT"> F  </i>
  </separator>
  <separator name="electronic" >
   <i type="string" name="PREC">normal</i>
   <i name="ENMAX">    600.00000000</i>
   <i name="ENAUG">    373.43800000</i>
   <i name="EDIFF">      0.00000100</i>
   <i type="int" name="IALGO">    38</i>
   <i type="int" name="IWAVPR">    10</i>
   <i type="int" name="NBANDS">    40</i>
   <i name="NELECT">     30.00000000</i>
   <i type="int" name="TURBO">     0</i>
   <i type="int" name="IRESTART">     0</i>
   <i type="int" name="NREBOOT">     0</i>
   <i type="int" name="NMIN">     0</i>
   <i name="EREF">      0.00000000</i>
   <separator name="electronic smearing" >
    <i type="int" name="ISMEAR">     0</i>
    <i name="SIGMA">      0.05000000</i>
    <i name="KSPACING">      0.50000000</i>
    <i type="logical" name="KGAMMA"> T  </i>
   </separator>
   <separator name="electronic projectors" >
    <i type="logical" name="LREAL"> F  </i>
    <v name="ROPT">      0.00000000</v>
    <i type="int" name="LMAXPAW">  -100</i>
    <i type="int" name="LMAXMIX">     2</i>
    <i type="logical" name="NLSPLINE"> F  </i>
   </separator>
   <separator name="electronic startup" >
    <i type="int" name="ISTART">     0</i>
    <i type="int" name="ICHARG">    11</i>
    <i type="int" name="INIWAV">     1</i>
   </separator>
   <separator name="electronic spin" >
    <i type="int" name="ISPIN">     1</i>
    <i type="logical" name="LNONCOLLINEAR"> F  </i>
    <v name="MAGMOM">      1.00000000      1.00000000      1.00000000      1.00000000      1.00000000</v>
    <i name="NUPDOWN">     -1.00000000</i>
    <i type="logical" name="LSORBIT"> F  </i>
    <v name="SAXIS">      0.00000000      0.00000000      1.00000000</v>
    <i type="logical" name="LSPIRAL"> F  </i>
    <v name="QSPIRAL">      0.00000000      0.00000000      0.00000000</v>
    <i type="logical" name="LZEROZ"> F  </i>
   </separator>
   <separator name="electronic exchange-correlation" >
    <i type="logical" name="LASPH"> F  </i>
    <i type="logical" name="LMETAGGA"> F  </i>
   </separator>
   <separator name="electronic convergence" >
    <i type="int" name="NELM">    60</i>
    <i type="int" name="NELMDL">    -5</i>
    <i type="int" name="NELMIN">     2</i>
    <i name="ENINI">    600.00000000</i>
    <separator name="electronic convergence detail" >
     <i type="logical" name="LDIAG"> T  </i>
     <i type="logical" name="LSUBROT"> F  </i>
     <i name="WEIMIN">      0.00000000</i>
     <i name="EBREAK">      0.00000001</i>
     <i name="DEPER">      0.30000000</i>
     <i type="int" name="NRMM">     4</i>
     <i name="TIME">      0.40000000</i>
    </separator>
   </separator>
   <separator name="electronic mixer" >
    <i name="AMIX">      0.40000000</i>
    <i name="BMIX">      1.00000000</i>
    <i name="AMIN">      0.10000000</i>
    <i name="AMIX_MAG">      1.60000000</i>
    <i name="BMIX_MAG">      1.00000000</i>
    <separator name="electronic mixer details" >
     <i type="int" name="IMIX">     4</i>
     <i type="logical" name="MIXFIRST"> F  </i>
     <i type="int" name="MAXMIX">   -45</i>
     <i name="WC">    100.00000000</i>
     <i type="int" name="INIMIX">     1</i>
     <i type="int" name="MIXPRE">     1</i>
     <i type="int" name="MREMOVE">     5</i>
    </separator>
   </separator>
   <separator name="electronic dipolcorrection" >
    <i type="logical" name="LDIPOL"> F  </i>
    <i type="logical" name="LMONO"> F  </i>
    <i type="int" name="IDIPOL">     0</i>
    <i name="EPSILON">      1.00000000</i>
    <v name="DIPOL">   -100.00000000   -100.00000000   -100.00000000</v>
    <i name="EFIELD">      0.00000000</i>
   </separator>
  </separator>
  <separator name="grids" >
   <i type="int" name="NGX">    20</i>
   <i type="int" name="NGY">    20</i>
   <i type="int" name="NGZ">    96</i>
   <i type="int" name="NGXF">    40</i>
   <i type="int" name="NGYF">    40</i>
   <i type="int" name="NGZF">   192</i>
   <i type="logical" name="ADDGRID"> F  </i>
  </separator>
  <separator name="ionic" >
   <i type="int" name="NSW">     0</i>
   <i type="int" name="IBRION">    -1</i>
   <i type="int" name="MDALGO">     0</i>
   <i type="int" name="ISIF">     2</i>
   <i name="PSTRESS">      0.00000000</i>
   <i name="EDIFFG">      0.00001000</i>
   <i type="int" name="NFREE">     0</i>
   <i name="POTIM">      0.50000000</i>
   <i name="SMASS">     -3.00000000</i>
   <i name="SCALEE">      1.00000000</i>
  </separator>
  <separator name="ionic md" >
   <i name="TEBEG">      0.00010000</i>
   <i name="TEEND">      0.00010000</i>
   <i type="int" name="NBLOCK">     1</i>
   <i type="int" name="KBLOCK">     1</i>
   <i type="int" name="NPACO">   256</i>
   <i name="APACO">     16.00000000</i>
  </separator>
  <separator name="symmetry" >
   <i type="int" name="ISYM">     2</i>
   <i name="SYMPREC">      0.00001000</i>
  </separator>
  <separator name="dos" >
   <i type="int" name="LORBIT">     0</i>
   <v name="RWIGS">     -1.00000000</v>
   <i type="int" name="NEDOS">   301</i>
   <i name="EMIN">     10.00000000</i>
   <i name="EMAX">    -10.00000000</i>
   <i name="EFERMI">      0.00000000</i>
  </separator>
  <separator name="writing" >
   <i type="int" name="NWRITE">     2</i>
   <i type="logical" name="LWAVE"> T  </i>
   <i type="logical" name="LDOWNSAMPLE"> F  </i>
   <i type="logical" name="LCHARG"> F  </i>
   <i type="logical" name="LPARD"> F  </i>
   <i type="logical" name="LVTOT"> F  </i>
   <i type="logical" name="LVHAR"> F  </i>
   <i type="logical" name="LELF"> F  </i>
   <i type="logical" name="LOPTICS"> F  </i>
   <v name="STM">      0.00000000      0.00000000      0.00000000      0.00000000      0.00000000      0.00000000      0.00000000</v>
  </separator>
  <separator name="performance" >
   <i type="int" name="NPAR">    40</i>
   <i type="int" name="NSIM">     4</i>
   <i type="int" name="NBLK">    -1</i>
   <i type="logical" name="LPLANE"> T  </i>
   <i type="logical" name="LSCALAPACK"> T  </i>
   <i type="logical" name="LSCAAWARE"> F  </i>
   <i type="logical" name="LSCALU"> F  </i>
   <i type="logical" name="LASYNC"> F  </i>
   <i type="logical" name="LORBITALREAL"> F  </i>
  </separator>
  <separator name="miscellaneous" >
   <i type="int" name="IDIOT">     3</i>
   <i type="int" name="ISPECIAL">     0</i>
   <i type="logical" name="LMUSIC"> F  </i>
   <v name="POMASS">    183.85000000</v>
   <v name="DARWINR">      0.00000000</v>
   <v name="DARWINV">      1.00000000</v>
   <i type="logical" name="LCORR"> T  </i>
  </separator>
  <i type="logical" name="GGA_COMPAT"> T  </i>
  <i type="logical" name="LBERRY"> F  </i>
  <i type="int" name="ICORELEVEL">     0</i>
  <i type="logical" name="LDAU"> F  </i>
  <i type="int" name="I_CONSTRAINED_M">     0</i>
  <separator name="electronic exchange-correlation" >
   <i type="string" name="GGA">--</i>
   <i type="int" name="VOSKOWN">     0</i>
   <i type="logical" name="LHFCALC"> F  </i>
   <i type="string" name="PRECFOCK"></i>
   <i type="logical" name="LSYMGRAD"> F  </i>
   <i type="logical" name="LHFONE"> F  </i>
   <i type="logical" name="LRHFCALC"> F  </i>
   <i type="logical" name="LTHOMAS"> F  </i>
   <i type="logical" name="LMODELHF"> F  </i>
   <i name="ENCUT4O">     -1.00000000</i>
   <i type="int" name="EXXOEP">     0</i>
   <i type="int" name="FOURORBIT">     0</i>
   <i name="AEXX">      0.00000000</i>
   <i name="HFALPHA">      0.00000000</i>
   <i name="MCALPHA">      0.00000000</i>
   <i name="ALDAX">      1.00000000</i>
   <i name="AGGAX">      1.00000000</i>
   <i name="ALDAC">      1.00000000</i>
   <i name="AGGAC">      1.00000000</i>
   <i type="int" name="NKREDX">     1</i>
   <i type="int" name="NKREDY">     1</i>
   <i type="int" name="NKREDZ">     1</i>
   <i type="logical" name="SHIFTRED"> F  </i>
   <i type="logical" name="ODDONLY"> F  </i>
   <i type="logical" name="EVENONLY"> F  </i>
   <i type="int" name="LMAXFOCK">     0</i>
   <i type="int" name="NMAXFOCKAE">     0</i>
   <i type="logical" name="LFOCKAEDFT"> F  </i>
   <i name="HFSCREEN">      0.00000000</i>
   <i name="HFSCREENC">      0.00000000</i>
   <i type="int" name="NBANDSGWLOW">     0</i>
  </separator>
  <separator name="vdW DFT" >
   <i type="logical" name="LUSE_VDW"> F  </i>
   <i name="Zab_VDW">     -0.84910000</i>
   <i name="PARAM1">      0.12340000</i>
   <i name="PARAM2">      1.00000000</i>
   <i name="PARAM3">      0.00000000</i>
  </separator>
  <separator name="model GW" >
   <i type="int" name="MODEL_GW">     0</i>
   <i name="MODEL_EPS0">     18.93269760</i>
   <i name="MODEL_ALPHA">      1.00000000</i>
  </separator>
  <separator name="linear response parameters" >
   <i type="logical" name="LEPSILON"> F  </i>
   <i type="logical" name="LRPA"> F  </i>
   <i type="logical" name="LNABLA"> F  </i>
   <i type="logical" name="LVEL"> F  </i>
   <i type="int" name="KINTER">     0</i>
   <i name="CSHIFT">      0.10000000</i>
   <i name="OMEGAMAX">     -1.00000000</i>
   <i name="DEG_THRESHOLD">      0.00200000</i>
   <i name="RTIME">     -0.10000000</i>
   <i name="WPLASMAI">      0.00000000</i>
   <v name="DFIELD">      0.00000000      0.00000000      0.00000000</v>
   <v name="WPLASMA">      0.00000000      0.00000000      0.00000000      0.00000000      0.00000000      0.00000000      0.00000000      0.00000000      0.00000000</v>
  </separator>
  <separator name="orbital magnetization" >
   <i type="logical" name="NUCIND"> F  </i>
   <v name="MAGPOS">      0.00000000      0.00000000      0.00000000</v>
   <i type="logical" name="LNICSALL"> T  </i>
   <i type="logical" name="ORBITALMAG"> F  </i>
   <i type="logical" name="LMAGBLOCH"> F  </i>
   <i type="logical" name="LCHIMAG"> F  </i>
   <i type="logical" name="LGAUGE"> T  </i>
   <i type="int" name="MAGATOM">     0</i>
   <v name="MAGDIPOL">      0.00000000      0.00000000      0.00000000</v>
   <v name="AVECCONST">      0.00000000      0.00000000      0.00000000</v>
  </separator>
  <separator name="response functions" >
   <i type="logical" name="LADDER"> F  </i>
   <i type="logical" name="LRPAFORCE"> F  </i>
   <i type="logical" name="LFXC"> F  </i>
   <i type="logical" name="LHARTREE"> T  </i>
   <i type="int" name="IBSE">     0</i>
   <v type="int" name="KPOINT">    -1     0     0     0</v>
   <i type="logical" name="LTCTE"> F  </i>
   <i type="logical" name="LTETE"> F  </i>
   <i type="logical" name="LTRIPLET"> F  </i>
   <i type="logical" name="LFXCEPS"> F  </i>
   <i type="logical" name="LFXHEG"> F  </i>
   <i type="int" name="NATURALO">     2</i>
   <i type="logical" name="L2ORDER"> F  </i>
   <i type="logical" name="LMP2LT"> F  </i>
   <i type="logical" name="LUSEW"> F  </i>
   <i name="ENCUTGW">     -2.00000000</i>
   <i name="ENCUTGWSOFT">     -2.00000000</i>
   <i name="ENCUTLF">     -1.00000000</i>
   <i type="int" name="LMAXMP2">    -1</i>
   <i name="SCISSOR">      0.00000000</i>
   <i type="int" name="NOMEGA">     0</i>
   <i type="int" name="NOMEGAR">     0</i>
   <i type="int" name="NBANDSGW">    -1</i>
   <i type="int" name="NBANDSO">    -1</i>
   <i type="int" name="NBANDSV">    -1</i>
   <i type="int" name="NELM">     1</i>
   <i type="int" name="NELMHF">     1</i>
   <i type="int" name="DIM">     3</i>
   <i type="int" name="ANTIRES">     0</i>
   <i name="OMEGAMAX">    -30.00000000</i>
   <i name="OMEGAMIN">    -30.00000000</i>
   <i name="OMEGATL">   -200.00000000</i>
   <i type="int" name="OMEGAGRID">   140</i>
   <i name="CSHIFT">     -0.10000000</i>
   <i type="logical" name="SELFENERGY"> F  </i>
   <i type="logical" name="LSPECTRAL"> F  </i>
   <i type="logical" name="LSPECTRALGW"> F  </i>
   <i type="logical" name="LSINGLES"> F  </i>
   <i type="logical" name="LFERMIGW"> F  </i>
   <i type="logical" name="ODDONLYGW"> F  </i>
   <i type="logical" name="EVENONLYGW"> F  </i>
   <i type="int" name="NKREDLFX">     1</i>
   <i type="int" name="NKREDLFY">     1</i>
   <i type="int" name="NKREDLFZ">     1</i>
   <i type="int" name="MAXMEM">  2800</i>
   <i type="int" name="TELESCOPE">     0</i>
   <i type="int" name="TAUPAR">     1</i>
   <i type="int" name="OMEGAPAR">    -1</i>
   <i name="LAMBDA">      1.00000000</i>
  </separator>
  <separator name="External order field" >
   <i name="OFIELD_KAPPA">      0.00000000</i>
   <v name="OFIELD_K">      0.00000000      0.00000000      0.00000000</v>
   <i name="OFIELD_Q6_NEAR">      0.00000000</i>
   <i name="OFIELD_Q6_FAR">      0.00000000</i>
   <i name="OFIELD_A">      0.00000000</i>
  </separator>
 </parameters>
 <atominfo>
  <atoms>       5 </atoms>
  <types>       1 </types>
  <array name="atoms" >
   <dimension dim="1">ion</dimension>
   <field type="string">element</field>
   <field type="int">atomtype</field>
   <set>
    <rc><c>W </c><c>   1</c></rc>
    <rc><c>W </c><c>   1</c></rc>
    <rc><c>W </c><c>   1</c></rc>
    <rc><c>W </c><c>   1</c></rc>
    <rc><c>W </c><c>   1</c></rc>
   </set>
  </array>
  <array name="atomtypes" >
   <dimension dim="1">type</dimension>
   <field type="int">atomspertype</field>
   <field type="string">element</field>
   <field>mass</field>
   <field>valence</field>
   <field type="string">pseudopotential</field>
   <set>
    <rc><c>   5</c><c>W </c><c>    183.85000000</c><c>      6.00000000</c><c>  PAW W                                 </c></rc>
   </set>
  </array>
 </atominfo>
 <structure name="initialpos" >
  <crystal>
   <varray name="basis" >
    <v>       3.16000000       0.00000000       0.00000000 </v>
    <v>       0.00000000       3.16000000       0.00000000 </v>
    <v>       0.00000000       0.00000000      15.80000000 </v>
   </varray>
   <i name="volume">    157.77248000 </i>
   <varray name="rec_basis" >
    <v>       0.31645570       0.00000000       0.00000000 </v>
    <v>       0.00000000       0.31645570       0.00000000 </v>
    <v>       0.00000000       0.00000000       0.06329114 </v>
   </varray>
  </crystal>
  <varray name="positions" >
   <v>       0.00000000       0.00000000       0.00000000 </v>
   <v>       0.50000000       0.50000000       0.10000000 </v>
   <v>       0.00000000       0.00000000       0.20000000 </v>
   <v>       0.50000000       0.50000000       0.30000000 </v>
   <v>       0.00000000       0.00000000       0.40000000 </v>
  </varray>
 </structure>
 <calculation>
  <scstep>
   <time name="dav">    1.21    1.23</time>
   <time name="total">    1.23    1.26</time>
   <energy>
    <i name="alphaZ">    110.60728398 </i>
    <i name="ewald">   1319.42101824 </i>
    <i name="hartreedc">  -2540.01703233 </i>
    <i name="XCdc">   -236.30648985 </i>
    <i name="pawpsdc">   1120.75045550 </i>
    <i name="pawaedc">   -838.64837968 </i>
    <i name="eentropy">     -0.00506125 </i>
    <i name="bandstr">     91.42190133 </i>
    <i name="atom">   1032.68232307 </i>
    <i name="e_fr_energy">     59.90601900 </i>
    <i name="e_wo_entrp">     59.91108026 </i>
    <i name="e_0_energy">     59.90854963 </i>
   </energy>
  </scstep>
  <scstep>
   <time name="dav">    1.94    1.95</time>
   <time name="total">    1.94    1.95</time>
   <energy>
    <i name="e_fr_energy">    -62.71177582 </i>
    <i name="e_wo_entrp">    -62.70369926 </i>
    <i name="e_0_energy">    -62.70773754 </i>
   </energy>
  </scstep>
  <scstep>
   <time name="dav">    1.30    1.31</time>
   <time name="total">    1.31    1.31</time>
   <energy>
    <i name="e_fr_energy">    -64.69059566 </i>
    <i name="e_wo_entrp">    -64.68268992 </i>
    <i name="e_0_energy">    -64.68664279 </i>
   </energy>
  </scstep>
  <scstep>
   <time name="dav">    2.97    2.98</time>
   <time name="total">    2.97    2.98</time>
   <energy>
    <i name="e_fr_energy">    -64.69938902 </i>
    <i name="e_wo_entrp">    -64.69148565 </i>
    <i name="e_0_energy">    -64.69543734 </i>
   </energy>
  </scstep>
  <scstep>
   <time name="dav">    1.26    1.27</time>
   <time name="total">    1.26    1.27</time>
   <energy>
    <i name="e_fr_energy">    -64.69938979 </i>
    <i name="e_wo_entrp">    -64.69148643 </i>
    <i name="e_0_energy">    -64.69543811 </i>
   </energy>
  </scstep>
  <scstep>
   <time name="dav">    2.97    3.00</time>
   <time name="total">    2.97    3.00</time>
   <energy>
    <i name="alphaZ">    110.60728398 </i>
    <i name="ewald">   1319.42101824 </i>
    <i name="hartreedc">  -2540.01703233 </i>
    <i name="XCdc">   -236.30648985 </i>
    <i name="pawpsdc">   1120.75045550 </i>
    <i name="pawaedc">   -838.64837968 </i>
    <i name="eentropy">     -0.00790337 </i>
    <i name="bandstr">    -33.18066535 </i>
    <i name="atom">   1032.68232307 </i>
    <i name="e_fr_energy">    -64.69938979 </i>
    <i name="e_wo_entrp">    -64.69148643 </i>
    <i name="e_0_energy">    -64.69543811 </i>
   </energy>
  </scstep>
  <structure>
   <crystal>
    <varray name="basis" >
     <v>       3.16000000       0.00000000       0.00000000 </v>
     <v>       0.00000000       3.16000000       0.00000000 </v>
     <v>       0.00000000       0.00000000      15.80000000 </v>
    </varray>
    <i name="volume">    157.77248000 </i>
    <varray name="rec_basis" >
     <v>       0.31645570       0.00000000       0.00000000 </v>
     <v>       0.00000000       0.31645570       0.00000000 </v>
     <v>       0.00000000       0.00000000       0.06329114 </v>
    </varray>
   </crystal>
   <varray name="positions" >
    <v>       0.00000000       0.00000000       0.00000000 </v>
    <v>       0.50000000       0.50000000       0.10000000 </v>
    <v>       0.00000000       0.00000000       0.20000000 </v>
    <v>       0.50000000       0.50000000       0.30000000 </v>
    <v>       0.00000000       0.00000000       0.40000000 </v>
   </varray>
  </structure>
  <varray name="forces" >
   <v>       0.00000000      -0.00000000       1.08189918 </v>
   <v>       0.00000000       0.00000000      -0.57708437 </v>
   <v>      -0.00000000      -0.00000000       0.00000000 </v>
   <v>      -0.00000000      -0.00000000       0.57708437 </v>
   <v>      -0.00000000      -0.00000000      -1.08189918 </v>
  </varray>
  <varray name="stress" >
   <v>    -160.22141229       0.00000000      -0.00000000 </v>
   <v>       0.00000000    -160.22141229       0.00000000 </v>
   <v>      -0.00000000       0.00000000     -82.48381009 </v>
  </varray>
  <energy>
   <i name="e_fr_energy">    -64.69938979 </i>
   <i name="e_wo_entrp">    -64.69543811 </i>
   <i name="e_0_energy">     -0.00790337 </i>
  </energy>
  <time name="totalsc">   14.15   14.34</time>
  <eigenvalues>
   <array>
    <dimension dim="1">band</dimension>
    <dimension dim="2">kpoint</dimension>
    <dimension dim="3">spin</dimension>
    <field>eigene</field>
    <field>occ</field>
    <set>
     <set comment="spin 1">
      <set comment="kpoint 1">
       <r>   -6.9851    1.0000 </r>
       <r>   -5.0990    1.0000 </r>
       <r>   -3.5911    1.0000 </r>
       <r>   -3.4956    1.0000 </r>
       <r>   -2.9686    1.0000 </r>
       <r>   -2.3164    1.0000 </r>
       <r>   -2.3083    1.0000 </r>
       <r>   -0.6039    1.0000 </r>
       <r>    0.5934    1.0000 </r>
       <r>    0.5934    1.0000 </r>
       <r>    0.9373    1.0000 </r>
       <r>    1.0259    1.0000 </r>
       <r>    1.0259    1.0000 </r>
       <r>    1.4053    1.0000 </r>
       <r>    1.4533    1.0000 </r>
       <r>    1.5000    1.0000 </r>
       <r>    1.8743    0.0591 </r>
       <r>    1.8743    0.0591 </r>
       <r>    2.0924    0.0000 </r>
       <r>    3.2652    0.0000 </r>
       <r>    3.5029    0.0000 </r>
       <r>    3.5029    0.0000 </r>
       <r>    3.5533    0.0000 </r>
       <r>    4.4909    0.0000 </r>
       <r>    5.2309    0.0000 </r>
       <r>    5.3290    0.0000 </r>
       <r>    5.4344    0.0000 </r>
       <r>    5.6895    0.0000 </r>
       <r>    5.6895    0.0000 </r>
       <r>    6.4923    0.0000 </r>
       <r>    6.7602    0.0000 </r>
       <r>    7.0996    0.0000 </r>
       <r>    9.4301    0.0000 </r>
       <r>   11.3380    0.0000 </r>
       <r>   11.5459    0.0000 </r>
       <r>   11.5459    0.0000 </r>
       <r>   14.5813    0.0000 </r>
       <r>   14.5813    0.0000 </r>
       <r>   15.2767    0.0000 </r>
       <r>   16.4444    0.0000 </r>
      </set>
      <set comment="kpoint 2">
       <r>   -6.9697    1.0000 </r>
       <r>   -5.0875    1.0000 </r>
       <r>   -3.5799    1.0000 </r>
       <r>   -3.4864    1.0000 </r>
       <r>   -2.9614    1.0000 </r>
       <r>   -2.3155    1.0000 </r>
       <r>   -2.2940    1.0000 </r>
       <r>   -0.6098    1.0000 </r>
       <r>    0.5735    1.0000 </r>
       <r>    0.5804    1.0000 </r>
       <r>    0.8238    1.0000 </r>
       <r>    1.0395    1.0000 </r>
       <r>    1.1250    1.0000 </r>
       <r>    1.3580    1.0000 </r>
       <r>    1.4684    1.0000 </r>
       <r>    1.5032    1.0000 </r>
       <r>    1.7656    0.9349 </r>
       <r>    1.9466    0.0002 </r>
       <r>    2.2074    0.0000 </r>
       <r>    3.2552    0.0000 </r>
       <r>    3.2934    0.0000 </r>
       <r>    3.4991    0.0000 </r>
       <r>    3.7682    0.0000 </r>
       <r>    4.4779    0.0000 </r>
       <r>    5.1515    0.0000 </r>
       <r>    5.3236    0.0000 </r>
       <r>    5.4476    0.0000 </r>
       <r>    5.6135    0.0000 </r>
       <r>    5.7743    0.0000 </r>
       <r>    6.4665    0.0000 </r>
       <r>    6.7899    0.0000 </r>
       <r>    7.1470    0.0000 </r>
       <r>    9.4832    0.0000 </r>
       <r>   11.3116    0.0000 </r>
       <r>   11.5158    0.0000 </r>
       <r>   11.6049    0.0000 </r>
       <r>   14.4400    0.0000 </r>
       <r>   14.5931    0.0000 </r>
       <r>   15.2918    0.0000 </r>
       <r>   16.4852    0.0000 </r>
      </set>
      <set comment="kpoint 3">
       <r>   -6.9234    1.0000 </r>
       <r>   -5.0535    1.0000 </r>
       <r>   -3.5492    1.0000 </r>
       <r>   -3.4570    1.0000 </r>
       <r>   -2.9405    1.0000 </r>
       <r>   -2.3229    1.0000 </r>
       <r>   -2.2410    1.0000 </r>
       <r>   -0.6240    1.0000 </r>
       <r>    0.5197    1.0000 </r>
       <r>    0.5398    1.0000 </r>
       <r>    0.6671    1.0000 </r>
       <r>    1.0742    1.0000 </r>
       <r>    1.2362    1.0000 </r>
       <r>    1.2542    1.0000 </r>
       <r>    1.5154    1.0000 </r>
       <r>    1.5269    1.0000 </r>
       <r>    1.6073    1.0000 </r>
       <r>    2.1062    0.0000 </r>
       <r>    2.3843    0.0000 </r>
       <r>    3.0771    0.0000 </r>
       <r>    3.2212    0.0000 </r>
       <r>    3.4961    0.0000 </r>
       <r>    4.0010    0.0000 </r>
       <r>    4.4401    0.0000 </r>
       <r>    5.0005    0.0000 </r>
       <r>    5.3026    0.0000 </r>
       <r>    5.4217    0.0000 </r>
       <r>    5.4850    0.0000 </r>
       <r>    5.9431    0.0000 </r>
       <r>    6.3962    0.0000 </r>
       <r>    6.8760    0.0000 </r>
       <r>    7.2632    0.0000 </r>
       <r>    9.6361    0.0000 </r>
       <r>   11.1607    0.0000 </r>
       <r>   11.5072    0.0000 </r>
       <r>   11.7764    0.0000 </r>
       <r>   14.0833    0.0000 </r>
       <r>   14.6292    0.0000 </r>
       <r>   15.3274    0.0000 </r>
       <r>   16.1240    0.0000 </r>
      </set>
      <set comment="kpoint 4">
       <r>   -6.8469    1.0000 </r>
       <r>   -4.9981    1.0000 </r>
       <r>   -3.5065    1.0000 </r>
       <r>   -3.4018    1.0000 </r>
       <r>   -2.9085    1.0000 </r>
       <r>   -2.3362    1.0000 </r>
       <r>   -2.1527    1.0000 </r>
       <r>   -0.6365    1.0000 </r>
       <r>    0.4454    1.0000 </r>
       <r>    0.4675    1.0000 </r>
       <r>    0.5037    1.0000 </r>
       <r>    1.1117    1.0000 </r>
       <r>    1.1491    1.0000 </r>
       <r>    1.3162    1.0000 </r>
       <r>    1.4680    1.0000 </r>
       <r>    1.5464    1.0000 </r>
       <r>    1.6161    1.0000 </r>
       <r>    2.2968    0.0000 </r>
       <r>    2.5529    0.0000 </r>
       <r>    2.8887    0.0000 </r>
       <r>    3.1620    0.0000 </r>
       <r>    3.5040    0.0000 </r>
       <r>    4.2164    0.0000 </r>
       <r>    4.3824    0.0000 </r>
       <r>    4.8532    0.0000 </r>
       <r>    5.1321    0.0000 </r>
       <r>    5.3026    0.0000 </r>
       <r>    5.5425    0.0000 </r>
       <r>    6.1250    0.0000 </r>
       <r>    6.3018    0.0000 </r>
       <r>    7.0103    0.0000 </r>
       <r>    7.4085    0.0000 </r>
       <r>    9.8707    0.0000 </r>
       <r>   10.8676    0.0000 </r>
       <r>   11.5625    0.0000 </r>
       <r>   12.0468    0.0000 </r>
       <r>   13.6154    0.0000 </r>
       <r>   14.6918    0.0000 </r>
       <r>   15.3736    0.0000 </r>
       <r>   15.5755    0.0000 </r>
      </set>
      <set comment="kpoint 5">
       <r>   -6.7410    1.0000 </r>
       <r>   -4.9233    1.0000 </r>
       <r>   -3.4597    1.0000 </r>
       <r>   -3.3173    1.0000 </r>
       <r>   -2.8684    1.0000 </r>
       <r>   -2.3552    1.0000 </r>
       <r>   -2.0307    1.0000 </r>
       <r>   -0.6342    1.0000 </r>
       <r>    0.3383    1.0000 </r>
       <r>    0.3618    1.0000 </r>
       <r>    0.3644    1.0000 </r>
       <r>    1.0596    1.0000 </r>
       <r>    1.1277    1.0000 </r>
       <r>    1.3506    1.0000 </r>
       <r>    1.3591    1.0000 </r>
       <r>    1.6095    1.0000 </r>
       <r>    1.7265    0.9956 </r>
       <r>    2.4958    0.0000 </r>
       <r>    2.6944    0.0000 </r>
       <r>    2.7411    0.0000 </r>
       <r>    3.0898    0.0000 </r>
       <r>    3.5176    0.0000 </r>
       <r>    4.3155    0.0000 </r>
       <r>    4.3985    0.0000 </r>
       <r>    4.7392    0.0000 </r>
       <r>    4.8386    0.0000 </r>
       <r>    5.2701    0.0000 </r>
       <r>    5.6165    0.0000 </r>
       <r>    6.2116    0.0000 </r>
       <r>    6.2976    0.0000 </r>
       <r>    7.1808    0.0000 </r>
       <r>    7.5632    0.0000 </r>
       <r>   10.1588    0.0000 </r>
       <r>   10.4869    0.0000 </r>
       <r>   11.6555    0.0000 </r>
       <r>   12.3993    0.0000 </r>
       <r>   13.1068    0.0000 </r>
       <r>   14.7835    0.0000 </r>
       <r>   15.0128    0.0000 </r>
       <r>   15.4158    0.0000 </r>
      </set>
      <set comment="kpoint 6">
       <r>   -6.6069    1.0000 </r>
       <r>   -4.8321    1.0000 </r>
       <r>   -3.4116    1.0000 </r>
       <r>   -3.2077    1.0000 </r>
       <r>   -2.8225    1.0000 </r>
       <r>   -2.3794    1.0000 </r>
       <r>   -1.8768    1.0000 </r>
       <r>   -0.6036    1.0000 </r>
       <r>    0.1738    1.0000 </r>
       <r>    0.2272    1.0000 </r>
       <r>    0.2886    1.0000 </r>
       <r>    0.9898    1.0000 </r>
       <r>    1.1075    1.0000 </r>
       <r>    1.2793    1.0000 </r>
       <r>    1.3296    1.0000 </r>
       <r>    1.7097    0.9990 </r>
       <r>    1.8520    0.1758 </r>
       <r>    2.6421    0.0000 </r>
       <r>    2.6898    0.0000 </r>
       <r>    2.7964    0.0000 </r>
       <r>    3.0210    0.0000 </r>
       <r>    3.5175    0.0000 </r>
       <r>    4.2589    0.0000 </r>
       <r>    4.5299    0.0000 </r>
       <r>    4.5359    0.0000 </r>
       <r>    4.6758    0.0000 </r>
       <r>    5.2377    0.0000 </r>
       <r>    5.7045    0.0000 </r>
       <r>    6.1571    0.0000 </r>
       <r>    6.4510    0.0000 </r>
       <r>    7.3743    0.0000 </r>
       <r>    7.7224    0.0000 </r>
       <r>   10.0538    0.0000 </r>
       <r>   10.4567    0.0000 </r>
       <r>   11.7737    0.0000 </r>
       <r>   12.6129    0.0000 </r>
       <r>   12.8178    0.0000 </r>
       <r>   14.4560    0.0000 </r>
       <r>   14.9079    0.0000 </r>
       <r>   15.3999    0.0000 </r>
      </set>
      <set comment="kpoint 7">
       <r>   -6.4463    1.0000 </r>
       <r>   -4.7282    1.0000 </r>
       <r>   -3.3651    1.0000 </r>
       <r>   -3.0818    1.0000 </r>
       <r>   -2.7691    1.0000 </r>
       <r>   -2.4079    1.0000 </r>
       <r>   -1.6935    1.0000 </r>
       <r>   -0.5335    1.0000 </r>
       <r>    0.0124    1.0000 </r>
       <r>    0.0729    1.0000 </r>
       <r>    0.2271    1.0000 </r>
       <r>    0.9404    1.0000 </r>
       <r>    1.0532    1.0000 </r>
       <r>    1.2198    1.0000 </r>
       <r>    1.2554    1.0000 </r>
       <r>    1.8388    0.2889 </r>
       <r>    1.9886    0.0000 </r>
       <r>    2.5863    0.0000 </r>
       <r>    2.8544    0.0000 </r>
       <r>    2.8651    0.0000 </r>
       <r>    2.9673    0.0000 </r>
       <r>    3.4781    0.0000 </r>
       <r>    4.2387    0.0000 </r>
       <r>    4.2465    0.0000 </r>
       <r>    4.5997    0.0000 </r>
       <r>    4.6705    0.0000 </r>
       <r>    5.2058    0.0000 </r>
       <r>    5.8053    0.0000 </r>
       <r>    6.1616    0.0000 </r>
       <r>    6.5802    0.0000 </r>
       <r>    7.5771    0.0000 </r>
       <r>    7.8867    0.0000 </r>
       <r>    9.5921    0.0000 </r>
       <r>   10.6751    0.0000 </r>
       <r>   11.9051    0.0000 </r>
       <r>   12.2224    0.0000 </r>
       <r>   13.2886    0.0000 </r>
       <r>   13.9233    0.0000 </r>
       <r>   15.0680    0.0000 </r>
       <r>   15.1822    0.0000 </r>
      </set>
      <set comment="kpoint 8">
       <r>   -6.2613    1.0000 </r>
       <r>   -4.6163    1.0000 </r>
       <r>   -3.3260    1.0000 </r>
       <r>   -2.9532    1.0000 </r>
       <r>   -2.6978    1.0000 </r>
       <r>   -2.4390    1.0000 </r>
       <r>   -1.4844    1.0000 </r>
       <r>   -0.4167    1.0000 </r>
       <r>   -0.1442    1.0000 </r>
       <r>   -0.0909    1.0000 </r>
       <r>    0.1868    1.0000 </r>
       <r>    0.9108    1.0000 </r>
       <r>    0.9737    1.0000 </r>
       <r>    1.1426    1.0000 </r>
       <r>    1.1701    1.0000 </r>
       <r>    1.9845    0.0000 </r>
       <r>    2.1321    0.0000 </r>
       <r>    2.5552    0.0000 </r>
       <r>    2.8752    0.0000 </r>
       <r>    2.9338    0.0000 </r>
       <r>    3.0032    0.0000 </r>
       <r>    3.3871    0.0000 </r>
       <r>    3.9922    0.0000 </r>
       <r>    4.2706    0.0000 </r>
       <r>    4.6157    0.0000 </r>
       <r>    4.7183    0.0000 </r>
       <r>    5.1791    0.0000 </r>
       <r>    5.9180    0.0000 </r>
       <r>    6.2283    0.0000 </r>
       <r>    6.6827    0.0000 </r>
       <r>    7.7759    0.0000 </r>
       <r>    8.0570    0.0000 </r>
       <r>    9.1199    0.0000 </r>
       <r>   10.6370    0.0000 </r>
       <r>   12.0229    0.0000 </r>
       <r>   12.1065    0.0000 </r>
       <r>   13.4454    0.0000 </r>
       <r>   13.8010    0.0000 </r>
       <r>   14.7735    0.0000 </r>
       <r>   15.2804    0.0000 </r>
      </set>
      <set comment="kpoint 9">
       <r>   -6.0545    1.0000 </r>
       <r>   -4.5021    1.0000 </r>
       <r>   -3.3015    1.0000 </r>
       <r>   -2.8388    1.0000 </r>
       <r>   -2.5915    1.0000 </r>
       <r>   -2.4697    1.0000 </r>
       <r>   -1.2540    1.0000 </r>
       <r>   -0.2942    1.0000 </r>
       <r>   -0.2561    1.0000 </r>
       <r>   -0.2505    1.0000 </r>
       <r>    0.1724    1.0000 </r>
       <r>    0.8790    1.0000 </r>
       <r>    0.9004    1.0000 </r>
       <r>    1.0091    1.0000 </r>
       <r>    1.1214    1.0000 </r>
       <r>    2.1356    0.0000 </r>
       <r>    2.2760    0.0000 </r>
       <r>    2.5275    0.0000 </r>
       <r>    2.8747    0.0000 </r>
       <r>    2.9186    0.0000 </r>
       <r>    3.0757    0.0000 </r>
       <r>    3.2590    0.0000 </r>
       <r>    3.8045    0.0000 </r>
       <r>    4.3477    0.0000 </r>
       <r>    4.6027    0.0000 </r>
       <r>    4.8039    0.0000 </r>
       <r>    5.1643    0.0000 </r>
       <r>    6.0412    0.0000 </r>
       <r>    6.3400    0.0000 </r>
       <r>    6.7590    0.0000 </r>
       <r>    7.9557    0.0000 </r>
       <r>    8.2332    0.0000 </r>
       <r>    8.6535    0.0000 </r>
       <r>   10.3012    0.0000 </r>
       <r>   12.0538    0.0000 </r>
       <r>   12.2975    0.0000 </r>
       <r>   13.0963    0.0000 </r>
       <r>   14.3070    0.0000 </r>
       <r>   14.3465    0.0000 </r>
       <r>   14.8559    0.0000 </r>
      </set>
      <set comment="kpoint 10">
       <r>   -5.8288    1.0000 </r>
       <r>   -4.3917    1.0000 </r>
       <r>   -3.2966    1.0000 </r>
       <r>   -2.7405    1.0000 </r>
       <r>   -2.4966    1.0000 </r>
       <r>   -2.4485    1.0000 </r>
       <r>   -1.0086    1.0000 </r>
       <r>   -0.4362    1.0000 </r>
       <r>   -0.4169    1.0000 </r>
       <r>   -0.0373    1.0000 </r>
       <r>    0.1874    1.0000 </r>
       <r>    0.7779    1.0000 </r>
       <r>    0.8689    1.0000 </r>
       <r>    0.9077    1.0000 </r>
       <r>    1.0678    1.0000 </r>
       <r>    2.2780    0.0000 </r>
       <r>    2.4053    0.0000 </r>
       <r>    2.4875    0.0000 </r>
       <r>    2.8699    0.0000 </r>
       <r>    2.9084    0.0000 </r>
       <r>    3.0670    0.0000 </r>
       <r>    3.1317    0.0000 </r>
       <r>    3.7105    0.0000 </r>
       <r>    4.4538    0.0000 </r>
       <r>    4.5875    0.0000 </r>
       <r>    4.9086    0.0000 </r>
       <r>    5.1681    0.0000 </r>
       <r>    6.1721    0.0000 </r>
       <r>    6.4741    0.0000 </r>
       <r>    6.8120    0.0000 </r>
       <r>    8.0614    0.0000 </r>
       <r>    8.2460    0.0000 </r>
       <r>    8.4136    0.0000 </r>
       <r>    9.8346    0.0000 </r>
       <r>   11.8884    0.0000 </r>
       <r>   12.6128    0.0000 </r>
       <r>   12.9778    0.0000 </r>
       <r>   13.8435    0.0000 </r>
       <r>   14.3826    0.0000 </r>
       <r>   14.9184    0.0000 </r>
      </set>
      <set comment="kpoint 11">
       <r>   -5.5881    1.0000 </r>
       <r>   -4.2913    1.0000 </r>
       <r>   -3.3108    1.0000 </r>
       <r>   -2.6463    1.0000 </r>
       <r>   -2.5160    1.0000 </r>
       <r>   -2.2861    1.0000 </r>
       <r>   -0.7565    1.0000 </r>
       <r>   -0.5693    1.0000 </r>
       <r>   -0.5690    1.0000 </r>
       <r>    0.2175    1.0000 </r>
       <r>    0.2340    1.0000 </r>
       <r>    0.6778    1.0000 </r>
       <r>    0.7315    1.0000 </r>
       <r>    0.9302    1.0000 </r>
       <r>    1.0070    1.0000 </r>
       <r>    2.3816    0.0000 </r>
       <r>    2.4281    0.0000 </r>
       <r>    2.4846    0.0000 </r>
       <r>    2.8731    0.0000 </r>
       <r>    2.8735    0.0000 </r>
       <r>    3.0395    0.0000 </r>
       <r>    3.0741    0.0000 </r>
       <r>    3.6829    0.0000 </r>
       <r>    4.5752    0.0000 </r>
       <r>    4.5869    0.0000 </r>
       <r>    5.0159    0.0000 </r>
       <r>    5.1949    0.0000 </r>
       <r>    6.3050    0.0000 </r>
       <r>    6.6128    0.0000 </r>
       <r>    6.8466    0.0000 </r>
       <r>    7.7375    0.0000 </r>
       <r>    8.2498    0.0000 </r>
       <r>    8.5952    0.0000 </r>
       <r>    9.3323    0.0000 </r>
       <r>   11.5820    0.0000 </r>
       <r>   12.8869    0.0000 </r>
       <r>   12.9940    0.0000 </r>
       <r>   13.4688    0.0000 </r>
       <r>   13.9989    0.0000 </r>
       <r>   15.5115    0.0000 </r>
      </set>
      <set comment="kpoint 12">
       <r>   -5.3371    1.0000 </r>
       <r>   -4.2062    1.0000 </r>
       <r>   -3.3387    1.0000 </r>
       <r>   -2.5520    1.0000 </r>
       <r>   -2.5249    1.0000 </r>
       <r>   -2.1189    1.0000 </r>
       <r>   -0.7105    1.0000 </r>
       <r>   -0.6914    1.0000 </r>
       <r>   -0.5087    1.0000 </r>
       <r>    0.3139    1.0000 </r>
       <r>    0.5046    1.0000 </r>
       <r>    0.5834    1.0000 </r>
       <r>    0.6026    1.0000 </r>
       <r>    0.9395    1.0000 </r>
       <r>    0.9636    1.0000 </r>
       <r>    2.3501    0.0000 </r>
       <r>    2.3893    0.0000 </r>
       <r>    2.4778    0.0000 </r>
       <r>    2.8595    0.0000 </r>
       <r>    2.8907    0.0000 </r>
       <r>    3.0875    0.0000 </r>
       <r>    3.1049    0.0000 </r>
       <r>    3.6703    0.0000 </r>
       <r>    4.6069    0.0000 </r>
       <r>    4.7016    0.0000 </r>
       <r>    5.1126    0.0000 </r>
       <r>    5.2432    0.0000 </r>
       <r>    6.4259    0.0000 </r>
       <r>    6.7444    0.0000 </r>
       <r>    6.8692    0.0000 </r>
       <r>    7.3555    0.0000 </r>
       <r>    8.2947    0.0000 </r>
       <r>    8.7687    0.0000 </r>
       <r>    8.8321    0.0000 </r>
       <r>   11.2644    0.0000 </r>
       <r>   12.7545    0.0000 </r>
       <r>   12.8954    0.0000 </r>
       <r>   13.5230    0.0000 </r>
       <r>   13.8437    0.0000 </r>
       <r>   15.6099    0.0000 </r>
      </set>
      <set comment="kpoint 13">
       <r>   -5.0814    1.0000 </r>
       <r>   -4.1398    1.0000 </r>
       <r>   -3.3727    1.0000 </r>
       <r>   -2.5220    1.0000 </r>
       <r>   -2.4627    1.0000 </r>
       <r>   -1.9531    1.0000 </r>
       <r>   -0.8383    1.0000 </r>
       <r>   -0.8022    1.0000 </r>
       <r>   -0.2777    1.0000 </r>
       <r>    0.4260    1.0000 </r>
       <r>    0.4859    1.0000 </r>
       <r>    0.4904    1.0000 </r>
       <r>    0.8157    1.0000 </r>
       <r>    0.8680    1.0000 </r>
       <r>    1.0023    1.0000 </r>
       <r>    2.2593    0.0000 </r>
       <r>    2.3033    0.0000 </r>
       <r>    2.4241    0.0000 </r>
       <r>    2.9105    0.0000 </r>
       <r>    2.9238    0.0000 </r>
       <r>    3.1870    0.0000 </r>
       <r>    3.2029    0.0000 </r>
       <r>    3.6566    0.0000 </r>
       <r>    4.6454    0.0000 </r>
       <r>    4.8252    0.0000 </r>
       <r>    5.1894    0.0000 </r>
       <r>    5.3048    0.0000 </r>
       <r>    6.4917    0.0000 </r>
       <r>    6.8621    0.0000 </r>
       <r>    6.8864    0.0000 </r>
       <r>    7.0520    0.0000 </r>
       <r>    8.2765    0.0000 </r>
       <r>    8.3322    0.0000 </r>
       <r>    8.9440    0.0000 </r>
       <r>   10.9931    0.0000 </r>
       <r>   12.3888    0.0000 </r>
       <r>   12.6123    0.0000 </r>
       <r>   13.8253    0.0000 </r>
       <r>   13.9447    0.0000 </r>
       <r>   15.2288    0.0000 </r>
      </set>
      <set comment="kpoint 14">
       <r>   -4.8285    1.0000 </r>
       <r>   -4.0926    1.0000 </r>
       <r>   -3.4055    1.0000 </r>
       <r>   -2.5083    1.0000 </r>
       <r>   -2.3882    1.0000 </r>
       <r>   -1.7886    1.0000 </r>
       <r>   -0.9514    1.0000 </r>
       <r>   -0.9005    1.0000 </r>
       <r>   -0.0744    1.0000 </r>
       <r>    0.3834    1.0000 </r>
       <r>    0.3966    1.0000 </r>
       <r>    0.5611    1.0000 </r>
       <r>    0.7963    1.0000 </r>
       <r>    1.0422    1.0000 </r>
       <r>    1.1273    1.0000 </r>
       <r>    2.1634    0.0000 </r>
       <r>    2.2069    0.0000 </r>
       <r>    2.3858    0.0000 </r>
       <r>    2.9701    0.0000 </r>
       <r>    2.9752    0.0000 </r>
       <r>    3.3036    0.0000 </r>
       <r>    3.3156    0.0000 </r>
       <r>    3.6687    0.0000 </r>
       <r>    4.6968    0.0000 </r>
       <r>    4.9397    0.0000 </r>
       <r>    5.2413    0.0000 </r>
       <r>    5.3672    0.0000 </r>
       <r>    6.4016    0.0000 </r>
       <r>    6.9037    0.0000 </r>
       <r>    6.9174    0.0000 </r>
       <r>    6.9623    0.0000 </r>
       <r>    7.8589    0.0000 </r>
       <r>    8.2055    0.0000 </r>
       <r>    9.0965    0.0000 </r>
       <r>   10.7741    0.0000 </r>
       <r>   12.0336    0.0000 </r>
       <r>   12.2934    0.0000 </r>
       <r>   14.1278    0.0000 </r>
       <r>   14.1475    0.0000 </r>
       <r>   14.8615    0.0000 </r>
      </set>
      <set comment="kpoint 15">
       <r>   -4.5882    1.0000 </r>
       <r>   -4.0628    1.0000 </r>
       <r>   -3.4296    1.0000 </r>
       <r>   -2.4868    1.0000 </r>
       <r>   -2.3385    1.0000 </r>
       <r>   -1.6206    1.0000 </r>
       <r>   -1.0487    1.0000 </r>
       <r>   -0.9853    1.0000 </r>
       <r>    0.0969    1.0000 </r>
       <r>    0.2895    1.0000 </r>
       <r>    0.2962    1.0000 </r>
       <r>    0.6923    1.0000 </r>
       <r>    0.7284    1.0000 </r>
       <r>    1.0913    1.0000 </r>
       <r>    1.4018    1.0000 </r>
       <r>    2.0698    0.0000 </r>
       <r>    2.1731    0.0000 </r>
       <r>    2.3902    0.0000 </r>
       <r>    3.0251    0.0000 </r>
       <r>    3.0301    0.0000 </r>
       <r>    3.3551    0.0000 </r>
       <r>    3.4371    0.0000 </r>
       <r>    3.7633    0.0000 </r>
       <r>    4.7543    0.0000 </r>
       <r>    5.0412    0.0000 </r>
       <r>    5.2674    0.0000 </r>
       <r>    5.4170    0.0000 </r>
       <r>    6.1920    0.0000 </r>
       <r>    6.8835    0.0000 </r>
       <r>    6.9241    0.0000 </r>
       <r>    7.0438    0.0000 </r>
       <r>    7.4133    0.0000 </r>
       <r>    8.1328    0.0000 </r>
       <r>    9.2246    0.0000 </r>
       <r>   10.5755    0.0000 </r>
       <r>   11.7277    0.0000 </r>
       <r>   12.0360    0.0000 </r>
       <r>   14.3525    0.0000 </r>
       <r>   14.3682    0.0000 </r>
       <r>   14.5302    0.0000 </r>
      </set>
      <set comment="kpoint 16">
       <r>   -4.3735    1.0000 </r>
       <r>   -4.0464    1.0000 </r>
       <r>   -3.4373    1.0000 </r>
       <r>   -2.4617    1.0000 </r>
       <r>   -2.3191    1.0000 </r>
       <r>   -1.4440    1.0000 </r>
       <r>   -1.1292    1.0000 </r>
       <r>   -1.0559    1.0000 </r>
       <r>    0.1589    1.0000 </r>
       <r>    0.2248    1.0000 </r>
       <r>    0.2376    1.0000 </r>
       <r>    0.6680    1.0000 </r>
       <r>    0.7765    1.0000 </r>
       <r>    1.1751    1.0000 </r>
       <r>    1.5724    1.0000 </r>
       <r>    1.9852    0.0000 </r>
       <r>    2.2721    0.0000 </r>
       <r>    2.4341    0.0000 </r>
       <r>    3.0734    0.0000 </r>
       <r>    3.0831    0.0000 </r>
       <r>    3.3353    0.0000 </r>
       <r>    3.5691    0.0000 </r>
       <r>    3.9285    0.0000 </r>
       <r>    4.8112    0.0000 </r>
       <r>    5.1288    0.0000 </r>
       <r>    5.2716    0.0000 </r>
       <r>    5.4440    0.0000 </r>
       <r>    5.9832    0.0000 </r>
       <r>    6.7911    0.0000 </r>
       <r>    6.9474    0.0000 </r>
       <r>    7.0042    0.0000 </r>
       <r>    7.1069    0.0000 </r>
       <r>    8.1291    0.0000 </r>
       <r>    9.3220    0.0000 </r>
       <r>   10.3536    0.0000 </r>
       <r>   11.4848    0.0000 </r>
       <r>   11.8860    0.0000 </r>
       <r>   14.1767    0.0000 </r>
       <r>   14.3092    0.0000 </r>
       <r>   14.5775    0.0000 </r>
      </set>
      <set comment="kpoint 17">
       <r>   -4.2003    1.0000 </r>
       <r>   -4.0391    1.0000 </r>
       <r>   -3.4212    1.0000 </r>
       <r>   -2.4372    1.0000 </r>
       <r>   -2.3284    1.0000 </r>
       <r>   -1.2566    1.0000 </r>
       <r>   -1.1924    1.0000 </r>
       <r>   -1.1116    1.0000 </r>
       <r>    0.0007    1.0000 </r>
       <r>    0.1695    1.0000 </r>
       <r>    0.3495    1.0000 </r>
       <r>    0.6181    1.0000 </r>
       <r>    0.8006    1.0000 </r>
       <r>    1.2959    1.0000 </r>
       <r>    1.6330    1.0000 </r>
       <r>    1.9144    0.0035 </r>
       <r>    2.4937    0.0000 </r>
       <r>    2.4937    0.0000 </r>
       <r>    3.1062    0.0000 </r>
       <r>    3.1380    0.0000 </r>
       <r>    3.3091    0.0000 </r>
       <r>    3.6842    0.0000 </r>
       <r>    4.1163    0.0000 </r>
       <r>    4.8618    0.0000 </r>
       <r>    5.2065    0.0000 </r>
       <r>    5.2612    0.0000 </r>
       <r>    5.4436    0.0000 </r>
       <r>    5.8111    0.0000 </r>
       <r>    6.6095    0.0000 </r>
       <r>    6.6431    0.0000 </r>
       <r>    6.9711    0.0000 </r>
       <r>    7.1530    0.0000 </r>
       <r>    8.2215    0.0000 </r>
       <r>    9.3869    0.0000 </r>
       <r>   10.0939    0.0000 </r>
       <r>   11.3085    0.0000 </r>
       <r>   11.8442    0.0000 </r>
       <r>   13.8890    0.0000 </r>
       <r>   14.0411    0.0000 </r>
       <r>   14.6755    0.0000 </r>
      </set>
      <set comment="kpoint 18">
       <r>   -4.0816    1.0000 </r>
       <r>   -4.0369    1.0000 </r>
       <r>   -3.3816    1.0000 </r>
       <r>   -2.4172    1.0000 </r>
       <r>   -2.3565    1.0000 </r>
       <r>   -1.2379    1.0000 </r>
       <r>   -1.1517    1.0000 </r>
       <r>   -1.0603    1.0000 </r>
       <r>   -0.1804    1.0000 </r>
       <r>    0.1301    1.0000 </r>
       <r>    0.4321    1.0000 </r>
       <r>    0.5808    1.0000 </r>
       <r>    0.7941    1.0000 </r>
       <r>    1.4173    1.0000 </r>
       <r>    1.6493    1.0000 </r>
       <r>    1.8614    0.1158 </r>
       <r>    2.5408    0.0000 </r>
       <r>    2.7389    0.0000 </r>
       <r>    3.1291    0.0000 </r>
       <r>    3.1833    0.0000 </r>
       <r>    3.3012    0.0000 </r>
       <r>    3.7688    0.0000 </r>
       <r>    4.2969    0.0000 </r>
       <r>    4.9015    0.0000 </r>
       <r>    5.2449    0.0000 </r>
       <r>    5.2838    0.0000 </r>
       <r>    5.4198    0.0000 </r>
       <r>    5.6786    0.0000 </r>
       <r>    6.3479    0.0000 </r>
       <r>    6.3913    0.0000 </r>
       <r>    6.9916    0.0000 </r>
       <r>    7.1839    0.0000 </r>
       <r>    8.3789    0.0000 </r>
       <r>    9.4238    0.0000 </r>
       <r>    9.8209    0.0000 </r>
       <r>   11.1940    0.0000 </r>
       <r>   11.8728    0.0000 </r>
       <r>   13.6461    0.0000 </r>
       <r>   13.8242    0.0000 </r>
       <r>   14.6110    0.0000 </r>
      </set>
      <set comment="kpoint 19">
       <r>   -4.0369    1.0000 </r>
       <r>   -4.0176    1.0000 </r>
       <r>   -3.3365    1.0000 </r>
       <r>   -2.4041    1.0000 </r>
       <r>   -2.3868    1.0000 </r>
       <r>   -1.2653    1.0000 </r>
       <r>   -1.1759    1.0000 </r>
       <r>   -0.8650    1.0000 </r>
       <r>   -0.3694    1.0000 </r>
       <r>    0.1065    1.0000 </r>
       <r>    0.4832    1.0000 </r>
       <r>    0.5579    1.0000 </r>
       <r>    0.7824    1.0000 </r>
       <r>    1.5051    1.0000 </r>
       <r>    1.6544    1.0000 </r>
       <r>    1.8286    0.3945 </r>
       <r>    2.5632    0.0000 </r>
       <r>    2.9269    0.0000 </r>
       <r>    3.1426    0.0000 </r>
       <r>    3.2133    0.0000 </r>
       <r>    3.3097    0.0000 </r>
       <r>    3.8154    0.0000 </r>
       <r>    4.4378    0.0000 </r>
       <r>    4.9267    0.0000 </r>
       <r>    5.2312    0.0000 </r>
       <r>    5.3704    0.0000 </r>
       <r>    5.3871    0.0000 </r>
       <r>    5.5742    0.0000 </r>
       <r>    6.1466    0.0000 </r>
       <r>    6.2096    0.0000 </r>
       <r>    7.0055    0.0000 </r>
       <r>    7.2016    0.0000 </r>
       <r>    8.5456    0.0000 </r>
       <r>    9.4409    0.0000 </r>
       <r>    9.5851    0.0000 </r>
       <r>   11.1311    0.0000 </r>
       <r>   11.9218    0.0000 </r>
       <r>   13.4770    0.0000 </r>
       <r>   13.6897    0.0000 </r>
       <r>   14.5190    0.0000 </r>
      </set>
      <set comment="kpoint 20">
       <r>   -4.0371    1.0000 </r>
       <r>   -3.9981    1.0000 </r>
       <r>   -3.3163    1.0000 </r>
       <r>   -2.4001    1.0000 </r>
       <r>   -2.3996    1.0000 </r>
       <r>   -1.2744    1.0000 </r>
       <r>   -1.1841    1.0000 </r>
       <r>   -0.7405    1.0000 </r>
       <r>   -0.4924    1.0000 </r>
       <r>    0.0987    1.0000 </r>
       <r>    0.5005    1.0000 </r>
       <r>    0.5501    1.0000 </r>
       <r>    0.7774    1.0000 </r>
       <r>    1.5372    1.0000 </r>
       <r>    1.6558    1.0000 </r>
       <r>    1.8175    0.5185 </r>
       <r>    2.5683    0.0000 </r>
       <r>    2.9985    0.0000 </r>
       <r>    3.1469    0.0000 </r>
       <r>    3.2238    0.0000 </r>
       <r>    3.3162    0.0000 </r>
       <r>    3.8286    0.0000 </r>
       <r>    4.4939    0.0000 </r>
       <r>    4.9354    0.0000 </r>
       <r>    5.2258    0.0000 </r>
       <r>    5.3707    0.0000 </r>
       <r>    5.4475    0.0000 </r>
       <r>    5.4966    0.0000 </r>
       <r>    6.0736    0.0000 </r>
       <r>    6.1371    0.0000 </r>
       <r>    7.0104    0.0000 </r>
       <r>    7.2073    0.0000 </r>
       <r>    8.6275    0.0000 </r>
       <r>    9.4457    0.0000 </r>
       <r>    9.4800    0.0000 </r>
       <r>   11.1112    0.0000 </r>
       <r>   11.9450    0.0000 </r>
       <r>   13.4150    0.0000 </r>
       <r>   13.6444    0.0000 </r>
       <r>   14.4809    0.0000 </r>
      </set>
      <set comment="kpoint 21">
       <r>   -4.0371    1.0000 </r>
       <r>   -3.9981    1.0000 </r>
       <r>   -3.3163    1.0000 </r>
       <r>   -2.4001    1.0000 </r>
       <r>   -2.3996    1.0000 </r>
       <r>   -1.2744    1.0000 </r>
       <r>   -1.1841    1.0000 </r>
       <r>   -0.7405    1.0000 </r>
       <r>   -0.4924    1.0000 </r>
       <r>    0.0987    1.0000 </r>
       <r>    0.5005    1.0000 </r>
       <r>    0.5501    1.0000 </r>
       <r>    0.7774    1.0000 </r>
       <r>    1.5372    1.0000 </r>
       <r>    1.6558    1.0000 </r>
       <r>    1.8175    0.5185 </r>
       <r>    2.5683    0.0000 </r>
       <r>    2.9985    0.0000 </r>
       <r>    3.1469    0.0000 </r>
       <r>    3.2238    0.0000 </r>
       <r>    3.3162    0.0000 </r>
       <r>    3.8286    0.0000 </r>
       <r>    4.4939    0.0000 </r>
       <r>    4.9354    0.0000 </r>
       <r>    5.2258    0.0000 </r>
       <r>    5.3707    0.0000 </r>
       <r>    5.4475    0.0000 </r>
       <r>    5.4966    0.0000 </r>
       <r>    6.0736    0.0000 </r>
       <r>    6.1371    0.0000 </r>
       <r>    7.0104    0.0000 </r>
       <r>    7.2073    0.0000 </r>
       <r>    8.6275    0.0000 </r>
       <r>    9.4457    0.0000 </r>
       <r>    9.4800    0.0000 </r>
       <r>   11.1112    0.0000 </r>
       <r>   11.9450    0.0000 </r>
       <r>   13.4150    0.0000 </r>
       <r>   13.6444    0.0000 </r>
       <r>   14.4809    0.0000 </r>
      </set>
      <set comment="kpoint 22">
       <r>   -4.0205    1.0000 </r>
       <r>   -3.9827    1.0000 </r>
       <r>   -3.3049    1.0000 </r>
       <r>   -2.3975    1.0000 </r>
       <r>   -2.3872    1.0000 </r>
       <r>   -1.2798    1.0000 </r>
       <r>   -1.1938    1.0000 </r>
       <r>   -0.7560    1.0000 </r>
       <r>   -0.5276    1.0000 </r>
       <r>    0.1465    1.0000 </r>
       <r>    0.4272    1.0000 </r>
       <r>    0.4945    1.0000 </r>
       <r>    0.8999    1.0000 </r>
       <r>    1.5061    1.0000 </r>
       <r>    1.6678    1.0000 </r>
       <r>    1.8350    0.3262 </r>
       <r>    2.4871    0.0000 </r>
       <r>    2.9734    0.0000 </r>
       <r>    3.1492    0.0000 </r>
       <r>    3.3032    0.0000 </r>
       <r>    3.3263    0.0000 </r>
       <r>    3.8153    0.0000 </r>
       <r>    4.4775    0.0000 </r>
       <r>    4.8984    0.0000 </r>
       <r>    5.1700    0.0000 </r>
       <r>    5.4452    0.0000 </r>
       <r>    5.4691    0.0000 </r>
       <r>    5.5448    0.0000 </r>
       <r>    6.0806    0.0000 </r>
       <r>    6.1642    0.0000 </r>
       <r>    7.0600    0.0000 </r>
       <r>    7.2575    0.0000 </r>
       <r>    8.6375    0.0000 </r>
       <r>    9.4535    0.0000 </r>
       <r>    9.4911    0.0000 </r>
       <r>   11.1220    0.0000 </r>
       <r>   11.9520    0.0000 </r>
       <r>   13.4063    0.0000 </r>
       <r>   13.6242    0.0000 </r>
       <r>   14.4854    0.0000 </r>
      </set>
      <set comment="kpoint 23">
       <r>   -3.9711    1.0000 </r>
       <r>   -3.9371    1.0000 </r>
       <r>   -3.2717    1.0000 </r>
       <r>   -2.3919    1.0000 </r>
       <r>   -2.3511    1.0000 </r>
       <r>   -1.2944    1.0000 </r>
       <r>   -1.2214    1.0000 </r>
       <r>   -0.7994    1.0000 </r>
       <r>   -0.6023    1.0000 </r>
       <r>    0.2359    1.0000 </r>
       <r>    0.2606    1.0000 </r>
       <r>    0.4746    1.0000 </r>
       <r>    1.0885    1.0000 </r>
       <r>    1.4180    1.0000 </r>
       <r>    1.7033    0.9995 </r>
       <r>    1.8800    0.0426 </r>
       <r>    2.3172    0.0000 </r>
       <r>    2.9066    0.0000 </r>
       <r>    3.1545    0.0000 </r>
       <r>    3.3576    0.0000 </r>
       <r>    3.4606    0.0000 </r>
       <r>    3.7788    0.0000 </r>
       <r>    4.4431    0.0000 </r>
       <r>    4.8243    0.0000 </r>
       <r>    5.1058    0.0000 </r>
       <r>    5.4412    0.0000 </r>
       <r>    5.6445    0.0000 </r>
       <r>    5.6568    0.0000 </r>
       <r>    6.1042    0.0000 </r>
       <r>    6.2515    0.0000 </r>
       <r>    7.1999    0.0000 </r>
       <r>    7.4006    0.0000 </r>
       <r>    8.6673    0.0000 </r>
       <r>    9.4767    0.0000 </r>
       <r>    9.5241    0.0000 </r>
       <r>   11.1538    0.0000 </r>
       <r>   11.9725    0.0000 </r>
       <r>   13.3785    0.0000 </r>
       <r>   13.5637    0.0000 </r>
       <r>   14.4953    0.0000 </r>
      </set>
      <set comment="kpoint 24">
       <r>   -3.8897    1.0000 </r>
       <r>   -3.8627    1.0000 </r>
       <r>   -3.2203    1.0000 </r>
       <r>   -2.3891    1.0000 </r>
       <r>   -2.2953    1.0000 </r>
       <r>   -1.3137    1.0000 </r>
       <r>   -1.2620    1.0000 </r>
       <r>   -0.8629    1.0000 </r>
       <r>   -0.6711    1.0000 </r>
       <r>    0.0409    1.0000 </r>
       <r>    0.4006    1.0000 </r>
       <r>    0.4361    1.0000 </r>
       <r>    1.2260    1.0000 </r>
       <r>    1.3352    1.0000 </r>
       <r>    1.7608    0.9503 </r>
       <r>    1.9272    0.0011 </r>
       <r>    2.1345    0.0000 </r>
       <r>    2.8250    0.0000 </r>
       <r>    3.1592    0.0000 </r>
       <r>    3.4111    0.0000 </r>
       <r>    3.5959    0.0000 </r>
       <r>    3.7302    0.0000 </r>
       <r>    4.4332    0.0000 </r>
       <r>    4.7573    0.0000 </r>
       <r>    5.0636    0.0000 </r>
       <r>    5.4417    0.0000 </r>
       <r>    5.7377    0.0000 </r>
       <r>    5.8913    0.0000 </r>
       <r>    6.1487    0.0000 </r>
       <r>    6.4057    0.0000 </r>
       <r>    7.4098    0.0000 </r>
       <r>    7.6192    0.0000 </r>
       <r>    8.7175    0.0000 </r>
       <r>    9.5148    0.0000 </r>
       <r>    9.5785    0.0000 </r>
       <r>   11.2058    0.0000 </r>
       <r>   12.0057    0.0000 </r>
       <r>   13.3271    0.0000 </r>
       <r>   13.4634    0.0000 </r>
       <r>   14.5074    0.0000 </r>
      </set>
      <set comment="kpoint 25">
       <r>   -3.7774    1.0000 </r>
       <r>   -3.7624    1.0000 </r>
       <r>   -3.1571    1.0000 </r>
       <r>   -2.3968    1.0000 </r>
       <r>   -2.2271    1.0000 </r>
       <r>   -1.3295    1.0000 </r>
       <r>   -1.3068    1.0000 </r>
       <r>   -0.9372    1.0000 </r>
       <r>   -0.7053    1.0000 </r>
       <r>   -0.1491    1.0000 </r>
       <r>    0.3732    1.0000 </r>
       <r>    0.5442    1.0000 </r>
       <r>    1.0783    1.0000 </r>
       <r>    1.4960    1.0000 </r>
       <r>    1.8377    0.2998 </r>
       <r>    1.9321    0.0007 </r>
       <r>    1.9693    0.0000 </r>
       <r>    2.7763    0.0000 </r>
       <r>    3.1570    0.0000 </r>
       <r>    3.4874    0.0000 </r>
       <r>    3.6507    0.0000 </r>
       <r>    3.6878    0.0000 </r>
       <r>    4.4959    0.0000 </r>
       <r>    4.7125    0.0000 </r>
       <r>    5.0399    0.0000 </r>
       <r>    5.4514    0.0000 </r>
       <r>    5.8083    0.0000 </r>
       <r>    6.1614    0.0000 </r>
       <r>    6.2186    0.0000 </r>
       <r>    6.6159    0.0000 </r>
       <r>    7.6689    0.0000 </r>
       <r>    7.8927    0.0000 </r>
       <r>    8.7894    0.0000 </r>
       <r>    9.5669    0.0000 </r>
       <r>    9.6534    0.0000 </r>
       <r>   11.2762    0.0000 </r>
       <r>   12.0500    0.0000 </r>
       <r>   13.2457    0.0000 </r>
       <r>   13.3247    0.0000 </r>
       <r>   14.5103    0.0000 </r>
      </set>
      <set comment="kpoint 26">
       <r>   -3.6416    1.0000 </r>
       <r>   -3.6362    1.0000 </r>
       <r>   -3.0920    1.0000 </r>
       <r>   -2.4197    1.0000 </r>
       <r>   -2.1580    1.0000 </r>
       <r>   -1.3421    1.0000 </r>
       <r>   -1.3309    1.0000 </r>
       <r>   -1.0149    1.0000 </r>
       <r>   -0.6892    1.0000 </r>
       <r>   -0.3301    1.0000 </r>
       <r>    0.2825    1.0000 </r>
       <r>    0.6805    1.0000 </r>
       <r>    0.8736    1.0000 </r>
       <r>    1.6818    0.9999 </r>
       <r>    1.8339    0.3373 </r>
       <r>    1.8471    0.2140 </r>
       <r>    1.9366    0.0004 </r>
       <r>    2.8058    0.0000 </r>
       <r>    3.1437    0.0000 </r>
       <r>    3.5855    0.0000 </r>
       <r>    3.6271    0.0000 </r>
       <r>    3.6701    0.0000 </r>
       <r>    4.6305    0.0000 </r>
       <r>    4.6899    0.0000 </r>
       <r>    5.0296    0.0000 </r>
       <r>    5.4716    0.0000 </r>
       <r>    5.8626    0.0000 </r>
       <r>    6.3172    0.0000 </r>
       <r>    6.4580    0.0000 </r>
       <r>    6.8607    0.0000 </r>
       <r>    7.9606    0.0000 </r>
       <r>    8.2008    0.0000 </r>
       <r>    8.8864    0.0000 </r>
       <r>    9.6315    0.0000 </r>
       <r>    9.7469    0.0000 </r>
       <r>   11.3624    0.0000 </r>
       <r>   12.1030    0.0000 </r>
       <r>   13.1290    0.0000 </r>
       <r>   13.1512    0.0000 </r>
       <r>   14.4963    0.0000 </r>
      </set>
      <set comment="kpoint 27">
       <r>   -3.5093    1.0000 </r>
       <r>   -3.4688    1.0000 </r>
       <r>   -3.0382    1.0000 </r>
       <r>   -2.4538    1.0000 </r>
       <r>   -2.1028    1.0000 </r>
       <r>   -1.3507    1.0000 </r>
       <r>   -1.3056    1.0000 </r>
       <r>   -1.0907    1.0000 </r>
       <r>   -0.6184    1.0000 </r>
       <r>   -0.4992    1.0000 </r>
       <r>    0.1660    1.0000 </r>
       <r>    0.6508    1.0000 </r>
       <r>    0.8048    1.0000 </r>
       <r>    1.6871    0.9999 </r>
       <r>    1.7323    0.9929 </r>
       <r>    1.8636    0.1041 </r>
       <r>    2.0460    0.0000 </r>
       <r>    2.9102    0.0000 </r>
       <r>    3.1232    0.0000 </r>
       <r>    3.5694    0.0000 </r>
       <r>    3.6854    0.0000 </r>
       <r>    3.7026    0.0000 </r>
       <r>    4.6855    0.0000 </r>
       <r>    4.7950    0.0000 </r>
       <r>    5.0285    0.0000 </r>
       <r>    5.5014    0.0000 </r>
       <r>    5.9082    0.0000 </r>
       <r>    6.4472    0.0000 </r>
       <r>    6.7724    0.0000 </r>
       <r>    7.1222    0.0000 </r>
       <r>    8.2722    0.0000 </r>
       <r>    8.5193    0.0000 </r>
       <r>    9.0196    0.0000 </r>
       <r>    9.7065    0.0000 </r>
       <r>    9.8565    0.0000 </r>
       <r>   11.4604    0.0000 </r>
       <r>   12.1615    0.0000 </r>
       <r>   12.9485    0.0000 </r>
       <r>   12.9757    0.0000 </r>
       <r>   14.4506    0.0000 </r>
      </set>
      <set comment="kpoint 28">
       <r>   -3.3823    1.0000 </r>
       <r>   -3.2787    1.0000 </r>
       <r>   -3.0090    1.0000 </r>
       <r>   -2.4822    1.0000 </r>
       <r>   -2.0734    1.0000 </r>
       <r>   -1.3163    1.0000 </r>
       <r>   -1.2479    1.0000 </r>
       <r>   -1.1607    1.0000 </r>
       <r>   -0.6536    1.0000 </r>
       <r>   -0.4989    1.0000 </r>
       <r>    0.0320    1.0000 </r>
       <r>    0.4200    1.0000 </r>
       <r>    0.9183    1.0000 </r>
       <r>    1.4798    1.0000 </r>
       <r>    1.6644    1.0000 </r>
       <r>    2.0400    0.0000 </r>
       <r>    2.1700    0.0000 </r>
       <r>    3.0572    0.0000 </r>
       <r>    3.1068    0.0000 </r>
       <r>    3.5113    0.0000 </r>
       <r>    3.7301    0.0000 </r>
       <r>    3.8352    0.0000 </r>
       <r>    4.6950    0.0000 </r>
       <r>    4.9569    0.0000 </r>
       <r>    5.0339    0.0000 </r>
       <r>    5.5380    0.0000 </r>
       <r>    5.9486    0.0000 </r>
       <r>    6.6093    0.0000 </r>
       <r>    7.0966    0.0000 </r>
       <r>    7.3882    0.0000 </r>
       <r>    8.5938    0.0000 </r>
       <r>    8.8079    0.0000 </r>
       <r>    9.2185    0.0000 </r>
       <r>    9.7887    0.0000 </r>
       <r>    9.9778    0.0000 </r>
       <r>   11.5646    0.0000 </r>
       <r>   12.2206    0.0000 </r>
       <r>   12.7244    0.0000 </r>
       <r>   12.7908    0.0000 </r>
       <r>   14.3685    0.0000 </r>
      </set>
      <set comment="kpoint 29">
       <r>   -3.2886    1.0000 </r>
       <r>   -3.0706    1.0000 </r>
       <r>   -3.0128    1.0000 </r>
       <r>   -2.4742    1.0000 </r>
       <r>   -2.0707    1.0000 </r>
       <r>   -1.2492    1.0000 </r>
       <r>   -1.2019    1.0000 </r>
       <r>   -1.1681    1.0000 </r>
       <r>   -0.7901    1.0000 </r>
       <r>   -0.3448    1.0000 </r>
       <r>   -0.1060    1.0000 </r>
       <r>    0.1879    1.0000 </r>
       <r>    1.0299    1.0000 </r>
       <r>    1.2523    1.0000 </r>
       <r>    1.6310    1.0000 </r>
       <r>    2.2114    0.0000 </r>
       <r>    2.3060    0.0000 </r>
       <r>    3.1048    0.0000 </r>
       <r>    3.2225    0.0000 </r>
       <r>    3.4689    0.0000 </r>
       <r>    3.7958    0.0000 </r>
       <r>    3.9787    0.0000 </r>
       <r>    4.7151    0.0000 </r>
       <r>    5.0435    0.0000 </r>
       <r>    5.1009    0.0000 </r>
       <r>    5.5781    0.0000 </r>
       <r>    5.9842    0.0000 </r>
       <r>    6.8005    0.0000 </r>
       <r>    7.4239    0.0000 </r>
       <r>    7.6494    0.0000 </r>
       <r>    8.9166    0.0000 </r>
       <r>    9.0297    0.0000 </r>
       <r>    9.5113    0.0000 </r>
       <r>    9.8730    0.0000 </r>
       <r>   10.1043    0.0000 </r>
       <r>   11.6664    0.0000 </r>
       <r>   12.2735    0.0000 </r>
       <r>   12.4887    0.0000 </r>
       <r>   12.5863    0.0000 </r>
       <r>   14.2557    0.0000 </r>
      </set>
      <set comment="kpoint 30">
       <r>   -3.2560    1.0000 </r>
       <r>   -3.0491    1.0000 </r>
       <r>   -2.8508    1.0000 </r>
       <r>   -2.4000    1.0000 </r>
       <r>   -2.0869    1.0000 </r>
       <r>   -1.2876    1.0000 </r>
       <r>   -1.0929    1.0000 </r>
       <r>   -1.0754    1.0000 </r>
       <r>   -0.9052    1.0000 </r>
       <r>   -0.2302    1.0000 </r>
       <r>   -0.1752    1.0000 </r>
       <r>   -0.0403    1.0000 </r>
       <r>    1.0200    1.0000 </r>
       <r>    1.1565    1.0000 </r>
       <r>    1.6369    1.0000 </r>
       <r>    2.3787    0.0000 </r>
       <r>    2.4528    0.0000 </r>
       <r>    3.1215    0.0000 </r>
       <r>    3.3920    0.0000 </r>
       <r>    3.4476    0.0000 </r>
       <r>    3.8747    0.0000 </r>
       <r>    4.1280    0.0000 </r>
       <r>    4.7431    0.0000 </r>
       <r>    5.0559    0.0000 </r>
       <r>    5.2219    0.0000 </r>
       <r>    5.6170    0.0000 </r>
       <r>    6.0135    0.0000 </r>
       <r>    7.0144    0.0000 </r>
       <r>    7.7479    0.0000 </r>
       <r>    7.8975    0.0000 </r>
       <r>    9.2074    0.0000 </r>
       <r>    9.2319    0.0000 </r>
       <r>    9.8674    0.0000 </r>
       <r>    9.9521    0.0000 </r>
       <r>   10.2264    0.0000 </r>
       <r>   11.7529    0.0000 </r>
       <r>   12.2530    0.0000 </r>
       <r>   12.3105    0.0000 </r>
       <r>   12.3799    0.0000 </r>
       <r>   14.1377    0.0000 </r>
      </set>
      <set comment="kpoint 31">
       <r>   -3.2833    1.0000 </r>
       <r>   -3.1098    1.0000 </r>
       <r>   -2.6278    1.0000 </r>
       <r>   -2.2614    1.0000 </r>
       <r>   -2.1126    1.0000 </r>
       <r>   -1.3324    1.0000 </r>
       <r>   -1.0570    1.0000 </r>
       <r>   -0.9940    1.0000 </r>
       <r>   -0.8902    1.0000 </r>
       <r>   -0.3205    1.0000 </r>
       <r>   -0.2606    1.0000 </r>
       <r>   -0.0107    1.0000 </r>
       <r>    0.7938    1.0000 </r>
       <r>    1.3202    1.0000 </r>
       <r>    1.6914    0.9998 </r>
       <r>    2.5427    0.0000 </r>
       <r>    2.6096    0.0000 </r>
       <r>    3.1558    0.0000 </r>
       <r>    3.4467    0.0000 </r>
       <r>    3.5575    0.0000 </r>
       <r>    3.9602    0.0000 </r>
       <r>    4.2776    0.0000 </r>
       <r>    4.7771    0.0000 </r>
       <r>    5.0697    0.0000 </r>
       <r>    5.3198    0.0000 </r>
       <r>    5.6495    0.0000 </r>
       <r>    6.0337    0.0000 </r>
       <r>    7.2421    0.0000 </r>
       <r>    8.0628    0.0000 </r>
       <r>    8.1225    0.0000 </r>
       <r>    9.3720    0.0000 </r>
       <r>    9.5289    0.0000 </r>
       <r>   10.0154    0.0000 </r>
       <r>   10.2480    0.0000 </r>
       <r>   10.3306    0.0000 </r>
       <r>   11.8065    0.0000 </r>
       <r>   12.0312    0.0000 </r>
       <r>   12.1951    0.0000 </r>
       <r>   12.3194    0.0000 </r>
       <r>   14.0089    0.0000 </r>
      </set>
      <set comment="kpoint 32">
       <r>   -3.3460    1.0000 </r>
       <r>   -3.1848    1.0000 </r>
       <r>   -2.4134    1.0000 </r>
       <r>   -2.1401    1.0000 </r>
       <r>   -2.0869    1.0000 </r>
       <r>   -1.3672    1.0000 </r>
       <r>   -1.0832    1.0000 </r>
       <r>   -1.0496    1.0000 </r>
       <r>   -0.6801    1.0000 </r>
       <r>   -0.4698    1.0000 </r>
       <r>   -0.3664    1.0000 </r>
       <r>    0.1344    1.0000 </r>
       <r>    0.5842    1.0000 </r>
       <r>    1.5397    1.0000 </r>
       <r>    1.8040    0.6649 </r>
       <r>    2.7040    0.0000 </r>
       <r>    2.7763    0.0000 </r>
       <r>    3.2033    0.0000 </r>
       <r>    3.4628    0.0000 </r>
       <r>    3.7134    0.0000 </r>
       <r>    4.0467    0.0000 </r>
       <r>    4.4221    0.0000 </r>
       <r>    4.8151    0.0000 </r>
       <r>    5.0838    0.0000 </r>
       <r>    5.3957    0.0000 </r>
       <r>    5.6696    0.0000 </r>
       <r>    6.0407    0.0000 </r>
       <r>    7.4733    0.0000 </r>
       <r>    8.3114    0.0000 </r>
       <r>    8.3631    0.0000 </r>
       <r>    9.5347    0.0000 </r>
       <r>    9.7923    0.0000 </r>
       <r>   10.0489    0.0000 </r>
       <r>   10.4036    0.0000 </r>
       <r>   10.6342    0.0000 </r>
       <r>   11.8110    0.0000 </r>
       <r>   11.8391    0.0000 </r>
       <r>   12.0568    0.0000 </r>
       <r>   12.2887    0.0000 </r>
       <r>   13.6380    0.0000 </r>
      </set>
      <set comment="kpoint 33">
       <r>   -3.4227    1.0000 </r>
       <r>   -3.2654    1.0000 </r>
       <r>   -2.2226    1.0000 </r>
       <r>   -2.1647    1.0000 </r>
       <r>   -1.9044    1.0000 </r>
       <r>   -1.3902    1.0000 </r>
       <r>   -1.1627    1.0000 </r>
       <r>   -1.0640    1.0000 </r>
       <r>   -0.6646    1.0000 </r>
       <r>   -0.4740    1.0000 </r>
       <r>   -0.3832    1.0000 </r>
       <r>    0.2592    1.0000 </r>
       <r>    0.4094    1.0000 </r>
       <r>    1.8204    0.4851 </r>
       <r>    1.9789    0.0000 </r>
       <r>    2.8625    0.0000 </r>
       <r>    2.9533    0.0000 </r>
       <r>    3.2588    0.0000 </r>
       <r>    3.4910    0.0000 </r>
       <r>    3.8563    0.0000 </r>
       <r>    4.1296    0.0000 </r>
       <r>    4.5558    0.0000 </r>
       <r>    4.8550    0.0000 </r>
       <r>    5.0970    0.0000 </r>
       <r>    5.4502    0.0000 </r>
       <r>    5.6705    0.0000 </r>
       <r>    6.0292    0.0000 </r>
       <r>    7.6978    0.0000 </r>
       <r>    8.4466    0.0000 </r>
       <r>    8.6439    0.0000 </r>
       <r>    9.6970    0.0000 </r>
       <r>    9.9981    0.0000 </r>
       <r>   10.0383    0.0000 </r>
       <r>   10.4431    0.0000 </r>
       <r>   11.0155    0.0000 </r>
       <r>   11.6907    0.0000 </r>
       <r>   11.7717    0.0000 </r>
       <r>   11.9799    0.0000 </r>
       <r>   12.2151    0.0000 </r>
       <r>   13.2890    0.0000 </r>
      </set>
      <set comment="kpoint 34">
       <r>   -3.5007    1.0000 </r>
       <r>   -3.3446    1.0000 </r>
       <r>   -2.1832    1.0000 </r>
       <r>   -2.0703    1.0000 </r>
       <r>   -1.7338    1.0000 </r>
       <r>   -1.4009    1.0000 </r>
       <r>   -1.2693    1.0000 </r>
       <r>   -1.0354    1.0000 </r>
       <r>   -0.8371    1.0000 </r>
       <r>   -0.3941    1.0000 </r>
       <r>   -0.3284    1.0000 </r>
       <r>    0.3146    1.0000 </r>
       <r>    0.3736    1.0000 </r>
       <r>    2.1542    0.0000 </r>
       <r>    2.2109    0.0000 </r>
       <r>    3.0172    0.0000 </r>
       <r>    3.1411    0.0000 </r>
       <r>    3.3175    0.0000 </r>
       <r>    3.5264    0.0000 </r>
       <r>    3.9836    0.0000 </r>
       <r>    4.2052    0.0000 </r>
       <r>    4.6738    0.0000 </r>
       <r>    4.8940    0.0000 </r>
       <r>    5.1084    0.0000 </r>
       <r>    5.4826    0.0000 </r>
       <r>    5.6456    0.0000 </r>
       <r>    5.9930    0.0000 </r>
       <r>    7.9048    0.0000 </r>
       <r>    8.5090    0.0000 </r>
       <r>    8.9002    0.0000 </r>
       <r>    9.8565    0.0000 </r>
       <r>    9.9776    0.0000 </r>
       <r>   10.1120    0.0000 </r>
       <r>   10.4688    0.0000 </r>
       <r>   11.3833    0.0000 </r>
       <r>   11.5908    0.0000 </r>
       <r>   11.7364    0.0000 </r>
       <r>   11.9527    0.0000 </r>
       <r>   12.1090    0.0000 </r>
       <r>   12.9875    0.0000 </r>
      </set>
      <set comment="kpoint 35">
       <r>   -3.5733    1.0000 </r>
       <r>   -3.4176    1.0000 </r>
       <r>   -2.1938    1.0000 </r>
       <r>   -1.9625    1.0000 </r>
       <r>   -1.5884    1.0000 </r>
       <r>   -1.3992    1.0000 </r>
       <r>   -1.3829    1.0000 </r>
       <r>   -1.0512    1.0000 </r>
       <r>   -0.9008    1.0000 </r>
       <r>   -0.4102    1.0000 </r>
       <r>   -0.3182    1.0000 </r>
       <r>    0.3638    1.0000 </r>
       <r>    0.4885    1.0000 </r>
       <r>    2.4863    0.0000 </r>
       <r>    2.5257    0.0000 </r>
       <r>    3.1661    0.0000 </r>
       <r>    3.3405    0.0000 </r>
       <r>    3.3759    0.0000 </r>
       <r>    3.5642    0.0000 </r>
       <r>    4.0934    0.0000 </r>
       <r>    4.2706    0.0000 </r>
       <r>    4.7723    0.0000 </r>
       <r>    4.9288    0.0000 </r>
       <r>    5.1168    0.0000 </r>
       <r>    5.4908    0.0000 </r>
       <r>    5.5890    0.0000 </r>
       <r>    5.9256    0.0000 </r>
       <r>    8.0833    0.0000 </r>
       <r>    8.4888    0.0000 </r>
       <r>    9.1273    0.0000 </r>
       <r>    9.8762    0.0000 </r>
       <r>   10.0085    0.0000 </r>
       <r>   10.1100    0.0000 </r>
       <r>   10.5110    0.0000 </r>
       <r>   11.5292    0.0000 </r>
       <r>   11.7248    0.0000 </r>
       <r>   11.7691    0.0000 </r>
       <r>   11.9352    0.0000 </r>
       <r>   11.9949    0.0000 </r>
       <r>   12.7680    0.0000 </r>
      </set>
      <set comment="kpoint 36">
       <r>   -3.6363    1.0000 </r>
       <r>   -3.4810    1.0000 </r>
       <r>   -2.1961    1.0000 </r>
       <r>   -1.8903    1.0000 </r>
       <r>   -1.4916    1.0000 </r>
       <r>   -1.4747    1.0000 </r>
       <r>   -1.3859    1.0000 </r>
       <r>   -1.1816    1.0000 </r>
       <r>   -0.8022    1.0000 </r>
       <r>   -0.4317    1.0000 </r>
       <r>   -0.4086    1.0000 </r>
       <r>    0.5113    1.0000 </r>
       <r>    0.6069    1.0000 </r>
       <r>    2.7855    0.0000 </r>
       <r>    2.9157    0.0000 </r>
       <r>    3.3054    0.0000 </r>
       <r>    3.4338    0.0000 </r>
       <r>    3.5508    0.0000 </r>
       <r>    3.6006    0.0000 </r>
       <r>    4.1843    0.0000 </r>
       <r>    4.3242    0.0000 </r>
       <r>    4.8489    0.0000 </r>
       <r>    4.9555    0.0000 </r>
       <r>    5.1208    0.0000 </r>
       <r>    5.4725    0.0000 </r>
       <r>    5.4976    0.0000 </r>
       <r>    5.8210    0.0000 </r>
       <r>    8.2225    0.0000 </r>
       <r>    8.3992    0.0000 </r>
       <r>    9.3199    0.0000 </r>
       <r>    9.7558    0.0000 </r>
       <r>   10.0165    0.0000 </r>
       <r>   10.1463    0.0000 </r>
       <r>   10.5828    0.0000 </r>
       <r>   11.4880    0.0000 </r>
       <r>   11.8568    0.0000 </r>
[...]
       <r>    2.8652    0.0000 </r>
       <r>    3.2322    0.0000 </r>
       <r>    3.6337    0.0000 </r>
       <r>    4.0744    0.0000 </r>
       <r>    4.3920    0.0000 </r>
       <r>    4.7148    0.0000 </r>
       <r>    5.2946    0.0000 </r>
       <r>    5.5272    0.0000 </r>
       <r>    5.7119    0.0000 </r>
       <r>    5.7270    0.0000 </r>
       <r>    6.2733    0.0000 </r>
       <r>    7.0215    0.0000 </r>
       <r>    7.4011    0.0000 </r>
       <r>    9.8374    0.0000 </r>
       <r>   11.2574    0.0000 </r>
       <r>   11.4768    0.0000 </r>
       <r>   11.7212    0.0000 </r>
       <r>   13.9535    0.0000 </r>
       <r>   14.3294    0.0000 </r>
       <r>   15.3677    0.0000 </r>
       <r>   15.9394    0.0000 </r>
      </set>
      <set comment="kpoint 59">
       <r>   -6.9542    1.0000 </r>
       <r>   -5.0760    1.0000 </r>
       <r>   -3.5684    1.0000 </r>
       <r>   -3.4776    1.0000 </r>
       <r>   -2.9540    1.0000 </r>
       <r>   -2.2996    1.0000 </r>
       <r>   -2.2946    1.0000 </r>
       <r>   -0.6163    1.0000 </r>
       <r>    0.5385    1.0000 </r>
       <r>    0.5827    1.0000 </r>
       <r>    0.7667    1.0000 </r>
       <r>    1.0386    1.0000 </r>
       <r>    1.1825    1.0000 </r>
       <r>    1.3182    1.0000 </r>
       <r>    1.4584    1.0000 </r>
       <r>    1.5042    1.0000 </r>
       <r>    1.7887    0.8048 </r>
       <r>    1.9303    0.0008 </r>
       <r>    2.2954    0.0000 </r>
       <r>    3.1785    0.0000 </r>
       <r>    3.2502    0.0000 </r>
       <r>    3.5422    0.0000 </r>
       <r>    3.8391    0.0000 </r>
       <r>    4.4650    0.0000 </r>
       <r>    5.0641    0.0000 </r>
       <r>    5.3194    0.0000 </r>
       <r>    5.4603    0.0000 </r>
       <r>    5.6951    0.0000 </r>
       <r>    5.7123    0.0000 </r>
       <r>    6.4370    0.0000 </r>
       <r>    6.8233    0.0000 </r>
       <r>    7.1917    0.0000 </r>
       <r>    9.5360    0.0000 </r>
       <r>   11.3089    0.0000 </r>
       <r>   11.5288    0.0000 </r>
       <r>   11.5968    0.0000 </r>
       <r>   14.3934    0.0000 </r>
       <r>   14.5129    0.0000 </r>
       <r>   15.3055    0.0000 </r>
       <r>   16.5262    0.0000 </r>
      </set>
      <set comment="kpoint 60">
       <r>   -6.9851    1.0000 </r>
       <r>   -5.0990    1.0000 </r>
       <r>   -3.5911    1.0000 </r>
       <r>   -3.4956    1.0000 </r>
       <r>   -2.9686    1.0000 </r>
       <r>   -2.3164    1.0000 </r>
       <r>   -2.3083    1.0000 </r>
       <r>   -0.6039    1.0000 </r>
       <r>    0.5934    1.0000 </r>
       <r>    0.5934    1.0000 </r>
       <r>    0.9373    1.0000 </r>
       <r>    1.0259    1.0000 </r>
       <r>    1.0259    1.0000 </r>
       <r>    1.4053    1.0000 </r>
       <r>    1.4533    1.0000 </r>
       <r>    1.5000    1.0000 </r>
       <r>    1.8743    0.0591 </r>
       <r>    1.8743    0.0591 </r>
       <r>    2.0924    0.0000 </r>
       <r>    3.2652    0.0000 </r>
       <r>    3.5029    0.0000 </r>
       <r>    3.5029    0.0000 </r>
       <r>    3.5533    0.0000 </r>
       <r>    4.4909    0.0000 </r>
       <r>    5.2309    0.0000 </r>
       <r>    5.3290    0.0000 </r>
       <r>    5.4344    0.0000 </r>
       <r>    5.6895    0.0000 </r>
       <r>    5.6895    0.0000 </r>
       <r>    6.4923    0.0000 </r>
       <r>    6.7602    0.0000 </r>
       <r>    7.0996    0.0000 </r>
       <r>    9.4301    0.0000 </r>
       <r>   11.3380    0.0000 </r>
       <r>   11.5459    0.0000 </r>
       <r>   11.5459    0.0000 </r>
       <r>   14.5813    0.0000 </r>
       <r>   14.5813    0.0000 </r>
       <r>   15.2767    0.0000 </r>
       <r>   16.4464    0.0000 </r>
      </set>
     </set>
    </set>
   </array>
  </eigenvalues>
  <separator name="orbital magnetization" >
   <v name="MAGDIPOLOUT">      0.00000000      0.00000000      0.00000000</v>
  </separator>
  <dos>
   <i name="efermi">      1.81909018 </i>
   <total>
    <array>
     <dimension dim="1">gridpoints</dimension>
     <dimension dim="2">spin</dimension>
     <field>energy</field>
     <field>total</field>
     <field>integrated</field>
     <set>
      <set comment="spin 1">
       <r>    -8.1607     0.0000     0.0000 </r>
       <r>    -8.0745     0.0000     0.0000 </r>
       <r>    -7.9883     0.0000     0.0000 </r>
       <r>    -7.9021     0.0000     0.0000 </r>
       <r>    -7.8159     0.0000     0.0000 </r>
       <r>    -7.7296     0.0000     0.0000 </r>
       <r>    -7.6434     0.0000     0.0000 </r>
       <r>    -7.5572     0.0000     0.0000 </r>
       <r>    -7.4710     0.0000     0.0000 </r>
       <r>    -7.3848     0.0000     0.0000 </r>
       <r>    -7.2986     0.0000     0.0000 </r>
       <r>    -7.2124     0.0000     0.0000 </r>
       <r>    -7.1262     0.0000     0.0000 </r>
       <r>    -7.0400     0.0588     0.0051 </r>
       <r>    -6.9538     1.1026     0.1001 </r>
       <r>    -6.8676     1.0227     0.1883 </r>
       <r>    -6.7814     0.5631     0.2368 </r>
       <r>    -6.6951     0.5672     0.2857 </r>
       <r>    -6.6089     0.3495     0.3159 </r>
       <r>    -6.5227     0.3113     0.3427 </r>
       <r>    -6.4365     0.5009     0.3859 </r>
       <r>    -6.3503     0.1652     0.4001 </r>
       <r>    -6.2641     0.2781     0.4241 </r>
       <r>    -6.1779     0.4758     0.4651 </r>
       <r>    -6.0917     0.0746     0.4715 </r>
       <r>    -6.0055     0.3063     0.4979 </r>
       <r>    -5.9193     0.2810     0.5222 </r>
       <r>    -5.8331     0.3035     0.5483 </r>
       <r>    -5.7469     0.2087     0.5663 </r>
       <r>    -5.6606     0.0203     0.5681 </r>
       <r>    -5.5744     0.4923     0.6105 </r>
       <r>    -5.4882     0.2630     0.6332 </r>
       <r>    -5.4020     0.0145     0.6344 </r>
       <r>    -5.3158     0.2692     0.6576 </r>
       <r>    -5.2296     0.2541     0.6796 </r>
       <r>    -5.1434     0.3624     0.7108 </r>
       <r>    -5.0572     1.6561     0.8536 </r>
       <r>    -4.9710     1.2017     0.9572 </r>
       <r>    -4.8848     0.7607     1.0227 </r>
       <r>    -4.7986     1.1151     1.1189 </r>
       <r>    -4.7124     0.7129     1.1803 </r>
       <r>    -4.6262     0.4344     1.2178 </r>
       <r>    -4.5399     0.7602     1.2833 </r>
       <r>    -4.4537     0.8437     1.3561 </r>
       <r>    -4.3675     0.6453     1.4117 </r>
       <r>    -4.2813     0.7342     1.4750 </r>
       <r>    -4.1951     0.8138     1.5451 </r>
       <r>    -4.1089     1.2153     1.6499 </r>
       <r>    -4.0227     3.2358     1.9289 </r>
       <r>    -3.9365     2.9178     2.1804 </r>
       <r>    -3.8503     1.1828     2.2824 </r>
       <r>    -3.7641     1.3770     2.4011 </r>
       <r>    -3.6779     3.2389     2.6803 </r>
       <r>    -3.5917     3.7901     3.0070 </r>
       <r>    -3.5054     4.6355     3.4066 </r>
       <r>    -3.4192     5.4767     3.8788 </r>
       <r>    -3.3330     5.9499     4.3917 </r>
       <r>    -3.2468     5.5477     4.8700 </r>
       <r>    -3.1606     2.3473     5.0723 </r>
       <r>    -3.0744     2.0567     5.2496 </r>
       <r>    -2.9882     3.0443     5.5121 </r>
       <r>    -2.9020     2.9731     5.7684 </r>
       <r>    -2.8158     2.3846     5.9739 </r>
       <r>    -2.7296     1.8897     6.1369 </r>
       <r>    -2.6434     1.6347     6.2778 </r>
       <r>    -2.5572     2.1288     6.4613 </r>
       <r>    -2.4709     4.0872     6.8136 </r>
       <r>    -2.3847     8.1391     7.5153 </r>
       <r>    -2.2985     7.8892     8.1954 </r>
       <r>    -2.2123     6.2041     8.7303 </r>
       <r>    -2.1261     7.8166     9.4041 </r>
       <r>    -2.0399     3.9755     9.7468 </r>
       <r>    -1.9537     1.8684     9.9079 </r>
       <r>    -1.8675     2.8024    10.1495 </r>
       <r>    -1.7813     2.9763    10.4061 </r>
       <r>    -1.6951     5.6524    10.8934 </r>
       <r>    -1.6089     3.4290    11.1890 </r>
       <r>    -1.5227     3.3598    11.4786 </r>
       <r>    -1.4364     3.5207    11.7821 </r>
       <r>    -1.3502     5.7386    12.2768 </r>
       <r>    -1.2640    10.8600    13.2131 </r>
       <r>    -1.1778     6.8869    13.8068 </r>
       <r>    -1.0916     4.2851    14.1762 </r>
       <r>    -1.0054     5.1324    14.6186 </r>
       <r>    -0.9192     3.8007    14.9463 </r>
       <r>    -0.8330     4.7656    15.3571 </r>
       <r>    -0.7468     5.2354    15.8085 </r>
       <r>    -0.6606     8.2790    16.5222 </r>
       <r>    -0.5744     7.9814    17.2102 </r>
       <r>    -0.4882     7.8383    17.8860 </r>
       <r>    -0.4019     7.1529    18.5026 </r>
       <r>    -0.3157     4.2521    18.8692 </r>
       <r>    -0.2295     4.1460    19.2266 </r>
       <r>    -0.1433     3.8657    19.5598 </r>
       <r>    -0.0571     3.1958    19.8353 </r>
       <r>     0.0291     3.0274    20.0963 </r>
       <r>     0.1153     3.8654    20.4295 </r>
       <r>     0.2015     4.8959    20.8516 </r>
       <r>     0.2877     4.8024    21.2656 </r>
       <r>     0.3739     5.2237    21.7159 </r>
       <r>     0.4601     5.8200    22.2177 </r>
       <r>     0.5463     6.7248    22.7974 </r>
       <r>     0.6325     6.7461    23.3790 </r>
       <r>     0.7188     3.9360    23.7183 </r>
       <r>     0.8050     5.2841    24.1738 </r>
       <r>     0.8912     5.5853    24.6553 </r>
       <r>     0.9774     6.3511    25.2029 </r>
       <r>     1.0636     6.8078    25.7897 </r>
       <r>     1.1498     6.1027    26.3158 </r>
       <r>     1.2360     3.8220    26.6453 </r>
       <r>     1.3222     3.8347    26.9759 </r>
       <r>     1.4084     5.4927    27.4494 </r>
       <r>     1.4946     7.5346    28.0990 </r>
       <r>     1.5808     6.2483    28.6376 </r>
       <r>     1.6670     6.4700    29.1954 </r>
       <r>     1.7533     5.6351    29.6812 </r>
       <r>     1.8395     5.2834    30.1367 </r>
       <r>     1.9257     6.1915    30.6704 </r>
       <r>     2.0119     4.1088    31.0246 </r>
       <r>     2.0981     3.0792    31.2901 </r>
       <r>     2.1843     4.1205    31.6453 </r>
       <r>     2.2705     2.9069    31.8959 </r>
       <r>     2.3567     3.6880    32.2138 </r>
       <r>     2.4429     4.3107    32.5855 </r>
       <r>     2.5291     5.0608    33.0217 </r>
       <r>     2.6153     5.0879    33.4604 </r>
       <r>     2.7015     3.8314    33.7907 </r>
       <r>     2.7878     4.2765    34.1593 </r>
       <r>     2.8740     5.4193    34.6265 </r>
       <r>     2.9602     6.6119    35.1965 </r>
       <r>     3.0464     5.8552    35.7013 </r>
       <r>     3.1326     8.7199    36.4530 </r>
       <r>     3.2188     8.6419    37.1980 </r>
       <r>     3.3050     7.9319    37.8818 </r>
       <r>     3.3912     6.6731    38.4571 </r>
       <r>     3.4774     7.0793    39.0674 </r>
       <r>     3.5636    10.1164    39.9395 </r>
       <r>     3.6498     7.9924    40.6285 </r>
       <r>     3.7360     8.0511    41.3226 </r>
       <r>     3.8223     5.7788    41.8207 </r>
       <r>     3.9085     3.9526    42.1615 </r>
       <r>     3.9947     3.3660    42.4517 </r>
       <r>     4.0809     3.5922    42.7613 </r>
       <r>     4.1671     4.5958    43.1575 </r>
       <r>     4.2533     5.8624    43.6629 </r>
       <r>     4.3395     7.2638    44.2891 </r>
       <r>     4.4257     6.7429    44.8704 </r>
       <r>     4.5119     6.5143    45.4320 </r>
       <r>     4.5981     4.8958    45.8541 </r>
       <r>     4.6843     5.0542    46.2898 </r>
       <r>     4.7705     6.9984    46.8931 </r>
       <r>     4.8567     6.3081    47.4369 </r>
       <r>     4.9430     8.1042    48.1356 </r>
       <r>     5.0292     7.5449    48.7860 </r>
       <r>     5.1154     9.0845    49.5691 </r>
       <r>     5.2016     7.8684    50.2475 </r>
       <r>     5.2878     8.4941    50.9797 </r>
       <r>     5.3740     6.6999    51.5573 </r>
       <r>     5.4602     7.7727    52.2274 </r>
       <r>     5.5464     7.3519    52.8612 </r>
       <r>     5.6326     3.9189    53.1990 </r>
       <r>     5.7188     5.7527    53.6950 </r>
       <r>     5.8050     3.8622    54.0279 </r>
       <r>     5.8912     3.0839    54.2938 </r>
       <r>     5.9775     3.8800    54.6283 </r>
       <r>     6.0637     5.1606    55.0731 </r>
       <r>     6.1499     4.9533    55.5002 </r>
       <r>     6.2361     3.9049    55.8368 </r>
       <r>     6.3223     2.3940    56.0432 </r>
       <r>     6.4085     3.0535    56.3064 </r>
       <r>     6.4947     3.8199    56.6357 </r>
       <r>     6.5809     1.7979    56.7907 </r>
       <r>     6.6671     2.0467    56.9671 </r>
       <r>     6.7533     1.9150    57.1322 </r>
       <r>     6.8395     3.4935    57.4334 </r>
       <r>     6.9257     3.4681    57.7324 </r>
       <r>     7.0120     3.3935    58.0249 </r>
       <r>     7.0982     3.9243    58.3632 </r>
       <r>     7.1844     3.4550    58.6611 </r>
       <r>     7.2706     2.7724    58.9001 </r>
       <r>     7.3568     1.5733    59.0357 </r>
       <r>     7.4430     2.9932    59.2938 </r>
       <r>     7.5292     0.9290    59.3739 </r>
       <r>     7.6154     1.4328    59.4974 </r>
       <r>     7.7016     2.3321    59.6984 </r>
       <r>     7.7878     2.0311    59.8735 </r>
       <r>     7.8740     1.4377    59.9975 </r>
       <r>     7.9602     1.9410    60.1648 </r>
       <r>     8.0465     1.9309    60.3312 </r>
       <r>     8.1327     3.2471    60.6112 </r>
       <r>     8.2189     3.4832    60.9115 </r>
       <r>     8.3051     4.0666    61.2620 </r>
       <r>     8.3913     3.9066    61.5988 </r>
       <r>     8.4775     2.5274    61.8167 </r>
       <r>     8.5637     1.7431    61.9670 </r>
       <r>     8.6499     2.5273    62.1848 </r>
       <r>     8.7361     2.2346    62.3775 </r>
       <r>     8.8223     1.3673    62.4953 </r>
       <r>     8.9085     1.3513    62.6118 </r>
       <r>     8.9947     1.4130    62.7337 </r>
       <r>     9.0810     1.5277    62.8653 </r>
       <r>     9.1672     1.4393    62.9894 </r>
       <r>     9.2534     2.1431    63.1742 </r>
       <r>     9.3396     1.5650    63.3091 </r>
       <r>     9.4258     2.9610    63.5644 </r>
       <r>     9.5120     6.5289    64.1272 </r>
       <r>     9.5982     4.5321    64.5179 </r>
       <r>     9.6844     4.1955    64.8796 </r>
       <r>     9.7706     4.2546    65.2464 </r>
       <r>     9.8568     3.8824    65.5811 </r>
       <r>     9.9430     3.0873    65.8472 </r>
       <r>    10.0292     3.4458    66.1443 </r>
       <r>    10.1154     3.1072    66.4121 </r>
       <r>    10.2017     1.8480    66.5715 </r>
       <r>    10.2879     1.4028    66.6924 </r>
       <r>    10.3741     2.5704    66.9140 </r>
       <r>    10.4603     2.7806    67.1537 </r>
       <r>    10.5465     1.5261    67.2853 </r>
       <r>    10.6327     1.9332    67.4519 </r>
       <r>    10.7189     1.8529    67.6116 </r>
       <r>    10.8051     2.2404    67.8048 </r>
       <r>    10.8913     2.5714    68.0265 </r>
       <r>    10.9775     1.1552    68.1261 </r>
       <r>    11.0637     1.5143    68.2566 </r>
       <r>    11.1499     2.8505    68.5023 </r>
       <r>    11.2362     3.4307    68.7981 </r>
       <r>    11.3224     4.0927    69.1509 </r>
       <r>    11.4086     4.3055    69.5221 </r>
       <r>    11.4948     3.7308    69.8437 </r>
       <r>    11.5810     4.5945    70.2398 </r>
       <r>    11.6672     3.8523    70.5719 </r>
       <r>    11.7534     6.7508    71.1539 </r>
       <r>    11.8396     5.4245    71.6215 </r>
       <r>    11.9258     4.5257    72.0117 </r>
       <r>    12.0120     4.7949    72.4250 </r>
       <r>    12.0982     5.5929    72.9072 </r>
       <r>    12.1844     2.9119    73.1582 </r>
       <r>    12.2707     3.3084    73.4434 </r>
       <r>    12.3569     4.1846    73.8042 </r>
       <r>    12.4431     3.5428    74.1096 </r>
       <r>    12.5293     1.4575    74.2352 </r>
       <r>    12.6155     2.6698    74.4654 </r>
       <r>    12.7017     2.9420    74.7190 </r>
       <r>    12.7879     2.8141    74.9616 </r>
       <r>    12.8741     2.1495    75.1469 </r>
       <r>    12.9603     2.9759    75.4035 </r>
       <r>    13.0465     2.1249    75.5866 </r>
       <r>    13.1327     2.5519    75.8066 </r>
       <r>    13.2189     1.2241    75.9122 </r>
       <r>    13.3052     1.7931    76.0668 </r>
       <r>    13.3914     2.1245    76.2499 </r>
       <r>    13.4776     2.6705    76.4801 </r>
       <r>    13.5638     1.2410    76.5871 </r>
       <r>    13.6500     2.2112    76.7777 </r>
       <r>    13.7362     1.9715    76.9477 </r>
       <r>    13.8224     1.7939    77.1023 </r>
       <r>    13.9086     1.8463    77.2615 </r>
       <r>    13.9948     1.4876    77.3898 </r>
       <r>    14.0810     1.3279    77.5042 </r>
       <r>    14.1672     1.6343    77.6451 </r>
       <r>    14.2534     1.1386    77.7433 </r>
       <r>    14.3397     1.6673    77.8870 </r>
       <r>    14.4259     2.3160    78.0867 </r>
       <r>    14.5121     3.3046    78.3716 </r>
       <r>    14.5983     3.5670    78.6791 </r>
       <r>    14.6845     1.8843    78.8415 </r>
       <r>    14.7707     0.9864    78.9265 </r>
       <r>    14.8569     0.8705    79.0016 </r>
       <r>    14.9431     0.9888    79.0868 </r>
       <r>    15.0293     0.4892    79.1290 </r>
       <r>    15.1155     0.7225    79.1913 </r>
       <r>    15.2017     0.5118    79.2354 </r>
       <r>    15.2879     1.7351    79.3850 </r>
       <r>    15.3741     1.8687    79.5461 </r>
       <r>    15.4604     1.5761    79.6820 </r>
       <r>    15.5466     0.6270    79.7360 </r>
       <r>    15.6328     0.6216    79.7896 </r>
       <r>    15.7190     0.1202    79.8000 </r>
       <r>    15.8052     0.0004    79.8000 </r>
       <r>    15.8914     0.0338    79.8029 </r>
       <r>    15.9776     0.2988    79.8287 </r>
       <r>    16.0638     0.0711    79.8348 </r>
       <r>    16.1500     0.2804    79.8590 </r>
       <r>    16.2362     0.0889    79.8666 </r>
       <r>    16.3224     0.0005    79.8667 </r>
       <r>    16.4086     0.1215    79.8772 </r>
       <r>    16.4949     0.8966    79.9545 </r>
       <r>    16.5811     0.5036    79.9979 </r>
       <r>    16.6673     0.0247    80.0000 </r>
       <r>    16.7535     0.0000    80.0000 </r>
       <r>    16.8397     0.0000    80.0000 </r>
       <r>    16.9259     0.0000    80.0000 </r>
       <r>    17.0121     0.0000    80.0000 </r>
       <r>    17.0983     0.0000    80.0000 </r>
       <r>    17.1845     0.0000    80.0000 </r>
       <r>    17.2707     0.0000    80.0000 </r>
       <r>    17.3569     0.0000    80.0000 </r>
       <r>    17.4431     0.0000    80.0000 </r>
       <r>    17.5294     0.0000    80.0000 </r>
       <r>    17.6156     0.0000    80.0000 </r>
       <r>    17.7018     0.0000    80.0000 </r>
      </set>
     </set>
    </array>
   </total>
  </dos>
 </calculation>
 <structure name="finalpos" >
  <crystal>
   <varray name="basis" >
    <v>       3.16000000       0.00000000       0.00000000 </v>
    <v>       0.00000000       3.16000000       0.00000000 </v>
    <v>       0.00000000       0.00000000      15.80000000 </v>
   </varray>
   <i name="volume">    157.77248000 </i>
   <varray name="rec_basis" >
    <v>       0.31645570       0.00000000       0.00000000 </v>
    <v>       0.00000000       0.31645570       0.00000000 </v>
    <v>       0.00000000       0.00000000       0.06329114 </v>
   </varray>
  </crystal>
  <varray name="positions" >
   <v>       0.00000000       0.00000000       0.00000000 </v>
   <v>       0.50000000       0.50000000       0.10000000 </v>
   <v>       0.00000000       0.00000000       0.20000000 </v>
   <v>       0.50000000       0.50000000       0.30000000 </v>
   <v>       0.00000000       0.00000000       0.40000000 </v>
  </varray>
 </structure>
</modeling>
