bcc Fe                                  
   3.45000000000000     
     0.000000    0.500000    0.500000
     0.500000    0.000000    0.500000
     0.500000    0.500000    0.000000
   Fe
     1
Direct
  0.000000  0.000000  0.000000
 
   20   20   20
 0.85874444325E+02 0.80956090767E+02 0.67831516924E+02 0.50493740970E+02 0.33341997891E+02
 0.19566509621E+02 0.10557444032E+02 0.60420464762E+01 0.45060056012E+01 0.39883959339E+01
 0.38152188972E+01 0.39883959339E+01 0.45060056012E+01 0.60420464762E+01 0.10557444032E+02
 0.19566509621E+02 0.33341997891E+02 0.50493740970E+02 0.67831516924E+02 0.80956090767E+02
 0.80956090767E+02 0.71958426535E+02 0.56832907530E+02 0.39837498428E+02 0.24760733373E+02
 0.13833150069E+02 0.75466371534E+01 0.49449028406E+01 0.41626494745E+01 0.38231844125E+01
 0.38237291619E+01 0.41633561621E+01 0.49449764595E+01 0.75476900121E+01 0.13836723857E+02
 0.24763597275E+02 0.39832552677E+02 0.56817285978E+02 0.71939736384E+02 0.80947645125E+02
 0.67831516924E+02 0.56832907530E+02 0.42267378686E+02 0.27862980159E+02 0.16381685392E+02
 0.90283120627E+01 0.54902886823E+01 0.43219136033E+01 0.38479021812E+01 0.36900853258E+01
 0.38482846443E+01 0.43217682621E+01 0.54904258070E+01 0.90311512646E+01 0.16386763263E+02
 0.27864318491E+02 0.42258586556E+02 0.56815797556E+02 0.67817396926E+02 0.71939736384E+02
 0.50493740970E+02 0.39837498428E+02 0.27862980159E+02 0.17344456934E+02 0.99501162435E+01
 0.59635097395E+01 0.44559871484E+01 0.38837280732E+01 0.36006727441E+01 0.36007247473E+01
 0.38834444942E+01 0.44550210067E+01 0.59628763380E+01 0.99513449690E+01 0.17347320847E+02
 0.27865039894E+02 0.39836685665E+02 0.50491012394E+02 0.56815797556E+02 0.56817285978E+02
 0.33341997891E+02 0.24760733373E+02 0.16381685392E+02 0.99501162435E+01 0.61522551855E+01
 0.45442592976E+01 0.39165019045E+01 0.35527972726E+01 0.34372010413E+01 0.35532359313E+01
 0.39164790340E+01 0.45428168312E+01 0.61494966837E+01 0.99476558533E+01 0.16381743407E+02
 0.24764287144E+02 0.33347513753E+02 0.39836685665E+02 0.42258586556E+02 0.39832552677E+02
 0.19566509621E+02 0.13833150069E+02 0.90283120627E+01 0.59635097395E+01 0.45442592976E+01
 0.39302019792E+01 0.35346787975E+01 0.33490338197E+01 0.33493500887E+01 0.35357281896E+01
 0.39315960121E+01 0.45444041299E+01 0.59607575283E+01 0.90231246454E+01 0.13828339496E+02
 0.19564618798E+02 0.24764287144E+02 0.27865039894E+02 0.27864318491E+02 0.24763597275E+02
 0.10557444032E+02 0.75466371534E+01 0.54902886823E+01 0.44559871484E+01 0.39165019045E+01
 0.35346787975E+01 0.33219806653E+01 0.32560451461E+01 0.33219430051E+01 0.35361698407E+01
 0.39201353363E+01 0.44596452082E+01 0.54904931849E+01 0.75416849113E+01 0.10548959746E+02
 0.13828339496E+02 0.16381743407E+02 0.17347320847E+02 0.16386763263E+02 0.13836723857E+02
 0.60420464762E+01 0.49449028406E+01 0.43219136033E+01 0.38837280732E+01 0.35527972726E+01
 0.33490338197E+01 0.32560451461E+01 0.32552979290E+01 0.33476625326E+01 0.35529251016E+01
 0.38871772932E+01 0.43281299012E+01 0.49502705277E+01 0.60422275890E+01 0.75416849113E+01
 0.90231246454E+01 0.99476558533E+01 0.99513449690E+01 0.90311512646E+01 0.75476900121E+01
 0.45060056012E+01 0.41626494745E+01 0.38479021812E+01 0.36006727441E+01 0.34372010413E+01
 0.33493500887E+01 0.33219430051E+01 0.33476625326E+01 0.34336953932E+01 0.35971147878E+01
 0.38479432374E+01 0.41681920546E+01 0.45141573150E+01 0.49502705277E+01 0.54904931849E+01
 0.59607575283E+01 0.61494966837E+01 0.59628763380E+01 0.54904258070E+01 0.49449764595E+01
 0.39883959339E+01 0.38231844125E+01 0.36900853258E+01 0.36007247473E+01 0.35532359313E+01
 0.35357281896E+01 0.35361698407E+01 0.35529251016E+01 0.35971147878E+01 0.36837220559E+01
 0.38181193099E+01 0.39883477786E+01 0.41681920546E+01 0.43281299012E+01 0.44596452082E+01
 0.45444041299E+01 0.45428168312E+01 0.44550210067E+01 0.43217682621E+01 0.41633561621E+01
 0.38152188972E+01 0.38237291619E+01 0.38482846443E+01 0.38834444942E+01 0.39164790340E+01
 0.39315960121E+01 0.39201353363E+01 0.38871772932E+01 0.38479432374E+01 0.38181193099E+01
 0.38072291414E+01 0.38181193099E+01 0.38479432374E+01 0.38871772932E+01 0.39201353363E+01
 0.39315960121E+01 0.39164790340E+01 0.38834444942E+01 0.38482846443E+01 0.38237291619E+01
 0.39883959339E+01 0.41633561621E+01 0.43217682621E+01 0.44550210067E+01 0.45428168312E+01
 0.45444041299E+01 0.44596452082E+01 0.43281299012E+01 0.41681920546E+01 0.39883477786E+01
 0.38181193099E+01 0.36837220559E+01 0.35971147878E+01 0.35529251016E+01 0.35361698407E+01
 0.35357281896E+01 0.35532359313E+01 0.36007247473E+01 0.36900853258E+01 0.38231844125E+01
 0.45060056012E+01 0.49449764595E+01 0.54904258070E+01 0.59628763380E+01 0.61494966837E+01
 0.59607575283E+01 0.54904931849E+01 0.49502705277E+01 0.45141573150E+01 0.41681920546E+01
 0.38479432374E+01 0.35971147878E+01 0.34336953932E+01 0.33476625326E+01 0.33219430051E+01
 0.33493500887E+01 0.34372010413E+01 0.36006727441E+01 0.38479021812E+01 0.41626494745E+01
 0.60420464762E+01 0.75476900121E+01 0.90311512646E+01 0.99513449690E+01 0.99476558533E+01
 0.90231246454E+01 0.75416849113E+01 0.60422275890E+01 0.49502705277E+01 0.43281299012E+01
 0.38871772932E+01 0.35529251016E+01 0.33476625326E+01 0.32552979290E+01 0.32560451461E+01
 0.33490338197E+01 0.35527972726E+01 0.38837280732E+01 0.43219136033E+01 0.49449028406E+01
 0.10557444032E+02 0.13836723857E+02 0.16386763263E+02 0.17347320847E+02 0.16381743407E+02
 0.13828339496E+02 0.10548959746E+02 0.75416849113E+01 0.54904931849E+01 0.44596452082E+01
 0.39201353363E+01 0.35361698407E+01 0.33219430051E+01 0.32560451461E+01 0.33219806653E+01
 0.35346787975E+01 0.39165019045E+01 0.44559871484E+01 0.54902886823E+01 0.75466371534E+01
 0.19566509621E+02 0.24763597275E+02 0.27864318491E+02 0.27865039894E+02 0.24764287144E+02
 0.19564618798E+02 0.13828339496E+02 0.90231246454E+01 0.59607575283E+01 0.45444041299E+01
 0.39315960121E+01 0.35357281896E+01 0.33493500887E+01 0.33490338197E+01 0.35346787975E+01
 0.39302019792E+01 0.45442592976E+01 0.59635097395E+01 0.90283120627E+01 0.13833150069E+02
 0.33341997891E+02 0.39832552677E+02 0.42258586556E+02 0.39836685665E+02 0.33347513753E+02
 0.24764287144E+02 0.16381743407E+02 0.99476558533E+01 0.61494966837E+01 0.45428168312E+01
 0.39164790340E+01 0.35532359313E+01 0.34372010413E+01 0.35527972726E+01 0.39165019045E+01
 0.45442592976E+01 0.61522551855E+01 0.99501162435E+01 0.16381685392E+02 0.24760733373E+02
 0.50493740970E+02 0.56817285978E+02 0.56815797556E+02 0.50491012394E+02 0.39836685665E+02
 0.27865039894E+02 0.17347320847E+02 0.99513449690E+01 0.59628763380E+01 0.44550210067E+01
 0.38834444942E+01 0.36007247473E+01 0.36006727441E+01 0.38837280732E+01 0.44559871484E+01
 0.59635097395E+01 0.99501162435E+01 0.17344456934E+02 0.27862980159E+02 0.39837498428E+02
 0.67831516924E+02 0.71939736384E+02 0.67817396926E+02 0.56815797556E+02 0.42258586556E+02
 0.27864318491E+02 0.16386763263E+02 0.90311512646E+01 0.54904258070E+01 0.43217682621E+01
 0.38482846443E+01 0.36900853258E+01 0.38479021812E+01 0.43219136033E+01 0.54902886823E+01
 0.90283120627E+01 0.16381685392E+02 0.27862980159E+02 0.42267378686E+02 0.56832907530E+02
 0.80956090767E+02 0.80947645125E+02 0.71939736384E+02 0.56817285978E+02 0.39832552677E+02
 0.24763597275E+02 0.13836723857E+02 0.75476900121E+01 0.49449764595E+01 0.41633561621E+01
 0.38237291619E+01 0.38231844125E+01 0.41626494745E+01 0.49449028406E+01 0.75466371534E+01
 0.13833150069E+02 0.24760733373E+02 0.39837498428E+02 0.56832907530E+02 0.71958426535E+02
 0.80956090767E+02 0.71958426535E+02 0.56832907530E+02 0.39837498428E+02 0.24760733373E+02
 0.13833150069E+02 0.75466371534E+01 0.49449028406E+01 0.41626494745E+01 0.38231844125E+01
 0.38237291619E+01 0.41633561621E+01 0.49449764595E+01 0.75476900121E+01 0.13836723857E+02
 0.24763597275E+02 0.39832552677E+02 0.56817285978E+02 0.71939736384E+02 0.80947645125E+02
 0.71958426535E+02 0.60250231668E+02 0.44778046973E+02 0.29505793913E+02 0.17327276351E+02
 0.94846354011E+01 0.56614416973E+01 0.43893351870E+01 0.39033201574E+01 0.37407107187E+01
 0.39036212793E+01 0.43889795692E+01 0.56619154230E+01 0.94892741065E+01 0.17334734360E+02
 0.29506714455E+02 0.44763087958E+02 0.60222803633E+02 0.71936176127E+02 0.76334847148E+02
 0.56832907530E+02 0.44778046973E+02 0.31276583637E+02 0.19420178022E+02 0.11022568997E+02
 0.64003338110E+01 0.46053114792E+01 0.39873591878E+01 0.36872714231E+01 0.36872711480E+01
 0.39867675572E+01 0.46042302552E+01 0.64014591827E+01 0.11028134363E+02 0.19426789334E+02
 0.31276161498E+02 0.44766481493E+02 0.56816899648E+02 0.63998863684E+02 0.64006389411E+02
 0.39837498428E+02 0.29505793913E+02 0.19420178022E+02 0.11608293382E+02 0.68742148486E+01
 0.47900774023E+01 0.40591963987E+01 0.36627536250E+01 0.35352041479E+01 0.36632413906E+01
 0.40586257973E+01 0.47880296947E+01 0.68728336872E+01 0.11610140934E+02 0.19425111293E+02
 0.29510947237E+02 0.39840400861E+02 0.47679181265E+02 0.50615154675E+02 0.47678411010E+02
 0.24760733373E+02 0.17327276351E+02 0.11022568997E+02 0.68742148486E+01 0.48658157180E+01
 0.41025200772E+01 0.36582227544E+01 0.34455635071E+01 0.34461343325E+01 0.36591465883E+01
 0.41021148834E+01 0.48631259294E+01 0.68703766613E+01 0.11020567005E+02 0.17329778955E+02
 0.24767516442E+02 0.31495607800E+02 0.35513411970E+02 0.35510234785E+02 0.31488245541E+02
 0.13833150069E+02 0.94846354011E+01 0.64003338110E+01 0.47900774023E+01 0.41025200772E+01
 0.36596275807E+01 0.34069584587E+01 0.33286004748E+01 0.34072204873E+01 0.36609123617E+01
 0.41043799694E+01 0.47902507454E+01 0.63971293797E+01 0.94794373316E+01 0.13829400646E+02
 0.18484374345E+02 0.22082218605E+02 0.23437197561E+02 0.22081164125E+02 0.18484889340E+02
 0.75466371534E+01 0.56614416973E+01 0.46053114792E+01 0.40591963987E+01 0.36582227544E+01
 0.34069584587E+01 0.32926680201E+01 0.32921582535E+01 0.34067385929E+01 0.36604697348E+01
 0.40638356684E+01 0.46093095005E+01 0.56613969957E+01 0.75418118231E+01 0.10015332253E+02
 0.12389241348E+02 0.13847857453E+02 0.13850171471E+02 0.12395303990E+02 0.10022545675E+02
 0.49449028406E+01 0.43893351870E+01 0.39873591878E+01 0.36627536250E+01 0.34455635071E+01
 0.33286004748E+01 0.32921582535E+01 0.33272110975E+01 0.34439027818E+01 0.36629249063E+01
 0.39910919277E+01 0.43958019805E+01 0.49503155847E+01 0.58349276393E+01 0.69172182224E+01
 0.78248695289E+01 0.81814207534E+01 0.78291929237E+01 0.69213192596E+01 0.58343450880E+01
 0.41626494745E+01 0.39033201574E+01 0.36872714231E+01 0.35352041479E+01 0.34461343325E+01
 0.34072204873E+01 0.34067385929E+01 0.34439027818E+01 0.35307552485E+01 0.36830700207E+01
 0.39034360874E+01 0.41682911584E+01 0.44359230159E+01 0.47332614608E+01 0.50521152081E+01
 0.52683833994E+01 0.52686121605E+01 0.50510478040E+01 0.47283601471E+01 0.44282942731E+01
 0.38231844125E+01 0.37407107187E+01 0.36872711480E+01 0.36632413906E+01 0.36591465883E+01
 0.36609123617E+01 0.36604697348E+01 0.36629249063E+01 0.36830700207E+01 0.37341125032E+01
 0.38183221625E+01 0.39256901886E+01 0.40386123314E+01 0.41374188372E+01 0.42047277792E+01
 0.42284827349E+01 0.42013364213E+01 0.41321958280E+01 0.40345632544E+01 0.39258343557E+01
 0.38237291619E+01 0.39036212793E+01 0.39867675572E+01 0.40586257973E+01 0.41021148834E+01
 0.41043799694E+01 0.40638356684E+01 0.39910919277E+01 0.39034360874E+01 0.38183221625E+01
 0.37500017741E+01 0.37077824920E+01 0.36929408847E+01 0.36963974002E+01 0.37027957586E+01
 0.37011994753E+01 0.36936810779E+01 0.36931839273E+01 0.37128642233E+01 0.37575626462E+01
 0.41633561621E+01 0.43889795692E+01 0.46042302552E+01 0.47880296947E+01 0.48631259294E+01
 0.47902507454E+01 0.46093095005E+01 0.43958019805E+01 0.41682911584E+01 0.39256901886E+01
 0.37077824920E+01 0.35440485116E+01 0.34418071525E+01 0.33903754390E+01 0.33751482685E+01
 0.33907043231E+01 0.34443289009E+01 0.35491226661E+01 0.37123476890E+01 0.39258343557E+01
 0.49449764595E+01 0.56619154230E+01 0.64014591827E+01 0.68728336872E+01 0.68703766613E+01
 0.63971293797E+01 0.56613969957E+01 0.49503155847E+01 0.44359230159E+01 0.40386123314E+01
 0.36929408847E+01 0.34418071525E+01 0.32908708218E+01 0.32233408568E+01 0.32242373792E+01
 0.32933248945E+01 0.34444261880E+01 0.36928765176E+01 0.40338425115E+01 0.44282942731E+01
 0.75476900121E+01 0.94892741065E+01 0.11028134363E+02 0.11610140934E+02 0.11020567005E+02
 0.94794373316E+01 0.75418118231E+01 0.58349276393E+01 0.47332614608E+01 0.41374188372E+01
 0.36963974002E+01 0.33903754390E+01 0.32233408568E+01 0.31722649807E+01 0.32241100041E+01
 0.33904415655E+01 0.36940241800E+01 0.41324959934E+01 0.47284346722E+01 0.58343450880E+01
 0.13836723857E+02 0.17334734360E+02 0.19426789334E+02 0.19425111293E+02 0.17329778955E+02
 0.13829400646E+02 0.10015332253E+02 0.69172182224E+01 0.50521152081E+01 0.42047277792E+01
 0.37027957586E+01 0.33751482685E+01 0.32242373792E+01 0.32241100041E+01 0.33741940243E+01
 0.37004482807E+01 0.42022034751E+01 0.50520878833E+01 0.69213621670E+01 0.10022545675E+02
 0.24763597275E+02 0.29506714455E+02 0.31276161498E+02 0.29510947237E+02 0.24767516442E+02
 0.18484374345E+02 0.12389241348E+02 0.78248695289E+01 0.52683833994E+01 0.42284827349E+01
 0.37011994753E+01 0.33907043231E+01 0.32933248945E+01 0.33904415655E+01 0.37004482807E+01
 0.42281415184E+01 0.52703543662E+01 0.78295386805E+01 0.12393753497E+02 0.18484889340E+02
 0.39832552677E+02 0.44763087958E+02 0.44766481493E+02 0.39840400861E+02 0.31495607800E+02
 0.22082218605E+02 0.13847857453E+02 0.81814207534E+01 0.52686121605E+01 0.42013364213E+01
 0.36936810779E+01 0.34443289009E+01 0.34444261880E+01 0.36940241800E+01 0.42022034751E+01
 0.52703543662E+01 0.81835514648E+01 0.13848393093E+02 0.22078836889E+02 0.31488245541E+02
 0.56817285978E+02 0.60222803633E+02 0.56816899648E+02 0.47679181265E+02 0.35513411970E+02
 0.23437197561E+02 0.13850171471E+02 0.78291929237E+01 0.50510478040E+01 0.41321958280E+01
 0.36931839273E+01 0.35491226661E+01 0.36928765176E+01 0.41324959934E+01 0.50520878833E+01
 0.78295386805E+01 0.13848393093E+02 0.23433851117E+02 0.35510670997E+02 0.47678411010E+02
 0.71939736384E+02 0.71936176127E+02 0.63998863684E+02 0.50615154675E+02 0.35510234785E+02
 0.22081164125E+02 0.12395303990E+02 0.69213192596E+01 0.47283601471E+01 0.40345632544E+01
 0.37128642233E+01 0.37123476890E+01 0.40338425115E+01 0.47284346722E+01 0.69213621670E+01
 0.12393753497E+02 0.22078836889E+02 0.35510670997E+02 0.50620568926E+02 0.64006389411E+02
 0.80947645125E+02 0.76334847148E+02 0.64006389411E+02 0.47678411010E+02 0.31488245541E+02
 0.18484889340E+02 0.10022545675E+02 0.58343450880E+01 0.44282942731E+01 0.39258343557E+01
 0.37575626462E+01 0.39258343557E+01 0.44282942731E+01 0.58343450880E+01 0.10022545675E+02
 0.18484889340E+02 0.31488245541E+02 0.47678411010E+02 0.64006389411E+02 0.76334847148E+02
 0.67831516924E+02 0.56832907530E+02 0.42267378686E+02 0.27862980159E+02 0.16381685392E+02
 0.90283120627E+01 0.54902886823E+01 0.43219136033E+01 0.38479021812E+01 0.36900853258E+01
 0.38482846443E+01 0.43217682621E+01 0.54904258070E+01 0.90311512646E+01 0.16386763263E+02
 0.27864318491E+02 0.42258586556E+02 0.56815797556E+02 0.67817396926E+02 0.71939736384E+02
 0.56832907530E+02 0.44778046973E+02 0.31276583637E+02 0.19420178022E+02 0.11022568997E+02
 0.64003338110E+01 0.46053114792E+01 0.39873591878E+01 0.36872714231E+01 0.36872711480E+01
 0.39867675572E+01 0.46042302552E+01 0.64014591827E+01 0.11028134363E+02 0.19426789334E+02
 0.31276161498E+02 0.44766481493E+02 0.56816899648E+02 0.63998863684E+02 0.64006389411E+02
 0.42267378686E+02 0.31276583637E+02 0.20555225301E+02 0.12233481350E+02 0.71522438529E+01
 0.48849060059E+01 0.41089961524E+01 0.37018295740E+01 0.35700545085E+01 0.37021044658E+01
 0.41079987239E+01 0.48828468323E+01 0.71523038085E+01 0.12238208673E+02 0.20562584012E+02
 0.31281449345E+02 0.42267268344E+02 0.50618373279E+02 0.53751156174E+02 0.50620568926E+02
 0.27862980159E+02 0.19420178022E+02 0.12233481350E+02 0.74438418482E+01 0.50689417429E+01
 0.41932998525E+01 0.37254856163E+01 0.34986143110E+01 0.34991757198E+01 0.37260585990E+01
 0.41918951124E+01 0.50653427737E+01 0.74407982824E+01 0.12235027538E+02 0.19428340257E+02
 0.27875602860E+02 0.35522179529E+02 0.40096301589E+02 0.40091660621E+02 0.35510670997E+02
 0.16381685392E+02 0.11022568997E+02 0.71522438529E+01 0.50689417429E+01 0.42238623988E+01
 0.37443039435E+01 0.34651403066E+01 0.33784328137E+01 0.34656056779E+01 0.37448850405E+01
 0.42231874789E+01 0.50655465330E+01 0.71472483350E+01 0.11020486211E+02 0.16386664594E+02
 0.22089436275E+02 0.26490847362E+02 0.28146412100E+02 0.26482008272E+02 0.22078836889E+02
 0.90283120627E+01 0.64003338110E+01 0.48849060059E+01 0.41932998525E+01 0.37443039435E+01
 0.34564176383E+01 0.33252733273E+01 0.33249691007E+01 0.34565488377E+01 0.37461384350E+01
 0.41955705478E+01 0.48845681294E+01 0.63963445465E+01 0.90233840912E+01 0.12391411680E+02
 0.15581919631E+02 0.17530296992E+02 0.17529530805E+02 0.15581347047E+02 0.12393753497E+02
 0.54902886823E+01 0.46053114792E+01 0.41089961524E+01 0.37254856163E+01 0.34651403066E+01
 0.33252733273E+01 0.32820929573E+01 0.33243124210E+01 0.34651586035E+01 0.37281317932E+01
 0.41135412444E+01 0.46088844550E+01 0.54901909558E+01 0.69172682781E+01 0.86077186095E+01
 0.99935750536E+01 0.10531122602E+02 0.99976348885E+01 0.86134863525E+01 0.69213621670E+01
 0.43219136033E+01 0.39873591878E+01 0.37018295740E+01 0.34986143110E+01 0.33784328137E+01
 0.33249691007E+01 0.33243124210E+01 0.33765852245E+01 0.34965449373E+01 0.37017322536E+01
 0.39909675318E+01 0.43280638189E+01 0.47332918050E+01 0.53026666291E+01 0.59164624397E+01
 0.63222113434E+01 0.63237260709E+01 0.59188564379E+01 0.53020117824E+01 0.47284346722E+01
 0.38479021812E+01 0.36872714231E+01 0.35700545085E+01 0.34991757198E+01 0.34656056779E+01
 0.34565488377E+01 0.34651586035E+01 0.34965449373E+01 0.35650698108E+01 0.36830721761E+01
 0.38481862467E+01 0.40388207704E+01 0.42219600214E+01 0.43835617843E+01 0.45197820849E+01
 0.45757592797E+01 0.45184230304E+01 0.43795844809E+01 0.42157807557E+01 0.40338425115E+01
 0.36900853258E+01 0.36872711480E+01 0.37021044658E+01 0.37260585990E+01 0.37448850405E+01
 0.37461384350E+01 0.37281317932E+01 0.37017322536E+01 0.36830721761E+01 0.36840800778E+01
 0.37081629578E+01 0.37512445748E+01 0.38037095598E+01 0.38515952220E+01 0.38797324837E+01
 0.38781900150E+01 0.38479994950E+01 0.38006683149E+01 0.37514430314E+01 0.37123476890E+01
 0.38482846443E+01 0.39867675572E+01 0.41079987239E+01 0.41918951124E+01 0.42231874789E+01
 0.41955705478E+01 0.41135412444E+01 0.39909675318E+01 0.38481862467E+01 0.37081629578E+01
 0.35916898978E+01 0.35115661699E+01 0.34680995397E+01 0.34504573014E+01 0.34455859329E+01
 0.34489892000E+01 0.34680900812E+01 0.35153238823E+01 0.35979185804E+01 0.37128642233E+01
 0.43217682621E+01 0.46042302552E+01 0.48828468323E+01 0.50653427737E+01 0.50655465330E+01
 0.48845681294E+01 0.46088844550E+01 0.43280638189E+01 0.40388207704E+01 0.37512445748E+01
 0.35115661699E+01 0.33433478950E+01 0.32446619206E+01 0.32010105528E+01 0.32012412614E+01
 0.32460887995E+01 0.33466064904E+01 0.35149256726E+01 0.37514430314E+01 0.40345632544E+01
 0.54904258070E+01 0.64014591827E+01 0.71523038085E+01 0.74407982824E+01 0.71472483350E+01
 0.63963445465E+01 0.54901909558E+01 0.47332918050E+01 0.42219600214E+01 0.38037095598E+01
 0.34680995397E+01 0.32446619206E+01 0.31245986286E+01 0.30880865755E+01 0.31259055466E+01
 0.32462933348E+01 0.34680426656E+01 0.38001934645E+01 0.42157807557E+01 0.47283601471E+01
 0.90311512646E+01 0.11028134363E+02 0.12238208673E+02 0.12235027538E+02 0.11020486211E+02
 0.90233840912E+01 0.69172682781E+01 0.53026666291E+01 0.43835617843E+01 0.38515952220E+01
 0.34504573014E+01 0.32010105528E+01 0.30880865755E+01 0.30883678007E+01 0.32011317236E+01
 0.34490510107E+01 0.38483300775E+01 0.43801372046E+01 0.53020117824E+01 0.69213192596E+01
 0.16386763263E+02 0.19426789334E+02 0.20562584012E+02 0.19428340257E+02 0.16386664594E+02
 0.12391411680E+02 0.86077186095E+01 0.59164624397E+01 0.45197820849E+01 0.38797324837E+01
 0.34455859329E+01 0.32012412614E+01 0.31259055466E+01 0.32011317236E+01 0.34444030175E+01
 0.38778763170E+01 0.45197637484E+01 0.59201589803E+01 0.86134863525E+01 0.12395303990E+02
 0.27864318491E+02 0.31276161498E+02 0.31281449345E+02 0.27875602860E+02 0.22089436275E+02
 0.15581919631E+02 0.99935750536E+01 0.63222113434E+01 0.45757592797E+01 0.38781900150E+01
 0.34489892000E+01 0.32460887995E+01 0.32462933348E+01 0.34490510107E+01 0.38778763170E+01
 0.45767175077E+01 0.63259754059E+01 0.99979129586E+01 0.15581347047E+02 0.22081164125E+02
 0.42258586556E+02 0.44766481493E+02 0.42267268344E+02 0.35522179529E+02 0.26490847362E+02
 0.17530296992E+02 0.10531122602E+02 0.63237260709E+01 0.45184230304E+01 0.38479994950E+01
 0.34680900812E+01 0.33466064904E+01 0.34680426656E+01 0.38483300775E+01 0.45197637484E+01
 0.63259754059E+01 0.10532351324E+02 0.17527302742E+02 0.26482008272E+02 0.35510234785E+02
 0.56815797556E+02 0.56816899648E+02 0.50618373279E+02 0.40096301589E+02 0.28146412100E+02
 0.17529530805E+02 0.99976348885E+01 0.59188564379E+01 0.43795844809E+01 0.38006683149E+01
 0.35153238823E+01 0.35149256726E+01 0.38001934645E+01 0.43801372046E+01 0.59201589803E+01
 0.99979129586E+01 0.17527302742E+02 0.28142054688E+02 0.40091660621E+02 0.50615154675E+02
 0.67817396926E+02 0.63998863684E+02 0.53751156174E+02 0.40091660621E+02 0.26482008272E+02
 0.15581347047E+02 0.86134863525E+01 0.53020117824E+01 0.42157807557E+01 0.37514430314E+01
 0.35979185804E+01 0.37514430314E+01 0.42157807557E+01 0.53020117824E+01 0.86134863525E+01
 0.15581347047E+02 0.26482008272E+02 0.40091660621E+02 0.53751156174E+02 0.63998863684E+02
 0.71939736384E+02 0.64006389411E+02 0.50620568926E+02 0.35510670997E+02 0.22078836889E+02
 0.12393753497E+02 0.69213621670E+01 0.47284346722E+01 0.40338425115E+01 0.37123476890E+01
 0.37128642233E+01 0.40345632544E+01 0.47283601471E+01 0.69213192596E+01 0.12395303990E+02
 0.22081164125E+02 0.35510234785E+02 0.50615154675E+02 0.63998863684E+02 0.71936176127E+02
 0.50493740970E+02 0.39837498428E+02 0.27862980159E+02 0.17344456934E+02 0.99501162435E+01
 0.59635097395E+01 0.44559871484E+01 0.38837280732E+01 0.36006727441E+01 0.36007247473E+01
 0.38834444942E+01 0.44550210067E+01 0.59628763380E+01 0.99513449690E+01 0.17347320847E+02
 0.27865039894E+02 0.39836685665E+02 0.50491012394E+02 0.56815797556E+02 0.56817285978E+02
 0.39837498428E+02 0.29505793913E+02 0.19420178022E+02 0.11608293382E+02 0.68742148486E+01
 0.47900774023E+01 0.40591963987E+01 0.36627536250E+01 0.35352041479E+01 0.36632413906E+01
 0.40586257973E+01 0.47880296947E+01 0.68728336872E+01 0.11610140934E+02 0.19425111293E+02
 0.29510947237E+02 0.39840400861E+02 0.47679181265E+02 0.50615154675E+02 0.47678411010E+02
 0.27862980159E+02 0.19420178022E+02 0.12233481350E+02 0.74438418482E+01 0.50689417429E+01
 0.41932998525E+01 0.37254856163E+01 0.34986143110E+01 0.34991757198E+01 0.37260585990E+01
 0.41918951124E+01 0.50653427737E+01 0.74407982824E+01 0.12235027538E+02 0.19428340257E+02
 0.27875602860E+02 0.35522179529E+02 0.40096301589E+02 0.40091660621E+02 0.35510670997E+02
 0.17344456934E+02 0.11608293382E+02 0.74438418482E+01 0.51788410748E+01 0.42655422411E+01
 0.37741051134E+01 0.34860124926E+01 0.33963784396E+01 0.34864397250E+01 0.37744393083E+01
 0.42641313741E+01 0.51742580059E+01 0.74381180835E+01 0.11607503955E+02 0.17353582250E+02
 0.23450157726E+02 0.28155071379E+02 0.29924022647E+02 0.28142054688E+02 0.23433851117E+02
 0.99501162435E+01 0.68742148486E+01 0.50689417429E+01 0.42655422411E+01 0.37924198667E+01
 0.34849051091E+01 0.33447349040E+01 0.33446360218E+01 0.34853501120E+01 0.37937153157E+01
 0.42652960177E+01 0.50643778354E+01 0.68670453674E+01 0.99467075674E+01 0.13853098045E+02
 0.17536426978E+02 0.19780704144E+02 0.19776090175E+02 0.17527302742E+02 0.13848393093E+02
 0.59635097395E+01 0.47900774023E+01 0.41932998525E+01 0.37741051134E+01 0.34849051091E+01
 0.33295629702E+01 0.32821186973E+01 0.33291291458E+01 0.34857374344E+01 0.37766831986E+01
 0.41952884576E+01 0.47886199237E+01 0.59586347446E+01 0.78242507100E+01 0.99948831221E+01
 0.11756063549E+02 0.12434513789E+02 0.11756882291E+02 0.99979129586E+01 0.78295386805E+01
 0.44559871484E+01 0.40591963987E+01 0.37254856163E+01 0.34860124926E+01 0.33447349040E+01
 0.32821186973E+01 0.32814332171E+01 0.33435868229E+01 0.34862851492E+01 0.37282088998E+01
 0.40632912830E+01 0.44587640116E+01 0.50512790259E+01 0.59159027537E+01 0.68277115796E+01
 0.74198309298E+01 0.74219974240E+01 0.68326554380E+01 0.59201589803E+01 0.50520878833E+01
 0.38837280732E+01 0.36627536250E+01 0.34986143110E+01 0.33963784396E+01 0.33446360218E+01
 0.33291291458E+01 0.33435868229E+01 0.33942420342E+01 0.34964639526E+01 0.36627443762E+01
 0.38869854755E+01 0.41373515734E+01 0.43834032933E+01 0.46588805156E+01 0.49072390125E+01
 0.50099403408E+01 0.49083331961E+01 0.46586348476E+01 0.43801372046E+01 0.41324959934E+01
 0.36006727441E+01 0.35352041479E+01 0.34991757198E+01 0.34864397250E+01 0.34853501120E+01
 0.34857374344E+01 0.34862851492E+01 0.34964639526E+01 0.35304436998E+01 0.35970834717E+01
 0.36931609619E+01 0.38038531565E+01 0.39089015679E+01 0.39896394784E+01 0.40333325433E+01
 0.40325144829E+01 0.39869449182E+01 0.39046485138E+01 0.38001934645E+01 0.36928765176E+01
 0.36007247473E+01 0.36632413906E+01 0.37260585990E+01 0.37744393083E+01 0.37937153157E+01
 0.37766831986E+01 0.37282088998E+01 0.36627443762E+01 0.35970834717E+01 0.35443067630E+01
 0.35117036313E+01 0.35005332502E+01 0.35054815920E+01 0.35156530114E+01 0.35198216845E+01
 0.35138035650E+01 0.35035626657E+01 0.35007587503E+01 0.35149256726E+01 0.35491226661E+01
 0.38834444942E+01 0.40586257973E+01 0.41918951124E+01 0.42641313741E+01 0.42652960177E+01
 0.41952884576E+01 0.40632912830E+01 0.38869854755E+01 0.36931609619E+01 0.35117036313E+01
 0.33664568734E+01 0.32678422741E+01 0.32120837496E+01 0.31880593546E+01 0.31875986037E+01
 0.32119798758E+01 0.32701363273E+01 0.33708871381E+01 0.35153238823E+01 0.36931839273E+01
 0.44550210067E+01 0.47880296947E+01 0.50653427737E+01 0.51742580059E+01 0.50643778354E+01
 0.47886199237E+01 0.44587640116E+01 0.41373515734E+01 0.38038531565E+01 0.35005332502E+01
 0.32678422741E+01 0.31163440486E+01 0.30353634007E+01 0.30104414608E+01 0.30359071906E+01
 0.31179735716E+01 0.32699050387E+01 0.35007587503E+01 0.38006683149E+01 0.41321958280E+01
 0.59628763380E+01 0.68728336872E+01 0.74407982824E+01 0.74381180835E+01 0.68670453674E+01
 0.59586347446E+01 0.50512790259E+01 0.43834032933E+01 0.39089015679E+01 0.35054815920E+01
 0.32120837496E+01 0.30353634007E+01 0.29559585813E+01 0.29563937170E+01 0.30361795399E+01
 0.32119901342E+01 0.35032080369E+01 0.39046485138E+01 0.43795844809E+01 0.50510478040E+01
 0.99513449690E+01 0.11610140934E+02 0.12235027538E+02 0.11607503955E+02 0.99467075674E+01
 0.78242507100E+01 0.59159027537E+01 0.46588805156E+01 0.39896394784E+01 0.35156530114E+01
 0.31880593546E+01 0.30104414608E+01 0.29563937170E+01 0.30108851091E+01 0.31875822381E+01
 0.35135456839E+01 0.39872686501E+01 0.46586348476E+01 0.59188564379E+01 0.78291929237E+01
 0.17347320847E+02 0.19425111293E+02 0.19428340257E+02 0.17353582250E+02 0.13853098045E+02
 0.99948831221E+01 0.68277115796E+01 0.49072390125E+01 0.40333325433E+01 0.35198216845E+01
 0.31875986037E+01 0.30359071906E+01 0.30361795399E+01 0.31875822381E+01 0.35187711592E+01
 0.40328748508E+01 0.49098410881E+01 0.68326554380E+01 0.99976348885E+01 0.13850171471E+02
 0.27865039894E+02 0.29510947237E+02 0.27875602860E+02 0.23450157726E+02 0.17536426978E+02
 0.11756063549E+02 0.74198309298E+01 0.50099403408E+01 0.40325144829E+01 0.35138035650E+01
 0.32119798758E+01 0.31179735716E+01 0.32119901342E+01 0.35135456839E+01 0.40328748508E+01
 0.50125210076E+01 0.74238430417E+01 0.11756882291E+02 0.17529530805E+02 0.23437197561E+02
 0.39836685665E+02 0.39840400861E+02 0.35522179529E+02 0.28155071379E+02 0.19780704144E+02
 0.12434513789E+02 0.74219974240E+01 0.49083331961E+01 0.39869449182E+01 0.35035626657E+01
 0.32701363273E+01 0.32699050387E+01 0.35032080369E+01 0.39872686501E+01 0.49098410881E+01
 0.74238430417E+01 0.12434291534E+02 0.19776090175E+02 0.28146412100E+02 0.35513411970E+02
 0.50491012394E+02 0.47679181265E+02 0.40096301589E+02 0.29924022647E+02 0.19776090175E+02
 0.11756882291E+02 0.68326554380E+01 0.46586348476E+01 0.39046485138E+01 0.35007587503E+01
 0.33708871381E+01 0.35007587503E+01 0.39046485138E+01 0.46586348476E+01 0.68326554380E+01
 0.11756882291E+02 0.19776090175E+02 0.29924022647E+02 0.40096301589E+02 0.47679181265E+02
 0.56815797556E+02 0.50615154675E+02 0.40091660621E+02 0.28142054688E+02 0.17527302742E+02
 0.99979129586E+01 0.59201589803E+01 0.43801372046E+01 0.38001934645E+01 0.35149256726E+01
 0.35153238823E+01 0.38006683149E+01 0.43795844809E+01 0.59188564379E+01 0.99976348885E+01
 0.17529530805E+02 0.28146412100E+02 0.40096301589E+02 0.50618373279E+02 0.56816899648E+02
 0.56817285978E+02 0.47678411010E+02 0.35510670997E+02 0.23433851117E+02 0.13848393093E+02
 0.78295386805E+01 0.50520878833E+01 0.41324959934E+01 0.36928765176E+01 0.35491226661E+01
 0.36931839273E+01 0.41321958280E+01 0.50510478040E+01 0.78291929237E+01 0.13850171471E+02
 0.23437197561E+02 0.35513411970E+02 0.47679181265E+02 0.56816899648E+02 0.60222803633E+02
 0.33341997891E+02 0.24760733373E+02 0.16381685392E+02 0.99501162435E+01 0.61522551855E+01
 0.45442592976E+01 0.39165019045E+01 0.35527972726E+01 0.34372010413E+01 0.35532359313E+01
 0.39164790340E+01 0.45428168312E+01 0.61494966837E+01 0.99476558533E+01 0.16381743407E+02
 0.24764287144E+02 0.33347513753E+02 0.39836685665E+02 0.42258586556E+02 0.39832552677E+02
 0.24760733373E+02 0.17327276351E+02 0.11022568997E+02 0.68742148486E+01 0.48658157180E+01
 0.41025200772E+01 0.36582227544E+01 0.34455635071E+01 0.34461343325E+01 0.36591465883E+01