   1   1   0   0
  0.1026591E+02  0.2439518E-09  0.2439518E-09  0.2439518E-09  0.5000000E-15
  1.000000000000000E-004
  CAR 
 bcc Fe                                  
     36.95561789     -4.12319059  301      6.60243029      1.00000000
     -4.123  0.0000E+00  0.0000E+00
     -3.986  0.0000E+00  0.0000E+00
     -3.849 -0.3969E-34 -0.5435E-35
     -3.712 -0.3133E-29 -0.4290E-30
     -3.575 -0.9577E-25 -0.1311E-25
     -3.439 -0.1141E-20 -0.1562E-21
     -3.302 -0.5093E-17 -0.6975E-18
     -3.165 -0.9247E-14 -0.1267E-14
     -3.028 -0.6475E-11 -0.8879E-12
     -2.891 -0.1768E-08 -0.2430E-09
     -2.754 -0.1880E-06 -0.2599E-07
     -2.617 -0.7729E-05 -0.1084E-05
     -2.480 -0.1183E-03 -0.1729E-04
     -2.343 -0.5663E-03 -0.9483E-04
     -2.206  0.3838E-03 -0.4228E-04
     -2.069  0.8103E-02  0.1067E-02
     -1.932  0.2121E-01  0.3972E-02
     -1.795  0.3182E-01  0.8329E-02
     -1.658  0.3974E-01  0.1377E-01
     -1.522  0.4573E-01  0.2003E-01
     -1.385  0.5248E-01  0.2722E-01
     -1.248  0.5824E-01  0.3519E-01
     -1.111  0.6224E-01  0.4372E-01
     -0.974  0.7144E-01  0.5350E-01
     -0.837  0.7317E-01  0.6352E-01
     -0.700  0.7925E-01  0.7437E-01
     -0.563  0.8888E-01  0.8654E-01
     -0.426  0.9021E-01  0.9889E-01
     -0.289  0.9553E-01  0.1120E+00
     -0.152  0.1070E+00  0.1266E+00
     -0.015  0.1123E+00  0.1420E+00
      0.122  0.1114E+00  0.1573E+00
      0.259  0.1299E+00  0.1750E+00
      0.395  0.1360E+00  0.1937E+00
      0.532  0.1366E+00  0.2124E+00
      0.669  0.1569E+00  0.2339E+00
      0.806  0.1649E+00  0.2564E+00
      0.943  0.1772E+00  0.2807E+00
      1.080  0.1948E+00  0.3074E+00
      1.217  0.2129E+00  0.3365E+00
      1.354  0.2408E+00  0.3695E+00
      1.491  0.2615E+00  0.4053E+00
      1.628  0.3370E+00  0.4515E+00
      1.765  0.5433E+00  0.5259E+00
      1.902  0.8298E+00  0.6395E+00
      2.039  0.9683E+00  0.7721E+00
      2.176  0.9829E+00  0.9067E+00
      2.312  0.1003E+01  0.1044E+01
      2.449  0.1083E+01  0.1192E+01
      2.586  0.1244E+01  0.1363E+01
      2.723  0.1401E+01  0.1555E+01
      2.860  0.1519E+01  0.1763E+01
      2.997  0.1562E+01  0.1977E+01
      3.134  0.1498E+01  0.2182E+01
      3.271  0.1400E+01  0.2373E+01
      3.408  0.1361E+01  0.2560E+01
      3.545  0.1356E+01  0.2745E+01
      3.682  0.1281E+01  0.2921E+01
      3.819  0.1179E+01  0.3082E+01
      3.956  0.1176E+01  0.3243E+01
      4.093  0.1317E+01  0.3423E+01
      4.230  0.1510E+01  0.3630E+01
      4.366  0.1624E+01  0.3853E+01
      4.503  0.1704E+01  0.4086E+01
      4.640  0.1739E+01  0.4324E+01
      4.777  0.1908E+01  0.4585E+01
      4.914  0.2106E+01  0.4874E+01
      5.051  0.2137E+01  0.5166E+01
      5.188  0.2321E+01  0.5484E+01
      5.325  0.2447E+01  0.5819E+01
      5.462  0.2040E+01  0.6099E+01
      5.599  0.1612E+01  0.6319E+01
      5.736  0.1432E+01  0.6515E+01
      5.873  0.1355E+01  0.6701E+01
      6.010  0.1454E+01  0.6900E+01
      6.147  0.1700E+01  0.7133E+01
      6.283  0.1908E+01  0.7394E+01
      6.420  0.1984E+01  0.7666E+01
      6.557  0.1866E+01  0.7921E+01
      6.694  0.1705E+01  0.8155E+01
      6.831  0.1618E+01  0.8376E+01
      6.968  0.1604E+01  0.8596E+01
      7.105  0.1643E+01  0.8821E+01
      7.242  0.1770E+01  0.9063E+01
      7.379  0.2161E+01  0.9359E+01
      7.516  0.2836E+01  0.9747E+01
      7.653  0.2929E+01  0.1015E+02
      7.790  0.1957E+01  0.1042E+02
      7.927  0.8955E+00  0.1054E+02
      8.064  0.3817E+00  0.1059E+02
      8.200  0.2514E+00  0.1063E+02
      8.337  0.3124E+00  0.1067E+02
      8.474  0.3071E+00  0.1071E+02
      8.611  0.2763E+00  0.1075E+02
      8.748  0.3173E+00  0.1079E+02
      8.885  0.2942E+00  0.1083E+02
      9.022  0.2707E+00  0.1087E+02
      9.159  0.2763E+00  0.1091E+02
      9.296  0.2800E+00  0.1095E+02
      9.433  0.2995E+00  0.1099E+02
      9.570  0.2751E+00  0.1102E+02
      9.707  0.2443E+00  0.1106E+02
      9.844  0.2588E+00  0.1109E+02
      9.981  0.2932E+00  0.1113E+02
     10.117  0.2885E+00  0.1117E+02
     10.254  0.2420E+00  0.1121E+02
     10.391  0.2459E+00  0.1124E+02
     10.528  0.2648E+00  0.1128E+02
     10.665  0.2501E+00  0.1131E+02
     10.802  0.2577E+00  0.1135E+02
     10.939  0.2464E+00  0.1138E+02
     11.076  0.2347E+00  0.1141E+02
     11.213  0.2293E+00  0.1144E+02
     11.350  0.2107E+00  0.1147E+02
     11.487  0.2299E+00  0.1150E+02
     11.624  0.2553E+00  0.1154E+02
     11.761  0.2068E+00  0.1157E+02
     11.898  0.1741E+00  0.1159E+02
     12.034  0.2068E+00  0.1162E+02
     12.171  0.2062E+00  0.1165E+02
     12.308  0.1940E+00  0.1167E+02
     12.445  0.1961E+00  0.1170E+02
     12.582  0.1755E+00  0.1172E+02
     12.719  0.1490E+00  0.1174E+02
     12.856  0.1636E+00  0.1177E+02
     12.993  0.1777E+00  0.1179E+02
     13.130  0.1636E+00  0.1181E+02
     13.267  0.1328E+00  0.1183E+02
     13.404  0.1239E+00  0.1185E+02
     13.541  0.1324E+00  0.1187E+02
     13.678  0.1407E+00  0.1189E+02
     13.815  0.1185E+00  0.1190E+02
     13.951  0.9390E-01  0.1191E+02
     14.088  0.8865E-01  0.1193E+02
     14.225  0.1011E+00  0.1194E+02
     14.362  0.8737E-01  0.1195E+02
     14.499  0.7635E-01  0.1196E+02
     14.636  0.5456E-01  0.1197E+02
     14.773  0.2299E-01  0.1197E+02
     14.910  0.8717E-01  0.1199E+02
     15.047  0.2850E+00  0.1202E+02
     15.184  0.4321E+00  0.1208E+02
     15.321  0.4328E+00  0.1214E+02
     15.458  0.3875E+00  0.1220E+02
     15.595  0.3507E+00  0.1224E+02
     15.732  0.3462E+00  0.1229E+02
     15.868  0.3270E+00  0.1234E+02
     16.005  0.2960E+00  0.1238E+02
     16.142  0.2717E+00  0.1241E+02
     16.279  0.2588E+00  0.1245E+02
     16.416  0.2670E+00  0.1249E+02
     16.553  0.2657E+00  0.1252E+02
     16.690  0.2611E+00  0.1256E+02
     16.827  0.2405E+00  0.1259E+02
     16.964  0.2225E+00  0.1262E+02
     17.101  0.2357E+00  0.1265E+02
     17.238  0.2416E+00  0.1269E+02
     17.375  0.2360E+00  0.1272E+02
     17.512  0.2263E+00  0.1275E+02
     17.649  0.2106E+00  0.1278E+02
     17.786  0.2207E+00  0.1281E+02
     17.922  0.2280E+00  0.1284E+02
     18.059  0.2118E+00  0.1287E+02
     18.196  0.2305E+00  0.1290E+02
     18.333  0.2587E+00  0.1294E+02
     18.470  0.3123E+00  0.1298E+02
     18.607  0.2924E+00  0.1302E+02
     18.744  0.2583E+00  0.1305E+02
     18.881  0.3162E+00  0.1310E+02
     19.018  0.3787E+00  0.1315E+02
     19.155  0.3650E+00  0.1320E+02
     19.292  0.3234E+00  0.1324E+02
     19.429  0.3803E+00  0.1330E+02
     19.566  0.4664E+00  0.1336E+02
     19.703  0.4243E+00  0.1342E+02
     19.839  0.3247E+00  0.1346E+02
     19.976  0.2900E+00  0.1350E+02
     20.113  0.3528E+00  0.1355E+02
     20.250  0.4014E+00  0.1361E+02
     20.387  0.3821E+00  0.1366E+02
     20.524  0.3761E+00  0.1371E+02
     20.661  0.3474E+00  0.1376E+02
     20.798  0.2914E+00  0.1380E+02
     20.935  0.3081E+00  0.1384E+02
     21.072  0.3673E+00  0.1389E+02
     21.209  0.3369E+00  0.1394E+02
     21.346  0.3549E+00  0.1398E+02
     21.483  0.3622E+00  0.1403E+02
     21.620  0.2947E+00  0.1407E+02
     21.756  0.2784E+00  0.1411E+02
     21.893  0.3049E+00  0.1415E+02
     22.030  0.3389E+00  0.1420E+02
     22.167  0.3377E+00  0.1425E+02
     22.304  0.3256E+00  0.1429E+02
     22.441  0.3031E+00  0.1433E+02
     22.578  0.2522E+00  0.1437E+02
     22.715  0.3043E+00  0.1441E+02
     22.852  0.3371E+00  0.1446E+02
     22.989  0.2623E+00  0.1449E+02
     23.126  0.2451E+00  0.1452E+02
     23.263  0.3008E+00  0.1457E+02
     23.400  0.3146E+00  0.1461E+02
     23.537  0.2642E+00  0.1465E+02
     23.673  0.2290E+00  0.1468E+02
     23.810  0.2596E+00  0.1471E+02
     23.947  0.2691E+00  0.1475E+02
     24.084  0.2260E+00  0.1478E+02
     24.221  0.2555E+00  0.1481E+02
     24.358  0.2794E+00  0.1485E+02
     24.495  0.2463E+00  0.1489E+02
     24.632  0.2312E+00  0.1492E+02
     24.769  0.2345E+00  0.1495E+02
     24.906  0.2524E+00  0.1499E+02
     25.043  0.2175E+00  0.1501E+02
     25.180  0.1801E+00  0.1504E+02
     25.317  0.2546E+00  0.1507E+02
     25.454  0.2878E+00  0.1511E+02
     25.590  0.2148E+00  0.1514E+02
     25.727  0.1695E+00  0.1517E+02
     25.864  0.2072E+00  0.1519E+02
     26.001  0.2555E+00  0.1523E+02
     26.138  0.2232E+00  0.1526E+02
     26.275  0.1946E+00  0.1529E+02
     26.412  0.2030E+00  0.1531E+02
     26.549  0.1843E+00  0.1534E+02
     26.686  0.2048E+00  0.1537E+02
     26.823  0.2495E+00  0.1540E+02
     26.960  0.2223E+00  0.1543E+02
     27.097  0.1479E+00  0.1545E+02
     27.234  0.1595E+00  0.1547E+02
     27.371  0.2169E+00  0.1550E+02
     27.507  0.2261E+00  0.1554E+02
     27.644  0.2057E+00  0.1556E+02
     27.781  0.1718E+00  0.1559E+02
     27.918  0.1667E+00  0.1561E+02
     28.055  0.1927E+00  0.1564E+02
     28.192  0.2167E+00  0.1567E+02
     28.329  0.1978E+00  0.1569E+02
     28.466  0.1847E+00  0.1572E+02
     28.603  0.1852E+00  0.1574E+02
     28.740  0.1689E+00  0.1577E+02
     28.877  0.1504E+00  0.1579E+02
     29.014  0.1555E+00  0.1581E+02
     29.151  0.1524E+00  0.1583E+02
     29.288  0.1125E+00  0.1585E+02
     29.425  0.8843E-01  0.1586E+02
     29.561  0.1130E+00  0.1587E+02
     29.698  0.1492E+00  0.1589E+02
     29.835  0.1114E+00  0.1591E+02
     29.972  0.4574E-01  0.1591E+02
     30.109  0.4551E-01  0.1592E+02
     30.246  0.7739E-01  0.1593E+02
     30.383  0.7171E-01  0.1594E+02
     30.520  0.4778E-01  0.1595E+02
     30.657  0.3865E-01  0.1595E+02
     30.794  0.4045E-01  0.1596E+02
     30.931  0.2515E-01  0.1596E+02
     31.068  0.2198E-01  0.1597E+02
     31.205  0.4332E-01  0.1597E+02
     31.342  0.4109E-01  0.1598E+02
     31.478  0.1655E-01  0.1598E+02
     31.615  0.1293E-02  0.1598E+02
     31.752  0.4143E-02  0.1598E+02
     31.889  0.1860E-01  0.1598E+02
     32.026  0.3010E-01  0.1599E+02
     32.163  0.1581E-01  0.1599E+02
     32.300  0.1198E-02  0.1599E+02
     32.437  0.3490E-02  0.1599E+02
     32.574  0.4225E-02  0.1599E+02
     32.711  0.6889E-02  0.1599E+02
     32.848  0.1688E-01  0.1599E+02
     32.985  0.1149E-01  0.1599E+02
     33.122  0.2362E-02  0.1599E+02
     33.259  0.2524E-03  0.1599E+02
     33.395 -0.1943E-03  0.1599E+02
     33.532  0.5500E-02  0.1600E+02
     33.669  0.1175E-01  0.1600E+02
     33.806  0.5669E-02  0.1600E+02
     33.943 -0.2316E-03  0.1600E+02
     34.080 -0.6467E-03  0.1600E+02
     34.217  0.1174E-02  0.1600E+02
     34.354  0.5344E-02  0.1600E+02
     34.491  0.4540E-02  0.1600E+02
     34.628  0.4871E-03  0.1600E+02
     34.765 -0.2668E-03  0.1600E+02
     34.902  0.1043E-02  0.1600E+02
     35.039  0.1966E-02  0.1600E+02
     35.176  0.7768E-03  0.1600E+02
     35.312 -0.6416E-04  0.1600E+02
     35.449 -0.5008E-04  0.1600E+02
     35.586 -0.4713E-05  0.1600E+02
     35.723 -0.1394E-06  0.1600E+02
     35.860 -0.1472E-08  0.1600E+02
     35.997 -0.5787E-11  0.1600E+02
     36.134 -0.8633E-14  0.1600E+02
     36.271 -0.4865E-17  0.1600E+02
     36.408  0.0000E+00  0.1600E+02
     36.545  0.0000E+00  0.1600E+02
     36.682  0.0000E+00  0.1600E+02
     36.819  0.0000E+00  0.1600E+02
     36.956  0.0000E+00  0.1600E+02
