    1    1    1    1
  0.1026591E+02  0.2439518E-09  0.2439518E-09  0.2439518E-09  0.5000000E-15
  1.000000000000000E-004
  CAR 
 bcc Fe                                  
      8    770      8
 
  0.2500000E-01  0.2500000E-01  0.2500000E-01  0.2500000E-03
    1       -2.123191   1.000000
    2        4.952892   1.000000
    3        4.971021   1.000000
    4        4.971021   1.000000
    5        6.524246   0.804465
    6        6.524246   0.804465
    7       29.972630   0.000000
    8       34.955618   0.000000
 
  0.7500000E-01  0.2500000E-01  0.2500000E-01  0.7500000E-03
    1       -1.981452   1.000000
    2        4.896663   1.000000
    3        5.009022   1.000000
    4        5.020316   1.000000
    5        6.481067   0.923049
    6        6.527814   0.792688
    7       29.823984   0.000000
    8       33.619860   0.000000
 
  0.1250000E+00  0.2500000E-01  0.2500000E-01  0.7500000E-03
    1       -1.634316   1.000000
    2        4.778046   1.000000
    3        5.100524   1.000000
    4        5.113537   1.000000
    5        6.424544   1.009524
    6        6.517832   0.824921
    7       29.082835   0.000000
    8       31.909872   0.000000
 
  0.1750000E+00  0.2500000E-01  0.2500000E-01  0.7500000E-03
    1       -1.102358   1.000000
    2        4.628611   1.000000
    3        5.208354   1.000000
    4        5.210644   1.000000
    5        6.386785   1.031456
    6        6.531696   0.779561
    7       27.288299   0.000000
    8       31.101982   0.000000
 
  0.2250000E+00  0.2500000E-01  0.2500000E-01  0.7500000E-03
    1       -0.426236   1.000000
    2        4.487287   1.000000
    3        5.259043   1.000000
    4        5.271395   1.000000
    5        6.431794   1.002430
    6        6.617649   0.435811
    7       24.983373   0.000000
    8       30.647649   0.000000
 
  0.2750000E+00  0.2500000E-01  0.2500000E-01  0.7500000E-03
    1        0.317937   1.000000
    2        4.447625   1.000000
    3        5.230466   1.000000
    4        5.246104   1.000000
    5        6.602274   0.500659
    6        6.801517  -0.024647
    7       22.649626   0.000000
    8       30.175751   0.000000
 
  0.3250000E+00  0.2500000E-01  0.2500000E-01  0.7500000E-03
    1        0.999009   1.000000
    2        4.624892   1.000000
    3        5.142582   1.000000
    4        5.156691   1.000000
    5        6.854654  -0.035264
    6        7.051137  -0.003369
    7       20.402789   0.000000
    8       29.668007   0.000000
 
  0.3750000E+00  0.2500000E-01  0.2500000E-01  0.7500000E-03
    1        1.467838   1.000000
    2        5.036304   1.000000
    3        5.050689   1.000000
    4        5.123318   1.000000
    5        7.129859  -0.000614
    6        7.313836  -0.000003
    7       18.325663   0.000000
    8       29.190917   0.000000
 
  0.4250000E+00  0.2500000E-01  0.2500000E-01  0.7500000E-03
    1        1.696175   1.000000
    2        4.944039   1.000000
    3        4.961380   1.000000
    4        5.860166   1.000001
    5        7.371886  -0.000000
    6        7.551254  -0.000000
    7       16.549413   0.000000
    8       28.815129   0.000000
 
  0.4750000E+00  0.2500000E-01  0.2500000E-01  0.7500000E-03
    1        1.777564   1.000000
    2        4.880897   1.000000
    3        4.905684   1.000000
    4        6.509335   0.850550
    5        7.533846  -0.000000
    6        7.736621  -0.000000
    7       15.300943   0.000000
    8       28.586016   0.000000
 
 -0.4750000E+00  0.2500000E-01  0.2500000E-01  0.7500000E-03
    1        1.792178   1.000000
    2        4.861120   1.000000
    3        4.892559   1.000000
    4        6.697242   0.144481
    5        7.596478  -0.000000
    6        7.786501  -0.000000
    7       14.942221   0.000000
    8       28.529666   0.000000
 
 -0.4250000E+00  0.2500000E-01  0.2500000E-01  0.7500000E-03
    1        1.760396   1.000000
    2        4.889271   1.000000
    3        4.927461   1.000000
    4        6.323416   1.031951
    5        7.552425  -0.000000
    6        7.626078  -0.000000
    7       15.636668   0.000000
    8       28.653701   0.000000
 
 -0.3750000E+00  0.2500000E-01  0.2500000E-01  0.7500000E-03
    1        1.641520   1.000000
    2        4.960642   1.000000
    3        4.999106   1.000000
    4        5.600809   1.000000
    5        7.371089  -0.000000
    6        7.407569  -0.000000
    7       17.097003   0.000000
    8       28.945860   0.000000
 
 -0.3250000E+00  0.2500000E-01  0.2500000E-01  0.7500000E-03
    1        1.340377   1.000000
    2        4.915939   1.000000
    3        5.063387   1.000000
    4        5.098077   1.000000
    5        7.082840  -0.001774
    6        7.189500  -0.000133
    7       18.992073   0.000000
    8       29.374326   0.000000
 
 -0.2750000E+00  0.2500000E-01  0.2500000E-01  0.7500000E-03
    1        0.788863   1.000000
    2        4.531575   1.000000
    3        5.171102   1.000000
    4        5.195158   1.000000
    5        6.790474  -0.017760
    6        6.940502  -0.018969
    7       21.136223   0.000000
    8       29.886371   0.000000
 
 -0.2250000E+00  0.2500000E-01  0.2500000E-01  0.7500000E-03
    1        0.068992   1.000000
    2        4.441523   1.000000
    3        5.249719   1.000000
    4        5.261933   1.000000
    5        6.547659   0.722400
    6        6.716749   0.093141
    7       23.420824   0.000000
    8       30.402021   0.000000
 
 -0.1750000E+00  0.2500000E-01  0.2500000E-01  0.7500000E-03
    1       -0.663993   1.000000
    2        4.525314   1.000000
    3        5.253988   1.000000
    4        5.258828   1.000000
    5        6.408386   1.021755
    6        6.572134   0.626577
    7       25.764341   0.000000
    8       30.862631   0.000000
 
 -0.1250000E+00  0.2500000E-01  0.2500000E-01  0.7500000E-03
    1       -1.298262   1.000000
    2        4.675456   1.000000
    3        5.175690   1.000000
    4        5.182143   1.000000
    5        6.389413   1.030630
    6        6.524005   0.805249
    7       27.965076   0.000000
    8       31.353707   0.000000
 
 -0.7500000E-01  0.2500000E-01  0.2500000E-01  0.7500000E-03
    1       -1.771885   1.000000
    2        4.820087   1.000000
    3        5.070731   1.000000
    4        5.078018   1.000000
    5        6.436939   0.996742
    6        6.526096   0.798391
    7       29.451300   0.000000
    8       32.439064   0.000000
 
 -0.2500000E-01  0.2500000E-01  0.2500000E-01  0.7500000E-03
    1       -2.052093   1.000000
    2        4.919180   1.000000
    3        4.995005   1.000000
    4        4.996881   1.000000
    5        6.490849   0.900231
    6        6.536791   0.761854
    7       29.912450   0.000000
    8       34.338768   0.000000
 
  0.7500000E-01  0.7500000E-01  0.2500000E-01  0.7500000E-03
    1       -1.911040   1.000000
    2        4.849140   1.000000
    3        5.046670   1.000000
    4        5.048486   1.000000
    5        6.425516   1.008633
    6        6.561600   0.668840
    7       29.800196   0.000000
    8       33.583242   0.000000
 
  0.1250000E+00  0.7500000E-01  0.2500000E-01  0.1500000E-02
    1       -1.633589   1.000000
    2        4.737295   1.000000
    3        5.129391   1.000000
    4        5.139651   1.000000
    5        6.339539   1.034363
    6        6.587077   0.564755
    7       29.427324   0.000000
    8       32.001998   0.000000
 
  0.1750000E+00  0.7500000E-01  0.2500000E-01  0.1500000E-02
    1       -1.164643   1.000000
    2        4.589492   1.000000
    3        5.235816   1.000000
    4        5.245322   1.000000
    5        6.265107   1.019134
    6        6.620897   0.422227
    7       28.058148   0.000000
    8       30.767129   0.000000
 
  0.2250000E+00  0.7500000E-01  0.2500000E-01  0.1500000E-02
    1       -0.536456   1.000000
    2        4.438155   1.000000
    3        5.285524   1.000000
    4        5.330768   1.000000
    5        6.277006   1.021816
    6        6.706303   0.119452
    7       25.865248   0.000000
    8       30.220097   0.000000
 
  0.2750000E+00  0.7500000E-01  0.2500000E-01  0.1500000E-02
    1        0.190154   1.000000
    2        4.344273   1.000000
    3        5.238249   1.000000
    4        5.338713   1.000000
    5        6.444724   0.987054
    6        6.876111  -0.032863
    7       23.511811   0.000000
    8       29.781176   0.000000
 
  0.3250000E+00  0.7500000E-01  0.2500000E-01  0.1500000E-02
    1        0.904787   1.000000
    2        4.408113   1.000000
    3        5.122115   1.000000
    4        5.272727   1.000000
    5        6.739044   0.046178
    6        7.116704  -0.000837
    7       21.218860   0.000000
    8       29.339191   0.000000
 
  0.3750000E+00  0.7500000E-01  0.2500000E-01  0.1500000E-02
    1        1.452246   1.000000
    2        4.729189   1.000000
    3        4.999495   1.000000
    4        5.175741   1.000000
    5        7.083426  -0.001752
    6        7.399425  -0.000000
    7       19.067298   0.000000
    8       28.913681   0.000000
 
  0.4250000E+00  0.7500000E-01  0.2500000E-01  0.1500000E-02
    1        1.748845   1.000000
    2        4.856798   1.000000
    3        5.077205   1.000000
    4        5.336145   1.000000
    5        7.381990  -0.000000
    6        7.744499  -0.000000
    7       17.151059   0.000000
    8       28.547981   0.000000
 
  0.4750000E+00  0.7500000E-01  0.2500000E-01  0.1500000E-02
    1        1.864679   1.000000
    2        4.784776   1.000000
    3        5.007038   1.000000
    4        5.901930   1.000004
    5        7.548697  -0.000000
    6        8.165385  -0.000000
    7       15.665402   0.000000
    8       28.284630   0.000000
 
 -0.4750000E+00  0.7500000E-01  0.2500000E-01  0.1500000E-02
    1        1.895800   1.000000
    2        4.758351   1.000000
    3        4.971777   1.000000
    4        6.182999   1.005768
    5        7.587006  -0.000000
    6        8.452891  -0.000000
    7       14.951007   0.000000
    8       28.154875   0.000000
 
 -0.4250000E+00  0.7500000E-01  0.2500000E-01  0.1500000E-02
    1        1.882480   1.000000
    2        4.781342   1.000000
    3        4.981814   1.000000
    4        6.054860   1.000375
    5        7.510812  -0.000000
    6        8.337411  -0.000000
    7       15.322922   0.000000
    8       28.162997   0.000000
 
 -0.3750000E+00  0.7500000E-01  0.2500000E-01  0.1500000E-02
    1        1.804502   1.000000
    2        4.850028   1.000000
    3        5.036226   1.000000
    4        5.559805   1.000000
    5        7.325542  -0.000002
    6        7.982375  -0.000000
    7       16.599139   0.000000
    8       28.299519   0.000000
 
 -0.3250000E+00  0.7500000E-01  0.2500000E-01  0.1500000E-02
    1        1.581101   1.000000
    2        4.906343   1.000000
    3        4.987634   1.000000
    4        5.125773   1.000000
    5        7.051920  -0.003319
    6        7.621779  -0.000000
    7       18.395824   0.000000
    8       28.542432   0.000000
 
 -0.2750000E+00  0.7500000E-01  0.2500000E-01  0.1500000E-02
    1        1.116320   1.000000
    2        4.501196   1.000000
    3        5.087047   1.000000
    4        5.230369   1.000000
    5        6.743090   0.038980
    6        7.295897  -0.000005
    7       20.485004   0.000000
    8       28.867221   0.000000
 
 -0.2250000E+00  0.7500000E-01  0.2500000E-01  0.1500000E-02
    1        0.439018   1.000000
    2        4.356978   1.000000
    3        5.202609   1.000000
    4        5.321488   1.000000
    5        6.463130   0.958646
    6        7.006917  -0.007431
    7       22.739698   0.000000
    8       29.242460   0.000000
 
 -0.1750000E+00  0.7500000E-01  0.2500000E-01  0.1500000E-02
    1       -0.300039   1.000000
    2        4.409997   1.000000
    3        5.266731   1.000000
    4        5.344428   1.000000
    5        6.285851   1.023857
    6        6.778700  -0.008033
    7       25.079436   0.000000
    8       29.650109   0.000000
 
 -0.1250000E+00  0.7500000E-01  0.2500000E-01  0.1500000E-02
    1       -0.970500   1.000000
    2        4.554268   1.000000
    3        5.248963   1.000000
    4        5.268781   1.000000
    5        6.262248   1.018508
    6        6.643195   0.331418
    7       27.367712   0.000000
    8       30.147846   0.000000
 
 -0.7500000E-01  0.7500000E-01  0.2500000E-01  0.1500000E-02
    1       -1.497515   1.000000
    2        4.708106   1.000000
    3        5.147833   1.000000
    4        5.165556   1.000000
    5        6.334346   1.033705
    6        6.578271   0.601404
    7       29.045399   0.000000
    8       31.152953   0.000000
 
 -0.2500000E-01  0.7500000E-01  0.2500000E-01  0.1500000E-02
    1       -1.841213   1.000000
    2        4.834724   1.000000
    3        5.053859   1.000000
    4        5.068598   1.000000
    5        6.426536   1.007679
    6        6.547462   0.723136
    7       29.657240   0.000000
    8       32.816546   0.000000
 
  0.1250000E+00  0.1250000E+00  0.2500000E-01  0.7500000E-03
    1       -1.429149   1.000000
    2        4.616013   1.000000
    3        5.226784   1.000000
    4        5.228015   1.000000
    5        6.216607   1.009984
    6        6.645795   0.321206
    7       29.468232   0.000000
    8       31.961092   0.000000
 
  0.1750000E+00  0.1250000E+00  0.2500000E-01  0.1500000E-02
    1       -1.032334   1.000000
    2        4.459212   1.000000
    3        5.339245   1.000000
    4        5.355067   1.000000
    5        6.105926   1.001252
    6        6.703101   0.128065
    7       28.804034   0.000000
    8       30.432284   0.000000
 
  0.2250000E+00  0.1250000E+00  0.2500000E-01  0.1500000E-02
    1       -0.468466   1.000000
    2        4.295048   1.000000
    3        5.370341   1.000000
    4        5.472648   1.000000
    5        6.117446   1.001609
    6        6.792704  -0.019316
    7       26.852922   0.000000
    8       29.632092   0.000000
 
  0.2750000E+00  0.1250000E+00  0.2500000E-01  0.1500000E-02
    1        0.214725   1.000000
    2        4.159597   1.000000
    3        5.259529   1.000000
    4        5.515573   1.000000
    5        6.342299   1.034659
    6        6.947222  -0.017516
    7       24.499537   0.000000
    8       29.157928   0.000000
 
  0.3250000E+00  0.1250000E+00  0.2500000E-01  0.1500000E-02
    1        0.929784   1.000000
    2        4.123678   1.000000
    3        5.083613   1.000000
    4        5.481429   1.000000
    5        6.720332   0.084750
    6        7.178901  -0.000178
    7       22.163708   0.000000
    8       28.731823   0.000000
 
  0.3750000E+00  0.1250000E+00  0.2500000E-01  0.1500000E-02
    1        1.534918   1.000000
    2        4.268415   1.000000
    3        4.920829   1.000000
    4        5.397576   1.000000
    5        7.149857  -0.000376
    6        7.494589  -0.000000
    7       19.937526   0.000000
    8       28.313411   0.000000
 
  0.4250000E+00  0.1250000E+00  0.2500000E-01  0.1500000E-02
    1        1.904308   1.000000
    2        4.522340   1.000000
    3        4.912638   1.000000
    4        5.301341   1.000000
    5        7.446724  -0.000000
    6        8.014204  -0.000000
    7       17.896448   0.000000
    8       27.911063   0.000000
 
  0.4750000E+00  0.1250000E+00  0.2500000E-01  0.1500000E-02
    1        2.063657   1.000000
    2        4.540837   1.000000
    3        5.203841   1.000000
    4        5.280449   1.000000
    5        7.581497  -0.000000
    6        8.693774  -0.000000
    7       16.185891   0.000000
    8       27.531515   0.000000
 
 -0.4750000E+00  0.1250000E+00  0.2500000E-01  0.1500000E-02
    1        2.117125   1.000000
    2        4.517829   1.000000
    3        5.159024   1.000000
    4        5.576156   1.000000
    5        7.594515  -0.000000
    6        9.270781  -0.000000
    7       15.107041   0.000000
    8       27.216054   0.000000
 
 -0.4250000E+00  0.1250000E+00  0.2500000E-01  0.1500000E-02
    1        2.123578   1.000000
    2        4.540339   1.000000
    3        5.142498   1.000000
    4        5.601167   1.000000
    5        7.489878  -0.000000
    6        9.325876  -0.000000
    7       15.114296   0.000000
    8       26.970822   0.000000
 
 -0.3750000E+00  0.1250000E+00  0.2500000E-01  0.1500000E-02
    1        2.082728   1.000000
    2        4.615982   1.000000
    3        5.167715   1.000000
    4        5.316301   1.000000
    5        7.283470  -0.000008
    6        8.879938  -0.000000
    7       16.205932   0.000000
    8       26.829187   0.000000
 
 -0.3250000E+00  0.1250000E+00  0.2500000E-01  0.1500000E-02
    1        1.933085   1.000000
    2        4.708856   1.000000
    3        4.856712   1.000000
    4        5.247869   1.000000
    5        6.998010  -0.008581
    6        8.339732  -0.000000
    7       17.921743   0.000000
    8       26.813583   0.000000
 
 -0.2750000E+00  0.1250000E+00  0.2500000E-01  0.1500000E-02
    1        1.565214   1.000000
    2        4.389205   1.000000
    3        4.916344   1.000000
    4        5.350505   1.000000
    5        6.667910   0.238708
    6        7.862721  -0.000000
    7       19.964103   0.000000
    8       26.918459   0.000000
 
 -0.2250000E+00  0.1250000E+00  0.2500000E-01  0.1500000E-02
    1        0.951544   1.000000
    2        4.218750   1.000000
    3        5.075941   1.000000
    4        5.462256   1.000000
    5        6.350223   1.035265
    6        7.450690  -0.000000
    7       22.187547   0.000000
    8       27.139989   0.000000
 
 -0.1750000E+00  0.1250000E+00  0.2500000E-01  0.1500000E-02
    1        0.225661   1.000000
    2        4.251088   1.000000
    3        5.207446   1.000000
    4        5.517138   1.000000
    5        6.126939   1.001967
    6        7.101464  -0.001183
    7       24.508450   0.000000
    8       27.464385   0.000000
 
 -0.1250000E+00  0.1250000E+00  0.2500000E-01  0.1500000E-02
    1       -0.465257   1.000000
    2        4.388213   1.000000
    3        5.272989   1.000000
    4        5.428078   1.000000
    5        6.110942   1.001397
    6        6.836763  -0.034992
    7       26.775912   0.000000
    8       27.991930   0.000000
 
 -0.7500000E-01  0.1250000E+00  0.2500000E-01  0.1500000E-02
    1       -1.032992   1.000000
    2        4.554276   1.000000
    3        5.250155   1.000000
    4        5.273804   1.000000
    5        6.224380   1.011211
    6        6.662530   0.257978
    7       28.039825   0.000000
    8       29.531434   0.000000
 
 -0.2500000E-01  0.1250000E+00  0.2500000E-01  0.1500000E-02
    1       -1.430737   1.000000
    2        4.699862   1.000000
    3        5.157004   1.000000
    4        5.168769   1.000000
    5        6.355843   1.035448
    6        6.557276   0.685770
    7       28.602152   0.000000
    8       31.338009   0.000000
 
  0.1750000E+00  0.1750000E+00  0.2500000E-01  0.7500000E-03
    1       -0.714275   1.000000
    2        4.287502   1.000000
    3        5.496703   1.000000
    4        5.503973   1.000000
    5        5.947080   1.000018
    6        6.773974  -0.003375
    7       29.032543   0.000000
    8       30.383776   0.000000
 
  0.2250000E+00  0.1750000E+00  0.2500000E-01  0.1500000E-02
    1       -0.231266   1.000000
    2        4.104321   1.000000
    3        5.515769   1.000000
    4        5.670673   1.000000
    5        5.955109   1.000023
    6        6.857861  -0.035064
    7       27.909415   0.000000
    8       28.988724   0.000000
 
  0.2750000E+00  0.1750000E+00  0.2500000E-01  0.1500000E-02
    1        0.378579   1.000000
    2        3.942093   1.000000
    3        5.325894   1.000000
    4        5.764574   1.000000
    5        6.266728   1.019493
    6        7.000395  -0.008261
    7       25.601537   0.000000
    8       28.401948   0.000000
 
  0.3250000E+00  0.1750000E+00  0.2500000E-01  0.1500000E-02
    1        1.048137   1.000000
    2        3.836647   1.000000
    3        5.095353   1.000000
    4        5.768480   1.000000
    5        6.727993   0.067895
    6        7.219802  -0.000057
    7       23.225521   0.000000
    8       27.918905   0.000000
 
  0.3750000E+00  0.1750000E+00  0.2500000E-01  0.1500000E-02
    1        1.665349   1.000000
    2        3.848343   1.000000
    3        4.892908   1.000000
    4        5.705534   1.000000
    5        7.218885  -0.000059
    6        7.575783  -0.000000
    7       20.936147   0.000000
    8       27.454819   0.000000
 
  0.4250000E+00  0.1750000E+00  0.2500000E-01  0.1500000E-02
    1        2.096647   1.000000
    2        3.993491   1.000000
    3        4.788057   1.000000
    4        5.611991   1.000000
    5        7.493348  -0.000000
    6        8.260841  -0.000000
    7       18.790604   0.000000
    8       26.923763   0.000000
 
  0.4750000E+00  0.1750000E+00  0.2500000E-01  0.1500000E-02
    1        2.313878   1.000000
    2        4.122102   1.000000
    3        4.886386   1.000000
    4        5.517510   1.000000
    5        7.610515  -0.000000
    6        9.153107  -0.000000
    7       16.888863   0.000000
    8       26.344460   0.000000
 
 -0.4750000E+00  0.1750000E+00  0.2500000E-01  0.1500000E-02
    1        2.406681   1.000000
    2        4.151720   1.000000
    3        5.097871   1.000000
    4        5.441261   1.000000
    5        7.607300  -0.000000
    6       10.027544  -0.000000
    7       15.454832   0.000000
    8       25.774800   0.000000
 
 -0.4250000E+00  0.1750000E+00  0.2500000E-01  0.1500000E-02
    1        2.445660   1.000000
    2        4.189928   1.000000
    3        5.180604   1.000000
    4        5.399505   1.000000
    5        7.488441  -0.000000
    6       10.392815  -0.000000
    7       15.020203   0.000000
    8       25.298341   0.000000
 
 -0.3750000E+00  0.1750000E+00  0.2500000E-01  0.1500000E-02
    1        2.445407   1.000000
    2        4.282199   1.000000
    3        5.021011   1.000000
    4        5.402756   1.000000
    5        7.267347  -0.000014
    6        9.951080  -0.000000
    7       15.902565   0.000000
    8       24.954883   0.000000
 
 -0.3250000E+00  0.1750000E+00  0.2500000E-01  0.1500000E-02
    1        2.365311   1.000000
    2        4.414784   1.000000
    3        4.674921   1.000000
    4        5.450140   1.000000
    5        6.967471  -0.013482
    6        9.231810  -0.000000
    7       17.554125   0.000000
    8       24.769103   0.000000
 
 -0.2750000E+00  0.1750000E+00  0.2500000E-01  0.1500000E-02
    1        2.099285   1.000000
    2        4.248502   1.000000
    3        4.659961   1.000000
    4        5.537843   1.000000
    5        6.621260   0.420714
    6        8.571991  -0.000000
    7       19.560434   0.000000
    8       24.740279   0.000000
 
 -0.2250000E+00  0.1750000E+00  0.2500000E-01  0.1500000E-02
    1        1.566997   1.000000
    2        4.076139   1.000000
    3        4.865876   1.000000
    4        5.657840   1.000000
    5        6.265595   1.019242
    6        8.009840  -0.000000
    7       21.750603   0.000000
    8       24.872886   0.000000
 
 -0.1750000E+00  0.1750000E+00  0.2500000E-01  0.1500000E-02
    1        0.873792   1.000000
    2        4.101675   1.000000
    3        5.063665   1.000000
    4        5.767994   1.000000
    5        5.969116   1.000036
    6        7.528251  -0.000000
    7       24.030328   0.000000
    8       25.174122   0.000000
 
 -0.1250000E+00  0.1750000E+00  0.2500000E-01  0.1500000E-02
    1        0.181329   1.000000
    2        4.232386   1.000000
    3        5.208721   1.000000
    4        5.603021   1.000000
    5        6.013962   1.000128
    6        7.125151  -0.000687
    7       25.416527   0.000000
    8       26.544679   0.000000
 
 -0.7500000E-01  0.1750000E+00  0.2500000E-01  0.1500000E-02
    1       -0.409714   1.000000
    2        4.397356   1.000000
    3        5.271093   1.000000
    4        5.394236   1.000000
    5        6.176241   1.005119
    6        6.816582  -0.030998
    7       25.955203   0.000000
    8       28.826530   0.000000
 
 -0.2500000E-01  0.1750000E+00  0.2500000E-01  0.1500000E-02
    1       -0.846694   1.000000
    2        4.547307   1.000000
    3        5.248699   1.000000
    4        5.261621   1.000000
    5        6.330213   1.033095
    6        6.606096   0.484494
    7       26.573516   0.000000
    8       30.695135   0.000000
 
  0.2250000E+00  0.2250000E+00  0.2500000E-01  0.7500000E-03
    1        0.155400   1.000000
    2        3.902588   1.000000
    3        5.622306   1.000000
    4        5.860677   1.000001
    5        5.927562   1.000010
    6        6.925536  -0.022349
    7       28.201968   0.000000
    8       29.079717   0.000000
 
  0.2750000E+00  0.2250000E+00  0.2500000E-01  0.1500000E-02
    1        0.657829   1.000000
    2        3.715212   1.000000
    3        5.458924   1.000000
    4        6.050606   1.000337
    5        6.219194   1.010382
    6        7.037157  -0.004385
    7       26.702153   0.000000
    8       27.573247   0.000000
 
  0.3250000E+00  0.2250000E+00  0.2500000E-01  0.1500000E-02
    1        1.223131   1.000000
    2        3.571419   1.000000
    3        5.239310   1.000000
    4        6.114843   1.001521
    5        6.719211   0.087340
    6        7.236868  -0.000035
    7       24.357063   0.000000
    8       26.987679   0.000000
 
  0.3750000E+00  0.2250000E+00  0.2500000E-01  0.1500000E-02
    1        1.772411   1.000000
    2        3.503304   1.000000
    3        5.031219   1.000000
    4        6.083013   1.000742
    5        7.257363  -0.000019
    6        7.615846  -0.000000
    7       22.044589   0.000000
    8       26.403493   0.000000
 
  0.4250000E+00  0.2250000E+00  0.2500000E-01  0.1500000E-02
    1        2.209233   1.000000
    2        3.539281   1.000000
    3        4.879371   1.000000
    4        5.997827   1.000082
    5        7.524726  -0.000000
    6        8.425794  -0.000000
    7       19.831723   0.000000
    8       25.679556   0.000000
 
  0.4750000E+00  0.2250000E+00  0.2500000E-01  0.1500000E-02
    1        2.483870   1.000000
    2        3.641944   1.000000
    3        4.829408   1.000000
    4        5.898132   1.000004
    5        7.637610  -0.000000
    6        9.482715  -0.000000
    7       17.789771   0.000000
    8       24.880912   0.000000
 
 -0.4750000E+00  0.2250000E+00  0.2500000E-01  0.1500000E-02
    1        2.646474   1.000000
    2        3.725145   1.000000
    3        4.872712   1.000000
    4        5.805022   1.000000
    5        7.629340  -0.000000
    6       10.628659  -0.000000
    7       16.060278   0.000000
    8       24.140652   0.000000
 
 -0.4250000E+00  0.2250000E+00  0.2500000E-01  0.1500000E-02
    1        2.756487   1.000000
    2        3.790988   1.000000
    3        4.894527   1.000000
    4        5.735043   1.000000
    5        7.503611  -0.000000
    6       11.437406  -0.000000
    7       15.090643   0.000000
    8       23.514140   0.000000
 
 -0.3750000E+00  0.2250000E+00  0.2500000E-01  0.1500000E-02
    1        2.824567   1.000000
    2        3.897684   1.000000
    3        4.776980   1.000000
    4        5.701609   1.000000
    5        7.277748  -0.000010
    6       11.144792  -0.000000
    7       15.665527   0.000000
    8       23.038856   0.000000
 
 -0.3250000E+00  0.2250000E+00  0.2500000E-01  0.1500000E-02
    1        2.820190   1.000000
    2        4.069863   1.000000
    3        4.496895   1.000000
    4        5.709556   1.000000
    5        6.975267  -0.012089
    6       10.265333  -0.000000
    7       17.266015   0.000000
    8       22.732879   0.000000
 
 -0.2750000E+00  0.2250000E+00  0.2500000E-01  0.1500000E-02
    1        2.653327   1.000000
    2        4.128177   1.000000
    3        4.344738   1.000000
    4        5.755494   1.000000
    5        6.633629   0.369751
    6        9.405357  -0.000000
    7       19.234944   0.000000
    8       22.610960   0.000000
 
 -0.2250000E+00  0.2250000E+00  0.2500000E-01  0.1500000E-02
    1        2.209965   1.000000
    2        3.981733   1.000000
    3        4.594778   1.000000
    4        5.824053   1.000000
    5        6.295648   1.026117
    6        8.669343  -0.000000
    7       21.339409   0.000000
    8       22.723545   0.000000
 
 -0.1750000E+00  0.2250000E+00  0.2500000E-01  0.1500000E-02
    1        1.568284   1.000000
    2        4.013093   1.000000
    3        4.853099   1.000000
    4        5.817945   1.000000
    5        6.085988   1.000796
    6        8.039912  -0.000000
    7       22.665725   0.000000
    8       23.890772   0.000000
 
 -0.1250000E+00  0.2250000E+00  0.2500000E-01  0.1500000E-02
    1        0.900239   1.000000
    2        4.138891   1.000000
    3        5.067333   1.000000
    4        5.608770   1.000000
    5        6.153747   1.003371
    6        7.500963  -0.000000
    7       23.102311   0.000000
    8       26.137329   0.000000
 
 -0.7500000E-01  0.2250000E+00  0.2500000E-01  0.1500000E-02
    1        0.312668   1.000000
    2        4.292834   1.000000
    3        5.206032   1.000000
    4        5.413798   1.000000
    5        6.286853   1.024089
    6        7.059625  -0.002854
    7       23.604416   0.000000
    8       28.401789   0.000000
 
 -0.2500000E-01  0.2250000E+00  0.2500000E-01  0.1500000E-02
    1       -0.139017   1.000000
    2        4.426941   1.000000
    3        5.260656   1.000000
    4        5.297186   1.000000
    5        6.419924   1.013508
    6        6.735991   0.051874
    7       24.232895   0.000000
    8       30.249507   0.000000
 
  0.2750000E+00  0.2750000E+00  0.2500000E-01  0.7500000E-03
    1        1.018744   1.000000
    2        3.505058   1.000000
    3        5.592309   1.000000
    4        6.277411   1.021909
    5        6.337635   1.034137
    6        7.091024  -0.001488
    7       26.748335   0.000000
    8       27.368215   0.000000
 