hcp Ru                                  
   2.70590000000000     
     1.000000    0.000000    0.000000
    -0.500000    0.866000    0.000000
     0.000000    0.000000    1.582300
   Ru
     2
Direct
  0.000000  0.000000  0.000000
  0.666670  0.333330  0.500000
 
   20   20   32
  81.045      77.457      68.211      56.549      45.012      34.455      25.067      17.526      12.698      10.528    
  9.9593      10.527      12.698      17.527      25.068      34.455      45.011      56.548      68.211      77.457    
  77.453      77.414      70.988      60.660      49.345      38.615      28.851      20.497      14.451      11.181    
  9.9888      9.9879      11.180      14.450      20.487      28.831      38.602      49.371      60.735      71.075    
  68.192      71.018      68.135      60.652      50.916      40.848      31.299      22.768      16.063      11.899    
  10.049      9.5341      10.049      11.901      16.064      22.754      31.272      40.833      50.945      60.717    
  56.504      60.732      60.742      56.532      49.364      40.841      32.115      23.953      17.170      12.535    
  10.144      9.2061      9.2053      10.145      12.544      17.181      23.955      32.097      40.806      49.326    
  44.941      49.441      51.100      49.506      45.025      38.584      31.226      23.908      17.545      12.912    
  10.250      9.0131      8.6261      9.0106      10.250      12.922      17.571      23.937      31.227      38.534    
  34.375      38.699      41.068      41.088      38.736      34.385      28.730      22.664      17.135      12.918    
  10.306      8.9338      8.3028      8.3015      8.9268      10.295      12.917      17.161      22.709      28.760    
  24.999      28.899      31.482      32.372      31.454      28.848      24.942      20.398      16.032      12.556    
  10.271      8.9356      8.1971      7.9698      8.1983      8.9250      10.244      12.529      16.032      20.434    
  17.483      20.504      22.866      24.130      24.103      22.806      20.458      17.482      14.458      11.930    
  10.162      9.0062      8.2873      7.9624      7.9687      8.2988      9.0054      10.135      11.884      14.419    
  12.675      14.430      16.077      17.233      17.637      17.218      16.078      14.468      12.733      11.202    
  10.037      9.1713      8.5948      8.2867      8.1954      8.2995      8.6208      9.1975      10.038      11.163    
  10.514      11.148      11.862      12.508      12.899      12.911      12.544      11.911      11.186      10.515    
  9.9385      9.4763      9.1712      9.0055      8.9336      8.9299      9.0073      9.1982      9.5244      9.9763    
  9.9482      9.9525      9.9913      10.070      10.170      10.227      10.197      10.098      9.9900      9.9131    
  9.8919      9.9385      10.037      10.162      10.270      10.302      10.243      10.134      10.038      9.9773    
  10.514      9.9514      9.4692      9.1127      8.8970      8.8059      8.8098      8.8955      9.0855      9.4205    
  9.9128      10.515      11.203      11.931      12.556      12.915      12.903      12.521      11.882      11.165    
  12.675      11.146      9.9893      9.1115      8.4970      8.1472      8.0323      8.1337      8.4703      9.0853    
  9.9894      11.185      12.732      14.459      16.035      17.134      17.536      17.149      16.034      14.422    
  17.482      14.427      11.862      10.071      8.8948      8.1460      7.7904      7.7838      8.1339      8.8955    
  10.098      11.909      14.466      17.482      20.401      22.668      23.903      23.930      22.727      20.447    
  24.999      20.491      16.075      12.516      10.170      8.7994      8.0339      7.7910      8.0331      8.8105    
  10.197      12.542      16.074      20.454      24.943      28.735      31.227      32.098      31.255      28.785    
  34.376      28.875      22.849      17.244      12.912      10.217      8.8008      8.1477      8.1492      8.8080    
  10.229      12.913      17.217      22.802      28.844      34.386      38.587      40.833      40.813      38.550    
  44.944      38.686      31.454      24.136      17.671      12.917      10.175      8.8987      8.5005      8.9008    
  10.175      12.906      17.645      24.107      31.454      38.735      45.026      49.363      50.898      49.298    
  56.507      49.472      41.062      32.371      24.153      17.263      12.529      10.079      9.1176      9.1185    
  10.077      12.520      17.251      24.152      32.390      41.098      49.511      56.534      60.645      60.636    
  68.194      60.818      51.149      41.089      31.499      22.893      16.105      11.878      9.9991      9.4772    
  10.000      11.876      16.104      22.906      31.527      41.105      51.122      60.752      68.137      70.980    
  77.454      71.116      60.835      49.517      38.753      28.945      20.543      14.456      11.162      9.9620    
  9.9629      11.162      14.458      20.552      28.965      38.765      49.490      60.759      71.029      77.415    
  77.449      74.160      65.629      54.726      43.731      33.498      24.353      17.053      12.427      10.359    
  9.8062      10.358      12.427      17.053      24.353      33.498      43.730      54.726      65.629      74.160    
  74.157      74.120      68.207      58.609      47.915      37.579      28.072      19.951      14.128      11.006    
  9.8587      9.8577      11.005      14.127      19.943      28.053      37.567      47.940      58.679      68.288    
  65.614      68.224      65.561      58.603      49.427      39.769      30.490      22.183      15.700      11.713    
  9.9435      9.4410      9.9429      11.715      15.701      22.170      30.464      39.755      49.453      58.664    
  54.689      58.648      58.658      54.715      47.936      39.764      31.300      23.355      16.785      12.338    
  10.055      9.1452      9.1445      10.056      12.345      16.796      23.356      31.283      39.731      47.900    
  43.670      47.959      49.532      48.020      43.748      37.554      30.423      23.314      17.155      12.708    
  10.169      8.9755      8.6004      8.9732      10.168      12.717      17.180      23.340      30.424      37.507    
  33.427      37.601      39.879      39.898      37.636      33.437      27.962      22.087      16.753      12.714    
  10.227      8.9078      8.2989      8.2978      8.9015      10.216      12.712      16.778      22.130      27.990    
  24.292      28.056      30.550      31.410      30.524      28.008      24.239      19.861      15.672      12.357    
  10.188      8.9096      8.2009      7.9832      8.2021      8.8998      10.163      12.332      15.673      19.895    
  17.014      19.900      22.163      23.377      23.352      22.108      19.857      17.013      14.135      11.742    
  10.072      8.9692      8.2847      7.9764      7.9822      8.2953      8.9684      10.047      11.699      14.099    
  12.406      14.056      15.611      16.704      17.088      16.690      15.611      14.092      12.460      11.027    
  9.9321      9.1128      8.5714      8.2842      8.1994      8.2960      8.5956      9.1373      9.9325      10.990    
  10.346      10.929      11.586      12.183      12.545      12.556      12.216      11.632      10.965      10.347    
  9.8116      9.3869      9.1127      8.9686      8.9079      8.9044      8.9701      9.1380      9.4320      9.8471    
  9.7959      9.7810      9.8043      9.8663      9.9504      10.000      9.9761      9.8927      9.8030      9.7439    
  9.7431      9.8116      9.9323      10.072      10.187      10.223      10.162      10.046      9.9333      9.8481    
  10.346      9.7799      9.2978      8.9432      8.7288      8.6377      8.6414      8.7275      8.9178      9.2521    
  9.7437      10.347      11.027      11.743      12.357      12.711      12.700      12.325      11.698      10.992    
  12.406      10.927      9.8023      8.9421      8.3434      8.0037      7.8923      7.9912      8.3185      8.9176    
  9.8024      10.964      12.460      14.137      15.675      16.754      17.148      16.768      15.675      14.102    
  17.014      14.053      11.586      9.8667      8.7268      8.0026      7.6598      7.6537      7.9913      8.7274    
  9.8921      11.630      14.090      17.013      19.865      22.092      23.311      23.336      22.147      19.907    
  24.292      19.888      15.608      12.190      9.9505      8.6317      7.8939      7.6604      7.8930      8.6420    
  9.9762      12.215      15.608      19.854      24.239      27.967      30.426      31.287      30.452      28.014    
  33.428      28.033      22.146      16.714      12.556      9.9910      8.6329      8.0042      8.0055      8.6396    
  10.002      12.558      16.689      22.103      28.004      33.437      37.558      39.760      39.741      37.524    
  43.672      37.587      30.522      23.381      17.118      12.561      9.9547      8.7304      8.3467      8.7323    
  9.9547      12.551      17.093      23.354      30.521      37.633      43.750      47.937      49.414      47.877    
  54.692      47.986      39.870      31.405      23.396      16.731      12.201      9.8740      8.9477      8.9486    
  9.8729      12.193      16.720      23.395      31.423      39.903      48.022      54.717      58.599      58.591    
  65.616      58.725      49.573      39.893      30.562      22.186      15.635      11.601      9.8114      9.3052    
  9.8127      11.599      15.634      22.198      30.588      39.908      49.548      58.664      65.563      68.202    
  74.157      68.313      58.740      48.025      37.646      28.095      19.935      14.080      10.941      9.7897    
  9.7906      10.942      14.081      19.943      28.114      37.658      47.999      58.669      68.232      74.121    
  68.178      65.610      58.812      49.758      40.119      30.764      22.339      15.751      11.698      9.9012    
  9.3915      9.9008      11.698      15.751      22.339      30.763      40.118      49.757      58.812      65.610    
  65.609      65.579      60.908      53.086      43.928      34.619      25.849      18.427      13.246      10.534    
  9.5009      9.5000      10.533      13.246      18.421      25.834      34.610      43.948      53.143      60.975    
  58.806      60.890      58.763      53.085      45.291      36.690      28.165      20.528      14.696      11.203    
  9.6430      9.1772      9.6422      11.205      14.697      20.518      28.144      36.678      45.312      53.135    
  49.738      53.035      53.042      49.760      43.953      36.689      28.951      21.650      15.710      11.790    
  9.7957      8.9600      8.9592      9.7963      11.796      15.719      21.651      28.937      36.662      43.923    
  40.081      43.831      45.185      43.882      40.146      34.607      28.115      21.618      16.061      12.137    
  9.9268      8.8444      8.5018      8.8427      9.9265      12.145      16.081      21.639      28.115      34.569    
  30.716      34.474      36.506      36.521      34.502      30.724      25.766      20.453      15.685      12.142    
  9.9871      8.8031      8.2522      8.2515      8.7985      9.9784      12.141      15.705      20.489      25.790    
  22.296      25.665      27.901      28.672      27.879      25.625      22.253      18.358      14.676      11.807    
  9.9430      8.8048      8.1720      7.9783      8.1734      8.7972      9.9225      11.786      14.676      18.386    
  15.723      18.224      20.200      21.266      21.245      20.155      18.189      15.723      13.255      11.228    
  9.8097      8.8397      8.2412      7.9729      7.9776      8.2496      8.8389      9.7895      11.193      13.225    
  11.683      13.044      14.338      15.254      15.577      15.243      14.338      13.073      11.728      10.552    
  9.6337      8.9338      8.4789      8.2408      8.1709      8.2499      8.4981      8.9536      9.6340      10.522    
  9.8913      10.343      10.846      11.307      11.589      11.598      11.334      10.883      10.372      9.8921    
  9.4624      9.1331      8.9338      8.8394      8.8037      8.8007      8.8404      8.9544      9.1702      9.4916    
  9.3834      9.3175      9.2970      9.3156      9.3585      9.3896      9.3794      9.3370      9.2956      9.2868    
  9.3398      9.4625      9.6340      9.8099      9.9424      9.9847      9.9223      9.7891      9.6351      9.4926    
  9.8915      9.3164      8.8351      8.4841      8.2704      8.1775      8.1806      8.2696      8.4633      8.7974    
  9.2865      9.8919      10.552      11.229      11.808      12.141      12.132      11.781      11.192      10.523    
  11.683      10.341      9.2949      8.4830      7.9256      7.6114      7.5090      7.6015      7.9056      8.4630    
  9.2950      10.371      11.727      13.256      14.679      15.688      16.058      15.699      14.678      13.227    
  15.723      13.041      10.845      9.3154      8.2687      7.6106      7.3017      7.2967      7.6015      8.2694    
  9.3362      10.882      13.071      15.722      18.362      20.460      21.620      21.641      20.505      18.396    
  22.296      18.213      14.335      11.312      9.3581      8.1727      7.5104      7.3021      7.5095      8.1809    
  9.3791      11.332      14.334      18.184      22.253      25.773      28.123      28.950      28.144      25.811    
  30.717      25.644      20.184      15.260      11.597      9.3815      8.1738      7.6119      7.6127      8.1788    
  9.3906      11.598      15.239      20.148      25.619      30.725      34.615      36.695      36.680      34.587    
  40.083      34.458      27.872      21.264      15.598      11.600      9.3614      8.2716      7.9282      8.2731    
  9.3615      11.593      15.579      21.242      27.871      34.495      40.147      43.960      45.291      43.910    
  49.740      43.847      36.488      28.659      21.275      15.273      11.321      9.3212      8.4875      8.4883    
  9.3205      11.314      15.264      21.274      28.674      36.517      43.877      49.761      53.089      53.081    
  58.808      53.091      45.207      36.504      27.900      20.213      14.355      10.857      9.3021      8.8410    
  9.3035      10.855      14.354      20.222      27.921      36.517      45.186      53.041      58.764      60.909    
  65.610      60.958      53.099      43.871      34.498      25.688      18.247      13.061      10.352      9.3242    
  9.3250      10.353      13.061      18.253      25.702      34.507      43.850      53.041      60.891      65.580    
  56.475      54.682      49.764      42.771      34.770      26.668      19.408      13.943      10.726      9.2746    
  8.8310      9.2743      10.726      13.944      19.408      26.668      34.769      42.770      49.764      54.683    
  54.684      54.663      51.341      45.479      38.106      30.158      22.541      16.252      12.047      9.8980    
  9.0104      9.0096      9.8971      12.047      16.248      22.532      30.151      38.120      45.520      51.389    
  49.768      51.276      49.737      45.483      39.290      32.045      24.658      18.114      13.298      10.515    
  9.2165      8.8089      9.2155      10.516      13.299      18.107      24.643      32.037      39.305      45.519    
  42.769      45.308      45.314      42.785      38.132      32.048      25.391      19.132      14.188      11.041    
  9.4178      8.6872      8.6865      9.4179      11.044      14.194      19.133      25.381      32.029      38.111    
  34.757      37.824      38.910      37.860      34.803      30.158      24.627      19.111      14.502      11.349    
  9.5711      8.6334      8.3377      8.6324      9.5708      11.354      14.515      19.126      24.628      30.131    
  26.646      29.792      31.480      31.491      29.813      26.652      22.491      18.066      14.172      11.352    
  9.6337      8.6207      8.1500      8.1499      8.6182      9.6279      11.351      14.186      18.091      22.508    
  19.386      22.138      23.975      24.611      23.960      22.110      19.355      16.209      13.287      11.053    
  9.5823      8.6222      8.0907      7.9280      8.0921      8.6174      9.5682      11.039      13.287      16.229    
  13.928      15.852      17.390      18.227      18.212      17.358      15.827      13.928      12.057      10.533    
  9.4276      8.6307      8.1432      7.9245      7.9276      8.1488      8.6300      9.4135      10.508      12.036    
  10.717      11.676      12.596      13.253      13.485      13.244      12.596      11.697      10.750      9.9113    
  9.2099      8.6691      8.3226      8.1431      8.0901      8.1487      8.3354      8.6829      9.2102      9.8899    
  9.2681      9.5590      9.8609      10.137      10.307      10.313      10.155      9.8873      9.5799      9.2687    
  8.9833      8.7780      8.6692      8.6308      8.6218      8.6195      8.6311      8.6837      8.8044      9.0041    
  8.8256      8.6899      8.6033      8.5618      8.5530      8.5597      8.5676      8.5767      8.6019      8.6678    
  8.7945      8.9834      9.2103      9.4282      9.5826      9.6329      9.5688      9.4141      9.2116      9.0050    
  9.2683      8.6890      8.2096      7.8585      7.6394      7.5398      7.5422      7.6391      7.8437      8.1826    
  8.6676      9.2686      9.9117      10.535      11.054      11.353      11.347      11.036      10.509      9.8911    
  10.717      9.5573      8.6012      7.8575      7.3524      7.0682      6.9761      7.0617      7.3387      7.8434    
  8.6012      9.5790      10.749      12.058      13.290      14.176      14.504      14.185      13.290      12.037    
  13.927      11.674      9.8599      8.5610      7.6382      7.0679      6.8024      6.7990      7.0617      7.6387    
  8.5757      9.8856      11.695      13.928      16.212      18.073      19.119      19.133      18.105      16.236    
  19.386      15.843      12.593      10.139      8.5522      7.5367      6.9774      6.8027      6.9763      7.5421    
  8.5669      10.153      12.592      15.823      19.355      22.498      24.640      25.400      24.655      22.525    
  26.647      22.121      17.376      13.254      10.311      8.5535      7.5374      7.0688      7.0691      7.5404    
  8.5598      10.312      13.240      17.350      22.103      26.652      30.169      32.064      32.052      30.149    
  34.759      29.776      23.948      18.220      13.496      10.313      8.5544      7.6401      7.3542      7.6410    
  8.5545      10.308      13.483      18.205      23.948      29.803      34.803      38.145      39.304      38.110    
  42.771      37.828      31.457      24.591      18.226      13.262      10.144      8.5649      7.8605      7.8613    
  8.5647      10.140      13.256      18.226      24.602      31.477      37.849      42.786      45.494      45.489    
  49.769      45.340      38.911      31.464      23.964      17.393      12.605      9.8670      8.6061      8.2136    
  8.6075      9.8662      12.603      17.399      23.978      31.474      38.897      45.305      49.738      51.348    
  54.685      51.319      45.341      37.836      29.795      22.144      15.863      11.686      9.5644      8.6942    
  8.6949      9.5652      11.686      15.866      22.154      29.802      37.822      45.300      51.271      54.664    
  44.893      43.672      40.176      34.872      28.467      21.883      16.151      12.066      9.7576      8.6260    
  8.2664      8.6258      9.7576      12.067      16.151      21.882      28.466      34.871      40.176      43.672    
  43.675      43.662      41.358      37.054      31.292      24.858      18.746      13.912      10.843      9.2486    
  8.5216      8.5209      9.2479      10.844      13.911      18.740      24.854      31.300      37.079      41.387    
  40.185      41.249      40.166      37.061      32.293      26.493      20.550      15.444      11.865      9.8378    
  8.7928      8.4602      8.7919      9.8381      11.866      15.441      20.542      26.488      32.302      37.082    
  34.881      36.771      36.775      34.891      31.314      26.498      21.190      16.304      12.600      10.311    
  9.0420      8.4458      8.4453      9.0417      10.313      12.603      16.304      21.183      26.486      31.301    
  28.469      30.837      31.662      30.859      28.497      24.866      20.536      16.293      12.863      10.581    
  9.2218      8.4611      8.2233      8.4608      9.2216      10.584      12.870      16.301      20.536      24.850    
  21.878      24.287      25.578      25.584      24.299      21.881      18.721      15.419      12.591      10.583    
  9.2903      8.4802      8.1074      8.1078      8.4796      9.2874      10.582      12.599      15.434      18.732    
  16.144      18.133      19.477      19.945      19.468      18.117      16.125      13.890      11.860      10.318    
  9.2282      8.4814      8.0719      7.9465      8.0732      8.4792      9.2203      10.310      11.860      13.903    
  12.060      13.319      14.341      14.902      14.894      14.322      13.304      12.061      10.851      9.8488    
  9.0475      8.4601      8.1043      7.9447      7.9463      8.1073      8.4596      9.0394      9.8343      10.838    
  9.7533      10.298      10.815      11.186      11.318      11.181      10.815      10.311      9.7731      9.2571    
  8.7889      8.4356      8.2156      8.1044      8.0719      8.1070      8.2223      8.4435      8.7891      9.2442    
  8.6226      8.7490      8.8664      8.9620      9.0207      9.0243      8.9728      8.8821      8.7616      8.6230    
  8.5056      8.4421      8.4359      8.4605      8.4817      8.4802      8.4604      8.4443      8.4579      8.5181    
  8.2635      8.0472      7.8800      7.7644      7.6999      7.6830      7.7086      7.7730      7.8787      8.0336    
  8.2447      8.5057      8.7894      9.0485      9.2292      9.2909      9.2215      9.0407      8.7906      8.5189    
  8.6227      8.0464      7.5675      7.2089      6.9759      6.8641      6.8657      6.9759      7.2000      7.5510    
  8.0334      8.6229      9.2576      9.8502      10.320      10.585      10.582      10.310      9.8354      9.2454    
  9.7531      8.7476      7.8781      7.2081      6.7518      6.4923      6.4080      6.4888      6.7440      7.1997    
  7.8781      8.7609      9.7729      10.852      11.863      12.596      12.867      12.601      11.863      10.839    
  12.060      10.296      8.8651      7.7633      6.9751      6.4923      6.2678      6.2658      6.4887      6.9755    
  7.7721      8.8805      10.309      12.061      13.894      15.426      16.302      16.310      15.444      13.907    
  16.144      13.314      10.813      8.9624      7.6989      6.8624      6.4089      6.2679      6.4080      6.8654    
  7.7076      8.9707      10.812      13.301      16.125      18.728      20.549      21.203      20.558      18.744    
  21.879      18.122      14.331      11.185      9.0216      7.6788      6.8628      6.4928      6.4927      6.8642    
  7.6825      9.0224      11.177      14.315      18.110      21.882      24.877      26.516      26.510      24.865    
  28.471      24.274      19.456      14.894      11.322      9.0227      7.7002      6.9762      6.7528      6.9765    
  7.7002      9.0200      11.314      14.885      19.456      24.289      28.498      31.328      32.314      31.307    
  34.883      30.833      25.554      19.925      14.897      11.189      8.9653      7.7655      7.2098      7.2103    
  7.7657      8.9629      11.185      14.897      19.933      25.567      30.846      34.892      37.075      37.072    
  40.186      36.784      31.651      25.556      19.462      14.338      10.818      8.8689      7.8808      7.5696    
  7.8820      8.8686      10.817      14.341      19.470      25.562      31.644      36.763      40.167      41.368    
  43.676      41.269      36.780      30.831      24.278      18.130      13.322      10.302      8.7514      8.0493    
  8.0499      8.7521      10.302      13.323      18.135      24.281      30.822      36.755      41.241      43.663    
  34.341      33.472      30.924      26.950      22.107      17.242      13.216      10.506      8.9468      8.0892    
  7.8193      8.0891      8.9469      10.506      13.216      17.241      22.106      26.949      30.924      33.472    
  33.475      33.468      31.828      28.671      24.357      19.569      15.184      11.902      9.8807      8.7146    
  8.1650      8.1645      8.7141      9.8813      11.903      15.182      19.567      24.360      28.683      31.842    
  30.933      31.692      30.924      28.677      25.161      20.877      16.595      13.083      10.723      9.3107    
  8.5176      8.2681      8.5169      9.3107      10.723      13.082      16.592      20.875      25.166      28.688    
  26.960      28.318      28.320      26.965      24.372      20.881      17.106      13.759      11.323      9.7829    
  8.8303      8.3867      8.3863      8.8298      9.7833      11.324      13.759      17.103      20.876      24.365    
  22.115      23.789      24.371      23.800      22.128      19.577      16.591      13.755      11.539      10.045    
  9.0487      8.4930      8.3205      8.4931      9.0486      10.045      11.542      13.758      16.591      19.569    
  17.245      18.855      19.726      19.730      18.861      17.246      15.176      13.073      11.319      10.045    
  9.1285      8.5570      8.2970      8.2975      8.5574      9.1275      10.045      11.322      13.080      15.181    
  13.216      14.412      15.237      15.527      15.232      14.404      13.206      11.895      10.721      9.7857    
  9.0514      8.5578      8.2925      8.2118      8.2935      8.5573      9.0482      9.7822      10.721      11.901    
  10.505      11.142      11.667      11.960      11.956      11.658      11.135      10.505      9.8855      9.3159    
  8.8326      8.4932      8.2966      8.2114      8.2120      8.2976      8.4929      8.8291      9.3093      9.8795    
  8.9455      9.1626      9.3446      9.4710      9.5151      9.4685      9.3448      9.1692      8.9552      8.7190    
  8.5158      8.3825      8.3182      8.2969      8.2929      8.2974      8.3206      8.3860      8.5160      8.7128    
  8.0880      8.0369      7.9981      7.9655      7.9451      7.9467      7.9704      8.0055      8.0429      8.0882    
  8.1576      8.2601      8.3829      8.4939      8.5587      8.5578      8.4935      8.3867      8.2676      8.1636    
  7.8182      7.5098      7.2544      7.0616      6.9413      6.9019      6.9453      7.0655      7.2534      7.5029    
  7.8090      8.1577      8.5164      8.8338      9.0530      9.1300      9.0498      8.8307      8.5174      8.1642    
  8.0881      7.5092      7.0222      6.6479      6.3948      6.2681      6.2690      6.3950      6.6435      7.0141    
  7.5028      8.0882      8.7196      9.3174      9.7881      10.048      10.047      9.7842      9.3108      8.7139    
  8.9454      8.0359      7.2529      6.6472      6.2271      5.9824      5.9020      5.9810      6.2236      6.6433    
  7.2529      8.0424      8.9553      9.8868      10.724      11.323      11.544      11.326      10.724      9.8802    
  10.505      9.1618      7.9969      7.0605      6.3944      5.9826      5.7885      5.7876      5.9809      6.3946    
  7.0647      8.0043      9.1682      10.505      11.897      13.079      13.762      13.766      13.087      11.903    
  13.216      11.140      9.3432      7.9648      6.9403      6.2674      5.9026      5.7886      5.9020      6.2686    
  6.9444      7.9687      9.3425      11.133      13.207      15.181      16.601      17.118      16.605      15.189    
  17.246      14.407      11.661      9.4694      7.9443      6.8994      6.2676      5.9828      5.9825      6.2679    
  6.9011      7.9449      9.4653      11.653      14.400      17.247      19.586      20.897      20.894      19.580    
  22.117      18.847      15.224      11.953      9.5150      7.9448      6.9409      6.3949      6.2275      6.3949    
  6.9409      7.9438      9.5120      11.949      15.223      18.854      22.130      24.384      25.180      24.374    
  26.963      23.784      19.709      15.512      11.954      9.4707      7.9660      7.0615      6.6479      6.6483    
  7.0617      7.9650      9.4691      11.954      15.516      19.716      23.790      26.967      28.690      28.688    
  30.934      28.320      24.358      19.708      15.224      11.663      9.3451      7.9985      7.2541      7.0231    
  7.2550      7.9985      9.3442      11.664      15.229      19.712      24.355      28.310      30.925      31.838    
  33.475      31.698      28.315      23.778      18.844      14.407      11.142      9.1637      8.0373      7.5103    
  7.5107      8.0378      9.1635      11.142      14.409      18.845      23.774      28.303      31.684      33.469    
  25.042      24.428      22.637      19.885      16.633      13.516      11.071      9.4367      8.3661      7.7659    
  7.5786      7.7658      8.3662      9.4370      11.071      13.516      16.632      19.884      22.637      24.428    
  24.430      24.427      23.297      21.136      18.245      15.157      12.469      10.528      9.2410      8.4261    
  8.0481      8.0479      8.4259      9.2415      10.529      12.468      15.157      18.246      21.140      23.302    
  22.643      23.154      22.640      21.140      18.830      16.101      13.490      11.437      10.022      9.0595    