hcp Ru                                  
   2.70590000000000     
     1.000000    0.000000    0.000000
    -0.500000    0.866000    0.000000
     0.000000    0.000000    1.582300
   Ru
     2
Direct
  0.000000  0.000000  0.000000
  0.666670  0.333330  0.500000
 
   20   20   32
 0.81044585659E+02 0.77457171946E+02 0.68210698361E+02 0.56548616861E+02 0.45011571128E+02
 0.34455311735E+02 0.25067363910E+02 0.17526406621E+02 0.12698018964E+02 0.10527667335E+02
 0.99593358130E+01 0.10527171592E+02 0.12697712742E+02 0.17526694704E+02 0.25067771244E+02
 0.34455088389E+02 0.45010689555E+02 0.56547815642E+02 0.68210533958E+02 0.77457379140E+02
 0.77452998623E+02 0.77414023053E+02 0.70987669003E+02 0.60659575620E+02 0.49344516155E+02
 0.38614560361E+02 0.28851250116E+02 0.20496581601E+02 0.14450899562E+02 0.11180654607E+02
 0.99888144704E+01 0.99878553501E+01 0.11179704060E+02 0.14449695443E+02 0.20487455276E+02
 0.28831110928E+02 0.38601802337E+02 0.49370990291E+02 0.60734928799E+02 0.71074991079E+02
 0.68191887860E+02 0.71018237024E+02 0.68135237460E+02 0.60651523336E+02 0.50916481134E+02
 0.40847577244E+02 0.31299449242E+02 0.22767979561E+02 0.16062878974E+02 0.11898938345E+02
 0.10049464372E+02 0.95341077958E+01 0.10048903005E+02 0.11901411466E+02 0.16063619687E+02
 0.22754455420E+02 0.31272170260E+02 0.40832919430E+02 0.50944558238E+02 0.60717392059E+02
 0.56504276089E+02 0.60732353476E+02 0.60742318123E+02 0.56532238731E+02 0.49364085818E+02
 0.40840896608E+02 0.32115327497E+02 0.23953176963E+02 0.17169752387E+02 0.12535202867E+02
 0.10143619522E+02 0.92061108735E+01 0.92053250219E+01 0.10144943367E+02 0.12543555480E+02
 0.17181224839E+02 0.23955033254E+02 0.32097495587E+02 0.40806077960E+02 0.49325727649E+02
 0.44941220176E+02 0.49440530147E+02 0.51100085941E+02 0.49505942460E+02 0.45024930997E+02
 0.38583584325E+02 0.31226143523E+02 0.23908439447E+02 0.17545030618E+02 0.12911857074E+02
 0.10250022030E+02 0.90131481105E+01 0.86260595563E+01 0.90106355953E+01 0.10249571228E+02
 0.12922433084E+02 0.17571341160E+02 0.23937133881E+02 0.31226584425E+02 0.38533786351E+02
 0.34374765074E+02 0.38699418887E+02 0.41068153687E+02 0.41088146372E+02 0.38736235363E+02
 0.34385491819E+02 0.28730105135E+02 0.22663750190E+02 0.17134823656E+02 0.12918103626E+02
 0.10306399748E+02 0.89337510406E+01 0.83027744880E+01 0.83014517554E+01 0.89268143184E+01
 0.10294608257E+02 0.12916858388E+02 0.17160986290E+02 0.22709242191E+02 0.28760464006E+02
 0.24999175976E+02 0.28899098881E+02 0.31481972688E+02 0.32372375914E+02 0.31453674632E+02
 0.28847875404E+02 0.24942353074E+02 0.20397837100E+02 0.16032235915E+02 0.12555851347E+02
 0.10271165662E+02 0.89355905168E+01 0.81971305234E+01 0.79697555766E+01 0.81982808871E+01
 0.89249615337E+01 0.10243977221E+02 0.12529288249E+02 0.16032414742E+02 0.20434276394E+02
 0.17482936635E+02 0.20503521244E+02 0.22865547095E+02 0.24129895698E+02 0.24102869141E+02
 0.22806154526E+02 0.20457661351E+02 0.17481913664E+02 0.14457551438E+02 0.11930290007E+02
 0.10161971757E+02 0.90062266446E+01 0.82873103256E+01 0.79623763718E+01 0.79686983389E+01
 0.82987808464E+01 0.90054202225E+01 0.10135410747E+02 0.11883870966E+02 0.14419267864E+02
 0.12675017815E+02 0.14430110868E+02 0.16076964100E+02 0.17232544480E+02 0.17637328265E+02
 0.17217743470E+02 0.16077640226E+02 0.14467611810E+02 0.12732549339E+02 0.11202319845E+02
 0.10037216170E+02 0.91713071655E+01 0.85947987144E+01 0.82867185119E+01 0.81954328017E+01
 0.82995178745E+01 0.86208288996E+01 0.91975301518E+01 0.10037579204E+02 0.11163446905E+02
 0.10513906197E+02 0.11147865548E+02 0.11861768834E+02 0.12508322559E+02 0.12899406229E+02
 0.12911378394E+02 0.12543562778E+02 0.11910961070E+02 0.11186086424E+02 0.10514854581E+02
 0.99384620399E+01 0.94762798575E+01 0.91712267659E+01 0.90055356064E+01 0.89336081303E+01
 0.89299237253E+01 0.90072537437E+01 0.91982388692E+01 0.95244026748E+01 0.99763236243E+01
 0.99482328498E+01 0.99525025210E+01 0.99912603092E+01 0.10070047870E+02 0.10169687951E+02
 0.10226681951E+02 0.10197132244E+02 0.10098426063E+02 0.99900195165E+01 0.99130769870E+01
 0.98918946971E+01 0.99385255732E+01 0.10037394737E+02 0.10161761752E+02 0.10269529890E+02
 0.10302211770E+02 0.10242800448E+02 0.10133879255E+02 0.10038314234E+02 0.99773440295E+01
 0.10514234659E+02 0.99514010218E+01 0.94692335653E+01 0.91126531822E+01 0.88969808638E+01
 0.88059345859E+01 0.88097819160E+01 0.88955030808E+01 0.90855207121E+01 0.94205306342E+01
 0.99128301475E+01 0.10514685429E+02 0.11202672527E+02 0.11931135838E+02 0.12555842306E+02
 0.12914647268E+02 0.12902827697E+02 0.12520924156E+02 0.11882231933E+02 0.11164741147E+02
 0.12675049861E+02 0.11146164058E+02 0.99893475036E+01 0.91115447461E+01 0.84969733439E+01
 0.81472423470E+01 0.80322790431E+01 0.81337413818E+01 0.84702923560E+01 0.90853172171E+01
 0.99894025852E+01 0.11185215922E+02 0.12732275168E+02 0.14459009664E+02 0.16034804812E+02
 0.17134442996E+02 0.17535916721E+02 0.17149135328E+02 0.16034235690E+02 0.14421917911E+02
 0.17482481237E+02 0.14426724303E+02 0.11862117681E+02 0.10070696828E+02 0.88948018133E+01
 0.81459574349E+01 0.77904319036E+01 0.77837905765E+01 0.81339143658E+01 0.88954845577E+01
 0.10097806842E+02 0.11909334300E+02 0.14465565168E+02 0.17481748639E+02 0.20401261125E+02
 0.22667520345E+02 0.23903422351E+02 0.23930267358E+02 0.22726544753E+02 0.20446823243E+02
 0.24999001134E+02 0.20490574753E+02 0.16074725570E+02 0.12515853064E+02 0.10169914388E+02
 0.87994046478E+01 0.80338583683E+01 0.77910278115E+01 0.80330787478E+01 0.88105288489E+01
 0.10197401607E+02 0.12542370294E+02 0.16074323371E+02 0.20454104223E+02 0.24942588496E+02
 0.28734788753E+02 0.31227024388E+02 0.32097980221E+02 0.31254761048E+02 0.28785296782E+02
 0.34375844884E+02 0.28875200925E+02 0.22848653821E+02 0.17243724833E+02 0.12911821026E+02
 0.10216797521E+02 0.88007607607E+01 0.81477085729E+01 0.81491583432E+01 0.88080267239E+01
 0.10228919506E+02 0.12913062797E+02 0.17217003054E+02 0.22802231275E+02 0.28844066817E+02
 0.34386349277E+02 0.38586692265E+02 0.40832966528E+02 0.40812816951E+02 0.38549669201E+02
 0.44943596827E+02 0.38686234645E+02 0.31454470657E+02 0.24136050948E+02 0.17670990768E+02
 0.12916850547E+02 0.10174506606E+02 0.88986779603E+01 0.85005365114E+01 0.89008207786E+01
 0.10174536745E+02 0.12906119494E+02 0.17644791314E+02 0.24107418951E+02 0.31453711488E+02
 0.38735286072E+02 0.45026422732E+02 0.49362540945E+02 0.50897546814E+02 0.49297721693E+02
 0.56506944403E+02 0.49472355364E+02 0.41062357616E+02 0.32371413087E+02 0.24153478844E+02
 0.17263009348E+02 0.12528783101E+02 0.10078648817E+02 0.91175583564E+01 0.91184568766E+01
 0.10077373102E+02 0.12520064391E+02 0.17251095474E+02 0.24151871823E+02 0.32390315104E+02
 0.41098175528E+02 0.49510711314E+02 0.56534102807E+02 0.60645101023E+02 0.60635620062E+02
 0.68193790565E+02 0.60817791887E+02 0.51148839241E+02 0.41088741827E+02 0.31499279628E+02
 0.22892812180E+02 0.16104650972E+02 0.11878235560E+02 0.99991393551E+01 0.94772403989E+01
 0.10000438044E+02 0.11876272070E+02 0.16103587674E+02 0.22905782964E+02 0.31526804587E+02
 0.41104556861E+02 0.51121902017E+02 0.60752281312E+02 0.68136976439E+02 0.70980154114E+02
 0.77453844361E+02 0.71115545369E+02 0.60834596008E+02 0.49516574847E+02 0.38753207811E+02
 0.28944927686E+02 0.20542942679E+02 0.14456382104E+02 0.11161611374E+02 0.99620087544E+01
 0.99628670281E+01 0.11162452748E+02 0.14457734719E+02 0.20552336224E+02 0.28965006424E+02
 0.38765427653E+02 0.49489510895E+02 0.60759118830E+02 0.71028529606E+02 0.77415076565E+02
 0.77448935103E+02 0.74159804138E+02 0.65629460070E+02 0.54726358739E+02 0.43730715841E+02
 0.33497781385E+02 0.24352967567E+02 0.17053131309E+02 0.12427104150E+02 0.10358777315E+02
 0.98062192528E+01 0.10358301250E+02 0.12426823365E+02 0.17053432492E+02 0.24353366330E+02
 0.33497533372E+02 0.43729808799E+02 0.54725544292E+02 0.65629295964E+02 0.74160016118E+02
 0.74156722709E+02 0.74120147161E+02 0.68206530924E+02 0.58608678049E+02 0.47914966855E+02
 0.37579033308E+02 0.28071883401E+02 0.19951172719E+02 0.14127667074E+02 0.11006121727E+02
 0.98586765131E+01 0.98577258923E+01 0.11005177344E+02 0.14126645171E+02 0.19942873310E+02
 0.28053216906E+02 0.37567098605E+02 0.47939688198E+02 0.58679265752E+02 0.68288433320E+02
 0.65614493450E+02 0.68224264711E+02 0.65561373114E+02 0.58602782493E+02 0.49426822016E+02
 0.39768791288E+02 0.30489822108E+02 0.22182941183E+02 0.15699934808E+02 0.11712580420E+02
 0.99435387853E+01 0.94409543008E+01 0.99429013977E+01 0.11714833035E+02 0.15700721150E+02
 0.22170439336E+02 0.30464344636E+02 0.39755004290E+02 0.49453048488E+02 0.58664493368E+02
 0.54689127071E+02 0.58648216354E+02 0.58657582947E+02 0.54715403879E+02 0.47936369260E+02
 0.39763906084E+02 0.31299619366E+02 0.23354842891E+02 0.16785342730E+02 0.12337524634E+02
 0.10054544485E+02 0.91452357415E+01 0.91444581471E+01 0.10055679006E+02 0.12345222014E+02
 0.16795977256E+02 0.23356491877E+02 0.31282831540E+02 0.39731195094E+02 0.47900335345E+02
 0.43669737044E+02 0.47958929014E+02 0.49531995503E+02 0.48020294380E+02 0.43748233368E+02
 0.37553554755E+02 0.30423130356E+02 0.23313626172E+02 0.17155467463E+02 0.12707606018E+02
 0.10168693629E+02 0.89754742870E+01 0.86003885510E+01 0.89731792895E+01 0.10168265368E+02
 0.12717366482E+02 0.17179906219E+02 0.23340375930E+02 0.30423519757E+02 0.37506891307E+02
 0.33426741575E+02 0.37601308863E+02 0.39879232126E+02 0.39897994396E+02 0.37635831570E+02
 0.33436728166E+02 0.27961526178E+02 0.22087107969E+02 0.16753273418E+02 0.12713530026E+02
 0.10226564334E+02 0.89077932396E+01 0.82989230252E+01 0.82977937363E+01 0.89015068506E+01
 0.10215625040E+02 0.12712315239E+02 0.16777720093E+02 0.22129777541E+02 0.27990090534E+02
 0.24292305525E+02 0.28056241755E+02 0.30549982539E+02 0.31409715625E+02 0.30523501960E+02
 0.28008256655E+02 0.24239011122E+02 0.19860920084E+02 0.15672345401E+02 0.12357098012E+02
 0.10188492534E+02 0.89095972110E+01 0.82009221249E+01 0.79831938695E+01 0.82021260919E+01
 0.88997996608E+01 0.10163134096E+02 0.12332282787E+02 0.15672590506E+02 0.19895150880E+02
 0.17014267141E+02 0.19900209392E+02 0.22163315596E+02 0.23376941594E+02 0.23351626772E+02
 0.22107712876E+02 0.19857342221E+02 0.17013416696E+02 0.14135119481E+02 0.11742314965E+02
 0.10071739836E+02 0.89691620852E+01 0.82846934005E+01 0.79763609898E+01 0.79822277078E+01
 0.82953369490E+01 0.89683721205E+01 0.10046912805E+02 0.11698883131E+02 0.14099219502E+02
 0.12406314980E+02 0.14056485009E+02 0.15610699428E+02 0.16704106163E+02 0.17087664950E+02
 0.16690193324E+02 0.15611358609E+02 0.14091769581E+02 0.12460382380E+02 0.11026787151E+02
 0.99321005520E+01 0.91127735065E+01 0.85714150004E+01 0.82841724684E+01 0.81993927341E+01
 0.82959513573E+01 0.85955802278E+01 0.91372692243E+01 0.99324593873E+01 0.10990312594E+02
 0.10346086187E+02 0.10928946152E+02 0.11585809026E+02 0.12183026683E+02 0.12545240059E+02
 0.12556395954E+02 0.12215927840E+02 0.11631842213E+02 0.10964781608E+02 0.10346999962E+02
 0.98115679268E+01 0.93868701107E+01 0.91127299357E+01 0.89685904216E+01 0.89078587337E+01
 0.89043553426E+01 0.89701074781E+01 0.91380067031E+01 0.94319989035E+01 0.98470740274E+01
 0.97959450336E+01 0.97810000922E+01 0.98043107641E+01 0.98662515990E+01 0.99504042265E+01
 0.10000390114E+02 0.99760661667E+01 0.98927399492E+01 0.98030230333E+01 0.97439499021E+01
 0.97430782357E+01 0.98116358260E+01 0.99323175746E+01 0.10071657188E+02 0.10187153473E+02
 0.10222908487E+02 0.10162231404E+02 0.10045698316E+02 0.99333095057E+01 0.98480905676E+01
 0.10346390431E+02 0.97799000023E+01 0.92977775286E+01 0.89432469415E+01 0.87288124644E+01
 0.86377165109E+01 0.86413726824E+01 0.87275094843E+01 0.89178210686E+01 0.92520566749E+01
 0.97436975768E+01 0.10346826316E+02 0.11027146866E+02 0.11743235598E+02 0.12357386415E+02
 0.12710798947E+02 0.12699825193E+02 0.12324871323E+02 0.11697539974E+02 0.10991608273E+02
 0.12406305026E+02 0.10927228251E+02 0.98023349801E+01 0.89421344346E+01 0.83433813443E+01
 0.80037037125E+01 0.78923296921E+01 0.79911985830E+01 0.83185266198E+01 0.89176003066E+01
 0.98023831328E+01 0.10963896700E+02 0.12460091704E+02 0.14136591171E+02 0.15675166376E+02
 0.16753783876E+02 0.17148244866E+02 0.16767597615E+02 0.15674617757E+02 0.14101701180E+02
 0.17013755981E+02 0.14053213255E+02 0.11585919889E+02 0.98666585441E+01 0.87267639663E+01
 0.80025678131E+01 0.76598466479E+01 0.76536528879E+01 0.79913405146E+01 0.87274338874E+01
 0.98920512042E+01 0.11630160786E+02 0.14089672314E+02 0.17013208957E+02 0.19864513697E+02
 0.22091801449E+02 0.23310979986E+02 0.23336087086E+02 0.22146980325E+02 0.19907040304E+02
 0.24292057811E+02 0.19887808025E+02 0.15608255778E+02 0.12189709574E+02 0.99504572160E+01
 0.86316794082E+01 0.78938816812E+01 0.76603975945E+01 0.78930491816E+01 0.86419935991E+01
 0.99761593595E+01 0.12214516171E+02 0.15607786366E+02 0.19853519266E+02 0.24239164894E+02
 0.27966888291E+02 0.30426368570E+02 0.31287064616E+02 0.30452251382E+02 0.28014128637E+02
 0.33427720541E+02 0.28032960509E+02 0.22146432731E+02 0.16713642903E+02 0.12556285073E+02
 0.99909807465E+01 0.86329404389E+01 0.80041973778E+01 0.80054674704E+01 0.86395880591E+01
 0.10002280284E+02 0.12557507452E+02 0.16688626351E+02 0.22102807866E+02 0.28003592472E+02
 0.33437459997E+02 0.37558247321E+02 0.39760284162E+02 0.39741370971E+02 0.37523534808E+02
 0.43671976674E+02 0.37587120125E+02 0.30521747308E+02 0.23380524374E+02 0.17117741810E+02
 0.12560851413E+02 0.99546913259E+01 0.87303678819E+01 0.83466876492E+01 0.87323238685E+01
 0.99547192837E+01 0.12550917237E+02 0.17093375450E+02 0.23353816890E+02 0.30521044485E+02
 0.37633036885E+02 0.43749562917E+02 0.47937406394E+02 0.49413744063E+02 0.47876663546E+02
 0.54691631998E+02 0.47986120940E+02 0.39869753552E+02 0.31404899054E+02 0.23396231439E+02
 0.16731062657E+02 0.12201461989E+02 0.98740106009E+01 0.89477213284E+01 0.89486068942E+01
 0.98729075942E+01 0.12193371406E+02 0.16719965444E+02 0.23394837172E+02 0.31422789640E+02
 0.39903497846E+02 0.48022162089E+02 0.54717091849E+02 0.58599437016E+02 0.58590563366E+02
 0.65616242099E+02 0.58725499643E+02 0.49572764043E+02 0.39893164162E+02 0.30561904649E+02
 0.22186187032E+02 0.15635272889E+02 0.11600614193E+02 0.98114080905E+01 0.93052005998E+01
 0.98127465068E+01 0.11598833300E+02 0.15634158558E+02 0.22198165513E+02 0.30587668883E+02
 0.39908136243E+02 0.49547688059E+02 0.58664149053E+02 0.65562958589E+02 0.68201569730E+02
 0.74157473284E+02 0.68313352302E+02 0.58739609225E+02 0.48024544537E+02 0.37646421588E+02
 0.28095310986E+02 0.19934857903E+02 0.14079992593E+02 0.10941390784E+02 0.97897271205E+01
 0.97905782753E+01 0.10942233542E+02 0.14081179104E+02 0.19943440339E+02 0.28113917868E+02
 0.37657800973E+02 0.47999212698E+02 0.58668889914E+02 0.68231761981E+02 0.74121110331E+02
 0.68178103067E+02 0.65609627504E+02 0.58811919142E+02 0.49758211112E+02 0.40119335950E+02
 0.30763766911E+02 0.22338648703E+02 0.15750677810E+02 0.11698271332E+02 0.99011895356E+01
 0.93914791020E+01 0.99007696220E+01 0.11698062260E+02 0.15751015368E+02 0.22339024643E+02
 0.30763455033E+02 0.40118366490E+02 0.49757368232E+02 0.58811761192E+02 0.65609854812E+02
 0.65609148355E+02 0.65579014254E+02 0.60907578414E+02 0.53085592241E+02 0.43927769755E+02
 0.34619351073E+02 0.25849007773E+02 0.18426799348E+02 0.13246067364E+02 0.10533981607E+02
 0.95008965274E+01 0.94999815172E+01 0.10533068444E+02 0.13245511860E+02 0.18420659499E+02
 0.25834240921E+02 0.34609617962E+02 0.43947815661E+02 0.53143419075E+02 0.60974944769E+02
 0.58806180661E+02 0.60890167560E+02 0.58762528732E+02 0.53084786932E+02 0.45290514594E+02
 0.36689541120E+02 0.28164811097E+02 0.20527704184E+02 0.14695637923E+02 0.11203218582E+02
 0.96429918309E+01 0.91772321479E+01 0.96421795420E+01 0.11204896415E+02 0.14696524295E+02
 0.20517906907E+02 0.28144158865E+02 0.36678124907E+02 0.45311821636E+02 0.53135366345E+02
 0.49738196309E+02 0.53034720036E+02 0.53042480176E+02 0.49759939348E+02 0.43952733054E+02
 0.36688838228E+02 0.28951204032E+02 0.21649912400E+02 0.15710205076E+02 0.11790110116E+02
 0.97956773030E+01 0.89599912799E+01 0.89592474339E+01 0.97963313219E+01 0.11796080353E+02
 0.15718621967E+02 0.21651040758E+02 0.28937260164E+02 0.36661822853E+02 0.43922962057E+02
 0.40081237461E+02 0.43831080914E+02 0.45185126922E+02 0.43881586659E+02 0.40145746583E+02
 0.34606947770E+02 0.28114895173E+02 0.21617783622E+02 0.16061309537E+02 0.12137201122E+02
 0.99268490916E+01 0.88443830230E+01 0.85017724760E+01 0.88426581126E+01 0.99264826968E+01
 0.12144810330E+02 0.16080784584E+02 0.21639361238E+02 0.28115161514E+02 0.34568690443E+02
 0.30716062816E+02 0.34473798436E+02 0.36506004003E+02 0.36521459143E+02 0.34502163545E+02
 0.30724082116E+02 0.25766008867E+02 0.20453454542E+02 0.15685414016E+02 0.12142174658E+02
 0.99870663247E+01 0.88031184072E+01 0.82521540707E+01 0.82515167472E+01 0.87985247338E+01
 0.99783873089E+01 0.12141054907E+02 0.15705275206E+02 0.20488541475E+02 0.25789728353E+02
 0.22296493038E+02 0.25664639208E+02 0.27900647559E+02 0.28672169565E+02 0.27879017980E+02
 0.25625319424E+02 0.22252666893E+02 0.18358133243E+02 0.14675589829E+02 0.11806571846E+02
 0.99429960502E+01 0.88048023634E+01 0.81720381249E+01 0.79783330620E+01 0.81733538563E+01
 0.87971962613E+01 0.99225212980E+01 0.11786429176E+02 0.14675992543E+02 0.18386418451E+02
 0.15723125473E+02 0.18223580825E+02 0.20200131481E+02 0.21265725665E+02 0.21244990968E+02
 0.20154662744E+02 0.18188699171E+02 0.15722704331E+02 0.13254980157E+02 0.11228325908E+02
 0.98097073733E+01 0.88396505132E+01 0.82411733814E+01 0.79729484058E+01 0.79776056604E+01
 0.82496208433E+01 0.88389133240E+01 0.97895200090E+01 0.11192893799E+02 0.13225482121E+02
 0.11682940264E+02 0.13043892073E+02 0.14337682472E+02 0.15254206474E+02 0.15576945710E+02
 0.15242685899E+02 0.14338288642E+02 0.13073194847E+02 0.11727675791E+02 0.10551720816E+02
 0.96336776198E+01 0.89337581525E+01 0.84788540073E+01 0.82408356485E+01 0.81709462742E+01
 0.82499262437E+01 0.84980676902E+01 0.89536365871E+01 0.96340199882E+01 0.10521692555E+02
 0.98912504650E+01 0.10342608452E+02 0.10845903655E+02 0.11307370814E+02 0.11589371501E+02
 0.11598360609E+02 0.11334043106E+02 0.10883490508E+02 0.10372043526E+02 0.98920648188E+01
 0.94624366165E+01 0.91331456828E+01 0.89338086079E+01 0.88393836450E+01 0.88036891609E+01
 0.88006841588E+01 0.88403831240E+01 0.89544347330E+01 0.91702290841E+01 0.94916150661E+01
 0.93833641230E+01 0.93174578018E+01 0.92970270247E+01 0.93155665129E+01 0.93584711315E+01
 0.93895563659E+01 0.93793763573E+01 0.93370222425E+01 0.92956472012E+01 0.92868019535E+01
 0.93398254726E+01 0.94625179006E+01 0.96339936263E+01 0.98099487396E+01 0.99424021395E+01
 0.99847446902E+01 0.99223015268E+01 0.97891107514E+01 0.96351455355E+01 0.94926100561E+01
 0.98914965643E+01 0.93163803724E+01 0.88350738210E+01 0.84841262468E+01 0.82704254269E+01
 0.81774919666E+01 0.81806211293E+01 0.82695661124E+01 0.84632706290E+01 0.87973651641E+01
 0.92865420035E+01 0.98918893473E+01 0.10552105445E+02 0.11229416833E+02 0.11807541340E+02
 0.12141151487E+02 0.12132423564E+02 0.11781425876E+02 0.11192297288E+02 0.10522983447E+02
 0.11682838358E+02 0.10340883313E+02 0.92949322640E+01 0.84830230467E+01 0.79255875545E+01
 0.76113626077E+01 0.75089651226E+01 0.76014800912E+01 0.79055793250E+01 0.84630114390E+01
 0.92949626874E+01 0.10371144595E+02 0.11727365009E+02 0.13256452264E+02 0.14678891843E+02
 0.15687876506E+02 0.16058473087E+02 0.15699321018E+02 0.14678400606E+02 0.13227498988E+02
 0.15722503534E+02 0.13040996728E+02 0.10845457696E+02 0.93153811791E+01 0.82687275267E+01
 0.76106048873E+01 0.73016736446E+01 0.72966688323E+01 0.76015436285E+01 0.82693531594E+01
 0.93361756642E+01 0.10881725429E+02 0.13071055838E+02 0.15722421972E+02 0.18362002023E+02
 0.20460057305E+02 0.21620479829E+02 0.21640934001E+02 0.20504946870E+02 0.18396423338E+02
 0.22296106213E+02 0.18212847545E+02 0.14334912045E+02 0.11311950914E+02 0.93581128242E+01
 0.81727495287E+01 0.75104217489E+01 0.73021053656E+01 0.75094767627E+01 0.81809269434E+01
 0.93790509438E+01 0.11332185329E+02 0.14334282535E+02 0.18184431803E+02 0.22252658163E+02
 0.25772753188E+02 0.28123349347E+02 0.28949783733E+02 0.28144281509E+02 0.25811247677E+02
 0.30716841069E+02 0.25643512585E+02 0.20183877547E+02 0.15259840322E+02 0.11597028133E+02
 0.93814837658E+01 0.81737605501E+01 0.76119117773E+01 0.76127263726E+01 0.81787998191E+01
 0.93906010298E+01 0.11598184630E+02 0.15239382794E+02 0.20147773854E+02 0.25618917967E+02
 0.30724549084E+02 0.34615143002E+02 0.36695134502E+02 0.36679544834E+02 0.34586633123E+02
 0.40083187397E+02 0.34457794532E+02 0.27871643648E+02 0.21263517355E+02 0.15598173332E+02
 0.11600447659E+02 0.93614399004E+01 0.82716155619E+01 0.79282162795E+01 0.82730858164E+01
 0.93614620801E+01 0.11592614401E+02 0.15578667697E+02 0.21241933121E+02 0.27871086203E+02
 0.34495314251E+02 0.40146724780E+02 0.43959711636E+02 0.45291239471E+02 0.43909905401E+02
 0.49740342104E+02 0.43847008056E+02 0.36488443742E+02 0.28658859459E+02 0.21274937179E+02
 0.15272632640E+02 0.11320786351E+02 0.93211964920E+01 0.84874889789E+01 0.84883274993E+01
 0.93205285882E+01 0.11314351672E+02 0.15263701148E+02 0.21274086013E+02 0.28674002681E+02
 0.36516592969E+02 0.43876820415E+02 0.49761240960E+02 0.53088680703E+02 0.53081435681E+02
 0.58807583961E+02 0.53091310057E+02 0.45206561741E+02 0.36504480721E+02 0.27900227095E+02
 0.20212683772E+02 0.14354729713E+02 0.10856614720E+02 0.93021325046E+01 0.88409693102E+01
 0.93035445365E+01 0.10855305036E+02 0.14353506243E+02 0.20222049135E+02 0.27921286925E+02
 0.36517165646E+02 0.45186441150E+02 0.53041104000E+02 0.58763775573E+02 0.60908699715E+02
 0.65609683852E+02 0.60958081154E+02 0.53098854525E+02 0.43871185609E+02 0.34498122985E+02
 0.25687575616E+02 0.18246733362E+02 0.13060668908E+02 0.10351816922E+02 0.93241713321E+01
 0.93249915798E+01 0.10352651196E+02 0.13061435470E+02 0.18253202898E+02 0.25702291876E+02
 0.34507264250E+02 0.43850484691E+02 0.53040885864E+02 0.60891049231E+02 0.65579777736E+02
 0.56474741636E+02 0.54682363150E+02 0.49764297011E+02 0.42770815162E+02 0.34770258555E+02
 0.26668247089E+02 0.19407756786E+02 0.13943183690E+02 0.10726497053E+02 0.92745959908E+01
 0.88309774033E+01 0.92742637826E+01 0.10726396240E+02 0.13943572658E+02 0.19408100880E+02
 0.26667856960E+02 0.34769224749E+02 0.42769956380E+02 0.49764161791E+02 0.54682616260E+02
 0.54684478424E+02 0.54662902792E+02 0.51341052133E+02 0.45479218615E+02 0.38106265556E+02
 0.30157744308E+02 0.22541418250E+02 0.16251504493E+02 0.12047303922E+02 0.98979631040E+01
 0.90103948339E+01 0.90095648145E+01 0.98971342918E+01 0.12047301638E+02 0.16248057836E+02
 0.22531675325E+02 0.30150910058E+02 0.38120182032E+02 0.45520175582E+02 0.51389134023E+02
 0.49767976041E+02 0.51276389455E+02 0.49736885638E+02 0.45483363576E+02 0.39289789108E+02
 0.32045031235E+02 0.24657556501E+02 0.18113640384E+02 0.13298342585E+02 0.10514904456E+02
 0.92164665921E+01 0.88089356964E+01 0.92155028903E+01 0.10515863407E+02 0.13299292105E+02
 0.18107317945E+02 0.24643279574E+02 0.32036854692E+02 0.39304692437E+02 0.45519233038E+02
 0.42768850180E+02 0.45307970615E+02 0.45313591855E+02 0.42784543250E+02 0.38132470569E+02
 0.32048262472E+02 0.25390634129E+02 0.19132149220E+02 0.14188468670E+02 0.11040684058E+02
 0.94178464809E+01 0.86871568487E+01 0.86864889335E+01 0.94179377636E+01 0.11044447430E+02
 0.14194027711E+02 0.19132685390E+02 0.25380582063E+02 0.32028919009E+02 0.38111088241E+02
 0.34756738221E+02 0.37823855760E+02 0.38909677725E+02 0.37859939173E+02 0.34802688411E+02
 0.30158448162E+02 0.24627467542E+02 0.19111193130E+02 0.14502231702E+02 0.11348658153E+02
 0.95710691440E+01 0.86334346464E+01 0.83377207340E+01 0.86324276631E+01 0.95707903199E+01
 0.11353520759E+02 0.14515286943E+02 0.19126034062E+02 0.24627609997E+02 0.30131336429E+02
 0.26646047484E+02 0.29792388324E+02 0.31480201046E+02 0.31491248879E+02 0.29812569555E+02
 0.26651509762E+02 0.22490769990E+02 0.18065704488E+02 0.14172393808E+02 0.11352185558E+02
 0.96336651030E+01 0.86207233230E+01 0.81500042869E+01 0.81499443920E+01 0.86182320497E+01
 0.96279172178E+01 0.11351233959E+02 0.14186221542E+02 0.18090695678E+02 0.22507969407E+02
 0.19385998831E+02 0.22137748022E+02 0.23975067010E+02 0.24610960690E+02 0.23959806449E+02
 0.22109866708E+02 0.19354746014E+02 0.16208552539E+02 0.13286744177E+02 0.11052520584E+02
 0.95823017543E+01 0.86221855052E+01 0.80906876063E+01 0.79280459667E+01 0.80920638239E+01
 0.86173807282E+01 0.95682360358E+01 0.11038530238E+02 0.13287295153E+02 0.16228886018E+02
 0.13928133855E+02 0.15851506315E+02 0.17390473065E+02 0.18227091959E+02 0.18212402594E+02
 0.17358360611E+02 0.15827099692E+02 0.13928186656E+02 0.12056522830E+02 0.10533240370E+02
 0.94275893031E+01 0.86306633170E+01 0.81431660370E+01 0.79245371976E+01 0.79276252762E+01
 0.81487665229E+01 0.86300225745E+01 0.94135232413E+01 0.10508382750E+02 0.12035542054E+02
 0.10717329291E+02 0.11676148749E+02 0.12595516689E+02 0.13252584749E+02 0.13485053007E+02
 0.13244267641E+02 0.12596032031E+02 0.11697409012E+02 0.10749566494E+02 0.99112979846E+01
 0.92098749690E+01 0.86690692039E+01 0.83226280368E+01 0.81430570441E+01 0.80901482632E+01
 0.81487226621E+01 0.83354202371E+01 0.86828697941E+01 0.92101839290E+01 0.98898624545E+01
 0.92680727234E+01 0.95589589190E+01 0.98608521468E+01 0.10136782263E+02 0.10307119348E+02
 0.10313298822E+02 0.10155320499E+02 0.98873116886E+01 0.95798965765E+01 0.92687325950E+01
 0.89832975832E+01 0.87780183923E+01 0.86692331796E+01 0.86307660054E+01 0.86218376053E+01
 0.86195307486E+01 0.86311430426E+01 0.86837057026E+01 0.88043938810E+01 0.90040613721E+01
 0.88255821317E+01 0.86899469736E+01 0.86033136393E+01 0.85617854839E+01 0.85529866477E+01
 0.85597093553E+01 0.85676498963E+01 0.85766699991E+01 0.86019102252E+01 0.86678408801E+01
 0.87944642492E+01 0.89834000564E+01 0.92103080242E+01 0.94282162728E+01 0.95825896904E+01
 0.96329205814E+01 0.95688096912E+01 0.94140628466E+01 0.92115797039E+01 0.90049933277E+01
 0.92682523659E+01 0.86889509411E+01 0.82096028379E+01 0.78585172034E+01 0.76393996638E+01
 0.75398002925E+01 0.75421886112E+01 0.76390554157E+01 0.78437042532E+01 0.81825640980E+01
 0.86675888504E+01 0.92685787215E+01 0.99117319815E+01 0.10534502094E+02 0.11054152577E+02
 0.11352914694E+02 0.11347100984E+02 0.11036396388E+02 0.10508678159E+02 0.98911203588E+01
 0.10717151480E+02 0.95573158559E+01 0.86012053930E+01 0.78574846896E+01 0.73524099021E+01
 0.70682308809E+01 0.69760905508E+01 0.70616879553E+01 0.73386809827E+01 0.78434153388E+01
 0.86012142365E+01 0.95790371134E+01 0.10749288188E+02 0.12057927937E+02 0.13290253296E+02
 0.14176441170E+02 0.14503612192E+02 0.14184708638E+02 0.13289847480E+02 0.12036940648E+02
 0.13927462469E+02 0.11673892758E+02 0.98598623506E+01 0.85609760291E+01 0.76381664817E+01
 0.70679120860E+01 0.68024337637E+01 0.67989734683E+01 0.70616611806E+01 0.76387029839E+01
 0.85756907857E+01 0.98855748570E+01 0.11695428623E+02 0.13927905780E+02 0.16212370762E+02
 0.18073483395E+02 0.19118512707E+02 0.19132820571E+02 0.18104799820E+02 0.16236147292E+02
 0.19385573956E+02 0.15843449519E+02 0.12592812607E+02 0.10138971263E+02 0.85522093495E+01
 0.75366914901E+01 0.69773549170E+01 0.68027113475E+01 0.69763468664E+01 0.75421382613E+01
 0.85668957627E+01 0.10153184865E+02 0.12592028761E+02 0.15822886189E+02 0.19354666611E+02
 0.22498273647E+02 0.24640088199E+02 0.25399688388E+02 0.24654517773E+02 0.22525222147E+02
 0.26646740444E+02 0.22120702500E+02 0.17376489190E+02 0.13254237594E+02 0.10310944167E+02
 0.85535338568E+01 0.75373831030E+01 0.70687996917E+01 0.70690865769E+01 0.75404345912E+01
 0.85598258718E+01 0.10311975447E+02 0.13239788258E+02 0.17350414531E+02 0.22102546886E+02
 0.26651812915E+02 0.30169399681E+02 0.32063553184E+02 0.32052393785E+02 0.30149133615E+02
 0.34758505262E+02 0.29776207629E+02 0.23948035210E+02 0.18219922548E+02 0.13496385305E+02
 0.10313065320E+02 0.85544414236E+01 0.76401393871E+01 0.73541682085E+01 0.76410086400E+01
 0.85544561133E+01 0.10307916551E+02 0.13483170687E+02 0.18205026655E+02 0.23947655884E+02
 0.29802619101E+02 0.34803420232E+02 0.38144800230E+02 0.39303915401E+02 0.38109509726E+02
 0.42770725255E+02 0.37827843829E+02 0.31456511513E+02 0.24591020995E+02 0.18226468086E+02
 0.13261797140E+02 0.10144494902E+02 0.85648908463E+01 0.78605195777E+01 0.78612587150E+01
 0.85647154862E+01 0.10140172499E+02 0.13255669033E+02 0.18226260008E+02 0.24602420104E+02
 0.31477141004E+02 0.37849334892E+02 0.42785559390E+02 0.45494227620E+02 0.45489141652E+02
 0.49769100548E+02 0.45340186645E+02 0.38910856132E+02 0.31464298787E+02 0.23963530230E+02
 0.17392903074E+02 0.12604521021E+02 0.98669585188E+01 0.86060509520E+01 0.82135614238E+01
 0.86074640311E+01 0.98662182993E+01 0.12603231290E+02 0.17398940924E+02 0.23978401125E+02
 0.31473872630E+02 0.38897201869E+02 0.45304725626E+02 0.49737876793E+02 0.51348237693E+02
 0.54684836219E+02 0.51318505133E+02 0.45340739799E+02 0.37836461346E+02 0.29795434390E+02
 0.22144241366E+02 0.15862557457E+02 0.11685579833E+02 0.95644269696E+01 0.86941742682E+01
 0.86949201579E+01 0.95652162914E+01 0.11685863249E+02 0.15866403887E+02 0.22153960038E+02
 0.29801653441E+02 0.37821862095E+02 0.45299654960E+02 0.51270804323E+02 0.54663514380E+02
 0.44893304261E+02 0.43671844384E+02 0.40176275558E+02 0.34872324494E+02 0.28466670318E+02
 0.21882919481E+02 0.16150976284E+02 0.12066252985E+02 0.97576043084E+01 0.86260074250E+01
 0.82663843920E+01 0.86257854673E+01 0.97576296791E+01 0.12066690314E+02 0.16151281915E+02
 0.21882469901E+02 0.28465618871E+02 0.34871496292E+02 0.40176185215E+02 0.43672125616E+02
 0.43675258497E+02 0.43662118038E+02 0.41358138208E+02 0.37054291033E+02 0.31291655559E+02
 0.24857872786E+02 0.18745557371E+02 0.13911887132E+02 0.10843213240E+02 0.92486142351E+01