   2   2   0   0
  0.1357413E+02  0.2705900E-09  0.2705841E-09  0.4281546E-09  0.5000000E-15
  1.000000000000000E-004
  CAR 
 hcp Ru                                  
     38.42665561     -1.13745620  301      8.87764906      1.00000000
     -1.137  0.0000E+00  0.0000E+00
     -1.006  0.0000E+00  0.0000E+00
     -0.874  0.0000E+00  0.0000E+00
     -0.742 -0.2008E-29 -0.2649E-30
     -0.610 -0.4753E-25 -0.6268E-26
     -0.478 -0.4700E-21 -0.6198E-22
     -0.346 -0.1942E-17 -0.2562E-18
     -0.214 -0.3243E-14 -0.4280E-15
     -0.082 -0.2321E-11 -0.3065E-12
      0.049 -0.6919E-09 -0.9155E-10
      0.181 -0.8560E-07 -0.1138E-07
      0.313 -0.4358E-05 -0.5861E-06
      0.445 -0.8923E-04 -0.1235E-04
      0.577 -0.6797E-03 -0.1020E-03
      0.709 -0.1153E-02 -0.2541E-03
      0.841  0.6062E-02  0.5454E-03
      0.973  0.2812E-01  0.4253E-02
      1.105  0.5307E-01  0.1125E-01
      1.236  0.7131E-01  0.2066E-01
      1.368  0.8879E-01  0.3237E-01
      1.500  0.1009E+00  0.4567E-01
      1.632  0.1135E+00  0.6063E-01
      1.764  0.1341E+00  0.7832E-01
      1.896  0.1471E+00  0.9773E-01
      2.028  0.1564E+00  0.1183E+00
      2.160  0.1781E+00  0.1418E+00
      2.291  0.1949E+00  0.1675E+00
      2.423  0.2078E+00  0.1949E+00
      2.555  0.3583E+00  0.2422E+00
      2.687  0.8044E+00  0.3483E+00
      2.819  0.1447E+01  0.5391E+00
      2.951  0.2084E+01  0.8139E+00
      3.083  0.2534E+01  0.1148E+01
      3.215  0.2799E+01  0.1517E+01
      3.346  0.3070E+01  0.1922E+01
      3.478  0.3285E+01  0.2355E+01
      3.610  0.3202E+01  0.2778E+01
      3.742  0.2760E+01  0.3142E+01
      3.874  0.2346E+01  0.3451E+01
      4.006  0.2149E+01  0.3735E+01
      4.138  0.2017E+01  0.4001E+01
      4.270  0.2291E+01  0.4303E+01
      4.402  0.2802E+01  0.4672E+01
      4.533  0.2868E+01  0.5050E+01
      4.665  0.2523E+01  0.5383E+01
      4.797  0.2348E+01  0.5693E+01
      4.929  0.2561E+01  0.6031E+01
      5.061  0.2764E+01  0.6395E+01
      5.193  0.2840E+01  0.6770E+01
      5.325  0.2632E+01  0.7117E+01
      5.457  0.2017E+01  0.7383E+01
      5.588  0.1388E+01  0.7566E+01
      5.720  0.1572E+01  0.7773E+01
      5.852  0.2604E+01  0.8116E+01
      5.984  0.3501E+01  0.8578E+01
      6.116  0.3705E+01  0.9067E+01
      6.248  0.3192E+01  0.9488E+01
      6.380  0.2652E+01  0.9837E+01
      6.512  0.2831E+01  0.1021E+02
      6.643  0.3396E+01  0.1066E+02
      6.775  0.3490E+01  0.1112E+02
      6.907  0.3048E+01  0.1152E+02
      7.039  0.2767E+01  0.1189E+02
      7.171  0.2953E+01  0.1228E+02
      7.303  0.3310E+01  0.1271E+02
      7.435  0.3283E+01  0.1314E+02
      7.567  0.2888E+01  0.1353E+02
      7.699  0.2445E+01  0.1385E+02
      7.830  0.2063E+01  0.1412E+02
      7.962  0.1895E+01  0.1437E+02
      8.094  0.1913E+01  0.1462E+02
      8.226  0.1980E+01  0.1488E+02
      8.358  0.1811E+01  0.1512E+02
      8.490  0.1644E+01  0.1534E+02
      8.622  0.1701E+01  0.1556E+02
      8.754  0.1756E+01  0.1579E+02
      8.885  0.1649E+01  0.1601E+02
      9.017  0.1556E+01  0.1622E+02
      9.149  0.1536E+01  0.1642E+02
      9.281  0.1653E+01  0.1664E+02
      9.413  0.1835E+01  0.1688E+02
      9.545  0.1952E+01  0.1714E+02
      9.677  0.2129E+01  0.1742E+02
      9.809  0.2396E+01  0.1773E+02
      9.940  0.2645E+01  0.1808E+02
     10.072  0.2893E+01  0.1846E+02
     10.204  0.3354E+01  0.1891E+02
     10.336  0.3889E+01  0.1942E+02
     10.468  0.4188E+01  0.1997E+02
     10.600  0.3897E+01  0.2049E+02
     10.732  0.2858E+01  0.2086E+02
     10.864  0.1439E+01  0.2105E+02
     10.996  0.5044E+00  0.2112E+02
     11.127  0.4029E+00  0.2117E+02
     11.259  0.5537E+00  0.2125E+02
     11.391  0.5424E+00  0.2132E+02
     11.523  0.4761E+00  0.2138E+02
     11.655  0.4837E+00  0.2144E+02
     11.787  0.5015E+00  0.2151E+02
     11.919  0.4461E+00  0.2157E+02
     12.051  0.4685E+00  0.2163E+02
     12.182  0.5677E+00  0.2171E+02
     12.314  0.5644E+00  0.2178E+02
     12.446  0.4912E+00  0.2184E+02
     12.578  0.4930E+00  0.2191E+02
     12.710  0.4966E+00  0.2197E+02
     12.842  0.4472E+00  0.2203E+02
     12.974  0.4716E+00  0.2210E+02
     13.106  0.5406E+00  0.2217E+02
     13.238  0.5286E+00  0.2224E+02
     13.369  0.4559E+00  0.2230E+02
     13.501  0.4209E+00  0.2235E+02
     13.633  0.4343E+00  0.2241E+02
     13.765  0.4556E+00  0.2247E+02
     13.897  0.4359E+00  0.2253E+02
     14.029  0.4188E+00  0.2258E+02
     14.161  0.4228E+00  0.2264E+02
     14.293  0.4295E+00  0.2270E+02
     14.424  0.4492E+00  0.2275E+02
     14.556  0.4323E+00  0.2281E+02
     14.688  0.4116E+00  0.2287E+02
     14.820  0.3844E+00  0.2292E+02
     14.952  0.3987E+00  0.2297E+02
     15.084  0.4757E+00  0.2303E+02
     15.216  0.4819E+00  0.2310E+02
     15.348  0.4274E+00  0.2315E+02
     15.479  0.4134E+00  0.2321E+02
     15.611  0.4130E+00  0.2326E+02
     15.743  0.4230E+00  0.2332E+02
     15.875  0.4888E+00  0.2338E+02
     16.007  0.4789E+00  0.2344E+02
     16.139  0.3893E+00  0.2350E+02
     16.271  0.3668E+00  0.2354E+02
     16.403  0.3586E+00  0.2359E+02
     16.535  0.3784E+00  0.2364E+02
     16.666  0.4355E+00  0.2370E+02
     16.798  0.3694E+00  0.2375E+02
     16.930  0.2775E+00  0.2378E+02
     17.062  0.2679E+00  0.2382E+02
     17.194  0.2245E+00  0.2385E+02
     17.326  0.1997E+00  0.2388E+02
     17.458  0.2116E+00  0.2390E+02
     17.590  0.1810E+00  0.2393E+02
     17.721  0.1628E+00  0.2395E+02
     17.853  0.1425E+00  0.2397E+02
     17.985  0.1148E+00  0.2398E+02
     18.117  0.1469E+00  0.2400E+02
     18.249  0.1660E+00  0.2402E+02
     18.381  0.1123E+00  0.2404E+02
     18.513  0.9071E-01  0.2405E+02
     18.645  0.1067E+00  0.2406E+02
     18.776  0.1123E+00  0.2408E+02
     18.908  0.2059E+00  0.2411E+02
     19.040  0.3535E+00  0.2415E+02
     19.172  0.3042E+00  0.2419E+02
     19.304  0.3631E+00  0.2424E+02
     19.436  0.9121E+00  0.2436E+02
     19.568  0.1331E+01  0.2454E+02
     19.700  0.1287E+01  0.2471E+02
     19.832  0.1193E+01  0.2486E+02
     19.963  0.1225E+01  0.2503E+02
     20.095  0.1155E+01  0.2518E+02
     20.227  0.1022E+01  0.2531E+02
     20.359  0.9433E+00  0.2544E+02
     20.491  0.9364E+00  0.2556E+02
     20.623  0.1016E+01  0.2569E+02
     20.755  0.1086E+01  0.2584E+02
     20.887  0.1044E+01  0.2598E+02
     21.018  0.9559E+00  0.2610E+02
     21.150  0.8726E+00  0.2622E+02
     21.282  0.8765E+00  0.2633E+02
     21.414  0.9899E+00  0.2646E+02
     21.546  0.9575E+00  0.2659E+02
     21.678  0.8678E+00  0.2670E+02
     21.810  0.8383E+00  0.2681E+02
     21.942  0.7876E+00  0.2692E+02
     22.073  0.7719E+00  0.2702E+02
     22.205  0.8970E+00  0.2714E+02
     22.337  0.1000E+01  0.2727E+02
     22.469  0.8411E+00  0.2738E+02
     22.601  0.6736E+00  0.2747E+02
     22.733  0.7051E+00  0.2756E+02
     22.865  0.7757E+00  0.2766E+02
     22.997  0.8151E+00  0.2777E+02
     23.129  0.8699E+00  0.2789E+02
     23.260  0.7817E+00  0.2799E+02
     23.392  0.6040E+00  0.2807E+02
     23.524  0.5519E+00  0.2814E+02
     23.656  0.6314E+00  0.2823E+02
     23.788  0.7497E+00  0.2832E+02
     23.920  0.7867E+00  0.2843E+02
     24.052  0.7697E+00  0.2853E+02
     24.184  0.8212E+00  0.2864E+02
     24.315  0.9680E+00  0.2877E+02
     24.447  0.1273E+01  0.2893E+02
     24.579  0.1450E+01  0.2912E+02
     24.711  0.1476E+01  0.2932E+02
     24.843  0.1680E+01  0.2954E+02
     24.975  0.1879E+01  0.2979E+02
     25.107  0.1926E+01  0.3004E+02
     25.239  0.1913E+01  0.3030E+02
     25.370  0.1692E+01  0.3052E+02
     25.502  0.1302E+01  0.3069E+02
     25.634  0.1076E+01  0.3083E+02
     25.766  0.1092E+01  0.3098E+02
     25.898  0.1163E+01  0.3113E+02
     26.030  0.1085E+01  0.3127E+02
     26.162  0.1014E+01  0.3141E+02
     26.294  0.1079E+01  0.3155E+02
     26.426  0.1176E+01  0.3170E+02
     26.557  0.1303E+01  0.3188E+02
     26.689  0.1425E+01  0.3206E+02
     26.821  0.1484E+01  0.3226E+02
     26.953  0.1385E+01  0.3244E+02
     27.085  0.1339E+01  0.3262E+02
     27.217  0.1353E+01  0.3280E+02
     27.349  0.1262E+01  0.3296E+02
     27.481  0.1188E+01  0.3312E+02
     27.612  0.1251E+01  0.3328E+02
     27.744  0.1427E+01  0.3347E+02
     27.876  0.1440E+01  0.3366E+02
     28.008  0.1332E+01  0.3384E+02
     28.140  0.1275E+01  0.3401E+02
     28.272  0.1283E+01  0.3418E+02
     28.404  0.1324E+01  0.3435E+02
     28.536  0.1277E+01  0.3452E+02
     28.668  0.1109E+01  0.3467E+02
     28.799  0.1026E+01  0.3480E+02
     28.931  0.9938E+00  0.3493E+02
     29.063  0.9628E+00  0.3506E+02
     29.195  0.9572E+00  0.3518E+02
     29.327  0.1043E+01  0.3532E+02
     29.459  0.1060E+01  0.3546E+02
     29.591  0.8993E+00  0.3558E+02
     29.723  0.7895E+00  0.3568E+02
     29.854  0.7929E+00  0.3579E+02
     29.986  0.8638E+00  0.3590E+02
     30.118  0.9280E+00  0.3603E+02
     30.250  0.9800E+00  0.3615E+02
     30.382  0.1032E+01  0.3629E+02
     30.514  0.1042E+01  0.3643E+02
     30.646  0.9405E+00  0.3655E+02
     30.778  0.8444E+00  0.3666E+02
     30.909  0.8603E+00  0.3678E+02
     31.041  0.8976E+00  0.3690E+02
     31.173  0.9030E+00  0.3701E+02
     31.305  0.9053E+00  0.3713E+02
     31.437  0.8900E+00  0.3725E+02
     31.569  0.9182E+00  0.3737E+02
     31.701  0.1014E+01  0.3751E+02
     31.833  0.1104E+01  0.3765E+02
     31.965  0.1143E+01  0.3780E+02
     32.096  0.1150E+01  0.3795E+02
     32.228  0.1083E+01  0.3810E+02
     32.360  0.1016E+01  0.3823E+02
     32.492  0.1059E+01  0.3837E+02
     32.624  0.1090E+01  0.3851E+02
     32.756  0.1015E+01  0.3865E+02
     32.888  0.9421E+00  0.3877E+02
     33.020  0.8546E+00  0.3889E+02
     33.151  0.7584E+00  0.3899E+02
     33.283  0.7602E+00  0.3909E+02
     33.415  0.7539E+00  0.3919E+02
     33.547  0.6741E+00  0.3927E+02
     33.679  0.6341E+00  0.3936E+02
     33.811  0.6100E+00  0.3944E+02
     33.943  0.5505E+00  0.3951E+02
     34.075  0.5203E+00  0.3958E+02
     34.206  0.4899E+00  0.3964E+02
     34.338  0.3998E+00  0.3970E+02
     34.470  0.2899E+00  0.3973E+02
     34.602  0.2332E+00  0.3977E+02
     34.734  0.2090E+00  0.3979E+02
     34.866  0.1883E+00  0.3982E+02
     34.998  0.1719E+00  0.3984E+02
     35.130  0.1324E+00  0.3986E+02
     35.262  0.1172E+00  0.3987E+02
     35.393  0.1101E+00  0.3989E+02
     35.525  0.1204E+00  0.3990E+02
     35.657  0.1516E+00  0.3992E+02
     35.789  0.1143E+00  0.3994E+02
     35.921  0.7015E-01  0.3995E+02
     36.053  0.8658E-01  0.3996E+02
     36.185  0.1098E+00  0.3997E+02
     36.317  0.1179E+00  0.3999E+02
     36.448  0.7212E-01  0.4000E+02
     36.580  0.1152E-01  0.4000E+02
     36.712 -0.4039E-02  0.4000E+02
     36.844 -0.1358E-02  0.4000E+02
     36.976 -0.1304E-03  0.4000E+02
     37.108 -0.5048E-05  0.4000E+02
     37.240 -0.8406E-07  0.4000E+02
     37.372 -0.6069E-09  0.4000E+02
     37.503 -0.1886E-11  0.4000E+02
     37.635 -0.2494E-14  0.4000E+02
     37.767 -0.8418E-18  0.4000E+02
     37.899  0.0000E+00  0.4000E+02
     38.031  0.0000E+00  0.4000E+02
     38.163  0.0000E+00  0.4000E+02
     38.295  0.0000E+00  0.4000E+02
     38.427  0.0000E+00  0.4000E+02
