    2    2    1    1
  0.1357413E+02  0.2705900E-09  0.2705840E-09  0.4281546E-09  0.5000000E-15
  1.000000000000000E-004
  CAR 
 hcp Ru                                  
     16   4000     20
 
  0.2500000E-01  0.2500000E-01  0.2500000E-01  0.2500000E-03
    1        0.908803
    2        2.680185
    3        6.073151
    4        6.300424
    5        6.569376
    6        6.897669
    7        6.982832
    8        7.420986
    9        7.433829
   10        9.217777
   11       10.094015
   12       11.078975
   13       19.184519
   14       24.885487
   15       27.806321
   16       28.231312
   17       31.649322
   18       31.774702
   19       32.349753
   20       33.424196
 
  0.2500000E-01 -0.5000000E-01 -0.2500000E-01  0.2500000E-03
    1        0.908803
    2        2.680186
    3        6.073183
    4        6.300379
    5        6.569387
    6        6.897771
    7        6.982728
    8        7.420925
    9        7.433891
   10        9.217824
   11       10.093925
   12       11.079019
   13       19.184520
   14       24.885486
   15       27.806323
   16       28.231320
   17       31.649260
   18       31.774750
   19       32.349651
   20       33.424356
 
  0.7500000E-01  0.2500000E-01  0.2500000E-01  0.2500000E-03
    1        1.135130
    2        2.851993
    3        5.791843
    4        6.490058
    5        6.759035
    6        6.832041
    7        7.154439
    8        7.195012
    9        7.289102
   10        8.444482
   11       10.172742
   12       12.196090
   13       19.152226
   14       25.211063
   15       28.051007
   16       28.415812
   17       30.462924
   18       30.727792
   19       31.014495
   20       33.647786
 
  0.7500000E-01 -0.1000000E+00 -0.2500000E-01  0.2500000E-03
    1        1.135129
    2        2.851997
    3        5.791871
    4        6.489991
    5        6.759116
    6        6.832086
    7        7.154326
    8        7.194982
    9        7.289134
   10        8.444519
   11       10.172645
   12       12.196136
   13       19.152226
   14       25.211058
   15       28.051018
   16       28.415865
   17       30.462829
   18       30.727812
   19       31.014401
   20       33.647966
 
  0.1250000E+00  0.2500000E-01  0.2500000E-01  0.2500000E-03
    1        1.520822
    2        3.119266
    3        5.484989
    4        6.577595
    5        6.653437
    6        6.812937
    7        7.070609
    8        7.159644
    9        7.481566
   10        7.941762
   11       10.286490
   12       13.412316
   13       19.094979
   14       25.529257
   15       28.180427
   16       28.384011
   17       29.356938
   18       29.501406
   19       30.362268
   20       34.078303
 
  0.1250000E+00 -0.1500000E+00 -0.2500000E-01  0.2500000E-03
    1        1.520819
    2        3.119280
    3        5.485005
    4        6.577643
    5        6.653512
    6        6.812868
    7        7.070629
    8        7.159652
    9        7.481452
   10        7.941761
   11       10.286406
   12       13.412361
   13       19.094984
   14       25.529236
   15       28.180536
   16       28.384065
   17       29.356830
   18       29.501390
   19       30.362192
   20       34.078474
 
  0.1750000E+00  0.2500000E-01  0.2500000E-01  0.2500000E-03
    1        2.021510
    2        3.389904
    3        5.243434
    4        5.897564
    5        6.491054
    6        6.800024
    7        7.309414
    8        7.501631
    9        7.668778
   10        7.914818
   11       10.410129
   12       14.666928
   13       19.023498
   14       25.050025
   15       27.646427
   16       27.877477
   17       28.514693
   18       29.180710
   19       30.859648
   20       34.651222
 
  0.1750000E+00 -0.2000000E+00 -0.2500000E-01  0.2500000E-03
    1        2.021505
    2        3.389939
    3        5.243428
    4        5.897598
    5        6.491160
    6        6.800045
    7        7.309333
    8        7.501634
    9        7.668753
   10        7.914695
   11       10.410057
   12       14.666973
   13       19.023513
   14       25.050002
   15       27.646452
   16       27.877444
   17       28.514792
   18       29.180693
   19       30.859598
   20       34.651390
 
  0.2250000E+00  0.2500000E-01  0.2500000E-01  0.2500000E-03
    1        2.553450
    2        3.515222
    3        5.190891
    4        5.215183
    5        6.431148
    6        6.559946
    7        7.399464
    8        7.873968
    9        8.035875
   10        8.446174
   11       10.523613
   12       15.925482
   13       18.950971
   14       23.624804
   15       26.546527
   16       26.861415
   17       28.804235
   18       29.426050
   19       31.491796
   20       34.818948
 
  0.2250000E+00 -0.2500000E+00 -0.2500000E-01  0.2500000E-03
    1        2.553443
    2        3.515280
    3        5.190896
    4        5.215193
    5        6.431238
    6        6.559970
    7        7.399415
    8        7.873875
    9        8.035873
   10        8.446034
   11       10.523551
   12       15.925531
   13       18.950993
   14       23.624791
   15       26.546490
   16       26.861355
   17       28.804395
   18       29.426085
   19       31.491779
   20       34.819529
 
  0.2750000E+00  0.2500000E-01  0.2500000E-01  0.2500000E-03
    1        2.967973
    2        3.456010
    3        4.590750
    4        5.428565
    5        6.323193
    6        6.537117
    7        7.214327
    8        8.504287
    9        8.658597
   10        9.062306
   11       10.617912
   12       17.138507
   13       18.904962
   14       21.930754
   15       25.301659
   16       25.952876
   17       28.931311
   18       29.412266
   19       31.461946
   20       34.178760
 
  0.2750000E+00 -0.3000000E+00 -0.2500000E-01  0.2500000E-03
    1        2.967971
    2        3.456068
    3        4.590800
    4        5.428525
    5        6.323211
    6        6.537191
    7        7.214265
    8        8.504171
    9        8.658593
   10        9.062149
   11       10.617857
   12       17.138562
   13       18.904987
   14       21.930745
   15       25.301619
   16       25.952810
   17       28.931423
   18       29.412331
   19       31.461990
   20       34.178777
 
  0.3250000E+00  0.2500000E-01  0.2500000E-01  0.2500000E-03
    1        3.047058
    2        3.431392
    3        4.095382
    4        5.845750
    5        6.129767
    6        6.762431
    7        7.069610
    8        9.144979
    9        9.365109
   10        9.795309
   11       10.689795
   12       18.111085
   13       18.951356
   14       20.372590
   15       24.139241
   16       25.186272
   17       27.923959
   18       28.899835
   19       31.699960
   20       33.025752
 
  0.3250000E+00 -0.3500000E+00 -0.2500000E-01  0.2500000E-03
    1        3.047087
    2        3.431419
    3        4.095435
    4        5.845707
    5        6.129785
    6        6.762480
    7        7.069544
    8        9.144829
    9        9.365094
   10        9.795158
   11       10.689746
   12       18.111128
   13       18.951385
   14       20.372617
   15       24.139208
   16       25.186201
   17       27.924000
   18       28.899870
   19       31.700083
   20       33.025743
 
  0.3750000E+00  0.2500000E-01  0.2500000E-01  0.2500000E-03
    1        2.901528
    2        3.435456
    3        3.750772
    4        5.973776
    5        6.309535
    6        6.962114
    7        7.053508
    8        9.708809
    9        9.997814
   10       10.715856
   11       10.776738
   12       17.647511
   13       19.496642
   14       19.812216
   15       23.151028
   16       24.568466
   17       26.387388
   18       28.293564
   19       31.824992
   20       32.225288
 
  0.3750000E+00 -0.4000000E+00 -0.2500000E-01  0.2500000E-03
    1        2.901568
    2        3.435477
    3        3.750824
    4        5.973793
    5        6.309480
    6        6.962047
    7        7.053546
    8        9.708636
    9        9.997744
   10       10.715802
   11       10.776645
   12       17.647458
   13       19.496729
   14       19.812322
   15       23.151007
   16       24.568385
   17       26.387386
   18       28.293588
   19       31.824958
   20       32.225477
 
  0.4250000E+00  0.2500000E-01  0.2500000E-01  0.2500000E-03
    1        2.769899
    2        3.342343
    3        3.593598
    4        5.876066
    5        6.573099
    6        7.055220
    7        7.232228
    8       10.113257
    9       10.458652
   10       10.767186
   11       11.893126
   12       16.221726
   13       19.818988
   14       20.452500
   15       22.438062
   16       24.099198
   17       25.060418
   18       27.753701
   19       31.009626
   20       32.582316
 
  0.4250000E+00 -0.4500000E+00 -0.2500000E-01  0.2500000E-03
    1        2.769934
    2        3.342380
    3        3.593637
    4        5.876084
    5        6.573020
    6        7.055137
    7        7.232282
    8       10.113079
    9       10.458531
   10       10.767144
   11       11.893052
   12       16.221647
   13       19.819133
   14       20.452625
   15       22.438051
   16       24.099099
   17       25.060365
   18       27.753712
   19       31.009625
   20       32.582456
 
  0.4750000E+00  0.2500000E-01  0.2500000E-01  0.2500000E-03
    1        2.708109
    2        3.266680
    3        3.552338
    4        5.833712
    5        6.620924
    6        7.184441
    7        7.318900
    8       10.300413
    9       10.682468
   10       10.776124
   11       12.876905
   12       15.067227
   13       20.065552
   14       20.856547
   15       22.106933
   16       23.865291
   17       24.344788
   18       27.485509
   19       30.639661
   20       32.747911
 
  0.4750000E+00  0.5000000E+00 -0.2500000E-01  0.2500000E-03
    1        2.708143
    2        3.266723
    3        3.552370
    4        5.833731
    5        6.620834
    6        7.184350
    7        7.318954
    8       10.300235
    9       10.682321
   10       10.776083
   11       12.876885
   12       15.067108
   13       20.065726
   14       20.856694
   15       22.106926
   16       23.865174
   17       24.344706
   18       27.485512
   19       30.639664
   20       32.748041
 
 -0.4750000E+00  0.2500000E-01  0.2500000E-01  0.2500000E-03
    1        2.728949
    2        3.293740
    3        3.564813
    4        5.847767
    5        6.609523
    6        7.133440
    7        7.290271
    8       10.237306
    9       10.604517
   10       10.774376
   11       12.457824
   12       15.543549
   13       19.968581
   14       20.715269
   15       22.219517
   16       23.944668
   17       24.598944
   18       27.576780
   19       30.764086
   20       32.689733
 
 -0.4750000E+00  0.4500000E+00 -0.2500000E-01  0.2500000E-03
    1        2.728983
    2        3.293781
    3        3.564847
    4        5.847788
    5        6.609433
    6        7.133351
    7        7.290318
    8       10.237136
    9       10.604358
   10       10.774334
   11       12.457823
   12       15.543433
   13       19.968741
   14       20.715408
   15       22.219506
   16       23.944558
   17       24.598869
   18       27.576786
   19       30.764085
   20       32.689860
 
 -0.4250000E+00  0.2500000E-01  0.2500000E-01  0.2500000E-03
    1        2.828866
    2        3.397812
    3        3.650006
    4        5.918741
    5        6.478551
    6        6.991741
    7        7.148718
    8        9.936139
    9       10.253238
   10       10.754792
   11       11.312374
   12       16.954938
   13       19.667890
   14       20.108682
   15       22.753806
   16       24.313890
   17       25.672928
   18       28.006322
   19       31.369815
   20       32.425145
 
 -0.4250000E+00  0.4000000E+00 -0.2500000E-01  0.2500000E-03
    1        2.828903
    2        3.397840
    3        3.650051
    4        5.918763
    5        6.478474
    6        6.991649
    7        7.148763
    8        9.935994
    9       10.253070
   10       10.754751
   11       11.312381
   12       16.954849
   13       19.668013
   14       20.108794
   15       22.753785
   16       24.313801
   17       25.672894
   18       28.006339
   19       31.369800
   20       32.425291
 
 -0.3750000E+00  0.2500000E-01  0.2500000E-01  0.2500000E-03
    1        2.980416
    2        3.444463
    3        3.901381
    4        6.032895
    5        6.099249
    6        6.886726
    7        7.026688
    8        9.442694
    9        9.696912
   10       10.244789
   11       10.718614
   12       18.124903
   13       19.173960
   14       19.889563
   15       23.617360
   16       24.859184
   17       27.160503
   18       28.596324
   19       31.947297
   20       32.410248
 
 -0.3750000E+00  0.3500000E+00 -0.2500000E-01  0.2500000E-03
    1        2.980454
    2        3.444484
    3        3.901432
    4        6.032902
    5        6.099201
    6        6.886740
    7        7.026631
    8        9.442581
    9        9.696731
   10       10.244806
   11       10.718575
   12       18.124873
   13       19.174013
   14       19.889640
   15       23.617327
   16       24.859111
   17       27.160520
   18       28.596351
   19       31.947467
   20       32.410177
 
 -0.3250000E+00  0.2500000E-01  0.2500000E-01  0.2500000E-03
    1        3.058577
    2        3.424930
    3        4.326483
    4        5.620617
    5        6.221969
    6        6.639340
    7        7.134652
    8        8.829102
    9        9.006735
   10        9.410985
   11       10.656596
   12       17.689243
   13       18.905149
   14       21.103946
   15       24.704956
   16       25.550327
   17       28.568138
   18       29.186467
   19       31.501577
   20       33.669987
 
 -0.3250000E+00  0.3000000E+00 -0.2500000E-01  0.2500000E-03
    1        3.058590
    2        3.424975
    3        4.326531
    4        5.620555
    5        6.221997
    6        6.639390
    7        7.134575
    8        8.829014
    9        9.006599
   10        9.410970
   11       10.656554
   12       17.689295
   13       18.905163
   14       21.103947
   15       24.704913
   16       25.550263
   17       28.568212
   18       29.186505
   19       31.501663
   20       33.669885
 
 -0.2750000E+00  0.2500000E-01  0.2500000E-01  0.2500000E-03
    1        2.788127
    2        3.499504
    3        4.883426
    4        5.285222
    5        6.424108
    6        6.478123
    7        7.302775
    8        8.183720
    9        8.328566
   10        8.746119
   11       10.573138
   12       16.541325
   13       18.921960
   14       22.785299
   15       25.919543
   16       26.389259
   17       28.983530
   18       29.468243
   19       31.547385
   20       34.413895
 
 -0.2750000E+00  0.2500000E+00 -0.2500000E-01  0.2500000E-03
    1        2.788123
    2        3.499567
    3        4.883467
    4        5.285163
    5        6.424152
    6        6.478188
    7        7.302703
    8        8.183648
    9        8.328493
   10        8.746068
   11       10.573094
   12       16.541371
   13       18.921976
   14       22.785288
   15       25.919504
   16       26.389205
   17       28.983684
   18       29.468297
   19       31.547361
   20       34.413856
 
 -0.2250000E+00  0.2500000E-01  0.2500000E-01  0.2500000E-03
    1        2.291008
    2        3.479243
    3        5.189046
    4        5.543234
    5        6.444948
    6        6.680282
    7        7.492566
    8        7.587295
    9        7.779371
   10        8.171333
   11       10.468671
   12       15.298046
   13       18.985636
   14       24.403619
   15       27.152361
   16       27.364278
   17       28.574272
   18       29.318289
   19       31.219588
   20       34.933243
 
 -0.2250000E+00  0.2000000E+00 -0.2500000E-01  0.2500000E-03
    1        2.291004
    2        3.479290
    3        5.189009
    4        5.543264
    5        6.445034
    6        6.680323
    7        7.492507
    8        7.587237
    9        7.779330
   10        8.171270
   11       10.468623
   12       15.298084
   13       18.985649
   14       24.403600
   15       27.152344
   16       27.364240
   17       28.574415
   18       29.318289
   19       31.219537
   20       34.933351
 
 -0.1750000E+00  0.2500000E-01  0.2500000E-01  0.2500000E-03
    1        1.760834
    2        3.262632
    3        5.348065
    4        6.254242
    5        6.559396
    6        6.900565
    7        7.087440
    8        7.321124
    9        7.685239
   10        7.781816
   11       10.348322
   12       14.037192
   13       19.061603
   14       25.447457
   15       27.926125
   16       28.295799
   17       28.854269
   18       29.140160
   19       30.532235
   20       34.354591
 
 -0.1750000E+00  0.1500000E+00 -0.2500000E-01  0.2500000E-03
    1        1.760831
    2        3.262652
    3        5.348055
    4        6.254254
    5        6.559485
    6        6.900596
    7        7.087411
    8        7.321105
    9        7.685173
   10        7.781776
   11       10.348270
   12       14.037225
   13       19.061610
   14       25.447429
   15       27.926250
   16       28.295825
   17       28.854254
   18       29.140086
   19       30.532178
   20       34.354711
 
 -0.1250000E+00  0.2500000E-01  0.2500000E-01  0.2500000E-03
    1        1.310133
    2        2.977793
    3        5.636633
    4        6.637957
    5        6.704816
    6        6.859812
    7        7.044778
    8        7.183139
    9        7.314208
   10        8.155487
   11       10.226867
   12       12.797418
   13       19.126845
   14       25.408046
   15       28.211456
   16       28.418832
   17       29.885943
   18       30.111669
   19       30.516062
   20       33.842395
 
 -0.1250000E+00  0.1000000E+00 -0.2500000E-01  0.2500000E-03
    1        1.310132
    2        2.977800
    3        5.636639
    4        6.637925
    5        6.704903
    6        6.859793
    7        7.044753
    8        7.183188
    9        7.314151
   10        8.155480
   11       10.226814
   12       12.797447
   13       19.126846
   14       25.408037
   15       28.211471
   16       28.418921
   17       29.885903
   18       30.111603
   19       30.516023
   20       33.842508
 
 -0.7500000E-01  0.2500000E-01  0.2500000E-01  0.2500000E-03
    1        1.000283
    2        2.750726
    3        5.940008
    4        6.378637
    5        6.677344
    6        6.855910
    7        7.055173
    8        7.337760
    9        7.369117
   10        8.810317
   11       10.126107
   12       11.618723
   13       19.172235
   14       25.024651
   15       27.908166
   16       28.325080
   17       31.086088
   18       31.302273
   19       31.669695
   20       33.507223
 
 -0.7500000E-01  0.5000000E-01 -0.2500000E-01  0.2500000E-03
    1        1.000283
    2        2.750727
    3        5.940019
    4        6.378619
    5        6.677352
    6        6.855946
    7        7.055131
    8        7.337701
    9        7.369179
   10        8.810331
   11       10.126071
   12       11.618741
   13       19.172236
   14       25.024650
   15       27.908168
   16       28.325090
   17       31.086090
   18       31.302243
   19       31.669668
   20       33.507290
 
 -0.2500000E-01  0.2500000E-01  0.2500000E-01  0.2500000E-03
    1        0.862544
    2        2.643978
    3        6.167361
    4        6.262742
    5        6.486087
    6        6.918630
    7        6.948104
    8        7.460776
    9        7.466139
   10        9.577321
   11       10.075122
   12       10.659317
   13       19.190589
   14       24.811801
   15       27.753475
   16       28.176695
   17       32.008369
   18       32.058538
   19       32.898127
   20       33.398296
 
 -0.2500000E-01  0.0000000E+00 -0.2500000E-01  0.2500000E-03
    1        0.862544
    2        2.643977
    3        6.167328
    4        6.262785
    5        6.486079
    6        6.918531
    7        6.948203
    8        7.460851
    9        7.466064
   10        9.577273
   11       10.075211
   12       10.659275
   13       19.190588
   14       24.811801
   15       27.753475
   16       28.176692
   17       32.008388
   18       32.058529
   19       32.898236
   20       33.398142
 
  0.2500000E-01  0.7500000E-01  0.2500000E-01  0.2500000E-03
    1        1.135174
    2        2.852170
    3        5.792317
    4        6.489282
    5        6.762316
    6        6.829476
    7        7.153609
    8        7.193682
    9        7.290609
   10        8.443890
   11       10.173717
   12       12.195711
   13       19.152225
   14       25.211224
   15       28.051122
   16       28.415914
   17       30.462865
   18       30.727604
   19       31.014554
   20       33.646991
 
  0.2500000E-01 -0.1000000E+00 -0.2500000E-01  0.2500000E-03
    1        1.135173
    2        2.852172
    3        5.792336
    4        6.489242
    5        6.762332
    6        6.829526
    7        7.153560
    8        7.193695
    9        7.290581
   10        8.443918
   11       10.173668
   12       12.195732
   13       19.152224
   14       25.211224
   15       28.051126
   16       28.415936
   17       30.462782
   18       30.727679
   19       31.014492
   20       33.647072
 
  0.7500000E-01  0.7500000E-01  0.2500000E-01  0.2500000E-03
    1        1.439308
    2        3.070541
    3        5.523350
    4        6.658425
    5        6.738267
    6        6.875789
    7        6.911254
    8        7.094761
    9        7.448203
   10        8.052208
   11       10.252067
   12       13.183727
   13       19.108898
   14       25.524573
   15       28.177240
   16       28.348039
   17       29.495166
   18       29.955632
   19       30.242098
   20       33.961051
 
  0.7500000E-01 -0.1500000E+00 -0.2500000E-01  0.2500000E-03
    1        1.439306
    2        3.070549
    3        5.523383
    4        6.658510
    5        6.738234
    6        6.875810
    7        6.911231
    8        7.094743
    9        7.448105
   10        8.052251
   11       10.251983
   12       13.183766
   13       19.108903
   14       25.524573
   15       28.177300
   16       28.348056
   17       29.495070
   18       29.955750
   19       30.241963
   20       33.961195
 
  0.1250000E+00  0.7500000E-01  0.2500000E-01  0.2500000E-03
    1        1.884395
    2        3.353038
    3        5.228940
    4        6.153521
    5        6.561133
    6        6.733641
    7        7.200473
    8        7.287939
    9        7.801232
   10        7.874785
   11       10.346840
   12       14.329670
   13       19.048364
   14       25.501370
   15       27.151220
   16       28.358547
   17       28.792304
   18       29.390729
   19       30.483555
   20       34.329256
 
  0.1250000E+00 -0.2000000E+00 -0.2500000E-01  0.2500000E-03
    1        1.884390
    2        3.353061
    3        5.228965
    4        6.153569
    5        6.561229
    6        6.733614
    7        7.200374
    8        7.287944
    9        7.801254
   10        7.874674
   11       10.346758
   12       14.329712
   13       19.048382
   14       25.501358
   15       27.151239
   16       28.358513
   17       28.792283
   18       29.390842
   19       30.483477
   20       34.329423
 
  0.1750000E+00  0.7500000E-01  0.2500000E-01  0.2500000E-03
    1        2.414107
    2        3.584895
    3        5.030473
    4        5.470668
    5        6.436111
    6        6.525909
    7        7.539289
    8        7.640640
    9        7.785551
   10        8.423523
   11       10.445251
   12       15.538607
   13       18.986549
   14       24.428895
   15       26.155395
   16       27.353811
   17       29.016944
   18       29.468376
   19       31.158680
   20       34.488634
 
  0.1750000E+00 -0.2500000E+00 -0.2500000E-01  0.2500000E-03
    1        2.414099
    2        3.584942
    3        5.030476
    4        5.470717
    5        6.436171
    6        6.525929
    7        7.539276
    8        7.640637
    9        7.785443
   10        8.423392
   11       10.445179
   12       15.538652
   13       18.986575
   14       24.428887
   15       26.155377
   16       27.353742
   17       29.016999
   18       29.468486
   19       31.158646
   20       34.488810
 
  0.2250000E+00  0.7500000E-01  0.2500000E-01  0.2500000E-03
    1        2.922402
    2        3.616445
    3        4.834641
    4        5.086959
    5        6.276164
    6        6.495517
    7        7.354582
    8        8.099652
    9        8.384597
   10        9.079232
   11       10.534129
   12       16.751339
   13       18.951404
   14       22.776315
   15       25.117097
   16       26.421986
   17       29.144109
   18       29.606554
   19       31.653058
   20       33.679938
 
  0.2250000E+00 -0.3000000E+00 -0.2500000E-01  0.2500000E-03
    1        2.922393
    2        3.616512
    3        4.834691
    4        5.086943
    5        6.276155
    6        6.495603
    7        7.354558
    8        8.099657
    9        8.384439
   10        9.079088
   11       10.534069
   12       16.751389
   13       18.951438
   14       22.776308
   15       25.117070
   16       26.421916
   17       29.144178
   18       29.606674
   19       31.653066
   20       33.679989
 
  0.2750000E+00  0.7500000E-01  0.2500000E-01  0.2500000E-03
    1        3.215074
    2        3.525586
    3        4.297872
    4        5.409702
    5        6.106537
    6        6.658800
    7        7.161398
    8        8.674926
    9        9.022353
   10        9.830198
   11       10.607599
   12       17.873881
   13       18.989605
   14       21.074103
   15       24.022834
   16       25.624654
   17       28.592262
   18       29.126992
   19       31.927607
   20       32.825286
 
  0.2750000E+00 -0.3500000E+00 -0.2500000E-01  0.2500000E-03
    1        3.215088
    2        3.525634
    3        4.297925
    4        5.409679
    5        6.106533
    6        6.658875
    7        7.161355
    8        8.674928
    9        9.022164
   10        9.830042
   11       10.607548
   12       17.873936
   13       18.989642
   14       21.074106
   15       24.022810
   16       25.624585
   17       28.592350
   18       29.127045
   19       31.927648
   20       32.825396
 
  0.3250000E+00  0.7500000E-01  0.2500000E-01  0.2500000E-03
    1        3.128000
    2        3.545843
    3        3.893598
    4        5.854246
    5        6.004048
    6        6.896432
    7        7.017149
    8        9.323650
    9        9.613866
   10       10.603837
   11       10.738190
   12       18.245929
   13       19.350202
   14       19.881103
   15       23.001571
   16       24.966546
   17       27.189830
   18       28.513879
   19       31.596077
   20       32.703712
 
  0.3250000E+00 -0.4000000E+00 -0.2500000E-01  0.2500000E-03
    1        3.128053
    2        3.545860
    3        3.893649
    4        5.854218
    5        6.004046
    6        6.896473
    7        7.017113
    8        9.323637
    9        9.613659
   10       10.603758
   11       10.738069
   12       18.245927
   13       19.350255
   14       19.881175
   15       23.001555
   16       24.966473
   17       27.189883
   18       28.513910
   19       31.596071
   20       32.703925
 
  0.3750000E+00  0.7500000E-01  0.2500000E-01  0.2500000E-03
    1        2.968574
    2        3.458383
    3        3.697464
    4        5.863991
    5        6.336827
    6        6.913493
    7        7.158617
    8        9.916507
    9       10.098292
   10       10.683650
   11       11.660132
   12       17.047464
   13       19.745912
   14       20.307467
   15       22.169299
   16       24.441158
   17       25.742478
   18       27.904822
   19       30.791231
   20       33.066379
 
  0.3750000E+00 -0.4500000E+00 -0.2500000E-01  0.2500000E-03
    1        2.968629
    2        3.458419
    3        3.697497
    4        5.864000
    5        6.336773
    6        6.913419
    7        7.158679
    8        9.916449
    9       10.098089
   10       10.683617
   11       11.659991
   12       17.047414
   13       19.746030
   14       20.307570
   15       22.169293
   16       24.441075
   17       25.742490
   18       27.904838
   19       30.791244
   20       33.066592
 
  0.4250000E+00  0.7500000E-01  0.2500000E-01  0.2500000E-03
    1        2.865854
    2        3.324132
    3        3.649551
    4        5.816714
    5        6.523030
    6        6.977833
    7        7.304510
    8       10.269517
    9       10.432854
   10       10.702790
   11       12.686052
   12       15.667201
   13       20.088386
   14       20.937341
   15       21.645246
   16       24.080718
   17       24.692984
   18       27.468773
   19       30.257970
   20       33.290555
 
  0.4250000E+00  0.5000000E+00 -0.2500000E-01  0.2500000E-03
    1        2.865912
    2        3.324178
    3        3.649576
    4        5.816732
    5        6.522952
    6        6.977751
    7        7.304571
    8       10.269378
    9       10.432695
   10       10.702761
   11       12.685966
   12       15.667126
   13       20.088544
   14       20.937473
   15       21.645243
   16       24.080613
   17       24.692964
   18       27.468776
   19       30.257981
   20       33.290784
 
  0.4750000E+00  0.7500000E-01  0.2500000E-01  0.2500000E-03
    1        2.844335
    2        3.293685
    3        3.641601
    4        5.805705
    5        6.541628
    6        7.014767
    7        7.335416
    8       10.336023
    9       10.510511
   10       10.705232
   11       13.062728
   12       15.213520
   13       20.197884
   14       21.079161
   15       21.534015
   16       24.002742
   17       24.441208
   18       27.373639
   19       30.145284
   20       33.336636
 
  0.4750000E+00  0.4500000E+00 -0.2500000E-01  0.2500000E-03
    1        2.844396
    2        3.293731
    3        3.641627