       N       E                     dE             d eps       ncg     rms          rms(c)
DAV:   1     0.464827264219E+02    0.46483E+02   -0.37661E+03183776   0.376E+02
DAV:   2    -0.213222695990E+02   -0.67805E+02   -0.59505E+02175660   0.142E+02
DAV:   3    -0.226558069662E+02   -0.13335E+01   -0.13257E+01184708   0.220E+01
DAV:   4    -0.226716145065E+02   -0.15808E-01   -0.15805E-01181836   0.234E+00
DAV:   5    -0.226719697341E+02   -0.35523E-03   -0.35522E-03189080   0.345E-01    0.715E+00
DAV:   6    -0.214143896345E+02    0.12576E+01   -0.11484E+00180784   0.128E+01    0.218E+00
DAV:   7    -0.212655012424E+02    0.14889E+00   -0.18540E-01215244   0.432E+00    0.234E-01
DAV:   8    -0.212486054973E+02    0.16896E-01   -0.12174E-02191228   0.935E-01    0.992E-02
DAV:   9    -0.212479820528E+02    0.62344E-03   -0.18398E-04200660   0.131E-01    0.237E-02
DAV:  10    -0.212479922368E+02   -0.10184E-04   -0.55247E-05 97624   0.725E-02
   1 F= -.21247992E+02 E0= -.21248163E+02  d E =0.511350E-03
 imaginary and real dielectric function
