<?xml version="1.0" encoding="ISO-8859-1"?>
<modeling>
 <generator>
  <i name="program" type="string">vasp </i>
  <i name="version" type="string">5.3.5  </i>
  <i name="subversion" type="string">31Mar14 (build Dec 14 2018 19:18:10) complex                          serial </i>
  <i name="platform" type="string">LinuxIFC </i>
  <i name="date" type="string">2022 11 16 </i>
  <i name="time" type="string">01:11:14 </i>
 </generator>
 <incar>
  <i type="string" name="SYSTEM"> hcp Ru</i>
  <i type="string" name="PREC">normal</i>
  <i type="int" name="NBANDS">    20</i>
  <i type="logical" name="LOPTICS"> T  </i>
  <i type="logical" name="LSCALAPACK"> F  </i>
 </incar>
 <kpoints>
  <generation param="Monkhorst-Pack">
   <v type="int" name="divisions">      20       20       20 </v>
   <v name="usershift">      0.00000000       0.00000000       0.00000000 </v>
   <v name="genvec1">      0.05000000      -0.00000000       0.00000000 </v>
   <v name="genvec2">      0.00000000       0.05000000       0.00000000 </v>
   <v name="genvec3">      0.00000000       0.00000000       0.05000000 </v>
   <v name="shift">      0.50000000       0.50000000       0.50000000 </v>
  </generation>
  <varray name="kpointlist" >
   <v>       0.02500000       0.02500000       0.02500000 </v>
   <v>       0.02500000      -0.05000000      -0.02500000 </v>
   <v>       0.07500000       0.02500000       0.02500000 </v>
   <v>       0.07500000      -0.10000000      -0.02500000 </v>
   <v>       0.12500000       0.02500000       0.02500000 </v>
   <v>       0.12500000      -0.15000000      -0.02500000 </v>
   <v>       0.17500000       0.02500000       0.02500000 </v>
   <v>       0.17500000      -0.20000000      -0.02500000 </v>
   <v>       0.22500000       0.02500000       0.02500000 </v>
   <v>       0.22500000      -0.25000000      -0.02500000 </v>
   <v>       0.27500000       0.02500000       0.02500000 </v>
   <v>       0.27500000      -0.30000000      -0.02500000 </v>
   <v>       0.32500000       0.02500000       0.02500000 </v>
   <v>       0.32500000      -0.35000000      -0.02500000 </v>
   <v>       0.37500000       0.02500000       0.02500000 </v>
   <v>       0.37500000      -0.40000000      -0.02500000 </v>
   <v>       0.42500000       0.02500000       0.02500000 </v>
   <v>       0.42500000      -0.45000000      -0.02500000 </v>
   <v>       0.47500000       0.02500000       0.02500000 </v>
   <v>       0.47500000       0.50000000      -0.02500000 </v>
   <v>      -0.47500000       0.02500000       0.02500000 </v>
   <v>      -0.47500000       0.45000000      -0.02500000 </v>
   <v>      -0.42500000       0.02500000       0.02500000 </v>
   <v>      -0.42500000       0.40000000      -0.02500000 </v>
   <v>      -0.37500000       0.02500000       0.02500000 </v>
   <v>      -0.37500000       0.35000000      -0.02500000 </v>
   <v>      -0.32500000       0.02500000       0.02500000 </v>
   <v>      -0.32500000       0.30000000      -0.02500000 </v>
   <v>      -0.27500000       0.02500000       0.02500000 </v>
   <v>      -0.27500000       0.25000000      -0.02500000 </v>
   <v>      -0.22500000       0.02500000       0.02500000 </v>
   <v>      -0.22500000       0.20000000      -0.02500000 </v>
   <v>      -0.17500000       0.02500000       0.02500000 </v>
   <v>      -0.17500000       0.15000000      -0.02500000 </v>
   <v>      -0.12500000       0.02500000       0.02500000 </v>
   <v>      -0.12500000       0.10000000      -0.02500000 </v>
   <v>      -0.07500000       0.02500000       0.02500000 </v>
   <v>      -0.07500000       0.05000000      -0.02500000 </v>
   <v>      -0.02500000       0.02500000       0.02500000 </v>
   <v>      -0.02500000       0.00000000      -0.02500000 </v>
   <v>       0.02500000       0.07500000       0.02500000 </v>
   <v>       0.02500000      -0.10000000      -0.02500000 </v>
   <v>       0.07500000       0.07500000       0.02500000 </v>
   <v>       0.07500000      -0.15000000      -0.02500000 </v>
   <v>       0.12500000       0.07500000       0.02500000 </v>
   <v>       0.12500000      -0.20000000      -0.02500000 </v>
   <v>       0.17500000       0.07500000       0.02500000 </v>
   <v>       0.17500000      -0.25000000      -0.02500000 </v>
   <v>       0.22500000       0.07500000       0.02500000 </v>
   <v>       0.22500000      -0.30000000      -0.02500000 </v>
   <v>       0.27500000       0.07500000       0.02500000 </v>
   <v>       0.27500000      -0.35000000      -0.02500000 </v>
   <v>       0.32500000       0.07500000       0.02500000 </v>
   <v>       0.32500000      -0.40000000      -0.02500000 </v>
   <v>       0.37500000       0.07500000       0.02500000 </v>
   <v>       0.37500000      -0.45000000      -0.02500000 </v>
   <v>       0.42500000       0.07500000       0.02500000 </v>
   <v>       0.42500000       0.50000000      -0.02500000 </v>
   <v>       0.47500000       0.07500000       0.02500000 </v>
   <v>       0.47500000       0.45000000      -0.02500000 </v>
   <v>      -0.47500000       0.07500000       0.02500000 </v>
   <v>      -0.47500000       0.40000000      -0.02500000 </v>
   <v>      -0.42500000       0.07500000       0.02500000 </v>
   <v>      -0.42500000       0.35000000      -0.02500000 </v>
   <v>      -0.37500000       0.07500000       0.02500000 </v>
   <v>      -0.37500000       0.30000000      -0.02500000 </v>
   <v>      -0.32500000       0.07500000       0.02500000 </v>
   <v>      -0.32500000       0.25000000      -0.02500000 </v>
   <v>      -0.27500000       0.07500000       0.02500000 </v>
   <v>      -0.27500000       0.20000000      -0.02500000 </v>
   <v>      -0.22500000       0.07500000       0.02500000 </v>
   <v>      -0.22500000       0.15000000      -0.02500000 </v>
   <v>      -0.17500000       0.07500000       0.02500000 </v>
   <v>      -0.17500000       0.10000000      -0.02500000 </v>
   <v>      -0.12500000       0.07500000       0.02500000 </v>
   <v>      -0.12500000       0.05000000      -0.02500000 </v>
   <v>      -0.07500000       0.07500000       0.02500000 </v>
   <v>      -0.07500000       0.00000000      -0.02500000 </v>
   <v>      -0.02500000       0.07500000       0.02500000 </v>
   <v>      -0.02500000      -0.05000000      -0.02500000 </v>
   <v>       0.02500000       0.12500000       0.02500000 </v>
   <v>       0.02500000      -0.15000000      -0.02500000 </v>
   <v>       0.07500000       0.12500000       0.02500000 </v>
   <v>       0.07500000      -0.20000000      -0.02500000 </v>
   <v>       0.12500000       0.12500000       0.02500000 </v>
   <v>       0.12500000      -0.25000000      -0.02500000 </v>
   <v>       0.17500000       0.12500000       0.02500000 </v>
   <v>       0.17500000      -0.30000000      -0.02500000 </v>
   <v>       0.22500000       0.12500000       0.02500000 </v>
   <v>       0.22500000      -0.35000000      -0.02500000 </v>
   <v>       0.27500000       0.12500000       0.02500000 </v>
   <v>       0.27500000      -0.40000000      -0.02500000 </v>
   <v>       0.32500000       0.12500000       0.02500000 </v>
   <v>       0.32500000      -0.45000000      -0.02500000 </v>
   <v>       0.37500000       0.12500000       0.02500000 </v>
   <v>       0.37500000       0.50000000      -0.02500000 </v>
   <v>       0.42500000       0.12500000       0.02500000 </v>
   <v>       0.42500000       0.45000000      -0.02500000 </v>
   <v>       0.47500000       0.12500000       0.02500000 </v>
   <v>       0.47500000       0.40000000      -0.02500000 </v>
   <v>      -0.47500000       0.12500000       0.02500000 </v>
   <v>      -0.47500000       0.35000000      -0.02500000 </v>
   <v>      -0.42500000       0.12500000       0.02500000 </v>
   <v>      -0.42500000       0.30000000      -0.02500000 </v>
   <v>      -0.37500000       0.12500000       0.02500000 </v>
   <v>      -0.37500000       0.25000000      -0.02500000 </v>
   <v>      -0.32500000       0.12500000       0.02500000 </v>
   <v>      -0.32500000       0.20000000      -0.02500000 </v>
   <v>      -0.27500000       0.12500000       0.02500000 </v>
   <v>      -0.27500000       0.15000000      -0.02500000 </v>
   <v>      -0.22500000       0.12500000       0.02500000 </v>
   <v>      -0.22500000       0.10000000      -0.02500000 </v>
   <v>      -0.17500000       0.12500000       0.02500000 </v>
   <v>      -0.17500000       0.05000000      -0.02500000 </v>
   <v>      -0.12500000       0.12500000       0.02500000 </v>
   <v>      -0.12500000       0.00000000      -0.02500000 </v>
   <v>      -0.07500000       0.12500000       0.02500000 </v>
   <v>      -0.07500000      -0.05000000      -0.02500000 </v>
   <v>      -0.02500000       0.12500000       0.02500000 </v>
   <v>      -0.02500000      -0.10000000      -0.02500000 </v>
   <v>       0.02500000       0.17500000       0.02500000 </v>
   <v>       0.02500000      -0.20000000      -0.02500000 </v>
   <v>       0.07500000       0.17500000       0.02500000 </v>
   <v>       0.07500000      -0.25000000      -0.02500000 </v>
   <v>       0.12500000       0.17500000       0.02500000 </v>
   <v>       0.12500000      -0.30000000      -0.02500000 </v>
   <v>       0.17500000       0.17500000       0.02500000 </v>
   <v>       0.17500000      -0.35000000      -0.02500000 </v>
   <v>       0.22500000       0.17500000       0.02500000 </v>
   <v>       0.22500000      -0.40000000      -0.02500000 </v>
   <v>       0.27500000       0.17500000       0.02500000 </v>
   <v>       0.27500000      -0.45000000      -0.02500000 </v>
   <v>       0.32500000       0.17500000       0.02500000 </v>
   <v>       0.32500000       0.50000000      -0.02500000 </v>
   <v>       0.37500000       0.17500000       0.02500000 </v>
   <v>       0.37500000       0.45000000      -0.02500000 </v>
   <v>       0.42500000       0.17500000       0.02500000 </v>
   <v>       0.42500000       0.40000000      -0.02500000 </v>
   <v>       0.47500000       0.17500000       0.02500000 </v>
   <v>       0.47500000       0.35000000      -0.02500000 </v>
   <v>      -0.47500000       0.17500000       0.02500000 </v>
   <v>      -0.47500000       0.30000000      -0.02500000 </v>
   <v>      -0.42500000       0.17500000       0.02500000 </v>
   <v>      -0.42500000       0.25000000      -0.02500000 </v>
   <v>      -0.37500000       0.17500000       0.02500000 </v>
   <v>      -0.37500000       0.20000000      -0.02500000 </v>
   <v>      -0.32500000       0.17500000       0.02500000 </v>
   <v>      -0.32500000       0.15000000      -0.02500000 </v>
   <v>      -0.27500000       0.17500000       0.02500000 </v>
   <v>      -0.27500000       0.10000000      -0.02500000 </v>
   <v>      -0.22500000       0.17500000       0.02500000 </v>
   <v>      -0.22500000       0.05000000      -0.02500000 </v>
   <v>      -0.17500000       0.17500000       0.02500000 </v>
   <v>      -0.17500000       0.00000000      -0.02500000 </v>
   <v>      -0.12500000       0.17500000       0.02500000 </v>
   <v>      -0.12500000      -0.05000000      -0.02500000 </v>
   <v>      -0.07500000       0.17500000       0.02500000 </v>
   <v>      -0.07500000      -0.10000000      -0.02500000 </v>
   <v>      -0.02500000       0.17500000       0.02500000 </v>
   <v>      -0.02500000      -0.15000000      -0.02500000 </v>
   <v>       0.02500000       0.22500000       0.02500000 </v>
   <v>       0.02500000      -0.25000000      -0.02500000 </v>
   <v>       0.07500000       0.22500000       0.02500000 </v>
   <v>       0.07500000      -0.30000000      -0.02500000 </v>
   <v>       0.12500000       0.22500000       0.02500000 </v>
   <v>       0.12500000      -0.35000000      -0.02500000 </v>
   <v>       0.17500000       0.22500000       0.02500000 </v>
   <v>       0.17500000      -0.40000000      -0.02500000 </v>
   <v>       0.22500000       0.22500000       0.02500000 </v>
   <v>       0.22500000      -0.45000000      -0.02500000 </v>
   <v>       0.27500000       0.22500000       0.02500000 </v>
   <v>       0.27500000       0.50000000      -0.02500000 </v>
   <v>       0.32500000       0.22500000       0.02500000 </v>
   <v>       0.32500000       0.45000000      -0.02500000 </v>
   <v>       0.37500000       0.22500000       0.02500000 </v>
   <v>       0.37500000       0.40000000      -0.02500000 </v>
   <v>       0.42500000       0.22500000       0.02500000 </v>
   <v>       0.42500000       0.35000000      -0.02500000 </v>
   <v>       0.47500000       0.22500000       0.02500000 </v>
   <v>       0.47500000       0.30000000      -0.02500000 </v>
   <v>      -0.47500000       0.22500000       0.02500000 </v>
   <v>      -0.47500000       0.25000000      -0.02500000 </v>
   <v>      -0.42500000       0.22500000       0.02500000 </v>
   <v>      -0.42500000       0.20000000      -0.02500000 </v>
   <v>      -0.37500000       0.22500000       0.02500000 </v>
   <v>      -0.37500000       0.15000000      -0.02500000 </v>
   <v>      -0.32500000       0.22500000       0.02500000 </v>
   <v>      -0.32500000       0.10000000      -0.02500000 </v>
   <v>      -0.27500000       0.22500000       0.02500000 </v>
   <v>      -0.27500000       0.05000000      -0.02500000 </v>
   <v>      -0.22500000       0.22500000       0.02500000 </v>
   <v>      -0.22500000      -0.00000000      -0.02500000 </v>
   <v>      -0.17500000       0.22500000       0.02500000 </v>
   <v>      -0.17500000      -0.05000000      -0.02500000 </v>
   <v>      -0.12500000       0.22500000       0.02500000 </v>
   <v>      -0.12500000      -0.10000000      -0.02500000 </v>
   <v>      -0.07500000       0.22500000       0.02500000 </v>
   <v>      -0.07500000      -0.15000000      -0.02500000 </v>
   <v>      -0.02500000       0.22500000       0.02500000 </v>
   <v>      -0.02500000      -0.20000000      -0.02500000 </v>
   <v>       0.02500000       0.27500000       0.02500000 </v>
   <v>       0.02500000      -0.30000000      -0.02500000 </v>
   <v>       0.07500000       0.27500000       0.02500000 </v>
   <v>       0.07500000      -0.35000000      -0.02500000 </v>
   <v>       0.12500000       0.27500000       0.02500000 </v>
   <v>       0.12500000      -0.40000000      -0.02500000 </v>
   <v>       0.17500000       0.27500000       0.02500000 </v>
   <v>       0.17500000      -0.45000000      -0.02500000 </v>
   <v>       0.22500000       0.27500000       0.02500000 </v>
   <v>       0.22500000       0.50000000      -0.02500000 </v>
   <v>       0.27500000       0.27500000       0.02500000 </v>
   <v>       0.27500000       0.45000000      -0.02500000 </v>
   <v>       0.32500000       0.27500000       0.02500000 </v>
   <v>       0.32500000       0.40000000      -0.02500000 </v>
   <v>       0.37500000       0.27500000       0.02500000 </v>
   <v>       0.37500000       0.35000000      -0.02500000 </v>
   <v>       0.42500000       0.27500000       0.02500000 </v>
   <v>       0.42500000       0.30000000      -0.02500000 </v>
   <v>       0.47500000       0.27500000       0.02500000 </v>
   <v>       0.47500000       0.25000000      -0.02500000 </v>
   <v>      -0.47500000       0.27500000       0.02500000 </v>
   <v>      -0.47500000       0.20000000      -0.02500000 </v>
   <v>      -0.42500000       0.27500000       0.02500000 </v>
   <v>      -0.42500000       0.15000000      -0.02500000 </v>
   <v>      -0.37500000       0.27500000       0.02500000 </v>
   <v>      -0.37500000       0.10000000      -0.02500000 </v>
   <v>      -0.32500000       0.27500000       0.02500000 </v>
   <v>      -0.32500000       0.05000000      -0.02500000 </v>
   <v>      -0.27500000       0.27500000       0.02500000 </v>
   <v>      -0.27500000       0.00000000      -0.02500000 </v>
   <v>      -0.22500000       0.27500000       0.02500000 </v>
   <v>      -0.22500000      -0.05000000      -0.02500000 </v>
   <v>      -0.17500000       0.27500000       0.02500000 </v>
   <v>      -0.17500000      -0.10000000      -0.02500000 </v>
   <v>      -0.12500000       0.27500000       0.02500000 </v>
   <v>      -0.12500000      -0.15000000      -0.02500000 </v>
   <v>      -0.07500000       0.27500000       0.02500000 </v>
   <v>      -0.07500000      -0.20000000      -0.02500000 </v>
   <v>      -0.02500000       0.27500000       0.02500000 </v>
   <v>      -0.02500000      -0.25000000      -0.02500000 </v>
   <v>       0.02500000       0.32500000       0.02500000 </v>
   <v>       0.02500000      -0.35000000      -0.02500000 </v>
   <v>       0.07500000       0.32500000       0.02500000 </v>
   <v>       0.07500000      -0.40000000      -0.02500000 </v>
   <v>       0.12500000       0.32500000       0.02500000 </v>
   <v>       0.12500000      -0.45000000      -0.02500000 </v>
   <v>       0.17500000       0.32500000       0.02500000 </v>
   <v>       0.17500000       0.50000000      -0.02500000 </v>
   <v>       0.22500000       0.32500000       0.02500000 </v>
   <v>       0.22500000       0.45000000      -0.02500000 </v>
   <v>       0.27500000       0.32500000       0.02500000 </v>
   <v>       0.27500000       0.40000000      -0.02500000 </v>
   <v>       0.32500000       0.32500000       0.02500000 </v>
   <v>       0.32500000       0.35000000      -0.02500000 </v>
   <v>       0.37500000       0.32500000       0.02500000 </v>
   <v>       0.37500000       0.30000000      -0.02500000 </v>
   <v>       0.42500000       0.32500000       0.02500000 </v>
   <v>       0.42500000       0.25000000      -0.02500000 </v>
   <v>       0.47500000       0.32500000       0.02500000 </v>
   <v>       0.47500000       0.20000000      -0.02500000 </v>
   <v>      -0.47500000       0.32500000       0.02500000 </v>
   <v>      -0.47500000       0.15000000      -0.02500000 </v>
   <v>      -0.42500000       0.32500000       0.02500000 </v>
   <v>      -0.42500000       0.10000000      -0.02500000 </v>
   <v>      -0.37500000       0.32500000       0.02500000 </v>
   <v>      -0.37500000       0.05000000      -0.02500000 </v>
   <v>      -0.32500000       0.32500000       0.02500000 </v>
   <v>      -0.32500000      -0.00000000      -0.02500000 </v>
   <v>      -0.27500000       0.32500000       0.02500000 </v>
   <v>      -0.27500000      -0.05000000      -0.02500000 </v>
   <v>      -0.22500000       0.32500000       0.02500000 </v>
   <v>      -0.22500000      -0.10000000      -0.02500000 </v>
   <v>      -0.17500000       0.32500000       0.02500000 </v>
   <v>      -0.17500000      -0.15000000      -0.02500000 </v>
   <v>      -0.12500000       0.32500000       0.02500000 </v>
   <v>      -0.12500000      -0.20000000      -0.02500000 </v>
   <v>      -0.07500000       0.32500000       0.02500000 </v>
   <v>      -0.07500000      -0.25000000      -0.02500000 </v>
   <v>      -0.02500000       0.32500000       0.02500000 </v>
   <v>      -0.02500000      -0.30000000      -0.02500000 </v>
   <v>       0.02500000       0.37500000       0.02500000 </v>
   <v>       0.02500000      -0.40000000      -0.02500000 </v>
   <v>       0.07500000       0.37500000       0.02500000 </v>
   <v>       0.07500000      -0.45000000      -0.02500000 </v>
   <v>       0.12500000       0.37500000       0.02500000 </v>
   <v>       0.12500000       0.50000000      -0.02500000 </v>
   <v>       0.17500000       0.37500000       0.02500000 </v>
   <v>       0.17500000       0.45000000      -0.02500000 </v>
   <v>       0.22500000       0.37500000       0.02500000 </v>
   <v>       0.22500000       0.40000000      -0.02500000 </v>
   <v>       0.27500000       0.37500000       0.02500000 </v>
   <v>       0.27500000       0.35000000      -0.02500000 </v>
   <v>       0.32500000       0.37500000       0.02500000 </v>
   <v>       0.32500000       0.30000000      -0.02500000 </v>
   <v>       0.37500000       0.37500000       0.02500000 </v>
   <v>       0.37500000       0.25000000      -0.02500000 </v>
   <v>       0.42500000       0.37500000       0.02500000 </v>
   <v>       0.42500000       0.20000000      -0.02500000 </v>
   <v>       0.47500000       0.37500000       0.02500000 </v>
   <v>       0.47500000       0.15000000      -0.02500000 </v>
   <v>      -0.47500000       0.37500000       0.02500000 </v>
   <v>      -0.47500000       0.10000000      -0.02500000 </v>
   <v>      -0.42500000       0.37500000       0.02500000 </v>
   <v>      -0.42500000       0.05000000      -0.02500000 </v>
   <v>      -0.37500000       0.37500000       0.02500000 </v>
   <v>      -0.37500000      -0.00000000      -0.02500000 </v>
   <v>      -0.32500000       0.37500000       0.02500000 </v>
   <v>      -0.32500000      -0.05000000      -0.02500000 </v>
   <v>      -0.27500000       0.37500000       0.02500000 </v>
   <v>      -0.27500000      -0.10000000      -0.02500000 </v>
   <v>      -0.22500000       0.37500000       0.02500000 </v>
   <v>      -0.22500000      -0.15000000      -0.02500000 </v>
   <v>      -0.17500000       0.37500000       0.02500000 </v>
   <v>      -0.17500000      -0.20000000      -0.02500000 </v>
   <v>      -0.12500000       0.37500000       0.02500000 </v>
   <v>      -0.12500000      -0.25000000      -0.02500000 </v>
   <v>      -0.07500000       0.37500000       0.02500000 </v>
   <v>      -0.07500000      -0.30000000      -0.02500000 </v>
   <v>      -0.02500000       0.37500000       0.02500000 </v>
   <v>      -0.02500000      -0.35000000      -0.02500000 </v>
   <v>       0.02500000       0.42500000       0.02500000 </v>
   <v>       0.02500000      -0.45000000      -0.02500000 </v>
   <v>       0.07500000       0.42500000       0.02500000 </v>
   <v>       0.07500000       0.50000000      -0.02500000 </v>
   <v>       0.12500000       0.42500000       0.02500000 </v>
   <v>       0.12500000       0.45000000      -0.02500000 </v>
   <v>       0.17500000       0.42500000       0.02500000 </v>
   <v>       0.17500000       0.40000000      -0.02500000 </v>
   <v>       0.22500000       0.42500000       0.02500000 </v>
   <v>       0.22500000       0.35000000      -0.02500000 </v>
   <v>       0.27500000       0.42500000       0.02500000 </v>
   <v>       0.27500000       0.30000000      -0.02500000 </v>
   <v>       0.32500000       0.42500000       0.02500000 </v>
   <v>       0.32500000       0.25000000      -0.02500000 </v>
   <v>       0.37500000       0.42500000       0.02500000 </v>
   <v>       0.37500000       0.20000000      -0.02500000 </v>
   <v>       0.42500000       0.42500000       0.02500000 </v>
   <v>       0.42500000       0.15000000      -0.02500000 </v>
   <v>       0.47500000       0.42500000       0.02500000 </v>
   <v>       0.47500000       0.10000000      -0.02500000 </v>
   <v>      -0.47500000       0.42500000       0.02500000 </v>
   <v>      -0.47500000       0.05000000      -0.02500000 </v>
   <v>      -0.42500000       0.42500000       0.02500000 </v>
   <v>      -0.42500000       0.00000000      -0.02500000 </v>
   <v>      -0.37500000       0.42500000       0.02500000 </v>
   <v>      -0.37500000      -0.05000000      -0.02500000 </v>
   <v>      -0.32500000       0.42500000       0.02500000 </v>
   <v>      -0.32500000      -0.10000000      -0.02500000 </v>
   <v>      -0.27500000       0.42500000       0.02500000 </v>
   <v>      -0.27500000      -0.15000000      -0.02500000 </v>
   <v>      -0.22500000       0.42500000       0.02500000 </v>
   <v>      -0.22500000      -0.20000000      -0.02500000 </v>
   <v>      -0.17500000       0.42500000       0.02500000 </v>
   <v>      -0.17500000      -0.25000000      -0.02500000 </v>
   <v>      -0.12500000       0.42500000       0.02500000 </v>
   <v>      -0.12500000      -0.30000000      -0.02500000 </v>
   <v>      -0.07500000       0.42500000       0.02500000 </v>
   <v>      -0.07500000      -0.35000000      -0.02500000 </v>
   <v>      -0.02500000       0.42500000       0.02500000 </v>
   <v>      -0.02500000      -0.40000000      -0.02500000 </v>
   <v>       0.02500000       0.47500000       0.02500000 </v>
   <v>       0.02500000       0.50000000      -0.02500000 </v>
   <v>       0.07500000       0.47500000       0.02500000 </v>
   <v>       0.07500000       0.45000000      -0.02500000 </v>
   <v>       0.12500000       0.47500000       0.02500000 </v>
   <v>       0.12500000       0.40000000      -0.02500000 </v>
   <v>       0.17500000       0.47500000       0.02500000 </v>
   <v>       0.17500000       0.35000000      -0.02500000 </v>
   <v>       0.22500000       0.47500000       0.02500000 </v>
   <v>       0.22500000       0.30000000      -0.02500000 </v>
   <v>       0.27500000       0.47500000       0.02500000 </v>
   <v>       0.27500000       0.25000000      -0.02500000 </v>
   <v>       0.32500000       0.47500000       0.02500000 </v>
   <v>       0.32500000       0.20000000      -0.02500000 </v>
   <v>       0.37500000       0.47500000       0.02500000 </v>
   <v>       0.37500000       0.15000000      -0.02500000 </v>
   <v>       0.42500000       0.47500000       0.02500000 </v>
   <v>       0.42500000       0.10000000      -0.02500000 </v>
   <v>       0.47500000       0.47500000       0.02500000 </v>
   <v>       0.47500000       0.05000000      -0.02500000 </v>
   <v>      -0.47500000       0.47500000       0.02500000 </v>
   <v>      -0.47500000      -0.00000000      -0.02500000 </v>
   <v>      -0.42500000       0.47500000       0.02500000 </v>
   <v>      -0.42500000      -0.05000000      -0.02500000 </v>
   <v>      -0.37500000       0.47500000       0.02500000 </v>
   <v>      -0.37500000      -0.10000000      -0.02500000 </v>
   <v>      -0.32500000       0.47500000       0.02500000 </v>
   <v>      -0.32500000      -0.15000000      -0.02500000 </v>
   <v>      -0.27500000       0.47500000       0.02500000 </v>
   <v>      -0.27500000      -0.20000000      -0.02500000 </v>
   <v>      -0.22500000       0.47500000       0.02500000 </v>
   <v>      -0.22500000      -0.25000000      -0.02500000 </v>
   <v>      -0.17500000       0.47500000       0.02500000 </v>
   <v>      -0.17500000      -0.30000000      -0.02500000 </v>
   <v>      -0.12500000       0.47500000       0.02500000 </v>
   <v>      -0.12500000      -0.35000000      -0.02500000 </v>
   <v>      -0.07500000       0.47500000       0.02500000 </v>
   <v>      -0.07500000      -0.40000000      -0.02500000 </v>
   <v>      -0.02500000       0.47500000       0.02500000 </v>
   <v>      -0.02500000      -0.45000000      -0.02500000 </v>
   <v>       0.02500000       0.02500000       0.07500000 </v>
   <v>       0.02500000      -0.05000000      -0.07500000 </v>
   <v>       0.07500000       0.02500000       0.07500000 </v>
   <v>       0.07500000      -0.10000000      -0.07500000 </v>
   <v>       0.12500000       0.02500000       0.07500000 </v>
   <v>       0.12500000      -0.15000000      -0.07500000 </v>
   <v>       0.17500000       0.02500000       0.07500000 </v>
   <v>       0.17500000      -0.20000000      -0.07500000 </v>
   <v>       0.22500000       0.02500000       0.07500000 </v>
   <v>       0.22500000      -0.25000000      -0.07500000 </v>
   <v>       0.27500000       0.02500000       0.07500000 </v>
   <v>       0.27500000      -0.30000000      -0.07500000 </v>
   <v>       0.32500000       0.02500000       0.07500000 </v>
   <v>       0.32500000      -0.35000000      -0.07500000 </v>
   <v>       0.37500000       0.02500000       0.07500000 </v>
   <v>       0.37500000      -0.40000000      -0.07500000 </v>
   <v>       0.42500000       0.02500000       0.07500000 </v>
   <v>       0.42500000      -0.45000000      -0.07500000 </v>
   <v>       0.47500000       0.02500000       0.07500000 </v>
   <v>       0.47500000       0.50000000      -0.07500000 </v>
   <v>      -0.47500000       0.02500000       0.07500000 </v>
   <v>      -0.47500000       0.45000000      -0.07500000 </v>
   <v>      -0.42500000       0.02500000       0.07500000 </v>
   <v>      -0.42500000       0.40000000      -0.07500000 </v>
   <v>      -0.37500000       0.02500000       0.07500000 </v>
   <v>      -0.37500000       0.35000000      -0.07500000 </v>
   <v>      -0.32500000       0.02500000       0.07500000 </v>
   <v>      -0.32500000       0.30000000      -0.07500000 </v>
   <v>      -0.27500000       0.02500000       0.07500000 </v>
   <v>      -0.27500000       0.25000000      -0.07500000 </v>
   <v>      -0.22500000       0.02500000       0.07500000 </v>
   <v>      -0.22500000       0.20000000      -0.07500000 </v>
   <v>      -0.17500000       0.02500000       0.07500000 </v>
   <v>      -0.17500000       0.15000000      -0.07500000 </v>
   <v>      -0.12500000       0.02500000       0.07500000 </v>
   <v>      -0.12500000       0.10000000      -0.07500000 </v>
   <v>      -0.07500000       0.02500000       0.07500000 </v>
   <v>      -0.07500000       0.05000000      -0.07500000 </v>
   <v>      -0.02500000       0.02500000       0.07500000 </v>
   <v>      -0.02500000       0.00000000      -0.07500000 </v>
   <v>       0.02500000       0.07500000       0.07500000 </v>
   <v>       0.02500000      -0.10000000      -0.07500000 </v>
   <v>       0.07500000       0.07500000       0.07500000 </v>
   <v>       0.07500000      -0.15000000      -0.07500000 </v>
   <v>       0.12500000       0.07500000       0.07500000 </v>
   <v>       0.12500000      -0.20000000      -0.07500000 </v>
   <v>       0.17500000       0.07500000       0.07500000 </v>
   <v>       0.17500000      -0.25000000      -0.07500000 </v>
   <v>       0.22500000       0.07500000       0.07500000 </v>
   <v>       0.22500000      -0.30000000      -0.07500000 </v>
   <v>       0.27500000       0.07500000       0.07500000 </v>
   <v>       0.27500000      -0.35000000      -0.07500000 </v>
   <v>       0.32500000       0.07500000       0.07500000 </v>
   <v>       0.32500000      -0.40000000      -0.07500000 </v>
   <v>       0.37500000       0.07500000       0.07500000 </v>
   <v>       0.37500000      -0.45000000      -0.07500000 </v>
   <v>       0.42500000       0.07500000       0.07500000 </v>
   <v>       0.42500000       0.50000000      -0.07500000 </v>
   <v>       0.47500000       0.07500000       0.07500000 </v>
   <v>       0.47500000       0.45000000      -0.07500000 </v>
   <v>      -0.47500000       0.07500000       0.07500000 </v>
   <v>      -0.47500000       0.40000000      -0.07500000 </v>
   <v>      -0.42500000       0.07500000       0.07500000 </v>
   <v>      -0.42500000       0.35000000      -0.07500000 </v>
   <v>      -0.37500000       0.07500000       0.07500000 </v>
   <v>      -0.37500000       0.30000000      -0.07500000 </v>
   <v>      -0.32500000       0.07500000       0.07500000 </v>
   <v>      -0.32500000       0.25000000      -0.07500000 </v>
   <v>      -0.27500000       0.07500000       0.07500000 </v>
   <v>      -0.27500000       0.20000000      -0.07500000 </v>
   <v>      -0.22500000       0.07500000       0.07500000 </v>
   <v>      -0.22500000       0.15000000      -0.07500000 </v>
   <v>      -0.17500000       0.07500000       0.07500000 </v>
   <v>      -0.17500000       0.10000000      -0.07500000 </v>
   <v>      -0.12500000       0.07500000       0.07500000 </v>
   <v>      -0.12500000       0.05000000      -0.07500000 </v>
   <v>      -0.07500000       0.07500000       0.07500000 </v>
   <v>      -0.07500000       0.00000000      -0.07500000 </v>
   <v>      -0.02500000       0.07500000       0.07500000 </v>
   <v>      -0.02500000      -0.05000000      -0.07500000 </v>
   <v>       0.02500000       0.12500000       0.07500000 </v>
   <v>       0.02500000      -0.15000000      -0.07500000 </v>
   <v>       0.07500000       0.12500000       0.07500000 </v>
   <v>       0.07500000      -0.20000000      -0.07500000 </v>
   <v>       0.12500000       0.12500000       0.07500000 </v>
   <v>       0.12500000      -0.25000000      -0.07500000 </v>
   <v>       0.17500000       0.12500000       0.07500000 </v>
   <v>       0.17500000      -0.30000000      -0.07500000 </v>
   <v>       0.22500000       0.12500000       0.07500000 </v>
   <v>       0.22500000      -0.35000000      -0.07500000 </v>
   <v>       0.27500000       0.12500000       0.07500000 </v>
   <v>       0.27500000      -0.40000000      -0.07500000 </v>
   <v>       0.32500000       0.12500000       0.07500000 </v>
   <v>       0.32500000      -0.45000000      -0.07500000 </v>
   <v>       0.37500000       0.12500000       0.07500000 </v>
   <v>       0.37500000       0.50000000      -0.07500000 </v>
   <v>       0.42500000       0.12500000       0.07500000 </v>
   <v>       0.42500000       0.45000000      -0.07500000 </v>
   <v>       0.47500000       0.12500000       0.07500000 </v>
   <v>       0.47500000       0.40000000      -0.07500000 </v>
   <v>      -0.47500000       0.12500000       0.07500000 </v>
   <v>      -0.47500000       0.35000000      -0.07500000 </v>
   <v>      -0.42500000       0.12500000       0.07500000 </v>
   <v>      -0.42500000       0.30000000      -0.07500000 </v>
   <v>      -0.37500000       0.12500000       0.07500000 </v>
   <v>      -0.37500000       0.25000000      -0.07500000 </v>
   <v>      -0.32500000       0.12500000       0.07500000 </v>
   <v>      -0.32500000       0.20000000      -0.07500000 </v>
   <v>      -0.27500000       0.12500000       0.07500000 </v>
   <v>      -0.27500000       0.15000000      -0.07500000 </v>
   <v>      -0.22500000       0.12500000       0.07500000 </v>
   <v>      -0.22500000       0.10000000      -0.07500000 </v>
   <v>      -0.17500000       0.12500000       0.07500000 </v>
   <v>      -0.17500000       0.05000000      -0.07500000 </v>
   <v>      -0.12500000       0.12500000       0.07500000 </v>
   <v>      -0.12500000       0.00000000      -0.07500000 </v>
   <v>      -0.07500000       0.12500000       0.07500000 </v>
   <v>      -0.07500000      -0.05000000      -0.07500000 </v>
   <v>      -0.02500000       0.12500000       0.07500000 </v>
   <v>      -0.02500000      -0.10000000      -0.07500000 </v>
   <v>       0.02500000       0.17500000       0.07500000 </v>
   <v>       0.02500000      -0.20000000      -0.07500000 </v>
   <v>       0.07500000       0.17500000       0.07500000 </v>
   <v>       0.07500000      -0.25000000      -0.07500000 </v>
   <v>       0.12500000       0.17500000       0.07500000 </v>
   <v>       0.12500000      -0.30000000      -0.07500000 </v>
   <v>       0.17500000       0.17500000       0.07500000 </v>
   <v>       0.17500000      -0.35000000      -0.07500000 </v>
   <v>       0.22500000       0.17500000       0.07500000 </v>
   <v>       0.22500000      -0.40000000      -0.07500000 </v>
   <v>       0.27500000       0.17500000       0.07500000 </v>
   <v>       0.27500000      -0.45000000      -0.07500000 </v>
   <v>       0.32500000       0.17500000       0.07500000 </v>
   <v>       0.32500000       0.50000000      -0.07500000 </v>
   <v>       0.37500000       0.17500000       0.07500000 </v>
   <v>       0.37500000       0.45000000      -0.07500000 </v>
   <v>       0.42500000       0.17500000       0.07500000 </v>
   <v>       0.42500000       0.40000000      -0.07500000 </v>
   <v>       0.47500000       0.17500000       0.07500000 </v>
   <v>       0.47500000       0.35000000      -0.07500000 </v>
   <v>      -0.47500000       0.17500000       0.07500000 </v>
   <v>      -0.47500000       0.30000000      -0.07500000 </v>
   <v>      -0.42500000       0.17500000       0.07500000 </v>
   <v>      -0.42500000       0.25000000      -0.07500000 </v>
   <v>      -0.37500000       0.17500000       0.07500000 </v>
   <v>      -0.37500000       0.20000000      -0.07500000 </v>
   <v>      -0.32500000       0.17500000       0.07500000 </v>
   <v>      -0.32500000       0.15000000      -0.07500000 </v>
   <v>      -0.27500000       0.17500000       0.07500000 </v>
   <v>      -0.27500000       0.10000000      -0.07500000 </v>
   <v>      -0.22500000       0.17500000       0.07500000 </v>
   <v>      -0.22500000       0.05000000      -0.07500000 </v>
   <v>      -0.17500000       0.17500000       0.07500000 </v>
   <v>      -0.17500000       0.00000000      -0.07500000 </v>
   <v>      -0.12500000       0.17500000       0.07500000 </v>
   <v>      -0.12500000      -0.05000000      -0.07500000 </v>
   <v>      -0.07500000       0.17500000       0.07500000 </v>
   <v>      -0.07500000      -0.10000000      -0.07500000 </v>
   <v>      -0.02500000       0.17500000       0.07500000 </v>
   <v>      -0.02500000      -0.15000000      -0.07500000 </v>
   <v>       0.02500000       0.22500000       0.07500000 </v>
   <v>       0.02500000      -0.25000000      -0.07500000 </v>
   <v>       0.07500000       0.22500000       0.07500000 </v>
   <v>       0.07500000      -0.30000000      -0.07500000 </v>
   <v>       0.12500000       0.22500000       0.07500000 </v>
   <v>       0.12500000      -0.35000000      -0.07500000 </v>
   <v>       0.17500000       0.22500000       0.07500000 </v>
   <v>       0.17500000      -0.40000000      -0.07500000 </v>
   <v>       0.22500000       0.22500000       0.07500000 </v>
   <v>       0.22500000      -0.45000000      -0.07500000 </v>
   <v>       0.27500000       0.22500000       0.07500000 </v>
   <v>       0.27500000       0.50000000      -0.07500000 </v>
   <v>       0.32500000       0.22500000       0.07500000 </v>
   <v>       0.32500000       0.45000000      -0.07500000 </v>
   <v>       0.37500000       0.22500000       0.07500000 </v>
   <v>       0.37500000       0.40000000      -0.07500000 </v>
   <v>       0.42500000       0.22500000       0.07500000 </v>
   <v>       0.42500000       0.35000000      -0.07500000 </v>
   <v>       0.47500000       0.22500000       0.07500000 </v>
   <v>       0.47500000       0.30000000      -0.07500000 </v>
   <v>      -0.47500000       0.22500000       0.07500000 </v>
   <v>      -0.47500000       0.25000000      -0.07500000 </v>
   <v>      -0.42500000       0.22500000       0.07500000 </v>
   <v>      -0.42500000       0.20000000      -0.07500000 </v>
   <v>      -0.37500000       0.22500000       0.07500000 </v>
   <v>      -0.37500000       0.15000000      -0.07500000 </v>
   <v>      -0.32500000       0.22500000       0.07500000 </v>
   <v>      -0.32500000       0.10000000      -0.07500000 </v>
   <v>      -0.27500000       0.22500000       0.07500000 </v>
   <v>      -0.27500000       0.05000000      -0.07500000 </v>
   <v>      -0.22500000       0.22500000       0.07500000 </v>
   <v>      -0.22500000      -0.00000000      -0.07500000 </v>
   <v>      -0.17500000       0.22500000       0.07500000 </v>
   <v>      -0.17500000      -0.05000000      -0.07500000 </v>
   <v>      -0.12500000       0.22500000       0.07500000 </v>
   <v>      -0.12500000      -0.10000000      -0.07500000 </v>
   <v>      -0.07500000       0.22500000       0.07500000 </v>
   <v>      -0.07500000      -0.15000000      -0.07500000 </v>
   <v>      -0.02500000       0.22500000       0.07500000 </v>
   <v>      -0.02500000      -0.20000000      -0.07500000 </v>
   <v>       0.02500000       0.27500000       0.07500000 </v>
   <v>       0.02500000      -0.30000000      -0.07500000 </v>
   <v>       0.07500000       0.27500000       0.07500000 </v>
   <v>       0.07500000      -0.35000000      -0.07500000 </v>
   <v>       0.12500000       0.27500000       0.07500000 </v>
   <v>       0.12500000      -0.40000000      -0.07500000 </v>
   <v>       0.17500000       0.27500000       0.07500000 </v>
   <v>       0.17500000      -0.45000000      -0.07500000 </v>
   <v>       0.22500000       0.27500000       0.07500000 </v>
   <v>       0.22500000       0.50000000      -0.07500000 </v>
   <v>       0.27500000       0.27500000       0.07500000 </v>
   <v>       0.27500000       0.45000000      -0.07500000 </v>
   <v>       0.32500000       0.27500000       0.07500000 </v>
   <v>       0.32500000       0.40000000      -0.07500000 </v>
   <v>       0.37500000       0.27500000       0.07500000 </v>
   <v>       0.37500000       0.35000000      -0.07500000 </v>
   <v>       0.42500000       0.27500000       0.07500000 </v>
   <v>       0.42500000       0.30000000      -0.07500000 </v>
   <v>       0.47500000       0.27500000       0.07500000 </v>
   <v>       0.47500000       0.25000000      -0.07500000 </v>
   <v>      -0.47500000       0.27500000       0.07500000 </v>
   <v>      -0.47500000       0.20000000      -0.07500000 </v>
   <v>      -0.42500000       0.27500000       0.07500000 </v>
   <v>      -0.42500000       0.15000000      -0.07500000 </v>
   <v>      -0.37500000       0.27500000       0.07500000 </v>
   <v>      -0.37500000       0.10000000      -0.07500000 </v>
   <v>      -0.32500000       0.27500000       0.07500000 </v>
   <v>      -0.32500000       0.05000000      -0.07500000 </v>
   <v>      -0.27500000       0.27500000       0.07500000 </v>
   <v>      -0.27500000       0.00000000      -0.07500000 </v>
   <v>      -0.22500000       0.27500000       0.07500000 </v>
   <v>      -0.22500000      -0.05000000      -0.07500000 </v>
   <v>      -0.17500000       0.27500000       0.07500000 </v>
   <v>      -0.17500000      -0.10000000      -0.07500000 </v>
   <v>      -0.12500000       0.27500000       0.07500000 </v>
   <v>      -0.12500000      -0.15000000      -0.07500000 </v>
   <v>      -0.07500000       0.27500000       0.07500000 </v>
   <v>      -0.07500000      -0.20000000      -0.07500000 </v>
   <v>      -0.02500000       0.27500000       0.07500000 </v>
   <v>      -0.02500000      -0.25000000      -0.07500000 </v>
   <v>       0.02500000       0.32500000       0.07500000 </v>
   <v>       0.02500000      -0.35000000      -0.07500000 </v>
   <v>       0.07500000       0.32500000       0.07500000 </v>
   <v>       0.07500000      -0.40000000      -0.07500000 </v>
   <v>       0.12500000       0.32500000       0.07500000 </v>
   <v>       0.12500000      -0.45000000      -0.07500000 </v>
   <v>       0.17500000       0.32500000       0.07500000 </v>
   <v>       0.17500000       0.50000000      -0.07500000 </v>
   <v>       0.22500000       0.32500000       0.07500000 </v>
   <v>       0.22500000       0.45000000      -0.07500000 </v>
   <v>       0.27500000       0.32500000       0.07500000 </v>
   <v>       0.27500000       0.40000000      -0.07500000 </v>
   <v>       0.32500000       0.32500000       0.07500000 </v>
   <v>       0.32500000       0.35000000      -0.07500000 </v>
   <v>       0.37500000       0.32500000       0.07500000 </v>
   <v>       0.37500000       0.30000000      -0.07500000 </v>
   <v>       0.42500000       0.32500000       0.07500000 </v>
   <v>       0.42500000       0.25000000      -0.07500000 </v>
   <v>       0.47500000       0.32500000       0.07500000 </v>
   <v>       0.47500000       0.20000000      -0.07500000 </v>
   <v>      -0.47500000       0.32500000       0.07500000 </v>
   <v>      -0.47500000       0.15000000      -0.07500000 </v>
   <v>      -0.42500000       0.32500000       0.07500000 </v>
   <v>      -0.42500000       0.10000000      -0.07500000 </v>
   <v>      -0.37500000       0.32500000       0.07500000 </v>
   <v>      -0.37500000       0.05000000      -0.07500000 </v>
   <v>      -0.32500000       0.32500000       0.07500000 </v>
   <v>      -0.32500000      -0.00000000      -0.07500000 </v>
   <v>      -0.27500000       0.32500000       0.07500000 </v>
   <v>      -0.27500000      -0.05000000      -0.07500000 </v>
   <v>      -0.22500000       0.32500000       0.07500000 </v>
   <v>      -0.22500000      -0.10000000      -0.07500000 </v>
   <v>      -0.17500000       0.32500000       0.07500000 </v>
   <v>      -0.17500000      -0.15000000      -0.07500000 </v>
   <v>      -0.12500000       0.32500000       0.07500000 </v>
   <v>      -0.12500000      -0.20000000      -0.07500000 </v>
   <v>      -0.07500000       0.32500000       0.07500000 </v>
   <v>      -0.07500000      -0.25000000      -0.07500000 </v>
   <v>      -0.02500000       0.32500000       0.07500000 </v>
   <v>      -0.02500000      -0.30000000      -0.07500000 </v>
   <v>       0.02500000       0.37500000       0.07500000 </v>
   <v>       0.02500000      -0.40000000      -0.07500000 </v>
   <v>       0.07500000       0.37500000       0.07500000 </v>
   <v>       0.07500000      -0.45000000      -0.07500000 </v>
   <v>       0.12500000       0.37500000       0.07500000 </v>
   <v>       0.12500000       0.50000000      -0.07500000 </v>
   <v>       0.17500000       0.37500000       0.07500000 </v>
   <v>       0.17500000       0.45000000      -0.07500000 </v>
   <v>       0.22500000       0.37500000       0.07500000 </v>
   <v>       0.22500000       0.40000000      -0.07500000 </v>
   <v>       0.27500000       0.37500000       0.07500000 </v>
   <v>       0.27500000       0.35000000      -0.07500000 </v>
   <v>       0.32500000       0.37500000       0.07500000 </v>
   <v>       0.32500000       0.30000000      -0.07500000 </v>
   <v>       0.37500000       0.37500000       0.07500000 </v>
   <v>       0.37500000       0.25000000      -0.07500000 </v>
   <v>       0.42500000       0.37500000       0.07500000 </v>
   <v>       0.42500000       0.20000000      -0.07500000 </v>
   <v>       0.47500000       0.37500000       0.07500000 </v>
   <v>       0.47500000       0.15000000      -0.07500000 </v>
   <v>      -0.47500000       0.37500000       0.07500000 </v>
   <v>      -0.47500000       0.10000000      -0.07500000 </v>
   <v>      -0.42500000       0.37500000       0.07500000 </v>
   <v>      -0.42500000       0.05000000      -0.07500000 </v>
   <v>      -0.37500000       0.37500000       0.07500000 </v>
   <v>      -0.37500000      -0.00000000      -0.07500000 </v>
   <v>      -0.32500000       0.37500000       0.07500000 </v>
   <v>      -0.32500000      -0.05000000      -0.07500000 </v>
   <v>      -0.27500000       0.37500000       0.07500000 </v>
   <v>      -0.27500000      -0.10000000      -0.07500000 </v>
   <v>      -0.22500000       0.37500000       0.07500000 </v>
   <v>      -0.22500000      -0.15000000      -0.07500000 </v>
   <v>      -0.17500000       0.37500000       0.07500000 </v>
   <v>      -0.17500000      -0.20000000      -0.07500000 </v>
   <v>      -0.12500000       0.37500000       0.07500000 </v>
   <v>      -0.12500000      -0.25000000      -0.07500000 </v>
   <v>      -0.07500000       0.37500000       0.07500000 </v>
   <v>      -0.07500000      -0.30000000      -0.07500000 </v>
   <v>      -0.02500000       0.37500000       0.07500000 </v>
   <v>      -0.02500000      -0.35000000      -0.07500000 </v>
   <v>       0.02500000       0.42500000       0.07500000 </v>
   <v>       0.02500000      -0.45000000      -0.07500000 </v>
   <v>       0.07500000       0.42500000       0.07500000 </v>
   <v>       0.07500000       0.50000000      -0.07500000 </v>
   <v>       0.12500000       0.42500000       0.07500000 </v>
   <v>       0.12500000       0.45000000      -0.07500000 </v>
   <v>       0.17500000       0.42500000       0.07500000 </v>
   <v>       0.17500000       0.40000000      -0.07500000 </v>
   <v>       0.22500000       0.42500000       0.07500000 </v>
   <v>       0.22500000       0.35000000      -0.07500000 </v>
   <v>       0.27500000       0.42500000       0.07500000 </v>
   <v>       0.27500000       0.30000000      -0.07500000 </v>
   <v>       0.32500000       0.42500000       0.07500000 </v>
   <v>       0.32500000       0.25000000      -0.07500000 </v>
   <v>       0.37500000       0.42500000       0.07500000 </v>
   <v>       0.37500000       0.20000000      -0.07500000 </v>
   <v>       0.42500000       0.42500000       0.07500000 </v>
   <v>       0.42500000       0.15000000      -0.07500000 </v>
   <v>       0.47500000       0.42500000       0.07500000 </v>
   <v>       0.47500000       0.10000000      -0.07500000 </v>
   <v>      -0.47500000       0.42500000       0.07500000 </v>
   <v>      -0.47500000       0.05000000      -0.07500000 </v>
   <v>      -0.42500000       0.42500000       0.07500000 </v>
   <v>      -0.42500000       0.00000000      -0.07500000 </v>
   <v>      -0.37500000       0.42500000       0.07500000 </v>
   <v>      -0.37500000      -0.05000000      -0.07500000 </v>
   <v>      -0.32500000       0.42500000       0.07500000 </v>
   <v>      -0.32500000      -0.10000000      -0.07500000 </v>
   <v>      -0.27500000       0.42500000       0.07500000 </v>
   <v>      -0.27500000      -0.15000000      -0.07500000 </v>
   <v>      -0.22500000       0.42500000       0.07500000 </v>
   <v>      -0.22500000      -0.20000000      -0.07500000 </v>
   <v>      -0.17500000       0.42500000       0.07500000 </v>
   <v>      -0.17500000      -0.25000000      -0.07500000 </v>
   <v>      -0.12500000       0.42500000       0.07500000 </v>
   <v>      -0.12500000      -0.30000000      -0.07500000 </v>
   <v>      -0.07500000       0.42500000       0.07500000 </v>
   <v>      -0.07500000      -0.35000000      -0.07500000 </v>
   <v>      -0.02500000       0.42500000       0.07500000 </v>
   <v>      -0.02500000      -0.40000000      -0.07500000 </v>
   <v>       0.02500000       0.47500000       0.07500000 </v>
   <v>       0.02500000       0.50000000      -0.07500000 </v>
   <v>       0.07500000       0.47500000       0.07500000 </v>
   <v>       0.07500000       0.45000000      -0.07500000 </v>
   <v>       0.12500000       0.47500000       0.07500000 </v>
   <v>       0.12500000       0.40000000      -0.07500000 </v>
   <v>       0.17500000       0.47500000       0.07500000 </v>
   <v>       0.17500000       0.35000000      -0.07500000 </v>
   <v>       0.22500000       0.47500000       0.07500000 </v>
   <v>       0.22500000       0.30000000      -0.07500000 </v>
   <v>       0.27500000       0.47500000       0.07500000 </v>
   <v>       0.27500000       0.25000000      -0.07500000 </v>
   <v>       0.32500000       0.47500000       0.07500000 </v>
   <v>       0.32500000       0.20000000      -0.07500000 </v>
   <v>       0.37500000       0.47500000       0.07500000 </v>
   <v>       0.37500000       0.15000000      -0.07500000 </v>
   <v>       0.42500000       0.47500000       0.07500000 </v>
   <v>       0.42500000       0.10000000      -0.07500000 </v>
   <v>       0.47500000       0.47500000       0.07500000 </v>
   <v>       0.47500000       0.05000000      -0.07500000 </v>
   <v>      -0.47500000       0.47500000       0.07500000 </v>
   <v>      -0.47500000      -0.00000000      -0.07500000 </v>
   <v>      -0.42500000       0.47500000       0.07500000 </v>
   <v>      -0.42500000      -0.05000000      -0.07500000 </v>
   <v>      -0.37500000       0.47500000       0.07500000 </v>
   <v>      -0.37500000      -0.10000000      -0.07500000 </v>
   <v>      -0.32500000       0.47500000       0.07500000 </v>
   <v>      -0.32500000      -0.15000000      -0.07500000 </v>
   <v>      -0.27500000       0.47500000       0.07500000 </v>
   <v>      -0.27500000      -0.20000000      -0.07500000 </v>
   <v>      -0.22500000       0.47500000       0.07500000 </v>
   <v>      -0.22500000      -0.25000000      -0.07500000 </v>
   <v>      -0.17500000       0.47500000       0.07500000 </v>
   <v>      -0.17500000      -0.30000000      -0.07500000 </v>
   <v>      -0.12500000       0.47500000       0.07500000 </v>
   <v>      -0.12500000      -0.35000000      -0.07500000 </v>
   <v>      -0.07500000       0.47500000       0.07500000 </v>
   <v>      -0.07500000      -0.40000000      -0.07500000 </v>
   <v>      -0.02500000       0.47500000       0.07500000 </v>
   <v>      -0.02500000      -0.45000000      -0.07500000 </v>
   <v>       0.02500000       0.02500000       0.12500000 </v>
   <v>       0.02500000      -0.05000000      -0.12500000 </v>
   <v>       0.07500000       0.02500000       0.12500000 </v>
   <v>       0.07500000      -0.10000000      -0.12500000 </v>
   <v>       0.12500000       0.02500000       0.12500000 </v>
   <v>       0.12500000      -0.15000000      -0.12500000 </v>
   <v>       0.17500000       0.02500000       0.12500000 </v>
   <v>       0.17500000      -0.20000000      -0.12500000 </v>
   <v>       0.22500000       0.02500000       0.12500000 </v>
   <v>       0.22500000      -0.25000000      -0.12500000 </v>
   <v>       0.27500000       0.02500000       0.12500000 </v>
   <v>       0.27500000      -0.30000000      -0.12500000 </v>
   <v>       0.32500000       0.02500000       0.12500000 </v>
   <v>       0.32500000      -0.35000000      -0.12500000 </v>
   <v>       0.37500000       0.02500000       0.12500000 </v>
   <v>       0.37500000      -0.40000000      -0.12500000 </v>
   <v>       0.42500000       0.02500000       0.12500000 </v>
   <v>       0.42500000      -0.45000000      -0.12500000 </v>
   <v>       0.47500000       0.02500000       0.12500000 </v>
   <v>       0.47500000       0.50000000      -0.12500000 </v>
   <v>      -0.47500000       0.02500000       0.12500000 </v>
   <v>      -0.47500000       0.45000000      -0.12500000 </v>
   <v>      -0.42500000       0.02500000       0.12500000 </v>
   <v>      -0.42500000       0.40000000      -0.12500000 </v>
   <v>      -0.37500000       0.02500000       0.12500000 </v>
   <v>      -0.37500000       0.35000000      -0.12500000 </v>
   <v>      -0.32500000       0.02500000       0.12500000 </v>
   <v>      -0.32500000       0.30000000      -0.12500000 </v>
   <v>      -0.27500000       0.02500000       0.12500000 </v>
   <v>      -0.27500000       0.25000000      -0.12500000 </v>
   <v>      -0.22500000       0.02500000       0.12500000 </v>
   <v>      -0.22500000       0.20000000      -0.12500000 </v>
   <v>      -0.17500000       0.02500000       0.12500000 </v>
   <v>      -0.17500000       0.15000000      -0.12500000 </v>
   <v>      -0.12500000       0.02500000       0.12500000 </v>
   <v>      -0.12500000       0.10000000      -0.12500000 </v>
   <v>      -0.07500000       0.02500000       0.12500000 </v>
   <v>      -0.07500000       0.05000000      -0.12500000 </v>
   <v>      -0.02500000       0.02500000       0.12500000 </v>
   <v>      -0.02500000       0.00000000      -0.12500000 </v>
   <v>       0.02500000       0.07500000       0.12500000 </v>
   <v>       0.02500000      -0.10000000      -0.12500000 </v>
   <v>       0.07500000       0.07500000       0.12500000 </v>
   <v>       0.07500000      -0.15000000      -0.12500000 </v>
   <v>       0.12500000       0.07500000       0.12500000 </v>
   <v>       0.12500000      -0.20000000      -0.12500000 </v>
   <v>       0.17500000       0.07500000       0.12500000 </v>
   <v>       0.17500000      -0.25000000      -0.12500000 </v>
   <v>       0.22500000       0.07500000       0.12500000 </v>
   <v>       0.22500000      -0.30000000      -0.12500000 </v>
   <v>       0.27500000       0.07500000       0.12500000 </v>
   <v>       0.27500000      -0.35000000      -0.12500000 </v>
   <v>       0.32500000       0.07500000       0.12500000 </v>
   <v>       0.32500000      -0.40000000      -0.12500000 </v>
   <v>       0.37500000       0.07500000       0.12500000 </v>
   <v>       0.37500000      -0.45000000      -0.12500000 </v>
   <v>       0.42500000       0.07500000       0.12500000 </v>
   <v>       0.42500000       0.50000000      -0.12500000 </v>
   <v>       0.47500000       0.07500000       0.12500000 </v>
   <v>       0.47500000       0.45000000      -0.12500000 </v>
   <v>      -0.47500000       0.07500000       0.12500000 </v>
   <v>      -0.47500000       0.40000000      -0.12500000 </v>
   <v>      -0.42500000       0.07500000       0.12500000 </v>
   <v>      -0.42500000       0.35000000      -0.12500000 </v>
   <v>      -0.37500000       0.07500000       0.12500000 </v>
   <v>      -0.37500000       0.30000000      -0.12500000 </v>
   <v>      -0.32500000       0.07500000       0.12500000 </v>
   <v>      -0.32500000       0.25000000      -0.12500000 </v>
   <v>      -0.27500000       0.07500000       0.12500000 </v>
   <v>      -0.27500000       0.20000000      -0.12500000 </v>
   <v>      -0.22500000       0.07500000       0.12500000 </v>
   <v>      -0.22500000       0.15000000      -0.12500000 </v>
   <v>      -0.17500000       0.07500000       0.12500000 </v>
   <v>      -0.17500000       0.10000000      -0.12500000 </v>
   <v>      -0.12500000       0.07500000       0.12500000 </v>
   <v>      -0.12500000       0.05000000      -0.12500000 </v>
   <v>      -0.07500000       0.07500000       0.12500000 </v>
   <v>      -0.07500000       0.00000000      -0.12500000 </v>
   <v>      -0.02500000       0.07500000       0.12500000 </v>
   <v>      -0.02500000      -0.05000000      -0.12500000 </v>
   <v>       0.02500000       0.12500000       0.12500000 </v>
   <v>       0.02500000      -0.15000000      -0.12500000 </v>
   <v>       0.07500000       0.12500000       0.12500000 </v>
   <v>       0.07500000      -0.20000000      -0.12500000 </v>
   <v>       0.12500000       0.12500000       0.12500000 </v>
   <v>       0.12500000      -0.25000000      -0.12500000 </v>
   <v>       0.17500000       0.12500000       0.12500000 </v>
   <v>       0.17500000      -0.30000000      -0.12500000 </v>
   <v>       0.22500000       0.12500000       0.12500000 </v>
   <v>       0.22500000      -0.35000000      -0.12500000 </v>
   <v>       0.27500000       0.12500000       0.12500000 </v>
   <v>       0.27500000      -0.40000000      -0.12500000 </v>
   <v>       0.32500000       0.12500000       0.12500000 </v>
   <v>       0.32500000      -0.45000000      -0.12500000 </v>
   <v>       0.37500000       0.12500000       0.12500000 </v>
   <v>       0.37500000       0.50000000      -0.12500000 </v>
   <v>       0.42500000       0.12500000       0.12500000 </v>
   <v>       0.42500000       0.45000000      -0.12500000 </v>
   <v>       0.47500000       0.12500000       0.12500000 </v>
   <v>       0.47500000       0.40000000      -0.12500000 </v>
   <v>      -0.47500000       0.12500000       0.12500000 </v>
   <v>      -0.47500000       0.35000000      -0.12500000 </v>
   <v>      -0.42500000       0.12500000       0.12500000 </v>
   <v>      -0.42500000       0.30000000      -0.12500000 </v>
   <v>      -0.37500000       0.12500000       0.12500000 </v>
   <v>      -0.37500000       0.25000000      -0.12500000 </v>
   <v>      -0.32500000       0.12500000       0.12500000 </v>
   <v>      -0.32500000       0.20000000      -0.12500000 </v>
   <v>      -0.27500000       0.12500000       0.12500000 </v>
   <v>      -0.27500000       0.15000000      -0.12500000 </v>
   <v>      -0.22500000       0.12500000       0.12500000 </v>
   <v>      -0.22500000       0.10000000      -0.12500000 </v>
   <v>      -0.17500000       0.12500000       0.12500000 </v>
   <v>      -0.17500000       0.05000000      -0.12500000 </v>
   <v>      -0.12500000       0.12500000       0.12500000 </v>
   <v>      -0.12500000       0.00000000      -0.12500000 </v>
   <v>      -0.07500000       0.12500000       0.12500000 </v>
   <v>      -0.07500000      -0.05000000      -0.12500000 </v>
   <v>      -0.02500000       0.12500000       0.12500000 </v>
   <v>      -0.02500000      -0.10000000      -0.12500000 </v>
   <v>       0.02500000       0.17500000       0.12500000 </v>
   <v>       0.02500000      -0.20000000      -0.12500000 </v>
   <v>       0.07500000       0.17500000       0.12500000 </v>
   <v>       0.07500000      -0.25000000      -0.12500000 </v>
   <v>       0.12500000       0.17500000       0.12500000 </v>
   <v>       0.12500000      -0.30000000      -0.12500000 </v>
   <v>       0.17500000       0.17500000       0.12500000 </v>
   <v>       0.17500000      -0.35000000      -0.12500000 </v>
   <v>       0.22500000       0.17500000       0.12500000 </v>
   <v>       0.22500000      -0.40000000      -0.12500000 </v>
   <v>       0.27500000       0.17500000       0.12500000 </v>
   <v>       0.27500000      -0.45000000      -0.12500000 </v>
   <v>       0.32500000       0.17500000       0.12500000 </v>
   <v>       0.32500000       0.50000000      -0.12500000 </v>
   <v>       0.37500000       0.17500000       0.12500000 </v>
   <v>       0.37500000       0.45000000      -0.12500000 </v>
   <v>       0.42500000       0.17500000       0.12500000 </v>
   <v>       0.42500000       0.40000000      -0.12500000 </v>
   <v>       0.47500000       0.17500000       0.12500000 </v>
   <v>       0.47500000       0.35000000      -0.12500000 </v>
   <v>      -0.47500000       0.17500000       0.12500000 </v>
   <v>      -0.47500000       0.30000000      -0.12500000 </v>
   <v>      -0.42500000       0.17500000       0.12500000 </v>
   <v>      -0.42500000       0.25000000      -0.12500000 </v>
   <v>      -0.37500000       0.17500000       0.12500000 </v>
   <v>      -0.37500000       0.20000000      -0.12500000 </v>
   <v>      -0.32500000       0.17500000       0.12500000 </v>
   <v>      -0.32500000       0.15000000      -0.12500000 </v>
   <v>      -0.27500000       0.17500000       0.12500000 </v>
   <v>      -0.27500000       0.10000000      -0.12500000 </v>
   <v>      -0.22500000       0.17500000       0.12500000 </v>
   <v>      -0.22500000       0.05000000      -0.12500000 </v>
   <v>      -0.17500000       0.17500000       0.12500000 </v>
   <v>      -0.17500000       0.00000000      -0.12500000 </v>
   <v>      -0.12500000       0.17500000       0.12500000 </v>
   <v>      -0.12500000      -0.05000000      -0.12500000 </v>
   <v>      -0.07500000       0.17500000       0.12500000 </v>
   <v>      -0.07500000      -0.10000000      -0.12500000 </v>
   <v>      -0.02500000       0.17500000       0.12500000 </v>
   <v>      -0.02500000      -0.15000000      -0.12500000 </v>
   <v>       0.02500000       0.22500000       0.12500000 </v>
   <v>       0.02500000      -0.25000000      -0.12500000 </v>
   <v>       0.07500000       0.22500000       0.12500000 </v>
   <v>       0.07500000      -0.30000000      -0.12500000 </v>
   <v>       0.12500000       0.22500000       0.12500000 </v>
   <v>       0.12500000      -0.35000000      -0.12500000 </v>
   <v>       0.17500000       0.22500000       0.12500000 </v>
   <v>       0.17500000      -0.40000000      -0.12500000 </v>
   <v>       0.22500000       0.22500000       0.12500000 </v>
   <v>       0.22500000      -0.45000000      -0.12500000 </v>
   <v>       0.27500000       0.22500000       0.12500000 </v>
   <v>       0.27500000       0.50000000      -0.12500000 </v>
   <v>       0.32500000       0.22500000       0.12500000 </v>
   <v>       0.32500000       0.45000000      -0.12500000 </v>
   <v>       0.37500000       0.22500000       0.12500000 </v>
   <v>       0.37500000       0.40000000      -0.12500000 </v>
   <v>       0.42500000       0.22500000       0.12500000 </v>
   <v>       0.42500000       0.35000000      -0.12500000 </v>
   <v>       0.47500000       0.22500000       0.12500000 </v>
   <v>       0.47500000       0.30000000      -0.12500000 </v>
   <v>      -0.47500000       0.22500000       0.12500000 </v>
   <v>      -0.47500000       0.25000000      -0.12500000 </v>
   <v>      -0.42500000       0.22500000       0.12500000 </v>
   <v>      -0.42500000       0.20000000      -0.12500000 </v>
   <v>      -0.37500000       0.22500000       0.12500000 </v>
   <v>      -0.37500000       0.15000000      -0.12500000 </v>
   <v>      -0.32500000       0.22500000       0.12500000 </v>
   <v>      -0.32500000       0.10000000      -0.12500000 </v>
   <v>      -0.27500000       0.22500000       0.12500000 </v>
   <v>      -0.27500000       0.05000000      -0.12500000 </v>
   <v>      -0.22500000       0.22500000       0.12500000 </v>
   <v>      -0.22500000      -0.00000000      -0.12500000 </v>
   <v>      -0.17500000       0.22500000       0.12500000 </v>
   <v>      -0.17500000      -0.05000000      -0.12500000 </v>
   <v>      -0.12500000       0.22500000       0.12500000 </v>
   <v>      -0.12500000      -0.10000000      -0.12500000 </v>
   <v>      -0.07500000       0.22500000       0.12500000 </v>
   <v>      -0.07500000      -0.15000000      -0.12500000 </v>
   <v>      -0.02500000       0.22500000       0.12500000 </v>
   <v>      -0.02500000      -0.20000000      -0.12500000 </v>
   <v>       0.02500000       0.27500000       0.12500000 </v>
   <v>       0.02500000      -0.30000000      -0.12500000 </v>
   <v>       0.07500000       0.27500000       0.12500000 </v>
   <v>       0.07500000      -0.35000000      -0.12500000 </v>
   <v>       0.12500000       0.27500000       0.12500000 </v>
   <v>       0.12500000      -0.40000000      -0.12500000 </v>
   <v>       0.17500000       0.27500000       0.12500000 </v>
   <v>       0.17500000      -0.45000000      -0.12500000 </v>
   <v>       0.22500000       0.27500000       0.12500000 </v>
   <v>       0.22500000       0.50000000      -0.12500000 </v>
   <v>       0.27500000       0.27500000       0.12500000 </v>
   <v>       0.27500000       0.45000000      -0.12500000 </v>
   <v>       0.32500000       0.27500000       0.12500000 </v>
   <v>       0.32500000       0.40000000      -0.12500000 </v>
   <v>       0.37500000       0.27500000       0.12500000 </v>
   <v>       0.37500000       0.35000000      -0.12500000 </v>
   <v>       0.42500000       0.27500000       0.12500000 </v>
   <v>       0.42500000       0.30000000      -0.12500000 </v>
   <v>       0.47500000       0.27500000       0.12500000 </v>
   <v>       0.47500000       0.25000000      -0.12500000 </v>
   <v>      -0.47500000       0.27500000       0.12500000 </v>
   <v>      -0.47500000       0.20000000      -0.12500000 </v>
   <v>      -0.42500000       0.27500000       0.12500000 </v>
   <v>      -0.42500000       0.15000000      -0.12500000 </v>
   <v>      -0.37500000       0.27500000       0.12500000 </v>
   <v>      -0.37500000       0.10000000      -0.12500000 </v>
   <v>      -0.32500000       0.27500000       0.12500000 </v>
   <v>      -0.32500000       0.05000000      -0.12500000 </v>
   <v>      -0.27500000       0.27500000       0.12500000 </v>
   <v>      -0.27500000       0.00000000      -0.12500000 </v>
   <v>      -0.22500000       0.27500000       0.12500000 </v>
   <v>      -0.22500000      -0.05000000      -0.12500000 </v>
   <v>      -0.17500000       0.27500000       0.12500000 </v>
   <v>      -0.17500000      -0.10000000      -0.12500000 </v>
   <v>      -0.12500000       0.27500000       0.12500000 </v>
   <v>      -0.12500000      -0.15000000      -0.12500000 </v>
   <v>      -0.07500000       0.27500000       0.12500000 </v>
   <v>      -0.07500000      -0.20000000      -0.12500000 </v>
   <v>      -0.02500000       0.27500000       0.12500000 </v>
   <v>      -0.02500000      -0.25000000      -0.12500000 </v>
   <v>       0.02500000       0.32500000       0.12500000 </v>
   <v>       0.02500000      -0.35000000      -0.12500000 </v>
   <v>       0.07500000       0.32500000       0.12500000 </v>
   <v>       0.07500000      -0.40000000      -0.12500000 </v>
   <v>       0.12500000       0.32500000       0.12500000 </v>
   <v>       0.12500000      -0.45000000      -0.12500000 </v>
   <v>       0.17500000       0.32500000       0.12500000 </v>
   <v>       0.17500000       0.50000000      -0.12500000 </v>
   <v>       0.22500000       0.32500000       0.12500000 </v>
   <v>       0.22500000       0.45000000      -0.12500000 </v>
   <v>       0.27500000       0.32500000       0.12500000 </v>
   <v>       0.27500000       0.40000000      -0.12500000 </v>
   <v>       0.32500000       0.32500000       0.12500000 </v>
   <v>       0.32500000       0.35000000      -0.12500000 </v>
   <v>       0.37500000       0.32500000       0.12500000 </v>
   <v>       0.37500000       0.30000000      -0.12500000 </v>
   <v>       0.42500000       0.32500000       0.12500000 </v>
   <v>       0.42500000       0.25000000      -0.12500000 </v>
   <v>       0.47500000       0.32500000       0.12500000 </v>
   <v>       0.47500000       0.20000000      -0.12500000 </v>
   <v>      -0.47500000       0.32500000       0.12500000 </v>
   <v>      -0.47500000       0.15000000      -0.12500000 </v>
   <v>      -0.42500000       0.32500000       0.12500000 </v>
   <v>      -0.42500000       0.10000000      -0.12500000 </v>
   <v>      -0.37500000       0.32500000       0.12500000 </v>
   <v>      -0.37500000       0.05000000      -0.12500000 </v>
   <v>      -0.32500000       0.32500000       0.12500000 </v>
   <v>      -0.32500000      -0.00000000      -0.12500000 </v>
   <v>      -0.27500000       0.32500000       0.12500000 </v>
   <v>      -0.27500000      -0.05000000      -0.12500000 </v>
   <v>      -0.22500000       0.32500000       0.12500000 </v>
   <v>      -0.22500000      -0.10000000      -0.12500000 </v>
   <v>      -0.17500000       0.32500000       0.12500000 </v>
   <v>      -0.17500000      -0.15000000      -0.12500000 </v>
   <v>      -0.12500000       0.32500000       0.12500000 </v>
   <v>      -0.12500000      -0.20000000      -0.12500000 </v>
   <v>      -0.07500000       0.32500000       0.12500000 </v>
   <v>      -0.07500000      -0.25000000      -0.12500000 </v>
   <v>      -0.02500000       0.32500000       0.12500000 </v>
   <v>      -0.02500000      -0.30000000      -0.12500000 </v>
   <v>       0.02500000       0.37500000       0.12500000 </v>
   <v>       0.02500000      -0.40000000      -0.12500000 </v>
   <v>       0.07500000       0.37500000       0.12500000 </v>
   <v>       0.07500000      -0.45000000      -0.12500000 </v>
   <v>       0.12500000       0.37500000       0.12500000 </v>
   <v>       0.12500000       0.50000000      -0.12500000 </v>
   <v>       0.17500000       0.37500000       0.12500000 </v>
   <v>       0.17500000       0.45000000      -0.12500000 </v>
   <v>       0.22500000       0.37500000       0.12500000 </v>
   <v>       0.22500000       0.40000000      -0.12500000 </v>
   <v>       0.27500000       0.37500000       0.12500000 </v>
   <v>       0.27500000       0.35000000      -0.12500000 </v>
   <v>       0.32500000       0.37500000       0.12500000 </v>
   <v>       0.32500000       0.30000000      -0.12500000 </v>
   <v>       0.37500000       0.37500000       0.12500000 </v>
   <v>       0.37500000       0.25000000      -0.12500000 </v>
   <v>       0.42500000       0.37500000       0.12500000 </v>
   <v>       0.42500000       0.20000000      -0.12500000 </v>
   <v>       0.47500000       0.37500000       0.12500000 </v>
   <v>       0.47500000       0.15000000      -0.12500000 </v>
   <v>      -0.47500000       0.37500000       0.12500000 </v>
   <v>      -0.47500000       0.10000000      -0.12500000 </v>
   <v>      -0.42500000       0.37500000       0.12500000 </v>
   <v>      -0.42500000       0.05000000      -0.12500000 </v>
   <v>      -0.37500000       0.37500000       0.12500000 </v>
   <v>      -0.37500000      -0.00000000      -0.12500000 </v>
   <v>      -0.32500000       0.37500000       0.12500000 </v>
   <v>      -0.32500000      -0.05000000      -0.12500000 </v>
   <v>      -0.27500000       0.37500000       0.12500000 </v>
   <v>      -0.27500000      -0.10000000      -0.12500000 </v>
   <v>      -0.22500000       0.37500000       0.12500000 </v>
   <v>      -0.22500000      -0.15000000      -0.12500000 </v>
   <v>      -0.17500000       0.37500000       0.12500000 </v>
   <v>      -0.17500000      -0.20000000      -0.12500000 </v>
   <v>      -0.12500000       0.37500000       0.12500000 </v>
   <v>      -0.12500000      -0.25000000      -0.12500000 </v>
   <v>      -0.07500000       0.37500000       0.12500000 </v>
   <v>      -0.07500000      -0.30000000      -0.12500000 </v>
   <v>      -0.02500000       0.37500000       0.12500000 </v>
   <v>      -0.02500000      -0.35000000      -0.12500000 </v>
   <v>       0.02500000       0.42500000       0.12500000 </v>
   <v>       0.02500000      -0.45000000      -0.12500000 </v>
   <v>       0.07500000       0.42500000       0.12500000 </v>
   <v>       0.07500000       0.50000000      -0.12500000 </v>
   <v>       0.12500000       0.42500000       0.12500000 </v>
   <v>       0.12500000       0.45000000      -0.12500000 </v>
   <v>       0.17500000       0.42500000       0.12500000 </v>
   <v>       0.17500000       0.40000000      -0.12500000 </v>
   <v>       0.22500000       0.42500000       0.12500000 </v>
   <v>       0.22500000       0.35000000      -0.12500000 </v>
   <v>       0.27500000       0.42500000       0.12500000 </v>
   <v>       0.27500000       0.30000000      -0.12500000 </v>
   <v>       0.32500000       0.42500000       0.12500000 </v>
   <v>       0.32500000       0.25000000      -0.12500000 </v>
   <v>       0.37500000       0.42500000       0.12500000 </v>
   <v>       0.37500000       0.20000000      -0.12500000 </v>
   <v>       0.42500000       0.42500000       0.12500000 </v>
   <v>       0.42500000       0.15000000      -0.12500000 </v>
   <v>       0.47500000       0.42500000       0.12500000 </v>
   <v>       0.47500000       0.10000000      -0.12500000 </v>
   <v>      -0.47500000       0.42500000       0.12500000 </v>
   <v>      -0.47500000       0.05000000      -0.12500000 </v>
   <v>      -0.42500000       0.42500000       0.12500000 </v>
   <v>      -0.42500000       0.00000000      -0.12500000 </v>
   <v>      -0.37500000       0.42500000       0.12500000 </v>
   <v>      -0.37500000      -0.05000000      -0.12500000 </v>
   <v>      -0.32500000       0.42500000       0.12500000 </v>
   <v>      -0.32500000      -0.10000000      -0.12500000 </v>
   <v>      -0.27500000       0.42500000       0.12500000 </v>
   <v>      -0.27500000      -0.15000000      -0.12500000 </v>
   <v>      -0.22500000       0.42500000       0.12500000 </v>
   <v>      -0.22500000      -0.20000000      -0.12500000 </v>
   <v>      -0.17500000       0.42500000       0.12500000 </v>
   <v>      -0.17500000      -0.25000000      -0.12500000 </v>
   <v>      -0.12500000       0.42500000       0.12500000 </v>
   <v>      -0.12500000      -0.30000000      -0.12500000 </v>
   <v>      -0.07500000       0.42500000       0.12500000 </v>
   <v>      -0.07500000      -0.35000000      -0.12500000 </v>
   <v>      -0.02500000       0.42500000       0.12500000 </v>
   <v>      -0.02500000      -0.40000000      -0.12500000 </v>
   <v>       0.02500000       0.47500000       0.12500000 </v>
   <v>       0.02500000       0.50000000      -0.12500000 </v>
   <v>       0.07500000       0.47500000       0.12500000 </v>
   <v>       0.07500000       0.45000000      -0.12500000 </v>
   <v>       0.12500000       0.47500000       0.12500000 </v>
   <v>       0.12500000       0.40000000      -0.12500000 </v>
   <v>       0.17500000       0.47500000       0.12500000 </v>
   <v>       0.17500000       0.35000000      -0.12500000 </v>
   <v>       0.22500000       0.47500000       0.12500000 </v>
   <v>       0.22500000       0.30000000      -0.12500000 </v>
   <v>       0.27500000       0.47500000       0.12500000 </v>
   <v>       0.27500000       0.25000000      -0.12500000 </v>
   <v>       0.32500000       0.47500000       0.12500000 </v>
   <v>       0.32500000       0.20000000      -0.12500000 </v>
   <v>       0.37500000       0.47500000       0.12500000 </v>
   <v>       0.37500000       0.15000000      -0.12500000 </v>
   <v>       0.42500000       0.47500000       0.12500000 </v>
   <v>       0.42500000       0.10000000      -0.12500000 </v>
   <v>       0.47500000       0.47500000       0.12500000 </v>
   <v>       0.47500000       0.05000000      -0.12500000 </v>
   <v>      -0.47500000       0.47500000       0.12500000 </v>
   <v>      -0.47500000      -0.00000000      -0.12500000 </v>
   <v>      -0.42500000       0.47500000       0.12500000 </v>
   <v>      -0.42500000      -0.05000000      -0.12500000 </v>
   <v>      -0.37500000       0.47500000       0.12500000 </v>
   <v>      -0.37500000      -0.10000000      -0.12500000 </v>
   <v>      -0.32500000       0.47500000       0.12500000 </v>
   <v>      -0.32500000      -0.15000000      -0.12500000 </v>
   <v>      -0.27500000       0.47500000       0.12500000 </v>
   <v>      -0.27500000      -0.20000000      -0.12500000 </v>
   <v>      -0.22500000       0.47500000       0.12500000 </v>
   <v>      -0.22500000      -0.25000000      -0.12500000 </v>
   <v>      -0.17500000       0.47500000       0.12500000 </v>
   <v>      -0.17500000      -0.30000000      -0.12500000 </v>
   <v>      -0.12500000       0.47500000       0.12500000 </v>
   <v>      -0.12500000      -0.35000000      -0.12500000 </v>
   <v>      -0.07500000       0.47500000       0.12500000 </v>
   <v>      -0.07500000      -0.40000000      -0.12500000 </v>
   <v>      -0.02500000       0.47500000       0.12500000 </v>
   <v>      -0.02500000      -0.45000000      -0.12500000 </v>
   <v>       0.02500000       0.02500000       0.17500000 </v>
   <v>       0.02500000      -0.05000000      -0.17500000 </v>
   <v>       0.07500000       0.02500000       0.17500000 </v>
   <v>       0.07500000      -0.10000000      -0.17500000 </v>
   <v>       0.12500000       0.02500000       0.17500000 </v>
   <v>       0.12500000      -0.15000000      -0.17500000 </v>
   <v>       0.17500000       0.02500000       0.17500000 </v>
   <v>       0.17500000      -0.20000000      -0.17500000 </v>
   <v>       0.22500000       0.02500000       0.17500000 </v>
   <v>       0.22500000      -0.25000000      -0.17500000 </v>
   <v>       0.27500000       0.02500000       0.17500000 </v>
   <v>       0.27500000      -0.30000000      -0.17500000 </v>
   <v>       0.32500000       0.02500000       0.17500000 </v>
   <v>       0.32500000      -0.35000000      -0.17500000 </v>
   <v>       0.37500000       0.02500000       0.17500000 </v>
   <v>       0.37500000      -0.40000000      -0.17500000 </v>
   <v>       0.42500000       0.02500000       0.17500000 </v>
   <v>       0.42500000      -0.45000000      -0.17500000 </v>
   <v>       0.47500000       0.02500000       0.17500000 </v>
   <v>       0.47500000       0.50000000      -0.17500000 </v>
   <v>      -0.47500000       0.02500000       0.17500000 </v>
   <v>      -0.47500000       0.45000000      -0.17500000 </v>
   <v>      -0.42500000       0.02500000       0.17500000 </v>
   <v>      -0.42500000       0.40000000      -0.17500000 </v>
   <v>      -0.37500000       0.02500000       0.17500000 </v>
   <v>      -0.37500000       0.35000000      -0.17500000 </v>
   <v>      -0.32500000       0.02500000       0.17500000 </v>
   <v>      -0.32500000       0.30000000      -0.17500000 </v>
   <v>      -0.27500000       0.02500000       0.17500000 </v>
   <v>      -0.27500000       0.25000000      -0.17500000 </v>
   <v>      -0.22500000       0.02500000       0.17500000 </v>
   <v>      -0.22500000       0.20000000      -0.17500000 </v>
   <v>      -0.17500000       0.02500000       0.17500000 </v>
   <v>      -0.17500000       0.15000000      -0.17500000 </v>
   <v>      -0.12500000       0.02500000       0.17500000 </v>
   <v>      -0.12500000       0.10000000      -0.17500000 </v>
   <v>      -0.07500000       0.02500000       0.17500000 </v>
   <v>      -0.07500000       0.05000000      -0.17500000 </v>
   <v>      -0.02500000       0.02500000       0.17500000 </v>
   <v>      -0.02500000       0.00000000      -0.17500000 </v>
   <v>       0.02500000       0.07500000       0.17500000 </v>
   <v>       0.02500000      -0.10000000      -0.17500000 </v>
   <v>       0.07500000       0.07500000       0.17500000 </v>
   <v>       0.07500000      -0.15000000      -0.17500000 </v>
   <v>       0.12500000       0.07500000       0.17500000 </v>
   <v>       0.12500000      -0.20000000      -0.17500000 </v>
   <v>       0.17500000       0.07500000       0.17500000 </v>
   <v>       0.17500000      -0.25000000      -0.17500000 </v>
   <v>       0.22500000       0.07500000       0.17500000 </v>
   <v>       0.22500000      -0.30000000      -0.17500000 </v>
[...]
     <r>    13.4472     0.1515     0.1523     0.2069    -0.0000     0.0000     0.0000 </r>
     <r>    13.4572     0.1521     0.1525     0.2084    -0.0000     0.0000     0.0000 </r>
     <r>    13.4672     0.1528     0.1528     0.2100    -0.0000     0.0000     0.0000 </r>
     <r>    13.4772     0.1535     0.1533     0.2118    -0.0000     0.0000     0.0000 </r>
     <r>    13.4873     0.1544     0.1539     0.2136    -0.0000     0.0000     0.0000 </r>
     <r>    13.4973     0.1553     0.1547     0.2156    -0.0000     0.0000     0.0000 </r>
     <r>    13.5073     0.1563     0.1556     0.2176    -0.0000     0.0000     0.0000 </r>
     <r>    13.5173     0.1572     0.1566     0.2198    -0.0000     0.0000     0.0000 </r>
     <r>    13.5273     0.1582     0.1577     0.2220    -0.0000     0.0000     0.0000 </r>
     <r>    13.5373     0.1590     0.1589     0.2242    -0.0000     0.0000     0.0000 </r>
     <r>    13.5473     0.1599     0.1602     0.2264    -0.0000     0.0000     0.0000 </r>
     <r>    13.5573     0.1606     0.1615     0.2286    -0.0000     0.0000     0.0000 </r>
     <r>    13.5673     0.1613     0.1629     0.2308    -0.0000     0.0000     0.0000 </r>
     <r>    13.5773     0.1618     0.1643     0.2328    -0.0000     0.0000     0.0000 </r>
     <r>    13.5874     0.1623     0.1657     0.2348    -0.0000     0.0000     0.0000 </r>
     <r>    13.5974     0.1626     0.1670     0.2365    -0.0000     0.0000     0.0000 </r>
     <r>    13.6074     0.1629     0.1684     0.2381    -0.0000     0.0000     0.0000 </r>
     <r>    13.6174     0.1630     0.1696     0.2395    -0.0000     0.0000     0.0000 </r>
     <r>    13.6274     0.1630     0.1708     0.2407    -0.0000     0.0000     0.0000 </r>
     <r>    13.6374     0.1629     0.1719     0.2416    -0.0000     0.0000     0.0000 </r>
     <r>    13.6474     0.1626     0.1728     0.2424    -0.0000     0.0000     0.0000 </r>
     <r>    13.6574     0.1622     0.1736     0.2428    -0.0000     0.0000     0.0000 </r>
     <r>    13.6674     0.1618     0.1742     0.2430    -0.0000     0.0000     0.0000 </r>
     <r>    13.6774     0.1612     0.1747     0.2430    -0.0000     0.0000     0.0000 </r>
     <r>    13.6875     0.1605     0.1750     0.2428    -0.0000     0.0000     0.0000 </r>
     <r>    13.6975     0.1597     0.1750     0.2424    -0.0000     0.0000     0.0000 </r>
     <r>    13.7075     0.1588     0.1749     0.2418     0.0000     0.0000     0.0000 </r>
     <r>    13.7175     0.1579     0.1746     0.2410     0.0000     0.0000     0.0000 </r>
     <r>    13.7275     0.1568     0.1741     0.2401     0.0000     0.0000     0.0000 </r>
     <r>    13.7375     0.1557     0.1734     0.2392     0.0000     0.0000     0.0000 </r>
     <r>    13.7475     0.1546     0.1726     0.2381     0.0000     0.0000     0.0000 </r>
     <r>    13.7575     0.1534     0.1716     0.2369     0.0000     0.0000     0.0000 </r>
     <r>    13.7675     0.1522     0.1705     0.2357     0.0000     0.0000     0.0000 </r>
     <r>    13.7775     0.1510     0.1692     0.2345     0.0000     0.0000     0.0000 </r>
     <r>    13.7876     0.1498     0.1679     0.2333     0.0000     0.0000     0.0000 </r>
     <r>    13.7976     0.1486     0.1665     0.2321     0.0000     0.0000     0.0000 </r>
     <r>    13.8076     0.1474     0.1650     0.2309     0.0000     0.0000     0.0000 </r>
     <r>    13.8176     0.1463     0.1636     0.2297     0.0000     0.0000     0.0000 </r>
     <r>    13.8276     0.1453     0.1621     0.2285     0.0000     0.0000     0.0000 </r>
     <r>    13.8376     0.1444     0.1607     0.2274     0.0000     0.0000     0.0000 </r>
     <r>    13.8476     0.1436     0.1594     0.2263     0.0000     0.0000     0.0000 </r>
     <r>    13.8576     0.1430     0.1582     0.2253     0.0000     0.0000     0.0000 </r>
     <r>    13.8676     0.1424     0.1571     0.2242     0.0000     0.0000     0.0000 </r>
     <r>    13.8776     0.1421     0.1562     0.2233     0.0000     0.0000     0.0000 </r>
    </set>
   </array>
  </conductivity>
  <dos>
   <i name="efermi">      8.87764906 </i>
   <total>
    <array>
     <dimension dim="1">gridpoints</dimension>
     <dimension dim="2">spin</dimension>
     <field>energy</field>
     <field>total</field>
     <field>integrated</field>
     <set>
      <set comment="spin 1">
       <r>    -1.1375     0.0000     0.0000 </r>
       <r>    -1.0056     0.0000     0.0000 </r>
       <r>    -0.8737     0.0000     0.0000 </r>
       <r>    -0.7418    -0.0000    -0.0000 </r>
       <r>    -0.6099    -0.0000    -0.0000 </r>
       <r>    -0.4781    -0.0000    -0.0000 </r>
       <r>    -0.3462    -0.0000    -0.0000 </r>
       <r>    -0.2143    -0.0000    -0.0000 </r>
       <r>    -0.0824    -0.0000    -0.0000 </r>
       <r>     0.0495    -0.0000    -0.0000 </r>
       <r>     0.1813    -0.0000    -0.0000 </r>
       <r>     0.3132    -0.0000    -0.0000 </r>
       <r>     0.4451    -0.0001    -0.0000 </r>
       <r>     0.5770    -0.0007    -0.0001 </r>
       <r>     0.7089    -0.0012    -0.0003 </r>
       <r>     0.8407     0.0061     0.0005 </r>
       <r>     0.9726     0.0281     0.0043 </r>
       <r>     1.1045     0.0531     0.0113 </r>
       <r>     1.2364     0.0713     0.0207 </r>
       <r>     1.3683     0.0888     0.0324 </r>
       <r>     1.5002     0.1009     0.0457 </r>
       <r>     1.6320     0.1135     0.0606 </r>
       <r>     1.7639     0.1341     0.0783 </r>
       <r>     1.8958     0.1471     0.0977 </r>
       <r>     2.0277     0.1564     0.1183 </r>
       <r>     2.1596     0.1781     0.1418 </r>
       <r>     2.2914     0.1949     0.1675 </r>
       <r>     2.4233     0.2078     0.1949 </r>
       <r>     2.5552     0.3583     0.2422 </r>
       <r>     2.6871     0.8044     0.3483 </r>
       <r>     2.8190     1.4471     0.5391 </r>
       <r>     2.9508     2.0835     0.8139 </r>
       <r>     3.0827     2.5345     1.1481 </r>
       <r>     3.2146     2.7990     1.5173 </r>
       <r>     3.3465     3.0701     1.9222 </r>
       <r>     3.4784     3.2849     2.3554 </r>
       <r>     3.6102     3.2023     2.7777 </r>
       <r>     3.7421     2.7603     3.1417 </r>
       <r>     3.8740     2.3463     3.4512 </r>
       <r>     4.0059     2.1485     3.7345 </r>
       <r>     4.1378     2.0170     4.0005 </r>
       <r>     4.2696     2.2907     4.3026 </r>
       <r>     4.4015     2.8022     4.6722 </r>
       <r>     4.5334     2.8680     5.0504 </r>
       <r>     4.6653     2.5235     5.3832 </r>
       <r>     4.7972     2.3480     5.6928 </r>
       <r>     4.9290     2.5607     6.0305 </r>
       <r>     5.0609     2.7639     6.3950 </r>
       <r>     5.1928     2.8398     6.7696 </r>
       <r>     5.3247     2.6319     7.1167 </r>
       <r>     5.4566     2.0170     7.3827 </r>
       <r>     5.5884     1.3879     7.5657 </r>
       <r>     5.7203     1.5720     7.7730 </r>
       <r>     5.8522     2.6041     8.1164 </r>
       <r>     5.9841     3.5010     8.5781 </r>
       <r>     6.1160     3.7052     9.0668 </r>
       <r>     6.2478     3.1919     9.4877 </r>
       <r>     6.3797     2.6521     9.8375 </r>
       <r>     6.5116     2.8309    10.2108 </r>
       <r>     6.6435     3.3962    10.6587 </r>
       <r>     6.7754     3.4897    11.1189 </r>
       <r>     6.9072     3.0481    11.5209 </r>
       <r>     7.0391     2.7670    11.8858 </r>
       <r>     7.1710     2.9534    12.2753 </r>
       <r>     7.3029     3.3102    12.7119 </r>
       <r>     7.4348     3.2830    13.1449 </r>
       <r>     7.5666     2.8884    13.5258 </r>
       <r>     7.6985     2.4449    13.8482 </r>
       <r>     7.8304     2.0629    14.1203 </r>
       <r>     7.9623     1.8946    14.3701 </r>
       <r>     8.0942     1.9126    14.6224 </r>
       <r>     8.2261     1.9795    14.8834 </r>
       <r>     8.3579     1.8106    15.1222 </r>
       <r>     8.4898     1.6444    15.3391 </r>
       <r>     8.6217     1.7009    15.5634 </r>
       <r>     8.7536     1.7558    15.7949 </r>
       <r>     8.8855     1.6490    16.0124 </r>
       <r>     9.0173     1.5563    16.2177 </r>
       <r>     9.1492     1.5362    16.4202 </r>
       <r>     9.2811     1.6532    16.6383 </r>
       <r>     9.4130     1.8351    16.8803 </r>
       <r>     9.5449     1.9516    17.1377 </r>
       <r>     9.6767     2.1286    17.4184 </r>
       <r>     9.8086     2.3957    17.7343 </r>
       <r>     9.9405     2.6449    18.0831 </r>
       <r>    10.0724     2.8935    18.4647 </r>
       <r>    10.2043     3.3543    18.9071 </r>
       <r>    10.3361     3.8885    19.4199 </r>
       <r>    10.4680     4.1884    19.9723 </r>
       <r>    10.5999     3.8970    20.4862 </r>
       <r>    10.7318     2.8575    20.8631 </r>
       <r>    10.8637     1.4387    21.0528 </r>
       <r>    10.9955     0.5044    21.1193 </r>
       <r>    11.1274     0.4029    21.1725 </r>
       <r>    11.2593     0.5537    21.2455 </r>
       <r>    11.3912     0.5424    21.3170 </r>
       <r>    11.5231     0.4761    21.3798 </r>
       <r>    11.6549     0.4837    21.4436 </r>
       <r>    11.7868     0.5015    21.5098 </r>
       <r>    11.9187     0.4461    21.5686 </r>
       <r>    12.0506     0.4685    21.6304 </r>
       <r>    12.1825     0.5677    21.7052 </r>
       <r>    12.3143     0.5644    21.7797 </r>
       <r>    12.4462     0.4912    21.8444 </r>
       <r>    12.5781     0.4930    21.9095 </r>
       <r>    12.7100     0.4966    21.9749 </r>
       <r>    12.8419     0.4472    22.0339 </r>
       <r>    12.9737     0.4716    22.0961 </r>
       <r>    13.1056     0.5406    22.1674 </r>
       <r>    13.2375     0.5286    22.2371 </r>
       <r>    13.3694     0.4559    22.2972 </r>
       <r>    13.5013     0.4209    22.3528 </r>
       <r>    13.6331     0.4343    22.4100 </r>
       <r>    13.7650     0.4556    22.4701 </r>
       <r>    13.8969     0.4359    22.5276 </r>
       <r>    14.0288     0.4188    22.5828 </r>
       <r>    14.1607     0.4228    22.6386 </r>
       <r>    14.2925     0.4295    22.6952 </r>
       <r>    14.4244     0.4492    22.7545 </r>
       <r>    14.5563     0.4323    22.8115 </r>
       <r>    14.6882     0.4116    22.8658 </r>
       <r>    14.8201     0.3844    22.9165 </r>
       <r>    14.9519     0.3987    22.9690 </r>
       <r>    15.0838     0.4757    23.0318 </r>
       <r>    15.2157     0.4819    23.0953 </r>
       <r>    15.3476     0.4274    23.1517 </r>
       <r>    15.4795     0.4134    23.2062 </r>
       <r>    15.6114     0.4130    23.2607 </r>
       <r>    15.7432     0.4230    23.3165 </r>
       <r>    15.8751     0.4888    23.3809 </r>
       <r>    16.0070     0.4789    23.4441 </r>
       <r>    16.1389     0.3893    23.4954 </r>
       <r>    16.2708     0.3668    23.5438 </r>
       <r>    16.4026     0.3586    23.5911 </r>
       <r>    16.5345     0.3784    23.6410 </r>
       <r>    16.6664     0.4355    23.6984 </r>
       <r>    16.7983     0.3694    23.7471 </r>
       <r>    16.9302     0.2775    23.7837 </r>
       <r>    17.0620     0.2679    23.8191 </r>
       <r>    17.1939     0.2245    23.8487 </r>
       <r>    17.3258     0.1997    23.8750 </r>
       <r>    17.4577     0.2116    23.9029 </r>
       <r>    17.5896     0.1810    23.9268 </r>
       <r>    17.7214     0.1628    23.9483 </r>
       <r>    17.8533     0.1425    23.9671 </r>
       <r>    17.9852     0.1148    23.9822 </r>
       <r>    18.1171     0.1469    24.0016 </r>
       <r>    18.2490     0.1660    24.0235 </r>
       <r>    18.3808     0.1123    24.0383 </r>
       <r>    18.5127     0.0907    24.0502 </r>
       <r>    18.6446     0.1067    24.0643 </r>
       <r>    18.7765     0.1123    24.0791 </r>
       <r>    18.9084     0.2059    24.1063 </r>
       <r>    19.0402     0.3535    24.1529 </r>
       <r>    19.1721     0.3042    24.1930 </r>
       <r>    19.3040     0.3631    24.2409 </r>
       <r>    19.4359     0.9121    24.3612 </r>
       <r>    19.5678     1.3307    24.5367 </r>
       <r>    19.6996     1.2868    24.7064 </r>
       <r>    19.8315     1.1934    24.8638 </r>
       <r>    19.9634     1.2253    25.0254 </r>
       <r>    20.0953     1.1549    25.1777 </r>
       <r>    20.2272     1.0218    25.3124 </r>
       <r>    20.3590     0.9433    25.4368 </r>
       <r>    20.4909     0.9364    25.5603 </r>
       <r>    20.6228     1.0162    25.6943 </r>
       <r>    20.7547     1.0857    25.8375 </r>
       <r>    20.8866     1.0443    25.9752 </r>
       <r>    21.0184     0.9559    26.1013 </r>
       <r>    21.1503     0.8726    26.2164 </r>
       <r>    21.2822     0.8765    26.3320 </r>
       <r>    21.4141     0.9899    26.4625 </r>
       <r>    21.5460     0.9575    26.5888 </r>
       <r>    21.6778     0.8678    26.7032 </r>
       <r>    21.8097     0.8383    26.8138 </r>
       <r>    21.9416     0.7876    26.9177 </r>
       <r>    22.0735     0.7719    27.0195 </r>
       <r>    22.2054     0.8970    27.1377 </r>
       <r>    22.3373     1.0002    27.2696 </r>
       <r>    22.4691     0.8411    27.3806 </r>
       <r>    22.6010     0.6736    27.4694 </r>
       <r>    22.7329     0.7051    27.5624 </r>
       <r>    22.8648     0.7757    27.6647 </r>
       <r>    22.9967     0.8151    27.7722 </r>
       <r>    23.1285     0.8699    27.8869 </r>
       <r>    23.2604     0.7817    27.9900 </r>
       <r>    23.3923     0.6040    28.0697 </r>
       <r>    23.5242     0.5519    28.1424 </r>
       <r>    23.6561     0.6314    28.2257 </r>
       <r>    23.7879     0.7497    28.3246 </r>
       <r>    23.9198     0.7867    28.4283 </r>
       <r>    24.0517     0.7697    28.5298 </r>
       <r>    24.1836     0.8212    28.6381 </r>
       <r>    24.3155     0.9680    28.7658 </r>
       <r>    24.4473     1.2729    28.9337 </r>
       <r>    24.5792     1.4498    29.1249 </r>
       <r>    24.7111     1.4759    29.3195 </r>
       <r>    24.8430     1.6803    29.5411 </r>
       <r>    24.9749     1.8790    29.7889 </r>
       <r>    25.1067     1.9257    30.0429 </r>
       <r>    25.2386     1.9127    30.2951 </r>
       <r>    25.3705     1.6925    30.5183 </r>
       <r>    25.5024     1.3020    30.6900 </r>
       <r>    25.6343     1.0757    30.8319 </r>
       <r>    25.7661     1.0923    30.9760 </r>
       <r>    25.8980     1.1630    31.1293 </r>
       <r>    26.0299     1.0855    31.2725 </r>
       <r>    26.1618     1.0142    31.4062 </r>
       <r>    26.2937     1.0788    31.5485 </r>
       <r>    26.4255     1.1756    31.7036 </r>
       <r>    26.5574     1.3034    31.8754 </r>
       <r>    26.6893     1.4248    32.0634 </r>
       <r>    26.8212     1.4836    32.2590 </r>
       <r>    26.9531     1.3853    32.4417 </r>
       <r>    27.0849     1.3395    32.6184 </r>
       <r>    27.2168     1.3528    32.7968 </r>
       <r>    27.3487     1.2619    32.9632 </r>
       <r>    27.4806     1.1883    33.1199 </r>
       <r>    27.6125     1.2509    33.2849 </r>
       <r>    27.7443     1.4268    33.4730 </r>
       <r>    27.8762     1.4396    33.6629 </r>
       <r>    28.0081     1.3323    33.8386 </r>
       <r>    28.1400     1.2747    34.0067 </r>
       <r>    28.2719     1.2828    34.1759 </r>
       <r>    28.4037     1.3240    34.3505 </r>
       <r>    28.5356     1.2765    34.5188 </r>
       <r>    28.6675     1.1092    34.6651 </r>
       <r>    28.7994     1.0262    34.8004 </r>
       <r>    28.9313     0.9938    34.9315 </r>
       <r>    29.0631     0.9628    35.0585 </r>
       <r>    29.1950     0.9572    35.1847 </r>
       <r>    29.3269     1.0432    35.3223 </r>
       <r>    29.4588     1.0604    35.4621 </r>
       <r>    29.5907     0.8993    35.5807 </r>
       <r>    29.7226     0.7895    35.6848 </r>
       <r>    29.8544     0.7929    35.7894 </r>
       <r>    29.9863     0.8638    35.9033 </r>
       <r>    30.1182     0.9280    36.0257 </r>
       <r>    30.2501     0.9800    36.1550 </r>
       <r>    30.3820     1.0320    36.2911 </r>
       <r>    30.5138     1.0415    36.4284 </r>
       <r>    30.6457     0.9405    36.5524 </r>
       <r>    30.7776     0.8444    36.6638 </r>
       <r>    30.9095     0.8603    36.7773 </r>
       <r>    31.0414     0.8976    36.8956 </r>
       <r>    31.1732     0.9030    37.0147 </r>
       <r>    31.3051     0.9053    37.1341 </r>
       <r>    31.4370     0.8900    37.2515 </r>
       <r>    31.5689     0.9182    37.3726 </r>
       <r>    31.7008     1.0135    37.5063 </r>
       <r>    31.8326     1.1035    37.6518 </r>
       <r>    31.9645     1.1426    37.8025 </r>
       <r>    32.0964     1.1501    37.9542 </r>
       <r>    32.2283     1.0834    38.0970 </r>
       <r>    32.3602     1.0160    38.2310 </r>
       <r>    32.4920     1.0594    38.3707 </r>
       <r>    32.6239     1.0904    38.5145 </r>
       <r>    32.7558     1.0148    38.6484 </r>
       <r>    32.8877     0.9421    38.7726 </r>
       <r>    33.0196     0.8546    38.8853 </r>
       <r>    33.1514     0.7584    38.9853 </r>
       <r>    33.2833     0.7602    39.0856 </r>
       <r>    33.4152     0.7539    39.1850 </r>
       <r>    33.5471     0.6741    39.2739 </r>
       <r>    33.6790     0.6341    39.3576 </r>
       <r>    33.8108     0.6100    39.4380 </r>
       <r>    33.9427     0.5505    39.5106 </r>
       <r>    34.0746     0.5203    39.5792 </r>
       <r>    34.2065     0.4899    39.6438 </r>
       <r>    34.3384     0.3998    39.6966 </r>
       <r>    34.4702     0.2899    39.7348 </r>
       <r>    34.6021     0.2332    39.7655 </r>
       <r>    34.7340     0.2090    39.7931 </r>
       <r>    34.8659     0.1883    39.8179 </r>
       <r>    34.9978     0.1719    39.8406 </r>
       <r>    35.1296     0.1324    39.8581 </r>
       <r>    35.2615     0.1172    39.8735 </r>
       <r>    35.3934     0.1101    39.8881 </r>
       <r>    35.5253     0.1204    39.9039 </r>
       <r>    35.6572     0.1516    39.9239 </r>
       <r>    35.7890     0.1143    39.9390 </r>
       <r>    35.9209     0.0702    39.9483 </r>
       <r>    36.0528     0.0866    39.9597 </r>
       <r>    36.1847     0.1098    39.9742 </r>
       <r>    36.3166     0.1179    39.9897 </r>
       <r>    36.4485     0.0721    39.9992 </r>
       <r>    36.5803     0.0115    40.0007 </r>
       <r>    36.7122    -0.0040    40.0002 </r>
       <r>    36.8441    -0.0014    40.0000 </r>
       <r>    36.9760    -0.0001    40.0000 </r>
       <r>    37.1079    -0.0000    40.0000 </r>
       <r>    37.2397    -0.0000    40.0000 </r>
       <r>    37.3716    -0.0000    40.0000 </r>
       <r>    37.5035    -0.0000    40.0000 </r>
       <r>    37.6354    -0.0000    40.0000 </r>
       <r>    37.7673    -0.0000    40.0000 </r>
       <r>    37.8991     0.0000    40.0000 </r>
       <r>    38.0310     0.0000    40.0000 </r>
       <r>    38.1629     0.0000    40.0000 </r>
       <r>    38.2948     0.0000    40.0000 </r>
       <r>    38.4267     0.0000    40.0000 </r>
      </set>
     </set>
    </array>
   </total>
  </dos>
 </calculation>
 <structure name="finalpos" >
  <crystal>
   <varray name="basis" >
    <v>       2.70590000       0.00000000       0.00000000 </v>
    <v>      -1.35295000       2.34330940       0.00000000 </v>
    <v>       0.00000000       0.00000000       4.28154557 </v>
   </varray>
   <i name="volume">     27.14825677 </i>
   <varray name="rec_basis" >
    <v>       0.36956281       0.21337345       0.00000000 </v>
    <v>       0.00000000       0.42674689       0.00000000 </v>
    <v>       0.00000000       0.00000000       0.23356052 </v>
   </varray>
  </crystal>
  <varray name="positions" >
   <v>       0.00000000       0.00000000       0.00000000 </v>
   <v>       0.66667000       0.33333000       0.50000000 </v>
  </varray>
 </structure>
</modeling>
