   4   4   1   0
  0.9063964E+01  0.5107186E-09  0.5107186E-09  0.5107186E-09  0.5000000E-15
  1.000000000000000E-004
  CAR 
 NiO_af2                                 
     16.22653668    -16.68473114  301      3.74768096      1.00000000
    -16.685  0.0000E+00  0.0000E+00  0.0000E+00  0.0000E+00
    -16.575  0.0000E+00  0.0000E+00  0.0000E+00  0.0000E+00
    -16.465  0.0000E+00  0.0000E+00  0.0000E+00  0.0000E+00
    -16.356  0.0000E+00  0.0000E+00  0.0000E+00  0.0000E+00
    -16.246  0.0000E+00  0.0000E+00  0.0000E+00  0.0000E+00
    -16.136  0.0000E+00  0.0000E+00  0.0000E+00  0.0000E+00
    -16.027  0.0000E+00  0.0000E+00  0.0000E+00  0.0000E+00
    -15.917  0.0000E+00  0.0000E+00  0.0000E+00  0.0000E+00
    -15.807  0.0000E+00  0.0000E+00  0.0000E+00  0.0000E+00
    -15.697  0.0000E+00  0.0000E+00  0.0000E+00  0.0000E+00
    -15.588  0.0000E+00  0.0000E+00  0.0000E+00  0.0000E+00
    -15.478  0.0000E+00  0.0000E+00  0.0000E+00  0.0000E+00
    -15.368  0.0000E+00  0.0000E+00  0.0000E+00  0.0000E+00
    -15.259  0.0000E+00  0.0000E+00  0.0000E+00  0.0000E+00
    -15.149  0.0000E+00  0.0000E+00  0.0000E+00  0.0000E+00
    -15.039  0.0000E+00  0.0000E+00  0.0000E+00  0.0000E+00
    -14.929  0.0000E+00  0.0000E+00  0.0000E+00  0.0000E+00
    -14.820  0.0000E+00  0.0000E+00  0.0000E+00  0.0000E+00
    -14.710  0.0000E+00  0.0000E+00  0.0000E+00  0.0000E+00
    -14.600  0.1124E+00  0.1124E+00  0.3976E-02  0.3976E-02
    -14.491  0.1775E+00  0.1775E+00  0.2002E-01  0.2002E-01
    -14.381  0.2521E+00  0.2521E+00  0.4344E-01  0.4344E-01
    -14.271  0.3162E+00  0.3162E+00  0.7469E-01  0.7469E-01
    -14.162  0.3891E+00  0.3891E+00  0.1132E+00  0.1132E+00
    -14.052  0.4893E+00  0.4893E+00  0.1617E+00  0.1617E+00
    -13.942  0.5513E+00  0.5513E+00  0.2186E+00  0.2186E+00
    -13.832  0.7141E+00  0.7141E+00  0.2895E+00  0.2895E+00
    -13.723  0.8929E+00  0.8929E+00  0.3774E+00  0.3774E+00
    -13.613  0.1172E+01  0.1172E+01  0.4895E+00  0.4895E+00
    -13.503  0.1685E+01  0.1685E+01  0.6437E+00  0.6437E+00
    -13.394  0.3031E+01  0.3031E+01  0.8765E+00  0.8765E+00
    -13.284  0.3947E+01  0.3947E+01  0.1289E+01  0.1289E+01
    -13.174  0.0000E+00  0.0000E+00  0.2000E+01  0.2000E+01
    -13.064  0.0000E+00  0.0000E+00  0.2000E+01  0.2000E+01
    -12.955  0.0000E+00  0.0000E+00  0.2000E+01  0.2000E+01
    -12.845  0.0000E+00  0.0000E+00  0.2000E+01  0.2000E+01
    -12.735  0.0000E+00  0.0000E+00  0.2000E+01  0.2000E+01
    -12.626  0.0000E+00  0.0000E+00  0.2000E+01  0.2000E+01
    -12.516  0.0000E+00  0.0000E+00  0.2000E+01  0.2000E+01
    -12.406  0.0000E+00  0.0000E+00  0.2000E+01  0.2000E+01
    -12.297  0.0000E+00  0.0000E+00  0.2000E+01  0.2000E+01
    -12.187  0.0000E+00  0.0000E+00  0.2000E+01  0.2000E+01
    -12.077  0.0000E+00  0.0000E+00  0.2000E+01  0.2000E+01
    -11.967  0.0000E+00  0.0000E+00  0.2000E+01  0.2000E+01
    -11.858  0.0000E+00  0.0000E+00  0.2000E+01  0.2000E+01
    -11.748  0.0000E+00  0.0000E+00  0.2000E+01  0.2000E+01
    -11.638  0.0000E+00  0.0000E+00  0.2000E+01  0.2000E+01
    -11.529  0.0000E+00  0.0000E+00  0.2000E+01  0.2000E+01
    -11.419  0.0000E+00  0.0000E+00  0.2000E+01  0.2000E+01
    -11.309  0.0000E+00  0.0000E+00  0.2000E+01  0.2000E+01
    -11.200  0.0000E+00  0.0000E+00  0.2000E+01  0.2000E+01
    -11.090  0.0000E+00  0.0000E+00  0.2000E+01  0.2000E+01
    -10.980  0.0000E+00  0.0000E+00  0.2000E+01  0.2000E+01
    -10.870  0.0000E+00  0.0000E+00  0.2000E+01  0.2000E+01
    -10.761  0.0000E+00  0.0000E+00  0.2000E+01  0.2000E+01
    -10.651  0.0000E+00  0.0000E+00  0.2000E+01  0.2000E+01
    -10.541  0.0000E+00  0.0000E+00  0.2000E+01  0.2000E+01
    -10.432  0.0000E+00  0.0000E+00  0.2000E+01  0.2000E+01
    -10.322  0.0000E+00  0.0000E+00  0.2000E+01  0.2000E+01
    -10.212  0.0000E+00  0.0000E+00  0.2000E+01  0.2000E+01
    -10.102  0.0000E+00  0.0000E+00  0.2000E+01  0.2000E+01
     -9.993  0.0000E+00  0.0000E+00  0.2000E+01  0.2000E+01
     -9.883  0.0000E+00  0.0000E+00  0.2000E+01  0.2000E+01
     -9.773  0.0000E+00  0.0000E+00  0.2000E+01  0.2000E+01
     -9.664  0.0000E+00  0.0000E+00  0.2000E+01  0.2000E+01
     -9.554  0.0000E+00  0.0000E+00  0.2000E+01  0.2000E+01
     -9.444  0.0000E+00  0.0000E+00  0.2000E+01  0.2000E+01
     -9.335  0.0000E+00  0.0000E+00  0.2000E+01  0.2000E+01
     -9.225  0.0000E+00  0.0000E+00  0.2000E+01  0.2000E+01
     -9.115  0.0000E+00  0.0000E+00  0.2000E+01  0.2000E+01
     -9.005  0.0000E+00  0.0000E+00  0.2000E+01  0.2000E+01
     -8.896  0.0000E+00  0.0000E+00  0.2000E+01  0.2000E+01
     -8.786  0.0000E+00  0.0000E+00  0.2000E+01  0.2000E+01
     -8.676  0.0000E+00  0.0000E+00  0.2000E+01  0.2000E+01
     -8.567  0.0000E+00  0.0000E+00  0.2000E+01  0.2000E+01
     -8.457  0.0000E+00  0.0000E+00  0.2000E+01  0.2000E+01
     -8.347  0.0000E+00  0.0000E+00  0.2000E+01  0.2000E+01
     -8.238  0.0000E+00  0.0000E+00  0.2000E+01  0.2000E+01
     -8.128  0.0000E+00  0.0000E+00  0.2000E+01  0.2000E+01
     -8.018  0.0000E+00  0.0000E+00  0.2000E+01  0.2000E+01
     -7.908  0.0000E+00  0.0000E+00  0.2000E+01  0.2000E+01
     -7.799  0.0000E+00  0.0000E+00  0.2000E+01  0.2000E+01
     -7.689  0.0000E+00  0.0000E+00  0.2000E+01  0.2000E+01
     -7.579  0.0000E+00  0.0000E+00  0.2000E+01  0.2000E+01
     -7.470  0.0000E+00  0.0000E+00  0.2000E+01  0.2000E+01
     -7.360  0.0000E+00  0.0000E+00  0.2000E+01  0.2000E+01
     -7.250  0.0000E+00  0.0000E+00  0.2000E+01  0.2000E+01
     -7.140  0.0000E+00  0.0000E+00  0.2000E+01  0.2000E+01
     -7.031  0.0000E+00  0.0000E+00  0.2000E+01  0.2000E+01
     -6.921  0.0000E+00  0.0000E+00  0.2000E+01  0.2000E+01
     -6.811  0.0000E+00  0.0000E+00  0.2000E+01  0.2000E+01
     -6.702  0.0000E+00  0.0000E+00  0.2000E+01  0.2000E+01
     -6.592  0.0000E+00  0.0000E+00  0.2000E+01  0.2000E+01
     -6.482  0.0000E+00  0.0000E+00  0.2000E+01  0.2000E+01
     -6.373  0.0000E+00  0.0000E+00  0.2000E+01  0.2000E+01
     -6.263  0.0000E+00  0.0000E+00  0.2000E+01  0.2000E+01
     -6.153  0.0000E+00  0.0000E+00  0.2000E+01  0.2000E+01
     -6.043  0.0000E+00  0.0000E+00  0.2000E+01  0.2000E+01
     -5.934  0.0000E+00  0.0000E+00  0.2000E+01  0.2000E+01
     -5.824  0.0000E+00  0.0000E+00  0.2000E+01  0.2000E+01
     -5.714  0.0000E+00  0.0000E+00  0.2000E+01  0.2000E+01
     -5.605  0.0000E+00  0.0000E+00  0.2000E+01  0.2000E+01
     -5.495  0.0000E+00  0.0000E+00  0.2000E+01  0.2000E+01
     -5.385  0.0000E+00  0.0000E+00  0.2000E+01  0.2000E+01
     -5.275  0.0000E+00  0.0000E+00  0.2000E+01  0.2000E+01
     -5.166  0.0000E+00  0.0000E+00  0.2000E+01  0.2000E+01
     -5.056  0.0000E+00  0.0000E+00  0.2000E+01  0.2000E+01
     -4.946  0.0000E+00  0.0000E+00  0.2000E+01  0.2000E+01
     -4.837  0.0000E+00  0.0000E+00  0.2000E+01  0.2000E+01
     -4.727  0.0000E+00  0.0000E+00  0.2000E+01  0.2000E+01
     -4.617  0.0000E+00  0.0000E+00  0.2000E+01  0.2000E+01
     -4.508  0.0000E+00  0.0000E+00  0.2000E+01  0.2000E+01
     -4.398  0.0000E+00  0.0000E+00  0.2000E+01  0.2000E+01
     -4.288  0.0000E+00  0.0000E+00  0.2000E+01  0.2000E+01
     -4.178  0.0000E+00  0.0000E+00  0.2000E+01  0.2000E+01
     -4.069  0.0000E+00  0.0000E+00  0.2000E+01  0.2000E+01
     -3.959  0.0000E+00  0.0000E+00  0.2000E+01  0.2000E+01
     -3.849  0.0000E+00  0.0000E+00  0.2000E+01  0.2000E+01
     -3.740  0.0000E+00  0.0000E+00  0.2000E+01  0.2000E+01
     -3.630  0.0000E+00  0.0000E+00  0.2000E+01  0.2000E+01
     -3.520  0.0000E+00  0.0000E+00  0.2000E+01  0.2000E+01
     -3.411  0.5256E-01  0.5256E-01  0.2001E+01  0.2001E+01
     -3.301  0.2771E+00  0.2771E+00  0.2019E+01  0.2019E+01
     -3.191  0.4437E+00  0.4437E+00  0.2059E+01  0.2059E+01
     -3.081  0.6924E+00  0.6924E+00  0.2120E+01  0.2120E+01
     -2.972  0.1658E+01  0.1658E+01  0.2231E+01  0.2231E+01
     -2.862  0.3063E+01  0.3063E+01  0.2490E+01  0.2490E+01
     -2.752  0.2677E+01  0.2677E+01  0.2840E+01  0.2840E+01
     -2.643  0.4712E+00  0.4712E+00  0.2977E+01  0.2977E+01
     -2.533  0.1471E+01  0.1471E+01  0.3066E+01  0.3066E+01
     -2.423  0.4924E+01  0.4924E+01  0.3362E+01  0.3362E+01
     -2.313  0.6679E+01  0.6679E+01  0.4169E+01  0.4169E+01
     -2.204  0.3414E+01  0.3414E+01  0.4643E+01  0.4643E+01
     -2.094  0.1400E+01  0.1400E+01  0.4934E+01  0.4934E+01
     -1.984  0.5132E+00  0.5132E+00  0.5022E+01  0.5022E+01
     -1.875  0.2695E+01  0.2695E+01  0.5163E+01  0.5163E+01
     -1.765  0.2642E+01  0.2642E+01  0.5500E+01  0.5500E+01
     -1.655  0.3170E+01  0.3170E+01  0.5850E+01  0.5850E+01
     -1.546  0.2058E+01  0.2058E+01  0.6182E+01  0.6182E+01
     -1.436  0.3423E+01  0.3423E+01  0.6448E+01  0.6448E+01
     -1.326  0.1524E+01  0.1524E+01  0.6823E+01  0.6823E+01
     -1.216  0.8008E+00  0.8008E+00  0.6948E+01  0.6948E+01
     -1.107  0.1586E+00  0.1586E+00  0.6996E+01  0.6996E+01
     -0.997  0.6488E+00  0.6488E+00  0.7025E+01  0.7025E+01
     -0.887  0.1081E+01  0.1081E+01  0.7124E+01  0.7124E+01
     -0.778  0.1718E+01  0.1718E+01  0.7276E+01  0.7276E+01
     -0.668  0.2622E+01  0.2622E+01  0.7515E+01  0.7515E+01
     -0.558  0.2362E+01  0.2362E+01  0.7821E+01  0.7821E+01
     -0.449  0.3339E+00  0.3339E+00  0.8015E+01  0.8015E+01
     -0.339  0.2664E+01  0.2664E+01  0.8133E+01  0.8133E+01
     -0.229  0.1776E+01  0.1776E+01  0.8391E+01  0.8391E+01
     -0.119  0.1006E+01  0.1006E+01  0.8540E+01  0.8540E+01
     -0.010  0.6771E+00  0.6771E+00  0.8630E+01  0.8630E+01
      0.100  0.1160E+01  0.1160E+01  0.8728E+01  0.8728E+01
      0.210  0.2006E+01  0.2006E+01  0.8912E+01  0.8912E+01
      0.319  0.1893E+01  0.1893E+01  0.9134E+01  0.9134E+01
      0.429  0.1436E+01  0.1436E+01  0.9317E+01  0.9317E+01
      0.539  0.1037E+01  0.1037E+01  0.9450E+01  0.9450E+01
      0.649  0.1384E+01  0.1384E+01  0.9582E+01  0.9582E+01
      0.758  0.1672E+01  0.1672E+01  0.9751E+01  0.9751E+01
      0.868  0.1918E+01  0.1918E+01  0.9945E+01  0.9945E+01
      0.978  0.2229E+01  0.2229E+01  0.1018E+02  0.1018E+02
      1.087  0.1846E+01  0.1846E+01  0.1041E+02  0.1041E+02
      1.197  0.1478E+01  0.1478E+01  0.1059E+02  0.1059E+02
      1.307  0.1099E+01  0.1099E+01  0.1074E+02  0.1074E+02
      1.416  0.6792E+00  0.6792E+00  0.1084E+02  0.1084E+02
      1.526  0.3000E+00  0.3000E+00  0.1090E+02  0.1090E+02
      1.636  0.6909E+00  0.6909E+00  0.1094E+02  0.1094E+02
      1.746  0.2204E+01  0.2204E+01  0.1112E+02  0.1112E+02
      1.855  0.2209E+01  0.2209E+01  0.1144E+02  0.1144E+02
      1.965  0.1491E+01  0.1491E+01  0.1161E+02  0.1161E+02
      2.075  0.1908E+01  0.1908E+01  0.1181E+02  0.1181E+02
      2.184  0.2554E+01  0.2554E+01  0.1205E+02  0.1205E+02
      2.294  0.2261E+01  0.2261E+01  0.1233E+02  0.1233E+02
      2.404  0.1990E+01  0.1990E+01  0.1255E+02  0.1255E+02
      2.514  0.1529E+01  0.1529E+01  0.1276E+02  0.1276E+02
      2.623  0.1498E+01  0.1498E+01  0.1291E+02  0.1291E+02
      2.733  0.3727E+01  0.3727E+01  0.1317E+02  0.1317E+02
      2.843  0.2534E+01  0.2534E+01  0.1359E+02  0.1359E+02
      2.952  0.2681E+01  0.2681E+01  0.1386E+02  0.1386E+02
      3.062  0.6770E+00  0.6770E+00  0.1399E+02  0.1399E+02
      3.172  0.4053E+01  0.4053E+01  0.1422E+02  0.1422E+02
      3.281  0.5762E+01  0.5762E+01  0.1493E+02  0.1493E+02
      3.391  0.2997E+01  0.2997E+01  0.1546E+02  0.1546E+02
      3.501  0.2478E+01  0.2478E+01  0.1575E+02  0.1575E+02
      3.611  0.8341E+00  0.8341E+00  0.1598E+02  0.1598E+02
      3.720  0.0000E+00  0.0000E+00  0.1600E+02  0.1600E+02
      3.830  0.0000E+00  0.0000E+00  0.1600E+02  0.1600E+02
      3.940  0.0000E+00  0.0000E+00  0.1600E+02  0.1600E+02
      4.049  0.0000E+00  0.0000E+00  0.1600E+02  0.1600E+02
      4.159  0.0000E+00  0.0000E+00  0.1600E+02  0.1600E+02
      4.269  0.0000E+00  0.0000E+00  0.1600E+02  0.1600E+02
      4.378  0.0000E+00  0.0000E+00  0.1600E+02  0.1600E+02
      4.488  0.1010E+00  0.1010E+00  0.1600E+02  0.1600E+02
      4.598  0.2575E+00  0.2575E+00  0.1602E+02  0.1602E+02
      4.708  0.8339E+00  0.8339E+00  0.1608E+02  0.1608E+02
      4.817  0.1632E+01  0.1632E+01  0.1621E+02  0.1621E+02
      4.927  0.2317E+01  0.2317E+01  0.1643E+02  0.1643E+02
      5.037  0.2128E+01  0.2128E+01  0.1669E+02  0.1669E+02
      5.146  0.1738E+01  0.1738E+01  0.1685E+02  0.1685E+02
      5.256  0.2485E+01  0.2485E+01  0.1707E+02  0.1707E+02
      5.366  0.2938E+01  0.2938E+01  0.1740E+02  0.1740E+02
      5.476  0.2032E+01  0.2032E+01  0.1765E+02  0.1765E+02
      5.585  0.1581E+01  0.1581E+01  0.1785E+02  0.1785E+02
      5.695  0.6394E+00  0.6394E+00  0.1798E+02  0.1798E+02
      5.805  0.0000E+00  0.0000E+00  0.1800E+02  0.1800E+02
      5.914  0.0000E+00  0.0000E+00  0.1800E+02  0.1800E+02
      6.024  0.0000E+00  0.0000E+00  0.1800E+02  0.1800E+02
      6.134  0.0000E+00  0.0000E+00  0.1800E+02  0.1800E+02
      6.243  0.0000E+00  0.0000E+00  0.1800E+02  0.1800E+02
      6.353  0.0000E+00  0.0000E+00  0.1800E+02  0.1800E+02
      6.463  0.0000E+00  0.0000E+00  0.1800E+02  0.1800E+02
      6.573  0.0000E+00  0.0000E+00  0.1800E+02  0.1800E+02
      6.682  0.0000E+00  0.0000E+00  0.1800E+02  0.1800E+02
      6.792  0.0000E+00  0.0000E+00  0.1800E+02  0.1800E+02
      6.902  0.0000E+00  0.0000E+00  0.1800E+02  0.1800E+02
      7.011  0.0000E+00  0.0000E+00  0.1800E+02  0.1800E+02
      7.121  0.1380E-03  0.1380E-03  0.1800E+02  0.1800E+02
      7.231  0.2441E-02  0.2441E-02  0.1800E+02  0.1800E+02
      7.340  0.5631E-02  0.5631E-02  0.1800E+02  0.1800E+02
      7.450  0.9710E-02  0.9710E-02  0.1800E+02  0.1800E+02
      7.560  0.1458E-01  0.1458E-01  0.1800E+02  0.1800E+02
      7.670  0.1990E-01  0.1990E-01  0.1800E+02  0.1800E+02
      7.779  0.2360E-01  0.2360E-01  0.1801E+02  0.1801E+02
      7.889  0.2572E-01  0.2572E-01  0.1801E+02  0.1801E+02
      7.999  0.2892E-01  0.2892E-01  0.1801E+02  0.1801E+02
      8.108  0.3232E-01  0.3232E-01  0.1802E+02  0.1802E+02
      8.218  0.3583E-01  0.3583E-01  0.1802E+02  0.1802E+02
      8.328  0.3949E-01  0.3949E-01  0.1802E+02  0.1802E+02
      8.438  0.4325E-01  0.4325E-01  0.1803E+02  0.1803E+02
      8.547  0.4713E-01  0.4713E-01  0.1803E+02  0.1803E+02
      8.657  0.5113E-01  0.5113E-01  0.1804E+02  0.1804E+02
      8.767  0.5533E-01  0.5533E-01  0.1804E+02  0.1804E+02
      8.876  0.6017E-01  0.6017E-01  0.1805E+02  0.1805E+02
      8.986  0.6571E-01  0.6571E-01  0.1806E+02  0.1806E+02
      9.096  0.7145E-01  0.7145E-01  0.1807E+02  0.1807E+02
      9.205  0.7719E-01  0.7719E-01  0.1807E+02  0.1807E+02
      9.315  0.8303E-01  0.8303E-01  0.1808E+02  0.1808E+02
      9.425  0.8903E-01  0.8903E-01  0.1809E+02  0.1809E+02
      9.535  0.9591E-01  0.9591E-01  0.1810E+02  0.1810E+02
      9.644  0.1040E+00  0.1040E+00  0.1811E+02  0.1811E+02
      9.754  0.1114E+00  0.1114E+00  0.1812E+02  0.1812E+02
      9.864  0.1181E+00  0.1181E+00  0.1814E+02  0.1814E+02
      9.973  0.1239E+00  0.1239E+00  0.1815E+02  0.1815E+02
     10.083  0.1297E+00  0.1297E+00  0.1816E+02  0.1816E+02
     10.193  0.1446E+00  0.1446E+00  0.1818E+02  0.1818E+02
     10.303  0.1597E+00  0.1597E+00  0.1820E+02  0.1820E+02
     10.412  0.1733E+00  0.1733E+00  0.1821E+02  0.1821E+02
     10.522  0.1881E+00  0.1881E+00  0.1823E+02  0.1823E+02
     10.632  0.2043E+00  0.2043E+00  0.1826E+02  0.1826E+02
     10.741  0.2214E+00  0.2214E+00  0.1828E+02  0.1828E+02
     10.851  0.2401E+00  0.2401E+00  0.1830E+02  0.1830E+02
     10.961  0.2667E+00  0.2667E+00  0.1833E+02  0.1833E+02
     11.070  0.3306E+00  0.3306E+00  0.1836E+02  0.1836E+02
     11.180  0.3745E+00  0.3745E+00  0.1840E+02  0.1840E+02
     11.290  0.4096E+00  0.4096E+00  0.1845E+02  0.1845E+02
     11.400  0.4312E+00  0.4312E+00  0.1849E+02  0.1849E+02
     11.509  0.4341E+00  0.4341E+00  0.1854E+02  0.1854E+02
     11.619  0.4523E+00  0.4523E+00  0.1859E+02  0.1859E+02
     11.729  0.5121E+00  0.5121E+00  0.1864E+02  0.1864E+02
     11.838  0.6120E+00  0.6120E+00  0.1870E+02  0.1870E+02
     11.948  0.6971E+00  0.6971E+00  0.1878E+02  0.1878E+02
     12.058  0.6892E+00  0.6892E+00  0.1885E+02  0.1885E+02
     12.167  0.6646E+00  0.6646E+00  0.1893E+02  0.1893E+02
     12.277  0.6563E+00  0.6562E+00  0.1900E+02  0.1900E+02
     12.387  0.6560E+00  0.6559E+00  0.1907E+02  0.1907E+02
     12.497  0.6550E+00  0.6550E+00  0.1914E+02  0.1914E+02
     12.606  0.6340E+00  0.6342E+00  0.1921E+02  0.1921E+02
     12.716  0.6131E+00  0.6134E+00  0.1928E+02  0.1928E+02
     12.826  0.5677E+00  0.5681E+00  0.1935E+02  0.1935E+02
     12.935  0.5486E+00  0.5491E+00  0.1941E+02  0.1941E+02
     13.045  0.5401E+00  0.5406E+00  0.1947E+02  0.1947E+02
     13.155  0.5311E+00  0.5316E+00  0.1953E+02  0.1953E+02
     13.265  0.5211E+00  0.5218E+00  0.1959E+02  0.1959E+02
     13.374  0.5130E+00  0.5140E+00  0.1964E+02  0.1964E+02
     13.484  0.5042E+00  0.5059E+00  0.1970E+02  0.1970E+02
     13.594  0.5229E+00  0.5322E+00  0.1975E+02  0.1975E+02
     13.703  0.5632E+00  0.5559E+00  0.1982E+02  0.1982E+02
     13.813  0.4976E+00  0.4987E+00  0.1987E+02  0.1987E+02
     13.923  0.5031E+00  0.5175E+00  0.1993E+02  0.1993E+02
     14.032  0.3411E+00  0.3353E+00  0.1998E+02  0.1998E+02
     14.142  0.7607E-01  0.6768E-01  0.2000E+02  0.2000E+02
     14.252  0.0000E+00  0.0000E+00  0.2000E+02  0.2000E+02
     14.362  0.0000E+00  0.0000E+00  0.2000E+02  0.2000E+02
     14.471  0.0000E+00  0.0000E+00  0.2000E+02  0.2000E+02
     14.581  0.0000E+00  0.0000E+00  0.2000E+02  0.2000E+02
     14.691  0.0000E+00  0.0000E+00  0.2000E+02  0.2000E+02
     14.800  0.0000E+00  0.0000E+00  0.2000E+02  0.2000E+02
     14.910  0.0000E+00  0.0000E+00  0.2000E+02  0.2000E+02
     15.020  0.0000E+00  0.0000E+00  0.2000E+02  0.2000E+02
     15.129  0.0000E+00  0.0000E+00  0.2000E+02  0.2000E+02
     15.239  0.0000E+00  0.0000E+00  0.2000E+02  0.2000E+02
     15.349  0.0000E+00  0.0000E+00  0.2000E+02  0.2000E+02
     15.459  0.0000E+00  0.0000E+00  0.2000E+02  0.2000E+02
     15.568  0.0000E+00  0.0000E+00  0.2000E+02  0.2000E+02
     15.678  0.0000E+00  0.0000E+00  0.2000E+02  0.2000E+02
     15.788  0.0000E+00  0.0000E+00  0.2000E+02  0.2000E+02
     15.897  0.0000E+00  0.0000E+00  0.2000E+02  0.2000E+02
     16.007  0.0000E+00  0.0000E+00  0.2000E+02  0.2000E+02
     16.117  0.0000E+00  0.0000E+00  0.2000E+02  0.2000E+02
     16.227  0.0000E+00  0.0000E+00  0.2000E+02  0.2000E+02
     16.22653668    -16.68473114  301      3.74768096      1.00000000
    -16.685  0.0000E+00  0.0000E+00  0.0000E+00  0.0000E+00  0.0000E+00  0.0000E+00  0.0000E+00  0.0000E+00  0.0000E+00  0.0000E+00  0.0000E+00  0.0000E+00  0.0000E+00  0.0000E+00  0.0000E+00  0.0000E+00  0.0000E+00  0.0000E+00
    -16.575  0.0000E+00  0.0000E+00  0.0000E+00  0.0000E+00  0.0000E+00  0.0000E+00  0.0000E+00  0.0000E+00  0.0000E+00  0.0000E+00  0.0000E+00  0.0000E+00  0.0000E+00  0.0000E+00  0.0000E+00  0.0000E+00  0.0000E+00  0.0000E+00
    -16.465  0.0000E+00  0.0000E+00  0.0000E+00  0.0000E+00  0.0000E+00  0.0000E+00  0.0000E+00  0.0000E+00  0.0000E+00  0.0000E+00  0.0000E+00  0.0000E+00  0.0000E+00  0.0000E+00  0.0000E+00  0.0000E+00  0.0000E+00  0.0000E+00
    -16.356  0.0000E+00  0.0000E+00  0.0000E+00  0.0000E+00  0.0000E+00  0.0000E+00  0.0000E+00  0.0000E+00  0.0000E+00  0.0000E+00  0.0000E+00  0.0000E+00  0.0000E+00  0.0000E+00  0.0000E+00  0.0000E+00  0.0000E+00  0.0000E+00
    -16.246  0.0000E+00  0.0000E+00  0.0000E+00  0.0000E+00  0.0000E+00  0.0000E+00  0.0000E+00  0.0000E+00  0.0000E+00  0.0000E+00  0.0000E+00  0.0000E+00  0.0000E+00  0.0000E+00  0.0000E+00  0.0000E+00  0.0000E+00  0.0000E+00
    -16.136  0.0000E+00  0.0000E+00  0.0000E+00  0.0000E+00  0.0000E+00  0.0000E+00  0.0000E+00  0.0000E+00  0.0000E+00  0.0000E+00  0.0000E+00  0.0000E+00  0.0000E+00  0.0000E+00  0.0000E+00  0.0000E+00  0.0000E+00  0.0000E+00
    -16.027  0.0000E+00  0.0000E+00  0.0000E+00  0.0000E+00  0.0000E+00  0.0000E+00  0.0000E+00  0.0000E+00  0.0000E+00  0.0000E+00  0.0000E+00  0.0000E+00  0.0000E+00  0.0000E+00  0.0000E+00  0.0000E+00  0.0000E+00  0.0000E+00
    -15.917  0.0000E+00  0.0000E+00  0.0000E+00  0.0000E+00  0.0000E+00  0.0000E+00  0.0000E+00  0.0000E+00  0.0000E+00  0.0000E+00  0.0000E+00  0.0000E+00  0.0000E+00  0.0000E+00  0.0000E+00  0.0000E+00  0.0000E+00  0.0000E+00
    -15.807  0.0000E+00  0.0000E+00  0.0000E+00  0.0000E+00  0.0000E+00  0.0000E+00  0.0000E+00  0.0000E+00  0.0000E+00  0.0000E+00  0.0000E+00  0.0000E+00  0.0000E+00  0.0000E+00  0.0000E+00  0.0000E+00  0.0000E+00  0.0000E+00
    -15.697  0.0000E+00  0.0000E+00  0.0000E+00  0.0000E+00  0.0000E+00  0.0000E+00  0.0000E+00  0.0000E+00  0.0000E+00  0.0000E+00  0.0000E+00  0.0000E+00  0.0000E+00  0.0000E+00  0.0000E+00  0.0000E+00  0.0000E+00  0.0000E+00
    -15.588  0.0000E+00  0.0000E+00  0.0000E+00  0.0000E+00  0.0000E+00  0.0000E+00  0.0000E+00  0.0000E+00  0.0000E+00  0.0000E+00  0.0000E+00  0.0000E+00  0.0000E+00  0.0000E+00  0.0000E+00  0.0000E+00  0.0000E+00  0.0000E+00
    -15.478  0.0000E+00  0.0000E+00  0.0000E+00  0.0000E+00  0.0000E+00  0.0000E+00  0.0000E+00  0.0000E+00  0.0000E+00  0.0000E+00  0.0000E+00  0.0000E+00  0.0000E+00  0.0000E+00  0.0000E+00  0.0000E+00  0.0000E+00  0.0000E+00
    -15.368  0.0000E+00  0.0000E+00  0.0000E+00  0.0000E+00  0.0000E+00  0.0000E+00  0.0000E+00  0.0000E+00  0.0000E+00  0.0000E+00  0.0000E+00  0.0000E+00  0.0000E+00  0.0000E+00  0.0000E+00  0.0000E+00  0.0000E+00  0.0000E+00
    -15.259  0.0000E+00  0.0000E+00  0.0000E+00  0.0000E+00  0.0000E+00  0.0000E+00  0.0000E+00  0.0000E+00  0.0000E+00  0.0000E+00  0.0000E+00  0.0000E+00  0.0000E+00  0.0000E+00  0.0000E+00  0.0000E+00  0.0000E+00  0.0000E+00
    -15.149  0.0000E+00  0.0000E+00  0.0000E+00  0.0000E+00  0.0000E+00  0.0000E+00  0.0000E+00  0.0000E+00  0.0000E+00  0.0000E+00  0.0000E+00  0.0000E+00  0.0000E+00  0.0000E+00  0.0000E+00  0.0000E+00  0.0000E+00  0.0000E+00
    -15.039  0.0000E+00  0.0000E+00  0.0000E+00  0.0000E+00  0.0000E+00  0.0000E+00  0.0000E+00  0.0000E+00  0.0000E+00  0.0000E+00  0.0000E+00  0.0000E+00  0.0000E+00  0.0000E+00  0.0000E+00  0.0000E+00  0.0000E+00  0.0000E+00
    -14.929  0.0000E+00  0.0000E+00  0.0000E+00  0.0000E+00  0.0000E+00  0.0000E+00  0.0000E+00  0.0000E+00  0.0000E+00  0.0000E+00  0.0000E+00  0.0000E+00  0.0000E+00  0.0000E+00  0.0000E+00  0.0000E+00  0.0000E+00  0.0000E+00
    -14.820  0.0000E+00  0.0000E+00  0.0000E+00  0.0000E+00  0.0000E+00  0.0000E+00  0.0000E+00  0.0000E+00  0.0000E+00  0.0000E+00  0.0000E+00  0.0000E+00  0.0000E+00  0.0000E+00  0.0000E+00  0.0000E+00  0.0000E+00  0.0000E+00
    -14.710  0.0000E+00  0.0000E+00  0.0000E+00  0.0000E+00  0.0000E+00  0.0000E+00  0.0000E+00  0.0000E+00  0.0000E+00  0.0000E+00  0.0000E+00  0.0000E+00  0.0000E+00  0.0000E+00  0.0000E+00  0.0000E+00  0.0000E+00  0.0000E+00
    -14.600  0.6694E-02  0.6514E-02  0.4712E-04  0.4704E-04  0.3122E-04  0.3082E-04  0.1453E-03  0.1427E-03  0.8568E-07  0.6152E-07  0.3448E-07  0.1995E-07  0.2046E-05  0.1320E-05  0.3864E-07  0.4842E-07  0.4718E-05  0.2985E-05
    -14.491  0.9672E-02  0.9403E-02  0.2309E-03  0.2290E-03  0.9455E-04  0.9408E-04  0.5039E-03  0.4947E-03  0.7581E-06  0.5088E-06  0.1468E-06  0.1047E-06  0.2104E-04  0.1314E-04  0.3361E-06  0.2770E-06  0.3520E-04  0.2166E-04
    -14.381  0.1285E-01  0.1249E-01  0.4164E-03  0.4133E-03  0.1883E-03  0.1892E-03  0.1017E-02  0.9950E-03  0.1766E-05  0.1165E-05  0.3698E-06  0.2670E-06  0.5820E-04  0.3535E-04  0.8327E-06  0.6541E-06  0.1052E-03  0.6335E-04
    -14.271  0.1439E-01  0.1401E-01  0.8245E-03  0.8114E-03  0.3202E-03  0.3264E-03  0.1701E-02  0.1662E-02  0.4235E-05  0.2838E-05  0.1010E-05  0.7217E-06  0.1673E-03  0.9939E-04  0.1529E-05  0.1156E-05  0.2633E-03  0.1540E-03
    -14.162  0.1610E-01  0.1570E-01  0.1162E-02  0.1142E-02  0.5207E-03  0.5490E-03  0.2503E-02  0.2441E-02  0.6693E-05  0.4479E-05  0.1733E-05  0.1215E-05  0.3002E-03  0.1675E-03  0.2997E-05  0.2199E-05  0.5433E-03  0.3069E-03
    -14.052  0.1824E-01  0.1796E-01  0.1600E-02  0.1550E-02  0.7578E-03  0.8315E-03  0.3652E-02  0.3553E-02  0.1030E-04  0.6897E-05  0.2541E-05  0.1703E-05  0.5736E-03  0.2853E-03  0.4987E-05  0.3562E-05  0.1029E-02  0.5685E-03
    -13.942  0.1693E-01  0.1797E-01  0.2339E-02  0.2103E-02  0.9718E-03  0.1126E-02  0.4593E-02  0.4351E-02  0.1466E-04  0.1010E-04  0.3758E-05  0.2590E-05  0.1248E-02  0.4769E-03  0.5826E-05  0.4230E-05  0.1745E-02  0.9077E-03
    -13.832  0.1844E-01  0.1997E-01  0.3444E-02  0.3086E-02  0.2182E-02  0.2452E-02  0.5548E-02  0.5432E-02  0.1792E-04  0.1218E-04  0.9548E-05  0.6555E-05  0.2205E-02  0.8765E-03  0.8988E-05  0.6564E-05  0.3205E-02  0.1545E-02
    -13.723  0.1985E-01  0.2071E-01  0.4376E-02  0.4074E-02  0.3595E-02  0.4207E-02  0.6378E-02  0.6562E-02  0.2023E-04  0.1347E-04  0.1529E-04  0.1026E-04  0.4114E-02  0.1774E-02  0.1220E-04  0.8904E-05  0.5023E-02  0.2346E-02
    -13.613  0.2067E-01  0.2069E-01  0.6325E-02  0.6126E-02  0.5476E-02  0.6756E-02  0.7320E-02  0.8084E-02  0.2454E-04  0.1631E-04  0.2415E-04  0.1609E-04  0.8331E-02  0.3739E-02  0.1466E-04  0.1104E-04  0.8182E-02  0.3568E-02
    -13.503  0.2186E-01  0.2068E-01  0.9012E-02  0.9223E-02  0.8764E-02  0.1117E-01  0.8413E-02  0.1042E-01  0.2733E-04  0.1818E-04  0.3406E-04  0.2279E-04  0.1856E-01  0.8708E-02  0.1923E-04  0.1442E-04  0.1481E-01  0.5917E-02
    -13.394  0.2738E-01  0.2146E-01  0.1454E-01  0.1771E-01  0.1391E-01  0.1914E-01  0.1125E-01  0.1743E-01  0.3835E-04  0.2403E-04  0.4675E-04  0.3142E-04  0.5048E-01  0.2501E-01  0.2538E-04  0.1731E-04  0.3453E-01  0.1084E-01
    -13.284  0.1697E-01  0.1249E-01  0.2455E-01  0.2407E-01  0.2254E-01  0.2191E-01  0.1857E-01  0.1884E-01  0.2494E-04  0.1683E-04  0.5552E-04  0.3759E-04  0.7641E-01  0.4839E-01  0.1938E-04  0.1296E-04  0.2460E-01  0.1418E-01
    -13.174  0.0000E+00  0.0000E+00  0.0000E+00  0.0000E+00  0.0000E+00  0.0000E+00  0.0000E+00  0.0000E+00  0.0000E+00  0.0000E+00  0.0000E+00  0.0000E+00  0.0000E+00  0.0000E+00  0.0000E+00  0.0000E+00  0.0000E+00  0.0000E+00
    -13.064  0.0000E+00  0.0000E+00  0.0000E+00  0.0000E+00  0.0000E+00  0.0000E+00  0.0000E+00  0.0000E+00  0.0000E+00  0.0000E+00  0.0000E+00  0.0000E+00  0.0000E+00  0.0000E+00  0.0000E+00  0.0000E+00  0.0000E+00  0.0000E+00
    -12.955  0.0000E+00  0.0000E+00  0.0000E+00  0.0000E+00  0.0000E+00  0.0000E+00  0.0000E+00  0.0000E+00  0.0000E+00  0.0000E+00  0.0000E+00  0.0000E+00  0.0000E+00  0.0000E+00  0.0000E+00  0.0000E+00  0.0000E+00  0.0000E+00
    -12.845  0.0000E+00  0.0000E+00  0.0000E+00  0.0000E+00  0.0000E+00  0.0000E+00  0.0000E+00  0.0000E+00  0.0000E+00  0.0000E+00  0.0000E+00  0.0000E+00  0.0000E+00  0.0000E+00  0.0000E+00  0.0000E+00  0.0000E+00  0.0000E+00
    -12.735  0.0000E+00  0.0000E+00  0.0000E+00  0.0000E+00  0.0000E+00  0.0000E+00  0.0000E+00  0.0000E+00  0.0000E+00  0.0000E+00  0.0000E+00  0.0000E+00  0.0000E+00  0.0000E+00  0.0000E+00  0.0000E+00  0.0000E+00  0.0000E+00
    -12.626  0.0000E+00  0.0000E+00  0.0000E+00  0.0000E+00  0.0000E+00  0.0000E+00  0.0000E+00  0.0000E+00  0.0000E+00  0.0000E+00  0.0000E+00  0.0000E+00  0.0000E+00  0.0000E+00  0.0000E+00  0.0000E+00  0.0000E+00  0.0000E+00
    -12.516  0.0000E+00  0.0000E+00  0.0000E+00  0.0000E+00  0.0000E+00  0.0000E+00  0.0000E+00  0.0000E+00  0.0000E+00  0.0000E+00  0.0000E+00  0.0000E+00  0.0000E+00  0.0000E+00  0.0000E+00  0.0000E+00  0.0000E+00  0.0000E+00
    -12.406  0.0000E+00  0.0000E+00  0.0000E+00  0.0000E+00  0.0000E+00  0.0000E+00  0.0000E+00  0.0000E+00  0.0000E+00  0.0000E+00  0.0000E+00  0.0000E+00  0.0000E+00  0.0000E+00  0.0000E+00  0.0000E+00  0.0000E+00  0.0000E+00
    -12.297  0.0000E+00  0.0000E+00  0.0000E+00  0.0000E+00  0.0000E+00  0.0000E+00  0.0000E+00  0.0000E+00  0.0000E+00  0.0000E+00  0.0000E+00  0.0000E+00  0.0000E+00  0.0000E+00  0.0000E+00  0.0000E+00  0.0000E+00  0.0000E+00
    -12.187  0.0000E+00  0.0000E+00  0.0000E+00  0.0000E+00  0.0000E+00  0.0000E+00  0.0000E+00  0.0000E+00  0.0000E+00  0.0000E+00  0.0000E+00  0.0000E+00  0.0000E+00  0.0000E+00  0.0000E+00  0.0000E+00  0.0000E+00  0.0000E+00
    -12.077  0.0000E+00  0.0000E+00  0.0000E+00  0.0000E+00  0.0000E+00  0.0000E+00  0.0000E+00  0.0000E+00  0.0000E+00  0.0000E+00  0.0000E+00  0.0000E+00  0.0000E+00  0.0000E+00  0.0000E+00  0.0000E+00  0.0000E+00  0.0000E+00
    -11.967  0.0000E+00  0.0000E+00  0.0000E+00  0.0000E+00  0.0000E+00  0.0000E+00  0.0000E+00  0.0000E+00  0.0000E+00  0.0000E+00  0.0000E+00  0.0000E+00  0.0000E+00  0.0000E+00  0.0000E+00  0.0000E+00  0.0000E+00  0.0000E+00
    -11.858  0.0000E+00  0.0000E+00  0.0000E+00  0.0000E+00  0.0000E+00  0.0000E+00  0.0000E+00  0.0000E+00  0.0000E+00  0.0000E+00  0.0000E+00  0.0000E+00  0.0000E+00  0.0000E+00  0.0000E+00  0.0000E+00  0.0000E+00  0.0000E+00
    -11.748  0.0000E+00  0.0000E+00  0.0000E+00  0.0000E+00  0.0000E+00  0.0000E+00  0.0000E+00  0.0000E+00  0.0000E+00  0.0000E+00  0.0000E+00  0.0000E+00  0.0000E+00  0.0000E+00  0.0000E+00  0.0000E+00  0.0000E+00  0.0000E+00
    -11.638  0.0000E+00  0.0000E+00  0.0000E+00  0.0000E+00  0.0000E+00  0.0000E+00  0.0000E+00  0.0000E+00  0.0000E+00  0.0000E+00  0.0000E+00  0.0000E+00  0.0000E+00  0.0000E+00  0.0000E+00  0.0000E+00  0.0000E+00  0.0000E+00
    -11.529  0.0000E+00  0.0000E+00  0.0000E+00  0.0000E+00  0.0000E+00  0.0000E+00  0.0000E+00  0.0000E+00  0.0000E+00  0.0000E+00  0.0000E+00  0.0000E+00  0.0000E+00  0.0000E+00  0.0000E+00  0.0000E+00  0.0000E+00  0.0000E+00
    -11.419  0.0000E+00  0.0000E+00  0.0000E+00  0.0000E+00  0.0000E+00  0.0000E+00  0.0000E+00  0.0000E+00  0.0000E+00  0.0000E+00  0.0000E+00  0.0000E+00  0.0000E+00  0.0000E+00  0.0000E+00  0.0000E+00  0.0000E+00  0.0000E+00
    -11.309  0.0000E+00  0.0000E+00  0.0000E+00  0.0000E+00  0.0000E+00  0.0000E+00  0.0000E+00  0.0000E+00  0.0000E+00  0.0000E+00  0.0000E+00  0.0000E+00  0.0000E+00  0.0000E+00  0.0000E+00  0.0000E+00  0.0000E+00  0.0000E+00
    -11.200  0.0000E+00  0.0000E+00  0.0000E+00  0.0000E+00  0.0000E+00  0.0000E+00  0.0000E+00  0.0000E+00  0.0000E+00  0.0000E+00  0.0000E+00  0.0000E+00  0.0000E+00  0.0000E+00  0.0000E+00  0.0000E+00  0.0000E+00  0.0000E+00