    4    4    1    2
  0.9063964E+01  0.5107186E-09  0.5107186E-09  0.5107186E-09  0.5000000E-15
  1.000000000000000E-004
  CAR 
 NiO_af2                                 
     32    110     20
 
  0.5000000E-01  0.5000000E-01  0.5000000E-01  0.2000000E-02
    1      -14.684731    -14.684731   1.000000   1.000000
    2      -13.240135    -13.240135   1.000000   1.000000
    3       -3.458273     -3.458273   1.000000   1.000000
    4       -2.488203     -2.488203   1.000000   1.000000
    5       -2.488202     -2.488202   1.000000   1.000000
    6       -1.346954     -1.346954   1.000000   1.000000
    7       -1.346953     -1.346953   1.000000   1.000000
    8       -0.573982     -0.573982   1.000000   1.000000
    9        1.278932      1.278932   1.000000   1.000000
   10        1.278933      1.278933   1.000000   1.000000
   11        2.620046      2.620046   1.000000   1.000000
   12        2.620049      2.620049   1.000000   1.000000
   13        2.676236      2.676236   1.000000   1.000000
   14        2.779593      2.779593   1.000000   1.000000
   15        2.779593      2.779593   1.000000   1.000000
   16        3.000293      3.000293   1.000000   1.000000
   17        5.659901      5.659901   0.000000   0.000000
   18        5.659901      5.659901   0.000000   0.000000
   19        7.112789      7.112789   0.000000   0.000000
   20       10.988927     10.988926   0.000000   0.000000
 
  0.1500000E+00  0.5000000E-01  0.5000000E-01  0.6000000E-02
    1      -14.567742    -14.567742   1.000000   1.000000
    2      -13.251315    -13.251315   1.000000   1.000000
    3       -3.285327     -3.285327   1.000000   1.000000
    4       -2.456165     -2.456165   1.000000   1.000000
    5       -2.445132     -2.445132   1.000000   1.000000
    6       -1.414881     -1.414881   1.000000   1.000000
    7       -1.366307     -1.366307   1.000000   1.000000
    8       -0.552786     -0.552786   1.000000   1.000000
    9        0.765297      0.765297   1.000000   1.000000
   10        1.345942      1.345942   1.000000   1.000000
   11        2.094094      2.094094   1.000000   1.000000
   12        2.251307      2.251307   1.000000   1.000000
   13        2.725667      2.725668   1.000000   1.000000
   14        2.985661      2.985662   1.000000   1.000000
   15        3.068449      3.068449   1.000000   1.000000
   16        3.134535      3.134536   1.000000   1.000000
   17        5.239279      5.239279   0.000000   0.000000
   18        5.621202      5.621202   0.000000   0.000000
   19        7.867019      7.867019   0.000000   0.000000
   20       11.568289     11.568290   0.000000   0.000000
 
  0.2500000E+00  0.5000000E-01  0.5000000E-01  0.6000000E-02
    1      -14.269696    -14.269696   1.000000   1.000000
    2      -13.245791    -13.245791   1.000000   1.000000
    3       -2.999698     -2.999698   1.000000   1.000000
    4       -2.349969     -2.349969   1.000000   1.000000
    5       -2.301926     -2.301926   1.000000   1.000000
    6       -1.696993     -1.696993   1.000000   1.000000
    7       -1.375279     -1.375279   1.000000   1.000000
    8       -0.576937     -0.576937   1.000000   1.000000
    9        0.267892      0.267892   1.000000   1.000000
   10        1.264502      1.264502   1.000000   1.000000
   11        1.303004      1.303003   1.000000   1.000000
   12        2.014782      2.014782   1.000000   1.000000
   13        2.673571      2.673573   1.000000   1.000000
   14        2.884036      2.884037   1.000000   1.000000
   15        3.281557      3.281556   1.000000   1.000000
   16        3.348151      3.348151   1.000000   1.000000
   17        4.764732      4.764732   0.000000   0.000000
   18        5.470410      5.470410   0.000000   0.000000
   19        9.373108      9.373108   0.000000   0.000000
   20       12.834106     12.834128   0.000000   0.000000
 
  0.3500000E+00  0.5000000E-01  0.5000000E-01  0.6000000E-02
    1      -13.886488    -13.886488   1.000000   1.000000
    2      -13.217763    -13.217763   1.000000   1.000000
    3       -2.881228     -2.881229   1.000000   1.000000
    4       -2.299382     -2.299382   1.000000   1.000000
    5       -2.223485     -2.223485   1.000000   1.000000
    6       -1.891769     -1.891769   1.000000   1.000000
    7       -1.271220     -1.271220   1.000000   1.000000
    8       -0.689865     -0.689865   1.000000   1.000000
    9       -0.128660     -0.128660   1.000000   1.000000
   10        0.876472      0.876472   1.000000   1.000000
   11        0.952221      0.952221   1.000000   1.000000
   12        2.224389      2.224388   1.000000   1.000000
   13        2.252158      2.252158   1.000000   1.000000
   14        2.624790      2.624790   1.000000   1.000000
   15        3.409240      3.409240   1.000000   1.000000
   16        3.436528      3.436527   1.000000   1.000000
   17        4.790932      4.790932   0.000000   0.000000
   18        5.301561      5.301561   0.000000   0.000000
   19       10.892141     10.892139   0.000000   0.000000
   20       13.989314     13.969264   0.000000   0.000000
 
  0.4500000E+00  0.5000000E-01  0.5000000E-01  0.6000000E-02
    1      -13.543352    -13.543352   1.000000   1.000000
    2      -13.197955    -13.197955   1.000000   1.000000
    3       -2.738781     -2.738781   1.000000   1.000000
    4       -2.681513     -2.681513   1.000000   1.000000
    5       -2.312478     -2.312478   1.000000   1.000000
    6       -1.599361     -1.599361   1.000000   1.000000
    7       -1.065635     -1.065635   1.000000   1.000000
    8       -0.922659     -0.922659   1.000000   1.000000
    9       -0.586366     -0.586366   1.000000   1.000000
   10        0.576208      0.576208   1.000000   1.000000
   11        0.808060      0.808060   1.000000   1.000000
   12        2.134228      2.134229   1.000000   1.000000
   13        2.547093      2.547093   1.000000   1.000000
   14        2.613154      2.613154   1.000000   1.000000
   15        3.306437      3.306437   1.000000   1.000000
   16        3.431891      3.431891   1.000000   1.000000
   17        4.916320      4.916320   0.000000   0.000000
   18        5.181218      5.181218   0.000000   0.000000
   19       12.083455     12.083845   0.000000   0.000000
   20       13.725563     13.731613   0.000000   0.000000
 
 -0.4500000E+00  0.5000000E-01  0.5000000E-01  0.6000000E-02
    1      -13.367297    -13.367297   1.000000   1.000000
    2      -13.230499    -13.230499   1.000000   1.000000
    3       -2.872540     -2.872540   1.000000   1.000000
    4       -2.506152     -2.506152   1.000000   1.000000
    5       -2.324349     -2.324349   1.000000   1.000000
    6       -1.741357     -1.741357   1.000000   1.000000
    7       -1.183850     -1.183850   1.000000   1.000000
    8       -0.947877     -0.947877   1.000000   1.000000
    9       -0.355219     -0.355219   1.000000   1.000000
   10        0.391220      0.391220   1.000000   1.000000
   11        0.477286      0.477286   1.000000   1.000000
   12        2.376567      2.376567   1.000000   1.000000
   13        2.481208      2.481208   1.000000   1.000000
   14        2.993524      2.993522   1.000000   1.000000
   15        3.053858      3.053858   1.000000   1.000000
   16        3.359560      3.359560   1.000000   1.000000
   17        5.031342      5.031342   0.000000   0.000000
   18        5.117763      5.117763   0.000000   0.000000
   19       12.745104     12.744986   0.000000   0.000000
   20       12.984218     12.984340   0.000000   0.000000
 
 -0.3500000E+00  0.5000000E-01  0.5000000E-01  0.6000000E-02
    1      -13.536095    -13.536095   1.000000   1.000000
    2      -13.210132    -13.210132   1.000000   1.000000
    3       -2.733979     -2.733979   1.000000   1.000000
    4       -2.582823     -2.582823   1.000000   1.000000
    5       -2.302644     -2.302644   1.000000   1.000000
    6       -1.577272     -1.577272   1.000000   1.000000
    7       -1.086239     -1.086239   1.000000   1.000000
    8       -1.073885     -1.073885   1.000000   1.000000
    9       -0.414625     -0.414625   1.000000   1.000000
   10        0.525218      0.525218   1.000000   1.000000
   11        0.551893      0.551893   1.000000   1.000000
   12        2.222968      2.222968   1.000000   1.000000
   13        2.511824      2.511824   1.000000   1.000000
   14        2.655262      2.655262   1.000000   1.000000
   15        3.368205      3.368205   1.000000   1.000000
   16        3.389229      3.389229   1.000000   1.000000
   17        5.101637      5.101637   0.000000   0.000000
   18        5.123909      5.123909   0.000000   0.000000
   19       11.861642     11.861647   0.000000   0.000000
   20       13.454400     13.454448   0.000000   0.000000
 
 -0.2500000E+00  0.5000000E-01  0.5000000E-01  0.6000000E-02
    1      -13.901842    -13.901842   1.000000   1.000000
    2      -13.204007    -13.204007   1.000000   1.000000
    3       -2.725096     -2.725096   1.000000   1.000000
    4       -2.281606     -2.281606   1.000000   1.000000
    5       -2.235824     -2.235824   1.000000   1.000000
    6       -1.985258     -1.985258   1.000000   1.000000
    7       -1.285900     -1.285900   1.000000   1.000000
    8       -0.528052     -0.528052   1.000000   1.000000
    9       -0.311702     -0.311702   1.000000   1.000000
   10        0.623154      0.623154   1.000000   1.000000
   11        0.835438      0.835438   1.000000   1.000000
   12        2.334050      2.334050   1.000000   1.000000
   13        2.464447      2.464446   1.000000   1.000000
   14        2.613116      2.613116   1.000000   1.000000
   15        3.299126      3.299126   1.000000   1.000000
   16        3.572469      3.572469   1.000000   1.000000
   17        5.064751      5.064751   0.000000   0.000000
   18        5.162572      5.162572   0.000000   0.000000
   19       10.595362     10.595367   0.000000   0.000000
   20       13.906973     13.912432   0.000000   0.000000
 
 -0.1500000E+00  0.5000000E-01  0.5000000E-01  0.6000000E-02
    1      -14.295599    -14.295599   1.000000   1.000000
    2      -13.214495    -13.214495   1.000000   1.000000
    3       -2.946694     -2.946694   1.000000   1.000000
    4       -2.390062     -2.390062   1.000000   1.000000
    5       -2.335301     -2.335301   1.000000   1.000000
    6       -1.684253     -1.684253   1.000000   1.000000
    7       -1.385998     -1.385998   1.000000   1.000000
    8       -0.527342     -0.527342   1.000000   1.000000
    9        0.294815      0.294815   1.000000   1.000000
   10        1.041737      1.041737   1.000000   1.000000
   11        1.122165      1.122165   1.000000   1.000000
   12        2.173596      2.173596   1.000000   1.000000
   13        2.706809      2.706809   1.000000   1.000000
   14        2.999008      2.999008   1.000000   1.000000
   15        3.241896      3.241897   1.000000   1.000000
   16        3.492590      3.492590   1.000000   1.000000
   17        4.979936      4.979936   0.000000   0.000000
   18        5.333281      5.333281   0.000000   0.000000
   19        9.108706      9.108706   0.000000   0.000000
   20       12.892505     12.892439   0.000000   0.000000
 
 -0.5000000E-01  0.5000000E-01  0.5000000E-01  0.6000000E-02
    1      -14.586105    -14.586105   1.000000   1.000000
    2      -13.226154    -13.226154   1.000000   1.000000
    3       -3.319893     -3.319893   1.000000   1.000000
    4       -2.478727     -2.478727   1.000000   1.000000
    5       -2.438780     -2.438780   1.000000   1.000000
    6       -1.414327     -1.414327   1.000000   1.000000
    7       -1.369039     -1.369039   1.000000   1.000000
    8       -0.551645     -0.551645   1.000000   1.000000
    9        0.922988      0.922988   1.000000   1.000000
   10        1.242490      1.242490   1.000000   1.000000
   11        1.946545      1.946545   1.000000   1.000000
   12        2.313580      2.313580   1.000000   1.000000
   13        2.765667      2.765667   1.000000   1.000000
   14        2.953743      2.953743   1.000000   1.000000
   15        3.151604      3.151604   1.000000   1.000000
   16        3.178244      3.178244   1.000000   1.000000
   17        5.357265      5.357265   0.000000   0.000000
   18        5.541751      5.541751   0.000000   0.000000
   19        7.718959      7.718959   0.000000   0.000000
   20       11.585159     11.585157   0.000000   0.000000
 
  0.1500000E+00  0.1500000E+00  0.5000000E-01  0.6000000E-02
    1      -14.547156    -14.547156   1.000000   1.000000
    2      -13.280631    -13.280631   1.000000   1.000000
    3       -3.226984     -3.226984   1.000000   1.000000
    4       -2.478552     -2.478552   1.000000   1.000000
    5       -2.414151     -2.414151   1.000000   1.000000
    6       -1.413897     -1.413897   1.000000   1.000000
    7       -1.369348     -1.369348   1.000000   1.000000
    8       -0.546347     -0.546347   1.000000   1.000000
    9        0.878345      0.878345   1.000000   1.000000
   10        1.059537      1.059537   1.000000   1.000000
   11        1.937049      1.937048   1.000000   1.000000
   12        2.397581      2.397581   1.000000   1.000000
   13        2.661107      2.661107   1.000000   1.000000
   14        2.794645      2.794644   1.000000   1.000000
   15        3.230867      3.230866   1.000000   1.000000
   16        3.357564      3.357563   1.000000   1.000000
   17        5.401556      5.401556   0.000000   0.000000
   18        5.427755      5.427755   0.000000   0.000000
   19        7.922179      7.922179   0.000000   0.000000
   20       11.548723     11.548721   0.000000   0.000000
 
  0.2500000E+00  0.1500000E+00  0.5000000E-01  0.1200000E-01
    1      -14.331197    -14.331197   1.000000   1.000000
    2      -13.290185    -13.290185   1.000000   1.000000
    3       -2.982099     -2.982099   1.000000   1.000000
    4       -2.421820     -2.421820   1.000000   1.000000
    5       -2.329259     -2.329259   1.000000   1.000000
    6       -1.529418     -1.529418   1.000000   1.000000
    7       -1.442972     -1.442972   1.000000   1.000000
    8       -0.518405     -0.518405   1.000000   1.000000
    9        0.307906      0.307906   1.000000   1.000000
   10        1.075148      1.075149   1.000000   1.000000
   11        1.509462      1.509461   1.000000   1.000000
   12        2.092023      2.092023   1.000000   1.000000
   13        2.759261      2.759261   1.000000   1.000000
   14        2.795246      2.795246   1.000000   1.000000
   15        3.315128      3.315127   1.000000   1.000000
   16        3.484449      3.484449   1.000000   1.000000
   17        4.946200      4.946199   0.000000   0.000000
   18        5.387133      5.387133   0.000000   0.000000
   19        9.007456      9.007452   0.000000   0.000000
   20       12.406149     12.406182   0.000000   0.000000
 
  0.3500000E+00  0.1500000E+00  0.5000000E-01  0.1200000E-01
    1      -13.992308    -13.992308   1.000000   1.000000
    2      -13.264060    -13.264060   1.000000   1.000000
    3       -2.875273     -2.875273   1.000000   1.000000
    4       -2.347276     -2.347276   1.000000   1.000000
    5       -2.085391     -2.085391   1.000000   1.000000
    6       -1.882142     -1.882142   1.000000   1.000000
    7       -1.447454     -1.447454   1.000000   1.000000
    8       -0.659517     -0.659517   1.000000   1.000000
    9        0.205998      0.205998   1.000000   1.000000
   10        0.659556      0.659556   1.000000   1.000000
   11        1.519977      1.519977   1.000000   1.000000
   12        1.674181      1.674181   1.000000   1.000000
   13        2.547260      2.547260   1.000000   1.000000
   14        2.751693      2.751693   1.000000   1.000000
   15        3.276120      3.276120   1.000000   1.000000
   16        3.463750      3.463751   1.000000   1.000000
   17        4.818065      4.818065   0.000000   0.000000
   18        5.292702      5.292702   0.000000   0.000000
   19       10.480124     10.480124   0.000000   0.000000
   20       13.507366     13.506169   0.000000   0.000000
 
  0.4500000E+00  0.1500000E+00  0.5000000E-01  0.1200000E-01
    1      -13.643764    -13.643764   1.000000   1.000000
    2      -13.214102    -13.214102   1.000000   1.000000
    3       -2.837504     -2.837504   1.000000   1.000000
    4       -2.493449     -2.493449   1.000000   1.000000
    5       -2.255392     -2.255392   1.000000   1.000000
    6       -1.712640     -1.712640   1.000000   1.000000
    7       -1.338887     -1.338887   1.000000   1.000000
    8       -0.662223     -0.662223   1.000000   1.000000
    9       -0.396618     -0.396618   1.000000   1.000000
   10        0.527803      0.527803   1.000000   1.000000
   11        1.418423      1.418423   1.000000   1.000000
   12        1.673014      1.673015   1.000000   1.000000
   13        2.266095      2.266095   1.000000   1.000000
   14        2.787479      2.787479   1.000000   1.000000
   15        3.257229      3.257229   1.000000   1.000000
   16        3.462243      3.462243   1.000000   1.000000
   17        4.871097      4.871097   0.000000   0.000000
   18        5.212409      5.212409   0.000000   0.000000
   19       11.816613     11.816602   0.000000   0.000000
   20       14.074157     14.082385   0.000000   0.000000
 
 -0.4500000E+00  0.1500000E+00  0.5000000E-01  0.1200000E-01
    1      -13.397685    -13.397685   1.000000   1.000000
    2      -13.199947    -13.199947   1.000000   1.000000
    3       -2.786883     -2.786883   1.000000   1.000000
    4       -2.622946     -2.622946   1.000000   1.000000
    5       -2.376518     -2.376518   1.000000   1.000000
    6       -1.574087     -1.574087   1.000000   1.000000
    7       -1.266620     -1.266620   1.000000   1.000000
    8       -0.970709     -0.970709   1.000000   1.000000
    9       -0.350554     -0.350554   1.000000   1.000000
   10        0.204623      0.204623   1.000000   1.000000
   11        1.046832      1.046832   1.000000   1.000000
   12        2.068992      2.068992   1.000000   1.000000
   13        2.275547      2.275547   1.000000   1.000000
   14        2.940185      2.940185   1.000000   1.000000
   15        3.124749      3.124749   1.000000   1.000000
   16        3.374455      3.374455   1.000000   1.000000
   17        5.035792      5.035792   0.000000   0.000000
   18        5.120515      5.120515   0.000000   0.000000
   19       12.728132     12.729088   0.000000   0.000000
   20       13.472897     13.473145   0.000000   0.000000
 
 -0.3500000E+00  0.1500000E+00  0.5000000E-01  0.1200000E-01
    1      -13.375121    -13.375121   1.000000   1.000000
    2      -13.226925    -13.226925   1.000000   1.000000
    3       -2.870799     -2.870799   1.000000   1.000000
    4       -2.447045     -2.447045   1.000000   1.000000
    5       -2.364328     -2.364328   1.000000   1.000000
    6       -1.516157     -1.516157   1.000000   1.000000
    7       -1.357853     -1.357853   1.000000   1.000000
    8       -1.024151     -1.024151   1.000000   1.000000
    9       -0.116397     -0.116397   1.000000   1.000000
   10        0.044821      0.044821   1.000000   1.000000
   11        0.850896      0.850896   1.000000   1.000000
   12        2.142657      2.142657   1.000000   1.000000
   13        2.271519      2.271519   1.000000   1.000000
   14        2.818477      2.818477   1.000000   1.000000
   15        3.211974      3.211974   1.000000   1.000000
   16        3.359265      3.359265   1.000000   1.000000
   17        4.898568      4.898568   0.000000   0.000000
   18        5.394802      5.394802   0.000000   0.000000
   19       12.492171     12.492224   0.000000   0.000000
   20       13.254799     13.254809   0.000000   0.000000
 
 -0.2500000E+00  0.1500000E+00  0.5000000E-01  0.1200000E-01
    1      -13.657082    -13.657082   1.000000   1.000000
    2      -13.207561    -13.207561   1.000000   1.000000
    3       -2.689365     -2.689365   1.000000   1.000000
    4       -2.446751     -2.446751   1.000000   1.000000
    5       -2.195064     -2.195064   1.000000   1.000000
    6       -1.834360     -1.834360   1.000000   1.000000
    7       -1.335235     -1.335236   1.000000   1.000000
    8       -0.666055     -0.666055   1.000000   1.000000
    9       -0.320782     -0.320782   1.000000   1.000000
   10        0.255862      0.255862   1.000000   1.000000
   11        0.982919      0.982919   1.000000   1.000000
   12        2.087060      2.087060   1.000000   1.000000
   13        2.280833      2.280833   1.000000   1.000000
   14        2.721271      2.721271   1.000000   1.000000
   15        3.284450      3.284450   1.000000   1.000000
   16        3.459950      3.459951   1.000000   1.000000
   17        4.829347      4.829347   0.000000   0.000000
   18        5.508753      5.508753   0.000000   0.000000
   19       11.359353     11.359353   0.000000   0.000000
   20       13.716132     13.715995   0.000000   0.000000
 
 -0.1500000E+00  0.1500000E+00  0.5000000E-01  0.1200000E-01
    1      -14.041312    -14.041312   1.000000   1.000000
    2      -13.210064    -13.210064   1.000000   1.000000
    3       -2.669619     -2.669619   1.000000   1.000000
    4       -2.378145     -2.378145   1.000000   1.000000
    5       -2.247331     -2.247331   1.000000   1.000000
    6       -1.838925     -1.838925   1.000000   1.000000
    7       -1.469473     -1.469473   1.000000   1.000000
    8       -0.483049     -0.483049   1.000000   1.000000
    9       -0.050179     -0.050179   1.000000   1.000000
   10        0.436561      0.436561   1.000000   1.000000
   11        1.274293      1.274293   1.000000   1.000000
   12        1.997102      1.997102   1.000000   1.000000
   13        2.720410      2.720410   1.000000   1.000000
   14        2.763173      2.763173   1.000000   1.000000
   15        3.232288      3.232288   1.000000   1.000000
   16        3.516464      3.516465   1.000000   1.000000
   17        4.971488      4.971488   0.000000   0.000000
   18        5.320581      5.320581   0.000000   0.000000
   19       10.037236     10.037235   0.000000   0.000000
   20       13.800758     13.803179   0.000000   0.000000
 
 -0.5000000E-01  0.1500000E+00  0.5000000E-01  0.1200000E-01
    1      -14.381869    -14.381869   1.000000   1.000000
    2      -13.225973    -13.225973   1.000000   1.000000
    3       -3.037676     -3.037676   1.000000   1.000000
    4       -2.445970     -2.445970   1.000000   1.000000
    5       -2.354381     -2.354381   1.000000   1.000000
    6       -1.523711     -1.523711   1.000000   1.000000
    7       -1.441814     -1.441814   1.000000   1.000000
    8       -0.524542     -0.524542   1.000000   1.000000
    9        0.434360      0.434360   1.000000   1.000000
   10        0.947607      0.947607   1.000000   1.000000
   11        1.675451      1.675452   1.000000   1.000000
   12        1.979741      1.979741   1.000000   1.000000
   13        2.790526      2.790527   1.000000   1.000000
   14        2.949652      2.949652   1.000000   1.000000
   15        3.191746      3.191746   1.000000   1.000000
   16        3.489082      3.489083   1.000000   1.000000
   17        5.088248      5.088248   0.000000   0.000000
   18        5.334583      5.334583   0.000000   0.000000
   19        8.739802      8.739802   0.000000   0.000000
   20       12.525861     12.525860   0.000000   0.000000
 
  0.2500000E+00  0.2500000E+00  0.5000000E-01  0.6000000E-02
    1      -14.205822    -14.205822   1.000000   1.000000
    2      -13.327043    -13.327043   1.000000   1.000000
    3       -2.766215     -2.766215   1.000000   1.000000
    4       -2.435091     -2.435091   1.000000   1.000000
    5       -2.284348     -2.284348   1.000000   1.000000
    6       -1.693221     -1.693221   1.000000   1.000000
    7       -1.399149     -1.399149   1.000000   1.000000
    8       -0.442563     -0.442563   1.000000   1.000000
    9        0.115308      0.115308   1.000000   1.000000
   10        0.869994      0.869994   1.000000   1.000000
   11        0.968346      0.968346   1.000000   1.000000
   12        2.332794      2.332794   1.000000   1.000000
   13        2.661681      2.661681   1.000000   1.000000
   14        2.817473      2.817473   1.000000   1.000000
   15        3.431812      3.431812   1.000000   1.000000
   16        3.706200      3.706199   1.000000   1.000000
   17        5.085741      5.085741   0.000000   0.000000
   18        5.174012      5.174012   0.000000   0.000000
   19        9.304235      9.304236   0.000000   0.000000
   20       12.551782     12.551795   0.000000   0.000000
 
  0.3500000E+00  0.2500000E+00  0.5000000E-01  0.1200000E-01
    1      -13.941856    -13.941856   1.000000   1.000000
    2      -13.325663    -13.325663   1.000000   1.000000
    3       -2.682504     -2.682504   1.000000   1.000000
    4       -2.343642     -2.343642   1.000000   1.000000
    5       -2.215408     -2.215408   1.000000   1.000000
    6       -1.839563     -1.839563   1.000000   1.000000
    7       -1.496981     -1.496981   1.000000   1.000000
    8       -0.608936     -0.608936   1.000000   1.000000
    9        0.138723      0.138723   1.000000   1.000000
   10        0.496196      0.496196   1.000000   1.000000
   11        1.041782      1.041782   1.000000   1.000000
   12        2.035800      2.035800   1.000000   1.000000
   13        2.716654      2.716654   1.000000   1.000000
   14        2.793847      2.793847   1.000000   1.000000
   15        3.236138      3.236138   1.000000   1.000000
   16        3.596597      3.596598   1.000000   1.000000
   17        5.056128      5.056128   0.000000   0.000000
   18        5.194404      5.194404   0.000000   0.000000
   19       10.292221     10.292222   0.000000   0.000000
   20       13.007509     13.010671   0.000000   0.000000
 
  0.4500000E+00  0.2500000E+00  0.5000000E-01  0.1200000E-01
    1      -13.635236    -13.635236   1.000000   1.000000
    2      -13.273864    -13.273864   1.000000   1.000000
    3       -2.792990     -2.792990   1.000000   1.000000
    4       -2.402031     -2.402031   1.000000   1.000000
    5       -1.999616     -1.999616   1.000000   1.000000
    6       -1.912564     -1.912564   1.000000   1.000000
    7       -1.669737     -1.669737   1.000000   1.000000
    8       -0.649277     -0.649277   1.000000   1.000000
    9       -0.026344     -0.026344   1.000000   1.000000
   10        0.472199      0.472199   1.000000   1.000000
   11        1.062020      1.062020   1.000000   1.000000
   12        1.711222      1.711222   1.000000   1.000000
   13        2.467626      2.467626   1.000000   1.000000
   14        2.867564      2.867564   1.000000   1.000000
   15        3.199570      3.199570   1.000000   1.000000
   16        3.476058      3.476058   1.000000   1.000000
   17        4.869719      4.869719   0.000000   0.000000
   18        5.287388      5.287388   0.000000   0.000000
   19       11.586555     11.586556   0.000000   0.000000
   20       13.471781     13.471739   0.000000   0.000000
 
 -0.4500000E+00  0.2500000E+00  0.5000000E-01  0.1200000E-01
    1      -13.393839    -13.393839   1.000000   1.000000
    2      -13.206469    -13.206470   1.000000   1.000000
    3       -2.743410     -2.743410   1.000000   1.000000
    4       -2.492541     -2.492541   1.000000   1.000000
    5       -2.294833     -2.294833   1.000000   1.000000
    6       -1.692155     -1.692155   1.000000   1.000000
    7       -1.660129     -1.660129   1.000000   1.000000
    8       -0.639742     -0.639742   1.000000   1.000000
    9       -0.344160     -0.344160   1.000000   1.000000
   10        0.256659      0.256659   1.000000   1.000000
   11        1.024376      1.024376   1.000000   1.000000
   12        1.884167      1.884167   1.000000   1.000000
   13        2.180632      2.180632   1.000000   1.000000
   14        3.059769      3.059769   1.000000   1.000000
   15        3.150650      3.150650   1.000000   1.000000
   16        3.351984      3.351984   1.000000   1.000000
   17        4.950193      4.950193   0.000000   0.000000
   18        5.160105      5.160105   0.000000   0.000000
   19       12.792049     12.791978   0.000000   0.000000
   20       13.916689     13.927668   0.000000   0.000000
 
 -0.3500000E+00  0.2500000E+00  0.5000000E-01  0.1200000E-01
    1      -13.277504    -13.277504   1.000000   1.000000
    2      -13.205339    -13.205339   1.000000   1.000000
    3       -2.807582     -2.807582   1.000000   1.000000
    4       -2.496969     -2.496969   1.000000   1.000000
    5       -2.259692     -2.259692   1.000000   1.000000
    6       -1.697685     -1.697685   1.000000   1.000000
    7       -1.559380     -1.559380   1.000000   1.000000
    8       -0.830874     -0.830874   1.000000   1.000000
    9       -0.257694     -0.257694   1.000000   1.000000
   10        0.170242      0.170242   1.000000   1.000000
   11        0.967269      0.967268   1.000000   1.000000
   12        1.940620      1.940620   1.000000   1.000000
   13        2.000906      2.000906   1.000000   1.000000
   14        2.911409      2.911409   1.000000   1.000000
   15        3.237874      3.237874   1.000000   1.000000
   16        3.315485      3.315484   1.000000   1.000000
   17        4.846486      4.846486   0.000000   0.000000
   18        5.380167      5.380167   0.000000   0.000000
   19       13.498073     13.500589   0.000000   0.000000
   20       13.529598     13.531923   0.000000   0.000000
 
 -0.2500000E+00  0.2500000E+00  0.5000000E-01  0.1200000E-01
    1      -13.401467    -13.401467   1.000000   1.000000
    2      -13.204567    -13.204567   1.000000   1.000000
    3       -2.891284     -2.891284   1.000000   1.000000
    4       -2.281351     -2.281351   1.000000   1.000000
    5       -2.166135     -2.166135   1.000000   1.000000
    6       -1.813278     -1.813278   1.000000   1.000000