 running on    1 total cores
 distrk:  each k-point on    1 cores,    1 groups
 distr:  one band on    1 cores,    1 groups
 using from now: INCAR     
 vasp.5.4.4.18Apr17-6-g9f103f2a35 (build May 20 2018 16:52:39) complex          
  
 POSCAR found type information on POSCAR  Ni O 
 POSCAR found :  2 types and       4 ions
 scaLAPACK will be used
 LDA part: xc-table for Ceperly-Alder, standard interpolation
 WARNING: stress and forces are not correct
 POSCAR, INCAR and KPOINTS ok, starting setup
 FFT: planning ...
 WAVECAR not read
 reading imaginary part of occupancies ...
 charge-density read from file: NiO_af2                                 
 reading imaginary part of occupancies ...
 magnetization density read from file 1
 entering main loop
       N       E                     dE             d eps       ncg     rms          rms(c)
DAV:   1     0.209437242467E+03    0.20944E+03   -0.14554E+04  8976   0.189E+03
DAV:   2     0.442834778315E+01   -0.20501E+03   -0.19573E+03  9248   0.367E+02
DAV:   3    -0.150923140463E+02   -0.19521E+02   -0.18709E+02  9936   0.130E+02
DAV:   4    -0.154755937558E+02   -0.38328E+00   -0.38236E+00  9660   0.189E+01
DAV:   5    -0.154802377601E+02   -0.46440E-02   -0.46428E-02  9952   0.197E+00
DAV:   6    -0.154803300544E+02   -0.92294E-04   -0.92289E-04  9620   0.245E-01
   1 F= -.15480330E+02 E0= -.15480330E+02  d E =0.000000E+00  mag=     0.0000
