<?xml version="1.0" encoding="ISO-8859-1"?>
<modeling>
 <generator>
  <i name="program" type="string">vasp </i>
  <i name="version" type="string">5.4.4.18Apr17-6-g9f103f2a35  </i>
  <i name="subversion" type="string">(build May 20 2018 16:52:39) complex            parallel </i>
  <i name="platform" type="string">LinuxIFC </i>
  <i name="date" type="string">2022 10 29 </i>
  <i name="time" type="string">11:00:09 </i>
 </generator>
 <incar>
  <i type="string" name="SYSTEM"> NiO_af2</i>
  <i type="string" name="PREC">normal</i>
  <i type="int" name="ISPIN">     2</i>
  <i type="int" name="ICHARG">    11</i>
  <v name="RWIGS">      1.28600000      0.82000000</v>
  <v name="MAGMOM">      2.00000000     -2.00000000      0.00000000      0.00000000</v>
  <i type="int" name="ISMEAR">    -5</i>
  <i type="logical" name="LWAVE"> F  </i>
  <i type="logical" name="LCHARG"> F  </i>
  <i type="int" name="LORBIT">    11</i>
  <v type="int" name="KPOINT_BSE">    -1     0     0     0</v>
  <i type="logical" name="LDAU"> T  </i>
  <v type="int" name="LDAUTYPE">     2</v>
  <v type="int" name="LDAUL">     2    -1</v>
  <v name="LDAUU">      7.00000000      0.00000000</v>
 </incar>
 <structure name="primitive_cell" >
  <crystal>
   <varray name="basis" >
    <v>       2.08500000       0.00000000      -2.08500000 </v>
    <v>       0.00000000       2.08500000      -2.08500000 </v>
    <v>       2.08500000       2.08500000       0.00000000 </v>
   </varray>
   <i name="volume">     18.12792825 </i>
   <varray name="rec_basis" >
    <v>       0.23980815      -0.23980815      -0.23980815 </v>
    <v>      -0.23980815       0.23980815      -0.23980815 </v>
    <v>       0.23980815       0.23980815       0.23980815 </v>
   </varray>
  </crystal>
  <varray name="positions" >
   <v>       0.00000000       0.00000000       0.00000000 </v>
   <v>      -0.50000000      -0.50000000      -0.50000000 </v>
  </varray>
 </structure>
 <varray name="primitive_index" >
  <v type="int" >        1 </v>
  <v type="int" >        3 </v>
 </varray>
 <kpoints>
  <generation param="Monkhorst-Pack">
   <v type="int" name="divisions">      10       10       10 </v>
   <v name="usershift">      0.00000000       0.00000000       0.00000000 </v>
   <v name="genvec1">      0.10000000       0.00000000       0.00000000 </v>
   <v name="genvec2">      0.00000000       0.10000000       0.00000000 </v>
   <v name="genvec3">      0.00000000       0.00000000       0.10000000 </v>
   <v name="shift">      0.50000000       0.50000000       0.50000000 </v>
  </generation>
  <varray name="kpointlist" >
   <v>       0.05000000       0.05000000       0.05000000 </v>
   <v>       0.15000000       0.05000000       0.05000000 </v>
   <v>       0.25000000       0.05000000       0.05000000 </v>
   <v>       0.35000000       0.05000000       0.05000000 </v>
   <v>       0.45000000       0.05000000       0.05000000 </v>
   <v>      -0.45000000       0.05000000       0.05000000 </v>
   <v>      -0.35000000       0.05000000       0.05000000 </v>
   <v>      -0.25000000       0.05000000       0.05000000 </v>
   <v>      -0.15000000       0.05000000       0.05000000 </v>
   <v>      -0.05000000       0.05000000       0.05000000 </v>
   <v>       0.15000000       0.15000000       0.05000000 </v>
   <v>       0.25000000       0.15000000       0.05000000 </v>
   <v>       0.35000000       0.15000000       0.05000000 </v>
   <v>       0.45000000       0.15000000       0.05000000 </v>
   <v>      -0.45000000       0.15000000       0.05000000 </v>
   <v>      -0.35000000       0.15000000       0.05000000 </v>
   <v>      -0.25000000       0.15000000       0.05000000 </v>
   <v>      -0.15000000       0.15000000       0.05000000 </v>
   <v>      -0.05000000       0.15000000       0.05000000 </v>
   <v>       0.25000000       0.25000000       0.05000000 </v>
   <v>       0.35000000       0.25000000       0.05000000 </v>
   <v>       0.45000000       0.25000000       0.05000000 </v>
   <v>      -0.45000000       0.25000000       0.05000000 </v>
   <v>      -0.35000000       0.25000000       0.05000000 </v>
   <v>      -0.25000000       0.25000000       0.05000000 </v>
   <v>      -0.15000000       0.25000000       0.05000000 </v>
   <v>      -0.05000000       0.25000000       0.05000000 </v>
   <v>       0.35000000       0.35000000       0.05000000 </v>
   <v>       0.45000000       0.35000000       0.05000000 </v>
   <v>      -0.45000000       0.35000000       0.05000000 </v>
   <v>      -0.35000000       0.35000000       0.05000000 </v>
   <v>      -0.25000000       0.35000000       0.05000000 </v>
   <v>      -0.15000000       0.35000000       0.05000000 </v>
   <v>      -0.05000000       0.35000000       0.05000000 </v>
   <v>       0.45000000       0.45000000       0.05000000 </v>
   <v>      -0.45000000       0.45000000       0.05000000 </v>
   <v>      -0.35000000       0.45000000       0.05000000 </v>
   <v>      -0.25000000       0.45000000       0.05000000 </v>
   <v>      -0.15000000       0.45000000       0.05000000 </v>
   <v>      -0.05000000       0.45000000       0.05000000 </v>
   <v>      -0.45000000      -0.45000000       0.05000000 </v>
   <v>      -0.35000000      -0.45000000       0.05000000 </v>
   <v>      -0.25000000      -0.45000000       0.05000000 </v>
   <v>      -0.15000000      -0.45000000       0.05000000 </v>
   <v>      -0.35000000      -0.35000000       0.05000000 </v>
   <v>      -0.25000000      -0.35000000       0.05000000 </v>
   <v>      -0.15000000      -0.35000000       0.05000000 </v>
   <v>      -0.25000000      -0.25000000       0.05000000 </v>
   <v>      -0.15000000      -0.25000000       0.05000000 </v>
   <v>      -0.15000000      -0.15000000       0.05000000 </v>
   <v>       0.15000000       0.15000000       0.15000000 </v>
   <v>       0.25000000       0.15000000       0.15000000 </v>
   <v>       0.35000000       0.15000000       0.15000000 </v>
   <v>       0.45000000       0.15000000       0.15000000 </v>
   <v>      -0.45000000       0.15000000       0.15000000 </v>
   <v>      -0.35000000       0.15000000       0.15000000 </v>
   <v>      -0.25000000       0.15000000       0.15000000 </v>
   <v>      -0.15000000       0.15000000       0.15000000 </v>
   <v>       0.25000000       0.25000000       0.15000000 </v>
   <v>       0.35000000       0.25000000       0.15000000 </v>
   <v>       0.45000000       0.25000000       0.15000000 </v>
   <v>      -0.45000000       0.25000000       0.15000000 </v>
   <v>      -0.35000000       0.25000000       0.15000000 </v>
   <v>      -0.25000000       0.25000000       0.15000000 </v>
   <v>      -0.15000000       0.25000000       0.15000000 </v>
   <v>       0.35000000       0.35000000       0.15000000 </v>
   <v>       0.45000000       0.35000000       0.15000000 </v>
   <v>      -0.45000000       0.35000000       0.15000000 </v>
   <v>      -0.35000000       0.35000000       0.15000000 </v>
   <v>      -0.25000000       0.35000000       0.15000000 </v>
   <v>      -0.15000000       0.35000000       0.15000000 </v>
   <v>       0.45000000       0.45000000       0.15000000 </v>
   <v>      -0.45000000       0.45000000       0.15000000 </v>
   <v>      -0.35000000       0.45000000       0.15000000 </v>
   <v>      -0.25000000       0.45000000       0.15000000 </v>
   <v>      -0.15000000       0.45000000       0.15000000 </v>
   <v>      -0.45000000      -0.45000000       0.15000000 </v>
   <v>      -0.35000000      -0.45000000       0.15000000 </v>
   <v>      -0.25000000      -0.45000000       0.15000000 </v>
   <v>      -0.35000000      -0.35000000       0.15000000 </v>
   <v>      -0.25000000      -0.35000000       0.15000000 </v>
   <v>      -0.25000000      -0.25000000       0.15000000 </v>
   <v>       0.25000000       0.25000000       0.25000000 </v>
   <v>       0.35000000       0.25000000       0.25000000 </v>
   <v>       0.45000000       0.25000000       0.25000000 </v>
   <v>      -0.45000000       0.25000000       0.25000000 </v>
   <v>      -0.35000000       0.25000000       0.25000000 </v>
   <v>      -0.25000000       0.25000000       0.25000000 </v>
   <v>       0.35000000       0.35000000       0.25000000 </v>
   <v>       0.45000000       0.35000000       0.25000000 </v>
   <v>      -0.45000000       0.35000000       0.25000000 </v>
   <v>      -0.35000000       0.35000000       0.25000000 </v>
   <v>      -0.25000000       0.35000000       0.25000000 </v>
   <v>       0.45000000       0.45000000       0.25000000 </v>
   <v>      -0.45000000       0.45000000       0.25000000 </v>
   <v>      -0.35000000       0.45000000       0.25000000 </v>
   <v>      -0.25000000       0.45000000       0.25000000 </v>
   <v>      -0.45000000      -0.45000000       0.25000000 </v>
   <v>      -0.35000000      -0.45000000       0.25000000 </v>
   <v>      -0.35000000      -0.35000000       0.25000000 </v>
   <v>       0.35000000       0.35000000       0.35000000 </v>
   <v>       0.45000000       0.35000000       0.35000000 </v>
   <v>      -0.45000000       0.35000000       0.35000000 </v>
   <v>      -0.35000000       0.35000000       0.35000000 </v>
   <v>       0.45000000       0.45000000       0.35000000 </v>
   <v>      -0.45000000       0.45000000       0.35000000 </v>
   <v>      -0.35000000       0.45000000       0.35000000 </v>
   <v>      -0.45000000      -0.45000000       0.35000000 </v>
   <v>       0.45000000       0.45000000       0.45000000 </v>
   <v>      -0.45000000       0.45000000       0.45000000 </v>
  </varray>
  <varray name="weights" >
   <v>       0.00200000 </v>
   <v>       0.00600000 </v>
   <v>       0.00600000 </v>
   <v>       0.00600000 </v>
   <v>       0.00600000 </v>
   <v>       0.00600000 </v>
   <v>       0.00600000 </v>
   <v>       0.00600000 </v>
   <v>       0.00600000 </v>
   <v>       0.00600000 </v>
   <v>       0.00600000 </v>
   <v>       0.01200000 </v>
   <v>       0.01200000 </v>
   <v>       0.01200000 </v>
   <v>       0.01200000 </v>
   <v>       0.01200000 </v>
   <v>       0.01200000 </v>
   <v>       0.01200000 </v>
   <v>       0.01200000 </v>
   <v>       0.00600000 </v>
   <v>       0.01200000 </v>
   <v>       0.01200000 </v>
   <v>       0.01200000 </v>
   <v>       0.01200000 </v>
   <v>       0.01200000 </v>
   <v>       0.01200000 </v>
   <v>       0.01200000 </v>
   <v>       0.00600000 </v>
   <v>       0.01200000 </v>
   <v>       0.01200000 </v>
   <v>       0.01200000 </v>
   <v>       0.01200000 </v>
   <v>       0.01200000 </v>
   <v>       0.01200000 </v>
   <v>       0.00600000 </v>
   <v>       0.01200000 </v>
   <v>       0.01200000 </v>
   <v>       0.01200000 </v>
   <v>       0.01200000 </v>
   <v>       0.01200000 </v>
   <v>       0.00600000 </v>
   <v>       0.01200000 </v>
   <v>       0.01200000 </v>
   <v>       0.01200000 </v>
   <v>       0.00600000 </v>
   <v>       0.01200000 </v>
   <v>       0.01200000 </v>
   <v>       0.00600000 </v>
   <v>       0.01200000 </v>
   <v>       0.00600000 </v>
   <v>       0.00200000 </v>
   <v>       0.00600000 </v>
   <v>       0.00600000 </v>
   <v>       0.00600000 </v>
   <v>       0.00600000 </v>
   <v>       0.00600000 </v>
   <v>       0.00600000 </v>
   <v>       0.00600000 </v>
   <v>       0.00600000 </v>
   <v>       0.01200000 </v>
   <v>       0.01200000 </v>
   <v>       0.01200000 </v>
   <v>       0.01200000 </v>
   <v>       0.01200000 </v>
   <v>       0.01200000 </v>
   <v>       0.00600000 </v>
   <v>       0.01200000 </v>
   <v>       0.01200000 </v>
   <v>       0.01200000 </v>
   <v>       0.01200000 </v>
   <v>       0.01200000 </v>
   <v>       0.00600000 </v>
   <v>       0.01200000 </v>
   <v>       0.01200000 </v>
   <v>       0.01200000 </v>
   <v>       0.01200000 </v>
   <v>       0.00600000 </v>
   <v>       0.01200000 </v>
   <v>       0.01200000 </v>
   <v>       0.00600000 </v>
   <v>       0.01200000 </v>
   <v>       0.00600000 </v>
   <v>       0.00200000 </v>
   <v>       0.00600000 </v>
   <v>       0.00600000 </v>
   <v>       0.00600000 </v>
   <v>       0.00600000 </v>
   <v>       0.00600000 </v>
   <v>       0.00600000 </v>
   <v>       0.01200000 </v>
   <v>       0.01200000 </v>
   <v>       0.01200000 </v>
   <v>       0.01200000 </v>
   <v>       0.00600000 </v>
   <v>       0.01200000 </v>
   <v>       0.01200000 </v>
   <v>       0.01200000 </v>
   <v>       0.00600000 </v>
   <v>       0.01200000 </v>
   <v>       0.00600000 </v>
   <v>       0.00200000 </v>
   <v>       0.00600000 </v>
   <v>       0.00600000 </v>
   <v>       0.00600000 </v>
   <v>       0.00600000 </v>
   <v>       0.01200000 </v>
   <v>       0.01200000 </v>
   <v>       0.00600000 </v>
   <v>       0.00200000 </v>
   <v>       0.00600000 </v>
  </varray>
  <varray name="tetrahedronlist"  type="int" >
   <v type="int" >       12        1        2       11       51 </v>
   <v type="int" >       12        2       11       12       52 </v>
   <v type="int" >       12        2        3       12       52 </v>
   <v type="int" >       12        2       11       51       52 </v>
   <v type="int" >       12        3       12       13       53 </v>
   <v type="int" >       12        3        4       13       53 </v>
   <v type="int" >       12        3       12       52       53 </v>
   <v type="int" >       12        4       13       14       54 </v>
   <v type="int" >       12        4        5       14       54 </v>
   <v type="int" >       12        4       13       53       54 </v>
   <v type="int" >       12        5       14       15       55 </v>
   <v type="int" >       12        5        6       15       55 </v>
   <v type="int" >       12        5       14       54       55 </v>
   <v type="int" >       12        6       15       16       56 </v>
   <v type="int" >       12        6        7       16       56 </v>
   <v type="int" >       12        6       15       55       56 </v>
   <v type="int" >       12        7       16       17       57 </v>
   <v type="int" >       12        7        8       17       57 </v>
   <v type="int" >       12        7       16       56       57 </v>
   <v type="int" >       12        8       17       18       58 </v>
   <v type="int" >       12        8        9       18       58 </v>
   <v type="int" >       12        8       17       57       58 </v>
   <v type="int" >       12        9       18       19       50 </v>
   <v type="int" >       12        9       10       19       50 </v>
   <v type="int" >       12        9       18       50       58 </v>
   <v type="int" >       12        2       10       11       19 </v>
   <v type="int" >       12        1        2       10       11 </v>
   <v type="int" >       12       10       11       19       50 </v>
   <v type="int" >       12       11       12       20       59 </v>
   <v type="int" >       12       11       12       52       59 </v>
   <v type="int" >       12       11       51       52       59 </v>
   <v type="int" >       12       12       20       21       60 </v>
   <v type="int" >       12       12       13       21       60 </v>
   <v type="int" >       12       12       13       53       60 </v>
   <v type="int" >       12       12       20       59       60 </v>
   <v type="int" >       12       12       52       59       60 </v>
   <v type="int" >       12       12       52       53       60 </v>
   <v type="int" >       12       13       21       22       61 </v>
   <v type="int" >       12       13       14       22       61 </v>
   <v type="int" >       12       13       14       54       61 </v>
   <v type="int" >       12       13       21       60       61 </v>
   <v type="int" >       12       13       53       60       61 </v>
   <v type="int" >       12       13       53       54       61 </v>
   <v type="int" >       12       14       22       23       62 </v>
   <v type="int" >       12       14       15       23       62 </v>
   <v type="int" >       12       14       15       55       62 </v>
   <v type="int" >       12       14       22       61       62 </v>
   <v type="int" >       12       14       54       61       62 </v>
   <v type="int" >       12       14       54       55       62 </v>
   <v type="int" >       12       15       23       24       63 </v>
   <v type="int" >       12       15       16       24       63 </v>
   <v type="int" >       12       15       16       56       63 </v>
   <v type="int" >       12       15       23       62       63 </v>
   <v type="int" >       12       15       55       62       63 </v>
   <v type="int" >       12       15       55       56       63 </v>
   <v type="int" >       12       16       24       25       64 </v>
   <v type="int" >       12       16       17       25       64 </v>
   <v type="int" >       12       16       17       57       64 </v>
   <v type="int" >       12       16       24       63       64 </v>
   <v type="int" >       12       16       56       63       64 </v>
   <v type="int" >       12       16       56       57       64 </v>
   <v type="int" >       12       17       25       26       65 </v>
   <v type="int" >       12       17       18       26       65 </v>
   <v type="int" >       12       17       18       58       65 </v>
   <v type="int" >       12       17       25       64       65 </v>
   <v type="int" >       12       17       57       64       65 </v>
   <v type="int" >       12       17       57       58       65 </v>
   <v type="int" >       12       18       26       27       49 </v>
   <v type="int" >       12       18       19       27       49 </v>
   <v type="int" >       12       18       19       49       50 </v>
   <v type="int" >       12       18       26       49       65 </v>
   <v type="int" >       12       18       49       58       65 </v>
   <v type="int" >       12       18       49       50       58 </v>
   <v type="int" >       12        3       12       19       27 </v>
   <v type="int" >       12        2        3       12       19 </v>
   <v type="int" >       12        2       11       12       19 </v>
   <v type="int" >       12       12       19       27       49 </v>
   <v type="int" >       12       12       19       49       50 </v>
   <v type="int" >       12       11       12       19       50 </v>
   <v type="int" >       12       20       21       28       66 </v>
   <v type="int" >       12       20       21       60       66 </v>
   <v type="int" >       12       20       59       60       66 </v>
   <v type="int" >       12       21       28       29       67 </v>
   <v type="int" >       12       21       22       29       67 </v>
   <v type="int" >       12       21       22       61       67 </v>
   <v type="int" >       12       21       28       66       67 </v>
   <v type="int" >       12       21       60       66       67 </v>
   <v type="int" >       12       21       60       61       67 </v>
   <v type="int" >       12       22       29       30       68 </v>
   <v type="int" >       12       22       23       30       68 </v>
   <v type="int" >       12       22       23       62       68 </v>
   <v type="int" >       12       22       29       67       68 </v>
   <v type="int" >       12       22       61       67       68 </v>
   <v type="int" >       12       22       61       62       68 </v>
   <v type="int" >       12       23       30       31       69 </v>
   <v type="int" >       12       23       24       31       69 </v>
   <v type="int" >       12       23       24       63       69 </v>
   <v type="int" >       12       23       30       68       69 </v>
   <v type="int" >       12       23       62       68       69 </v>
   <v type="int" >       12       23       62       63       69 </v>
   <v type="int" >       12       24       31       32       70 </v>
   <v type="int" >       12       24       25       32       70 </v>
   <v type="int" >       12       24       25       64       70 </v>
   <v type="int" >       12       24       31       69       70 </v>
   <v type="int" >       12       24       63       69       70 </v>
   <v type="int" >       12       24       63       64       70 </v>
   <v type="int" >       12       25       32       33       71 </v>
   <v type="int" >       12       25       26       33       71 </v>
   <v type="int" >       12       25       26       65       71 </v>
   <v type="int" >       12       25       32       70       71 </v>
   <v type="int" >       12       25       64       70       71 </v>
   <v type="int" >       12       25       64       65       71 </v>
   <v type="int" >       12       26       33       34       47 </v>
   <v type="int" >       12       26       27       34       47 </v>
   <v type="int" >       12       26       27       47       49 </v>
   <v type="int" >       12       26       33       47       71 </v>
   <v type="int" >       12       26       47       65       71 </v>
   <v type="int" >       12       26       47       49       65 </v>
   <v type="int" >       12        4       13       27       34 </v>
   <v type="int" >       12        3        4       13       27 </v>
   <v type="int" >       12        3       12       13       27 </v>
   <v type="int" >       12       13       27       34       47 </v>
   <v type="int" >       12       13       27       47       49 </v>
   <v type="int" >       12       12       13       27       49 </v>
   <v type="int" >       12       28       29       35       72 </v>
   <v type="int" >       12       28       29       67       72 </v>
   <v type="int" >       12       28       66       67       72 </v>
   <v type="int" >       12       29       35       36       73 </v>
   <v type="int" >       12       29       30       36       73 </v>
   <v type="int" >       12       29       30       68       73 </v>
   <v type="int" >       12       29       35       72       73 </v>
   <v type="int" >       12       29       67       72       73 </v>
   <v type="int" >       12       29       67       68       73 </v>
   <v type="int" >       12       30       36       37       74 </v>
   <v type="int" >       12       30       31       37       74 </v>
   <v type="int" >       12       30       31       69       74 </v>
   <v type="int" >       12       30       36       73       74 </v>
   <v type="int" >       12       30       68       73       74 </v>
   <v type="int" >       12       30       68       69       74 </v>
   <v type="int" >       12       31       37       38       75 </v>
   <v type="int" >       12       31       32       38       75 </v>
   <v type="int" >       12       31       32       70       75 </v>
   <v type="int" >       12       31       37       74       75 </v>
   <v type="int" >       12       31       69       74       75 </v>
   <v type="int" >       12       31       69       70       75 </v>
   <v type="int" >       12       32       38       39       76 </v>
   <v type="int" >       12       32       33       39       76 </v>
   <v type="int" >       12       32       33       71       76 </v>
   <v type="int" >       12       32       38       75       76 </v>
   <v type="int" >       12       32       70       75       76 </v>
   <v type="int" >       12       32       70       71       76 </v>
   <v type="int" >       12       33       39       40       44 </v>
   <v type="int" >       12       33       34       40       44 </v>
   <v type="int" >       12       33       34       44       47 </v>
   <v type="int" >       12       33       39       44       76 </v>
   <v type="int" >       12       33       44       71       76 </v>
   <v type="int" >       12       33       44       47       71 </v>
   <v type="int" >       12        5       14       34       40 </v>
   <v type="int" >       12        4        5       14       34 </v>
   <v type="int" >       12        4       13       14       34 </v>
   <v type="int" >       12       14       34       40       44 </v>
   <v type="int" >       12       14       34       44       47 </v>
   <v type="int" >       12       13       14       34       47 </v>
   <v type="int" >       12       35       36       41       77 </v>
   <v type="int" >       12       35       36       73       77 </v>
   <v type="int" >       12       35       72       73       77 </v>
   <v type="int" >       12       36       41       42       78 </v>
   <v type="int" >       12       36       37       42       78 </v>
   <v type="int" >       12       36       37       74       78 </v>
   <v type="int" >       12       36       41       77       78 </v>
   <v type="int" >       12       36       73       77       78 </v>
   <v type="int" >       12       36       73       74       78 </v>
   <v type="int" >       12       37       42       43       79 </v>
   <v type="int" >       12       37       38       43       79 </v>
   <v type="int" >       12       37       38       75       79 </v>
   <v type="int" >       12       37       42       78       79 </v>
   <v type="int" >       12       37       74       78       79 </v>
   <v type="int" >       12       37       74       75       79 </v>
   <v type="int" >       12       38       43       44       76 </v>
   <v type="int" >       12       38       39       44       76 </v>
   <v type="int" >       12       38       39       76       76 </v>
   <v type="int" >       12       38       43       76       79 </v>
   <v type="int" >       12       38       75       76       79 </v>
   <v type="int" >       12       38       75       76       76 </v>
   <v type="int" >       12       39       39       40       44 </v>
   <v type="int" >        6       39       39       40       40 </v>
   <v type="int" >       12       39       39       44       76 </v>
   <v type="int" >        6       39       39       76       76 </v>
   <v type="int" >       12        6       15       40       40 </v>
   <v type="int" >       12        5        6       15       40 </v>
   <v type="int" >       12        5       14       15       40 </v>
   <v type="int" >       12       15       39       40       40 </v>
   <v type="int" >       12       15       39       40       44 </v>
   <v type="int" >       12       14       15       40       44 </v>
   <v type="int" >       12       41       42       45       80 </v>
   <v type="int" >       12       41       42       78       80 </v>
   <v type="int" >       12       41       77       78       80 </v>
   <v type="int" >       12       42       45       46       81 </v>
   <v type="int" >       12       42       43       46       81 </v>
   <v type="int" >       12       42       43       79       81 </v>
   <v type="int" >       12       42       45       80       81 </v>
   <v type="int" >       12       42       78       80       81 </v>
   <v type="int" >       12       42       78       79       81 </v>
   <v type="int" >       12       43       46       47       71 </v>
   <v type="int" >       12       43       44       47       71 </v>
   <v type="int" >       12       43       44       71       76 </v>
   <v type="int" >       12       43       46       71       81 </v>
   <v type="int" >       12       43       71       79       81 </v>
   <v type="int" >       12       43       71       76       79 </v>
   <v type="int" >       12        7       16       34       40 </v>
   <v type="int" >       12        6        7       16       40 </v>
   <v type="int" >       12        6       15       16       40 </v>
   <v type="int" >       12       16       33       34       40 </v>
   <v type="int" >       12       16       33       39       40 </v>
   <v type="int" >       12       15       16       39       40 </v>
   <v type="int" >       12       45       46       48       82 </v>
   <v type="int" >       12       45       46       81       82 </v>
   <v type="int" >       12       45       80       81       82 </v>
   <v type="int" >       12       46       48       49       65 </v>
   <v type="int" >       12       46       47       49       65 </v>
   <v type="int" >       12       46       47       65       71 </v>
   <v type="int" >       12       46       48       65       82 </v>
   <v type="int" >       12       46       65       81       82 </v>
   <v type="int" >       12       46       65       71       81 </v>
   <v type="int" >       12        8       17       27       34 </v>
   <v type="int" >       12        7        8       17       34 </v>
   <v type="int" >       12        7       16       17       34 </v>
   <v type="int" >       12       17       26       27       34 </v>
   <v type="int" >       12       17       26       33       34 </v>
   <v type="int" >       12       16       17       33       34 </v>
   <v type="int" >       12       48       49       50       58 </v>
   <v type="int" >       12       48       49       58       65 </v>
   <v type="int" >       12       48       58       65       82 </v>
   <v type="int" >       12        9       18       19       27 </v>
   <v type="int" >       12        8        9       18       27 </v>
   <v type="int" >       12        8       17       18       27 </v>
   <v type="int" >       12       18       18       19       27 </v>
   <v type="int" >       12       18       18       26       27 </v>
   <v type="int" >       12       17       18       26       27 </v>
   <v type="int" >        6       10       10       19       19 </v>
   <v type="int" >       12        9       10       19       19 </v>
   <v type="int" >       12        9       18       19       19 </v>
   <v type="int" >        6       18       18       19       19 </v>
   <v type="int" >       12        1        2       10       10 </v>
   <v type="int" >       12        2       10       10       19 </v>
   <v type="int" >       12        2        9       10       19 </v>
   <v type="int" >       12       51       52       59       83 </v>
   <v type="int" >       12       52       59       60       84 </v>
   <v type="int" >       12       52       53       60       84 </v>
   <v type="int" >       12       52       59       83       84 </v>
   <v type="int" >       12       53       60       61       85 </v>
   <v type="int" >       12       53       54       61       85 </v>
   <v type="int" >       12       53       60       84       85 </v>
   <v type="int" >       12       54       61       62       86 </v>
   <v type="int" >       12       54       55       62       86 </v>
   <v type="int" >       12       54       61       85       86 </v>
   <v type="int" >       12       55       62       63       87 </v>
   <v type="int" >       12       55       56       63       87 </v>
   <v type="int" >       12       55       62       86       87 </v>
   <v type="int" >       12       56       63       64       88 </v>
   <v type="int" >       12       56       57       64       88 </v>
   <v type="int" >       12       56       63       87       88 </v>
   <v type="int" >       12       57       64       65       82 </v>
   <v type="int" >       12       57       58       65       82 </v>
   <v type="int" >       12       57       64       82       88 </v>
   <v type="int" >       12       12       20       49       50 </v>
   <v type="int" >       12       11       12       20       50 </v>
   <v type="int" >       12       20       48       49       50 </v>
   <v type="int" >       12       59       60       66       89 </v>
   <v type="int" >       12       59       60       84       89 </v>
   <v type="int" >       12       59       83       84       89 </v>
   <v type="int" >       12       60       66       67       90 </v>
   <v type="int" >       12       60       61       67       90 </v>
   <v type="int" >       12       60       61       85       90 </v>
   <v type="int" >       12       60       66       89       90 </v>
   <v type="int" >       12       60       84       89       90 </v>
   <v type="int" >       12       60       84       85       90 </v>
   <v type="int" >       12       61       67       68       91 </v>
   <v type="int" >       12       61       62       68       91 </v>
   <v type="int" >       12       61       62       86       91 </v>
   <v type="int" >       12       61       67       90       91 </v>
   <v type="int" >       12       61       85       90       91 </v>
   <v type="int" >       12       61       85       86       91 </v>
   <v type="int" >       12       62       68       69       92 </v>
   <v type="int" >       12       62       63       69       92 </v>
   <v type="int" >       12       62       63       87       92 </v>
   <v type="int" >       12       62       68       91       92 </v>
   <v type="int" >       12       62       86       91       92 </v>
   <v type="int" >       12       62       86       87       92 </v>
   <v type="int" >       12       63       69       70       93 </v>
   <v type="int" >       12       63       64       70       93 </v>
   <v type="int" >       12       63       64       88       93 </v>
   <v type="int" >       12       63       69       92       93 </v>
   <v type="int" >       12       63       87       92       93 </v>
   <v type="int" >       12       63       87       88       93 </v>
   <v type="int" >       12       64       70       71       81 </v>
   <v type="int" >       12       64       65       71       81 </v>
   <v type="int" >       12       64       65       81       82 </v>
   <v type="int" >       12       64       70       81       93 </v>
   <v type="int" >       12       64       81       88       93 </v>
   <v type="int" >       12       64       81       82       88 </v>
   <v type="int" >       12       13       21       47       49 </v>
   <v type="int" >       12       12       13       21       49 </v>
   <v type="int" >       12       12       20       21       49 </v>
   <v type="int" >       12       21       46       47       49 </v>
   <v type="int" >       12       21       46       48       49 </v>
   <v type="int" >       12       20       21       48       49 </v>
   <v type="int" >       12       66       67       72       94 </v>
   <v type="int" >       12       66       67       90       94 </v>
   <v type="int" >       12       66       89       90       94 </v>
   <v type="int" >       12       67       72       73       95 </v>
   <v type="int" >       12       67       68       73       95 </v>
   <v type="int" >       12       67       68       91       95 </v>
   <v type="int" >       12       67       72       94       95 </v>
   <v type="int" >       12       67       90       94       95 </v>
   <v type="int" >       12       67       90       91       95 </v>
   <v type="int" >       12       68       73       74       96 </v>
   <v type="int" >       12       68       69       74       96 </v>
   <v type="int" >       12       68       69       92       96 </v>
   <v type="int" >       12       68       73       95       96 </v>
   <v type="int" >       12       68       91       95       96 </v>
   <v type="int" >       12       68       91       92       96 </v>
   <v type="int" >       12       69       74       75       97 </v>
   <v type="int" >       12       69       70       75       97 </v>
   <v type="int" >       12       69       70       93       97 </v>
   <v type="int" >       12       69       74       96       97 </v>
   <v type="int" >       12       69       92       96       97 </v>
   <v type="int" >       12       69       92       93       97 </v>
   <v type="int" >       12       70       75       76       79 </v>
   <v type="int" >       12       70       71       76       79 </v>
   <v type="int" >       12       70       71       79       81 </v>
   <v type="int" >       12       70       75       79       97 </v>
   <v type="int" >       12       70       79       93       97 </v>
   <v type="int" >       12       70       79       81       93 </v>
   <v type="int" >       12       14       22       44       47 </v>
   <v type="int" >       12       13       14       22       47 </v>
   <v type="int" >       12       13       21       22       47 </v>
   <v type="int" >       12       22       43       44       47 </v>
   <v type="int" >       12       22       43       46       47 </v>
   <v type="int" >       12       21       22       46       47 </v>
   <v type="int" >       12       72       73       77       98 </v>
   <v type="int" >       12       72       73       95       98 </v>
   <v type="int" >       12       72       94       95       98 </v>
   <v type="int" >       12       73       77       78       99 </v>
   <v type="int" >       12       73       74       78       99 </v>
   <v type="int" >       12       73       74       96       99 </v>
   <v type="int" >       12       73       77       98       99 </v>
   <v type="int" >       12       73       95       98       99 </v>
   <v type="int" >       12       73       95       96       99 </v>
   <v type="int" >       12       74       78       79       97 </v>
   <v type="int" >       12       74       75       79       97 </v>
   <v type="int" >       12       74       75       97       97 </v>
   <v type="int" >       12       74       78       97       99 </v>
   <v type="int" >       12       74       96       97       99 </v>
   <v type="int" >       12       74       96       97       97 </v>
   <v type="int" >       12       75       75       76       79 </v>
   <v type="int" >        6       75       75       76       76 </v>
   <v type="int" >       12       75       75       79       97 </v>
   <v type="int" >        6       75       75       97       97 </v>
   <v type="int" >       12       15       23       39       44 </v>
   <v type="int" >       12       14       15       23       44 </v>
   <v type="int" >       12       14       22       23       44 </v>
   <v type="int" >       12       23       38       39       44 </v>
   <v type="int" >       12       23       38       43       44 </v>
   <v type="int" >       12       22       23       43       44 </v>
   <v type="int" >       12       77       78       80      100 </v>
   <v type="int" >       12       77       78       99      100 </v>
   <v type="int" >       12       77       98       99      100 </v>
   <v type="int" >       12       78       80       81       93 </v>
   <v type="int" >       12       78       79       81       93 </v>
   <v type="int" >       12       78       79       93       97 </v>
   <v type="int" >       12       78       80       93      100 </v>
   <v type="int" >       12       78       93       99      100 </v>
   <v type="int" >       12       78       93       97       99 </v>
   <v type="int" >       12       16       24       33       39 </v>
   <v type="int" >       12       15       16       24       39 </v>
   <v type="int" >       12       15       23       24       39 </v>
   <v type="int" >       12       24       32       33       39 </v>
   <v type="int" >       12       24       32       38       39 </v>
   <v type="int" >       12       23       24       38       39 </v>
   <v type="int" >       12       80       81       82       88 </v>
   <v type="int" >       12       80       81       88       93 </v>
   <v type="int" >       12       80       88       93      100 </v>
   <v type="int" >       12       17       25       26       33 </v>
   <v type="int" >       12       16       17       25       33 </v>
   <v type="int" >       12       16       24       25       33 </v>
   <v type="int" >       12       25       25       26       33 </v>
   <v type="int" >       12       25       25       32       33 </v>
   <v type="int" >       12       24       25       32       33 </v>
   <v type="int" >        6       18       18       26       26 </v>
   <v type="int" >       12       17       18       26       26 </v>
   <v type="int" >       12       17       25       26       26 </v>
   <v type="int" >        6       25       25       26       26 </v>
   <v type="int" >       12        2        3        9       19 </v>
   <v type="int" >       12        3        9       19       27 </v>
   <v type="int" >       12        3        8        9       27 </v>
   <v type="int" >       12       83       84       89      101 </v>
   <v type="int" >       12       84       89       90      102 </v>
   <v type="int" >       12       84       85       90      102 </v>
   <v type="int" >       12       84       89      101      102 </v>
   <v type="int" >       12       85       90       91      103 </v>
   <v type="int" >       12       85       86       91      103 </v>
   <v type="int" >       12       85       90      102      103 </v>
   <v type="int" >       12       86       91       92      104 </v>
   <v type="int" >       12       86       87       92      104 </v>
   <v type="int" >       12       86       91      103      104 </v>
   <v type="int" >       12       87       92       93      100 </v>
   <v type="int" >       12       87       88       93      100 </v>
   <v type="int" >       12       87       92      100      104 </v>
   <v type="int" >       12       21       28       46       48 </v>
   <v type="int" >       12       20       21       28       48 </v>
   <v type="int" >       12       28       45       46       48 </v>
   <v type="int" >       12       89       90       94      105 </v>
   <v type="int" >       12       89       90      102      105 </v>
   <v type="int" >       12       89      101      102      105 </v>
   <v type="int" >       12       90       94       95      106 </v>
   <v type="int" >       12       90       91       95      106 </v>
   <v type="int" >       12       90       91      103      106 </v>
   <v type="int" >       12       90       94      105      106 </v>
   <v type="int" >       12       90      102      105      106 </v>
   <v type="int" >       12       90      102      103      106 </v>
   <v type="int" >       12       91       95       96      107 </v>
   <v type="int" >       12       91       92       96      107 </v>
   <v type="int" >       12       91       92      104      107 </v>
   <v type="int" >       12       91       95      106      107 </v>
   <v type="int" >       12       91      103      106      107 </v>
   <v type="int" >       12       91      103      104      107 </v>
   <v type="int" >       12       92       96       97       99 </v>
   <v type="int" >       12       92       93       97       99 </v>
   <v type="int" >       12       92       93       99      100 </v>
   <v type="int" >       12       92       96       99      107 </v>
   <v type="int" >       12       92       99      104      107 </v>
   <v type="int" >       12       92       99      100      104 </v>
   <v type="int" >       12       22       29       43       46 </v>
   <v type="int" >       12       21       22       29       46 </v>
   <v type="int" >       12       21       28       29       46 </v>
   <v type="int" >       12       29       42       43       46 </v>
   <v type="int" >       12       29       42       45       46 </v>
   <v type="int" >       12       28       29       45       46 </v>
   <v type="int" >       12       94       95       98      108 </v>
   <v type="int" >       12       94       95      106      108 </v>
   <v type="int" >       12       94      105      106      108 </v>
   <v type="int" >       12       95       98       99      107 </v>
   <v type="int" >       12       95       96       99      107 </v>
   <v type="int" >       12       95       96      107      107 </v>
   <v type="int" >       12       95       98      107      108 </v>
   <v type="int" >       12       95      106      107      108 </v>
   <v type="int" >       12       95      106      107      107 </v>
   <v type="int" >       12       96       96       97       99 </v>
   <v type="int" >        6       96       96       97       97 </v>
   <v type="int" >       12       96       96       99      107 </v>
   <v type="int" >        6       96       96      107      107 </v>
   <v type="int" >       12       23       30       38       43 </v>
   <v type="int" >       12       22       23       30       43 </v>
   <v type="int" >       12       22       29       30       43 </v>
   <v type="int" >       12       30       37       38       43 </v>
   <v type="int" >       12       30       37       42       43 </v>
   <v type="int" >       12       29       30       42       43 </v>
   <v type="int" >       12       98       99      100      104 </v>
   <v type="int" >       12       98       99      104      107 </v>
   <v type="int" >       12       98      104      107      108 </v>
   <v type="int" >       12       24       31       32       38 </v>
   <v type="int" >       12       23       24       31       38 </v>
   <v type="int" >       12       23       30       31       38 </v>
   <v type="int" >       12       31       31       32       38 </v>
   <v type="int" >       12       31       31       37       38 </v>
   <v type="int" >       12       30       31       37       38 </v>
   <v type="int" >        6       25       25       32       32 </v>
   <v type="int" >       12       24       25       32       32 </v>
   <v type="int" >       12       24       31       32       32 </v>
   <v type="int" >        6       31       31       32       32 </v>
   <v type="int" >       12        3        4        8       27 </v>
   <v type="int" >       12        4        8       27       34 </v>
   <v type="int" >       12        4        7        8       34 </v>
   <v type="int" >       12      101      102      105      109 </v>
   <v type="int" >       12      102      105      106      110 </v>
   <v type="int" >       12      102      103      106      110 </v>
   <v type="int" >       12      102      105      109      110 </v>
   <v type="int" >       12      103      106      107      108 </v>
   <v type="int" >       12      103      104      107      108 </v>
   <v type="int" >       12      103      106      108      110 </v>
   <v type="int" >       12       29       35       42       45 </v>
   <v type="int" >       12       28       29       35       45 </v>
   <v type="int" >       12       35       41       42       45 </v>
   <v type="int" >       12      105      106      108      110 </v>
   <v type="int" >       12      105      106      110      110 </v>
   <v type="int" >       12      105      109      110      110 </v>
   <v type="int" >       12      106      106      107      108 </v>
   <v type="int" >        6      106      106      107      107 </v>
   <v type="int" >       12      106      106      108      110 </v>
   <v type="int" >        6      106      106      110      110 </v>
   <v type="int" >       12       30       36       37       42 </v>
   <v type="int" >       12       29       30       36       42 </v>
   <v type="int" >       12       29       35       36       42 </v>
   <v type="int" >       12       36       36       37       42 </v>
   <v type="int" >       12       36       36       41       42 </v>
   <v type="int" >       12       35       36       41       42 </v>
   <v type="int" >        6       31       31       37       37 </v>
   <v type="int" >       12       30       31       37       37 </v>
   <v type="int" >       12       30       36       37       37 </v>
   <v type="int" >        6       36       36       37       37 </v>
   <v type="int" >       12        4        5        7       34 </v>
   <v type="int" >       12        5        7       34       40 </v>
   <v type="int" >       12        5        6        7       40 </v>
   <v type="int" >        6      109      109      110      110 </v>
   <v type="int" >        6       36       36       41       41 </v>
   <v type="int" >       12       35       36       41       41 </v>
   <v type="int" >       12        5        6        6       40 </v>
   <v type="int" >        6        6        6       40       40 </v>
   <v type="int" >        6        1        1       10       10 </v>
  </varray>
  <i name="volumeweight">      0.00016667 </i>
 </kpoints>
 <parameters>
  <separator name="general" >
   <i type="string" name="SYSTEM">NiO_af2</i>
   <i type="logical" name="LCOMPAT"> F  </i>
  </separator>
  <separator name="electronic" >
   <i type="string" name="PREC">normal</i>
   <i name="ENMAX">    400.00000000</i>
   <i name="ENAUG">    605.39200000</i>
   <i name="EDIFF">      0.00010000</i>
   <i type="int" name="IALGO">    38</i>
   <i type="int" name="IWAVPR">    10</i>
   <i type="int" name="NBANDS">    20</i>
   <i name="NELECT">     32.00000000</i>
   <i type="int" name="TURBO">     0</i>
   <i type="int" name="IRESTART">     0</i>
   <i type="int" name="NREBOOT">     0</i>
   <i type="int" name="NMIN">     0</i>
   <i name="EREF">      0.00000000</i>
   <separator name="electronic smearing" >
    <i type="int" name="ISMEAR">    -5</i>
    <i name="SIGMA">      0.20000000</i>
    <i name="KSPACING">      0.50000000</i>
    <i type="logical" name="KGAMMA"> T  </i>
   </separator>
   <separator name="electronic projectors" >
    <i type="logical" name="LREAL"> F  </i>
    <v name="ROPT">      0.00000000      0.00000000</v>
    <i type="int" name="LMAXPAW">  -100</i>
    <i type="int" name="LMAXMIX">     2</i>
    <i type="logical" name="NLSPLINE"> F  </i>
   </separator>
   <separator name="electronic startup" >
    <i type="int" name="ISTART">     0</i>
    <i type="int" name="ICHARG">    11</i>
    <i type="int" name="INIWAV">     1</i>
   </separator>
   <separator name="electronic spin" >
    <i type="int" name="ISPIN">     2</i>
    <i type="logical" name="LNONCOLLINEAR"> F  </i>
    <v name="MAGMOM">      2.00000000     -2.00000000      0.00000000      0.00000000</v>
    <i name="NUPDOWN">     -1.00000000</i>
    <i type="logical" name="LSORBIT"> F  </i>
    <v name="SAXIS">      0.00000000      0.00000000      1.00000000</v>
    <i type="logical" name="LSPIRAL"> F  </i>
    <v name="QSPIRAL">      0.00000000      0.00000000      0.00000000</v>
    <i type="logical" name="LZEROZ"> F  </i>
   </separator>
   <separator name="electronic exchange-correlation" >
    <i type="logical" name="LASPH"> F  </i>
    <i type="logical" name="LMETAGGA"> F  </i>
   </separator>
   <separator name="electronic convergence" >
    <i type="int" name="NELM">    60</i>
    <i type="int" name="NELMDL">    -5</i>
    <i type="int" name="NELMIN">     2</i>
    <i name="ENINI">    400.00000000</i>
    <separator name="electronic convergence detail" >
     <i type="logical" name="LDIAG"> T  </i>
     <i type="logical" name="LSUBROT"> F  </i>
     <i name="WEIMIN">      0.00000000</i>
     <i name="EBREAK">      0.00000125</i>
     <i name="DEPER">      0.30000000</i>
     <i type="int" name="NRMM">     4</i>
     <i name="TIME">      0.40000000</i>
    </separator>
   </separator>
   <separator name="electronic mixer" >
    <i name="AMIX">      0.40000000</i>
    <i name="BMIX">      1.00000000</i>
    <i name="AMIN">      0.10000000</i>
    <i name="AMIX_MAG">      1.60000000</i>
    <i name="BMIX_MAG">      1.00000000</i>
    <separator name="electronic mixer details" >
     <i type="int" name="IMIX">     4</i>
     <i type="logical" name="MIXFIRST"> F  </i>
     <i type="int" name="MAXMIX">   -45</i>
     <i name="WC">    100.00000000</i>
     <i type="int" name="INIMIX">     1</i>
     <i type="int" name="MIXPRE">     1</i>
     <i type="int" name="MREMOVE">     5</i>
    </separator>
   </separator>
   <separator name="electronic dipolcorrection" >
    <i type="logical" name="LDIPOL"> F  </i>
    <i type="logical" name="LMONO"> F  </i>
    <i type="int" name="IDIPOL">     0</i>
    <i name="EPSILON">      1.00000000</i>
    <v name="DIPOL">   -100.00000000   -100.00000000   -100.00000000</v>
    <i name="EFIELD">      0.00000000</i>
   </separator>
  </separator>
  <separator name="grids" >
   <i type="int" name="NGX">    28</i>
   <i type="int" name="NGY">    28</i>
   <i type="int" name="NGZ">    28</i>
   <i type="int" name="NGXF">    56</i>
   <i type="int" name="NGYF">    56</i>
   <i type="int" name="NGZF">    56</i>
   <i type="logical" name="ADDGRID"> F  </i>
  </separator>
  <separator name="ionic" >
   <i type="int" name="NSW">     0</i>
   <i type="int" name="IBRION">    -1</i>
   <i type="int" name="MDALGO">     0</i>
   <i type="int" name="ISIF">     2</i>
   <i name="PSTRESS">      0.00000000</i>
   <i name="EDIFFG">      0.00100000</i>
   <i type="int" name="NFREE">     0</i>
   <i name="POTIM">      0.50000000</i>
   <i name="SMASS">     -3.00000000</i>
   <i name="SCALEE">      1.00000000</i>
  </separator>
  <separator name="ionic md" >
   <i name="TEBEG">      0.00010000</i>
   <i name="TEEND">      0.00010000</i>
   <i type="int" name="NBLOCK">     1</i>
   <i type="int" name="KBLOCK">     1</i>
   <i type="int" name="NPACO">   256</i>
   <i name="APACO">     16.00000000</i>
  </separator>
  <separator name="symmetry" >
   <i type="int" name="ISYM">     2</i>
   <i name="SYMPREC">      0.00001000</i>
  </separator>
  <separator name="dos" >
   <i type="int" name="LORBIT">    11</i>
   <v name="RWIGS">      1.28600000      0.82000000</v>
   <i type="int" name="NEDOS">   301</i>
   <i name="EMIN">     10.00000000</i>
   <i name="EMAX">    -10.00000000</i>
   <i name="EFERMI">      0.00000000</i>
  </separator>
  <separator name="writing" >
   <i type="int" name="NWRITE">     2</i>
   <i type="logical" name="LWAVE"> F  </i>
   <i type="logical" name="LDOWNSAMPLE"> F  </i>
   <i type="logical" name="LCHARG"> F  </i>
   <i type="logical" name="LPARD"> F  </i>
   <i type="logical" name="LVTOT"> F  </i>
   <i type="logical" name="LVHAR"> F  </i>
   <i type="logical" name="LELF"> F  </i>
   <i type="logical" name="LOPTICS"> F  </i>
   <v name="STM">      0.00000000      0.00000000      0.00000000      0.00000000      0.00000000      0.00000000      0.00000000</v>
  </separator>
  <separator name="performance" >
   <i type="int" name="NPAR">     1</i>
   <i type="int" name="NSIM">     4</i>
   <i type="int" name="NBLK">    -1</i>
   <i type="logical" name="LPLANE"> T  </i>
   <i type="logical" name="LSCALAPACK"> T  </i>
   <i type="logical" name="LSCAAWARE"> F  </i>
   <i type="logical" name="LSCALU"> F  </i>
   <i type="logical" name="LASYNC"> F  </i>
   <i type="logical" name="LORBITALREAL"> F  </i>
  </separator>
  <separator name="miscellaneous" >
   <i type="int" name="IDIOT">     3</i>
   <i type="int" name="ISPECIAL">     0</i>
   <i type="logical" name="LMUSIC"> F  </i>
   <v name="POMASS">     58.69000000     16.00000000</v>
   <v name="DARWINR">      0.00000000      0.00000000</v>
   <v name="DARWINV">      1.00000000      1.00000000</v>
   <i type="logical" name="LCORR"> T  </i>
  </separator>
  <i type="logical" name="GGA_COMPAT"> T  </i>
  <i type="logical" name="LBERRY"> F  </i>
  <i type="int" name="ICORELEVEL">     0</i>
  <i type="logical" name="LDAU"> T  </i>
  <v type="int" name="LDAUTYPE">     2</v>
  <v type="int" name="LDAUL">     2</v>
  <v name="LDAUU">      7.00000000</v>
  <v name="LDAUJ">      0.00000000</v>
  <i type="int" name="LDAUPRINT">     0</i>
  <i type="int" name="I_CONSTRAINED_M">     0</i>
  <separator name="electronic exchange-correlation" >
   <i type="string" name="GGA">--</i>
   <i type="int" name="VOSKOWN">     0</i>
   <i type="logical" name="LHFCALC"> F  </i>
   <i type="string" name="PRECFOCK"></i>
   <i type="logical" name="LSYMGRAD"> F  </i>
   <i type="logical" name="LHFONE"> F  </i>
   <i type="logical" name="LRHFCALC"> F  </i>
   <i type="logical" name="LTHOMAS"> F  </i>
   <i type="logical" name="LMODELHF"> F  </i>
   <i name="ENCUT4O">     -1.00000000</i>
   <i type="int" name="EXXOEP">     0</i>
   <i type="int" name="FOURORBIT">     0</i>
   <i name="AEXX">      0.00000000</i>
   <i name="HFALPHA">      0.00000000</i>
   <i name="MCALPHA">      0.00000000</i>
   <i name="ALDAX">      1.00000000</i>
   <i name="AGGAX">      1.00000000</i>
   <i name="ALDAC">      1.00000000</i>
   <i name="AGGAC">      1.00000000</i>
   <i type="int" name="NKREDX">     1</i>
   <i type="int" name="NKREDY">     1</i>
   <i type="int" name="NKREDZ">     1</i>
   <i type="logical" name="SHIFTRED"> F  </i>
   <i type="logical" name="ODDONLY"> F  </i>
   <i type="logical" name="EVENONLY"> F  </i>
   <i type="int" name="LMAXFOCK">     0</i>
   <i type="int" name="NMAXFOCKAE">     0</i>
   <i type="logical" name="LFOCKAEDFT"> F  </i>
   <i name="HFSCREEN">      0.00000000</i>
   <i name="HFSCREENC">      0.00000000</i>
   <i type="int" name="NBANDSGWLOW">     0</i>
  </separator>
  <separator name="vdW DFT" >
   <i type="logical" name="LUSE_VDW"> F  </i>
   <i name="Zab_VDW">     -0.84910000</i>
   <i name="PARAM1">      0.12340000</i>
   <i name="PARAM2">      1.00000000</i>
   <i name="PARAM3">      0.00000000</i>
  </separator>
  <separator name="model GW" >
   <i type="int" name="MODEL_GW">     0</i>
   <i name="MODEL_EPS0">      5.43837847</i>
   <i name="MODEL_ALPHA">      1.00000000</i>
  </separator>
  <separator name="linear response parameters" >
   <i type="logical" name="LEPSILON"> F  </i>
   <i type="logical" name="LRPA"> F  </i>
   <i type="logical" name="LNABLA"> F  </i>
   <i type="logical" name="LVEL"> F  </i>
   <i type="int" name="KINTER">     0</i>
   <i name="CSHIFT">      0.10000000</i>
   <i name="OMEGAMAX">     -1.00000000</i>
   <i name="DEG_THRESHOLD">      0.00200000</i>
   <i name="RTIME">     -0.10000000</i>
   <i name="WPLASMAI">      0.00000000</i>
   <v name="DFIELD">      0.00000000      0.00000000      0.00000000</v>
   <v name="WPLASMA">      0.00000000      0.00000000      0.00000000      0.00000000      0.00000000      0.00000000      0.00000000      0.00000000      0.00000000</v>
  </separator>
  <separator name="orbital magnetization" >
   <i type="logical" name="NUCIND"> F  </i>
   <v name="MAGPOS">      0.00000000      0.00000000      0.00000000</v>
   <i type="logical" name="LNICSALL"> T  </i>
   <i type="logical" name="ORBITALMAG"> F  </i>
   <i type="logical" name="LMAGBLOCH"> F  </i>
   <i type="logical" name="LCHIMAG"> F  </i>
   <i type="logical" name="LGAUGE"> T  </i>
   <i type="int" name="MAGATOM">     0</i>
   <v name="MAGDIPOL">      0.00000000      0.00000000      0.00000000</v>
   <v name="AVECCONST">      0.00000000      0.00000000      0.00000000</v>
  </separator>
  <separator name="response functions" >
   <i type="logical" name="LADDER"> F  </i>
   <i type="logical" name="LRPAFORCE"> F  </i>
   <i type="logical" name="LFXC"> F  </i>
   <i type="logical" name="LHARTREE"> T  </i>
   <i type="int" name="IBSE">     0</i>
   <v type="int" name="KPOINT">    -1     0     0     0</v>
   <i type="logical" name="LTCTE"> F  </i>
   <i type="logical" name="LTETE"> F  </i>
   <i type="logical" name="LTRIPLET"> F  </i>
   <i type="logical" name="LFXCEPS"> F  </i>
   <i type="logical" name="LFXHEG"> F  </i>
   <i type="int" name="NATURALO">     2</i>
   <i type="logical" name="L2ORDER"> F  </i>
   <i type="logical" name="LMP2LT"> F  </i>
   <i type="logical" name="LUSEW"> F  </i>
   <i name="ENCUTGW">     -2.00000000</i>
   <i name="ENCUTGWSOFT">     -2.00000000</i>
   <i name="ENCUTLF">     -1.00000000</i>
   <i type="int" name="LMAXMP2">    -1</i>
   <i name="SCISSOR">      0.00000000</i>
   <i type="int" name="NOMEGA">     0</i>
   <i type="int" name="NOMEGAR">     0</i>
   <i type="int" name="NBANDSGW">    -1</i>
   <i type="int" name="NBANDSO">    -1</i>
   <i type="int" name="NBANDSV">    -1</i>
   <i type="int" name="NELM">     1</i>
   <i type="int" name="NELMHF">     1</i>
   <i type="int" name="DIM">     3</i>
   <i type="int" name="ANTIRES">     0</i>
   <i name="OMEGAMAX">    -30.00000000</i>
   <i name="OMEGAMIN">    -30.00000000</i>
   <i name="OMEGATL">   -200.00000000</i>
   <i type="int" name="OMEGAGRID">   140</i>
   <i name="CSHIFT">     -0.10000000</i>
   <i type="logical" name="SELFENERGY"> F  </i>
   <i type="logical" name="LSPECTRAL"> F  </i>
   <i type="logical" name="LSPECTRALGW"> F  </i>
   <i type="logical" name="LSINGLES"> F  </i>
   <i type="logical" name="LFERMIGW"> F  </i>
   <i type="logical" name="ODDONLYGW"> F  </i>
   <i type="logical" name="EVENONLYGW"> F  </i>
   <i type="int" name="NKREDLFX">     1</i>
   <i type="int" name="NKREDLFY">     1</i>
   <i type="int" name="NKREDLFZ">     1</i>
   <i type="int" name="MAXMEM">  2800</i>
   <i type="int" name="TELESCOPE">     0</i>
   <i type="int" name="TAUPAR">     1</i>
   <i type="int" name="OMEGAPAR">    -1</i>
   <i name="LAMBDA">      1.00000000</i>
  </separator>
  <separator name="External order field" >
   <i name="OFIELD_KAPPA">      0.00000000</i>
   <v name="OFIELD_K">      0.00000000      0.00000000      0.00000000</v>
   <i name="OFIELD_Q6_NEAR">      0.00000000</i>
   <i name="OFIELD_Q6_FAR">      0.00000000</i>
   <i name="OFIELD_A">      0.00000000</i>
  </separator>
 </parameters>
 <atominfo>
  <atoms>       4 </atoms>
  <types>       2 </types>
  <array name="atoms" >
   <dimension dim="1">ion</dimension>
   <field type="string">element</field>
   <field type="int">atomtype</field>
   <set>
    <rc><c>Ni</c><c>   1</c></rc>
    <rc><c>Ni</c><c>   1</c></rc>
    <rc><c>O </c><c>   2</c></rc>
    <rc><c>O </c><c>   2</c></rc>
   </set>
  </array>
  <array name="atomtypes" >
   <dimension dim="1">type</dimension>
   <field type="int">atomspertype</field>
   <field type="string">element</field>
   <field>mass</field>
   <field>valence</field>
   <field type="string">pseudopotential</field>
   <set>
    <rc><c>   2</c><c>Ni</c><c>     58.69000000</c><c>     10.00000000</c><c>  PAW Ni                                </c></rc>
    <rc><c>   2</c><c>O </c><c>     16.00000000</c><c>      6.00000000</c><c>  PAW O                                 </c></rc>
   </set>
  </array>
 </atominfo>
 <structure name="initialpos" >
  <crystal>
   <varray name="basis" >
    <v>       4.17000000       2.08500000       2.08500000 </v>
    <v>       2.08500000       4.17000000       2.08500000 </v>
    <v>       2.08500000       2.08500000       4.17000000 </v>
   </varray>
   <i name="volume">     36.25585650 </i>
   <varray name="rec_basis" >
    <v>       0.35971223      -0.11990408      -0.11990408 </v>
    <v>      -0.11990408       0.35971223      -0.11990408 </v>
    <v>      -0.11990408      -0.11990408       0.35971223 </v>
   </varray>
  </crystal>
  <varray name="positions" >
   <v>       0.00000000       0.00000000       0.00000000 </v>
   <v>       0.50000000       0.50000000       0.50000000 </v>
   <v>       0.25000000       0.25000000       0.25000000 </v>
   <v>       0.75000000       0.75000000       0.75000000 </v>
  </varray>
 </structure>
 <calculation>
  <scstep>
   <time name="dav">   10.51   13.32</time>
   <time name="total">   11.46   14.58</time>
   <energy>
    <i name="alphaZ">    217.71629331 </i>
    <i name="ewald">  -2604.77031634 </i>
    <i name="hartreedc">   -632.55112854 </i>
    <i name="XCdc">    119.27466708 </i>
    <i name="pawpsdc">   2354.03358362 </i>
    <i name="pawaedc">  -2448.00643139 </i>
    <i name="eentropy">      0.00000000 </i>
    <i name="bandstr">    178.99803078 </i>
    <i name="atom">   3024.74254395 </i>
    <i name="e_fr_energy">    209.43724247 </i>
    <i name="e_wo_entrp">    209.43724247 </i>
    <i name="e_0_energy">    209.43724247 </i>
   </energy>
  </scstep>
  <scstep>
   <time name="dav">   10.70   19.26</time>
   <time name="total">   10.73   19.33</time>
   <energy>
    <i name="e_fr_energy">      4.42834778 </i>
    <i name="e_wo_entrp">      4.42834778 </i>
    <i name="e_0_energy">      4.42834778 </i>
   </energy>
  </scstep>
  <scstep>
   <time name="dav">   11.40   23.20</time>
   <time name="total">   11.40   23.21</time>
   <energy>
    <i name="e_fr_energy">    -15.09231405 </i>
    <i name="e_wo_entrp">    -15.09231405 </i>
    <i name="e_0_energy">    -15.09231405 </i>
   </energy>
  </scstep>
  <scstep>
   <time name="dav">   11.48   15.92</time>
   <time name="total">   11.49   15.93</time>
   <energy>
    <i name="e_fr_energy">    -15.47559376 </i>
    <i name="e_wo_entrp">    -15.47559376 </i>
    <i name="e_0_energy">    -15.47559376 </i>
   </energy>
  </scstep>
  <scstep>
   <time name="dav">   11.51   16.81</time>
   <time name="total">   11.52   16.82</time>
   <energy>
    <i name="e_fr_energy">    -15.48023776 </i>
    <i name="e_wo_entrp">    -15.48023776 </i>
    <i name="e_0_energy">    -15.48023776 </i>
   </energy>
  </scstep>
  <scstep>
   <time name="dav">   11.42   19.09</time>
   <time name="total">   11.42   19.10</time>
   <energy>
    <i name="alphaZ">    217.71629331 </i>
    <i name="ewald">  -2604.77031634 </i>
    <i name="hartreedc">   -632.55112854 </i>
    <i name="XCdc">    119.27466708 </i>
    <i name="pawpsdc">   2354.03358362 </i>
    <i name="pawaedc">  -2448.00643139 </i>
    <i name="eentropy">      0.00000000 </i>
    <i name="bandstr">    -45.91954175 </i>
    <i name="atom">   3024.74254395 </i>
    <i name="e_fr_energy">    -15.48033005 </i>
    <i name="e_wo_entrp">    -15.48033005 </i>
    <i name="e_0_energy">    -15.48033005 </i>
   </energy>
  </scstep>
  <structure>
   <crystal>
    <varray name="basis" >
     <v>       4.17000000       2.08500000       2.08500000 </v>
     <v>       2.08500000       4.17000000       2.08500000 </v>
     <v>       2.08500000       2.08500000       4.17000000 </v>
    </varray>
    <i name="volume">     36.25585650 </i>
    <varray name="rec_basis" >
     <v>       0.35971223      -0.11990408      -0.11990408 </v>
     <v>      -0.11990408       0.35971223      -0.11990408 </v>
     <v>      -0.11990408      -0.11990408       0.35971223 </v>
    </varray>
   </crystal>
   <varray name="positions" >
    <v>       0.00000000       0.00000000       0.00000000 </v>
    <v>       0.50000000       0.50000000       0.50000000 </v>
    <v>       0.25000000       0.25000000       0.25000000 </v>
    <v>       0.75000000       0.75000000       0.75000000 </v>
   </varray>
  </structure>
  <varray name="forces" >
   <v>      -0.00000000      -0.00000000       0.00000000 </v>
   <v>       0.00000000       0.00000000       0.00000000 </v>
   <v>      -0.00000000       0.00000000      -0.00000000 </v>
   <v>       0.00000000       0.00000000      -0.00000000 </v>
  </varray>
  <varray name="stress" >
   <v>    1061.39606530      -1.18750702      -1.18750702 </v>
   <v>      -1.18750702    1061.39606530      -1.18750702 </v>
   <v>      -1.18750702      -1.18750702    1061.39606530 </v>
  </varray>
  <energy>
   <i name="e_fr_energy">    -15.48033005 </i>
   <i name="e_wo_entrp">    -15.48033005 </i>
   <i name="e_0_energy">      0.00000000 </i>
  </energy>
  <time name="totalsc">   73.85  116.17</time>
  <eigenvalues>
   <array>
    <dimension dim="1">band</dimension>
    <dimension dim="2">kpoint</dimension>
    <dimension dim="3">spin</dimension>
    <field>eigene</field>
    <field>occ</field>
    <set>
     <set comment="spin 1">
      <set comment="kpoint 1">
       <r>  -14.6847    1.0000 </r>
       <r>  -13.2401    1.0000 </r>
       <r>   -3.4583    1.0000 </r>
       <r>   -2.4882    1.0000 </r>
       <r>   -2.4882    1.0000 </r>
       <r>   -1.3470    1.0000 </r>
       <r>   -1.3470    1.0000 </r>
       <r>   -0.5740    1.0000 </r>
       <r>    1.2789    1.0000 </r>
       <r>    1.2789    1.0000 </r>
       <r>    2.6200    1.0000 </r>
       <r>    2.6200    1.0000 </r>
       <r>    2.6762    1.0000 </r>
       <r>    2.7796    1.0000 </r>
       <r>    2.7796    1.0000 </r>
       <r>    3.0003    1.0000 </r>
       <r>    5.6599    0.0000 </r>
       <r>    5.6599    0.0000 </r>
       <r>    7.1128    0.0000 </r>
       <r>   10.9889    0.0000 </r>
      </set>
      <set comment="kpoint 2">
       <r>  -14.5677    1.0000 </r>
       <r>  -13.2513    1.0000 </r>
       <r>   -3.2853    1.0000 </r>
       <r>   -2.4562    1.0000 </r>
       <r>   -2.4451    1.0000 </r>
       <r>   -1.4149    1.0000 </r>
       <r>   -1.3663    1.0000 </r>
       <r>   -0.5528    1.0000 </r>
       <r>    0.7653    1.0000 </r>
       <r>    1.3459    1.0000 </r>
       <r>    2.0941    1.0000 </r>
       <r>    2.2513    1.0000 </r>
       <r>    2.7257    1.0000 </r>
       <r>    2.9857    1.0000 </r>
       <r>    3.0684    1.0000 </r>
       <r>    3.1345    1.0000 </r>
       <r>    5.2393    0.0000 </r>
       <r>    5.6212    0.0000 </r>
       <r>    7.8670    0.0000 </r>
       <r>   11.5683    0.0000 </r>
      </set>
      <set comment="kpoint 3">
       <r>  -14.2697    1.0000 </r>
       <r>  -13.2458    1.0000 </r>
       <r>   -2.9997    1.0000 </r>
       <r>   -2.3500    1.0000 </r>
       <r>   -2.3019    1.0000 </r>
       <r>   -1.6970    1.0000 </r>
       <r>   -1.3753    1.0000 </r>
       <r>   -0.5769    1.0000 </r>
       <r>    0.2679    1.0000 </r>
       <r>    1.2645    1.0000 </r>
       <r>    1.3030    1.0000 </r>
       <r>    2.0148    1.0000 </r>
       <r>    2.6736    1.0000 </r>
       <r>    2.8840    1.0000 </r>
       <r>    3.2816    1.0000 </r>
       <r>    3.3482    1.0000 </r>
       <r>    4.7647    0.0000 </r>
       <r>    5.4704    0.0000 </r>
       <r>    9.3731    0.0000 </r>
       <r>   12.8341    0.0000 </r>
      </set>
      <set comment="kpoint 4">
       <r>  -13.8865    1.0000 </r>
       <r>  -13.2178    1.0000 </r>
       <r>   -2.8812    1.0000 </r>
       <r>   -2.2994    1.0000 </r>
       <r>   -2.2235    1.0000 </r>
       <r>   -1.8918    1.0000 </r>
       <r>   -1.2712    1.0000 </r>
       <r>   -0.6899    1.0000 </r>
       <r>   -0.1287    1.0000 </r>
       <r>    0.8765    1.0000 </r>
       <r>    0.9522    1.0000 </r>
       <r>    2.2244    1.0000 </r>
       <r>    2.2522    1.0000 </r>
       <r>    2.6248    1.0000 </r>
       <r>    3.4092    1.0000 </r>
       <r>    3.4365    1.0000 </r>
       <r>    4.7909    0.0000 </r>
       <r>    5.3016    0.0000 </r>
       <r>   10.8921    0.0000 </r>
       <r>   13.9893    0.0000 </r>
      </set>
      <set comment="kpoint 5">
       <r>  -13.5434    1.0000 </r>
       <r>  -13.1980    1.0000 </r>
       <r>   -2.7388    1.0000 </r>
       <r>   -2.6815    1.0000 </r>
       <r>   -2.3125    1.0000 </r>
       <r>   -1.5994    1.0000 </r>
       <r>   -1.0656    1.0000 </r>
       <r>   -0.9227    1.0000 </r>
       <r>   -0.5864    1.0000 </r>
       <r>    0.5762    1.0000 </r>
       <r>    0.8081    1.0000 </r>
       <r>    2.1342    1.0000 </r>
       <r>    2.5471    1.0000 </r>
       <r>    2.6132    1.0000 </r>
       <r>    3.3064    1.0000 </r>
       <r>    3.4319    1.0000 </r>
       <r>    4.9163    0.0000 </r>
       <r>    5.1812    0.0000 </r>
       <r>   12.0835    0.0000 </r>
       <r>   13.7256    0.0000 </r>
      </set>
      <set comment="kpoint 6">
       <r>  -13.3673    1.0000 </r>
       <r>  -13.2305    1.0000 </r>
       <r>   -2.8725    1.0000 </r>
       <r>   -2.5062    1.0000 </r>
       <r>   -2.3243    1.0000 </r>
       <r>   -1.7414    1.0000 </r>
       <r>   -1.1839    1.0000 </r>
       <r>   -0.9479    1.0000 </r>
       <r>   -0.3552    1.0000 </r>
       <r>    0.3912    1.0000 </r>
       <r>    0.4773    1.0000 </r>
       <r>    2.3766    1.0000 </r>
       <r>    2.4812    1.0000 </r>
       <r>    2.9935    1.0000 </r>
       <r>    3.0539    1.0000 </r>
       <r>    3.3596    1.0000 </r>
       <r>    5.0313    0.0000 </r>
       <r>    5.1178    0.0000 </r>
       <r>   12.7451    0.0000 </r>
       <r>   12.9842    0.0000 </r>
      </set>
      <set comment="kpoint 7">
       <r>  -13.5361    1.0000 </r>
       <r>  -13.2101    1.0000 </r>
       <r>   -2.7340    1.0000 </r>
       <r>   -2.5828    1.0000 </r>
       <r>   -2.3026    1.0000 </r>
       <r>   -1.5773    1.0000 </r>
       <r>   -1.0862    1.0000 </r>
       <r>   -1.0739    1.0000 </r>
       <r>   -0.4146    1.0000 </r>
       <r>    0.5252    1.0000 </r>
       <r>    0.5519    1.0000 </r>
       <r>    2.2230    1.0000 </r>
       <r>    2.5118    1.0000 </r>
       <r>    2.6553    1.0000 </r>
       <r>    3.3682    1.0000 </r>
       <r>    3.3892    1.0000 </r>
       <r>    5.1016    0.0000 </r>
       <r>    5.1239    0.0000 </r>
       <r>   11.8616    0.0000 </r>
       <r>   13.4544    0.0000 </r>
      </set>
      <set comment="kpoint 8">
       <r>  -13.9018    1.0000 </r>
       <r>  -13.2040    1.0000 </r>
       <r>   -2.7251    1.0000 </r>
       <r>   -2.2816    1.0000 </r>
       <r>   -2.2358    1.0000 </r>
       <r>   -1.9853    1.0000 </r>
       <r>   -1.2859    1.0000 </r>
       <r>   -0.5281    1.0000 </r>
       <r>   -0.3117    1.0000 </r>
       <r>    0.6232    1.0000 </r>
       <r>    0.8354    1.0000 </r>
       <r>    2.3340    1.0000 </r>
       <r>    2.4644    1.0000 </r>
       <r>    2.6131    1.0000 </r>
       <r>    3.2991    1.0000 </r>
       <r>    3.5725    1.0000 </r>
       <r>    5.0648    0.0000 </r>
       <r>    5.1626    0.0000 </r>
       <r>   10.5954    0.0000 </r>
       <r>   13.9070    0.0000 </r>
      </set>
      <set comment="kpoint 9">
       <r>  -14.2956    1.0000 </r>
       <r>  -13.2145    1.0000 </r>
       <r>   -2.9467    1.0000 </r>
       <r>   -2.3901    1.0000 </r>
       <r>   -2.3353    1.0000 </r>
       <r>   -1.6843    1.0000 </r>
       <r>   -1.3860    1.0000 </r>
       <r>   -0.5273    1.0000 </r>
       <r>    0.2948    1.0000 </r>
       <r>    1.0417    1.0000 </r>
       <r>    1.1222    1.0000 </r>
       <r>    2.1736    1.0000 </r>
       <r>    2.7068    1.0000 </r>
       <r>    2.9990    1.0000 </r>
       <r>    3.2419    1.0000 </r>
       <r>    3.4926    1.0000 </r>
       <r>    4.9799    0.0000 </r>
       <r>    5.3333    0.0000 </r>
       <r>    9.1087    0.0000 </r>
       <r>   12.8925    0.0000 </r>
      </set>
      <set comment="kpoint 10">
       <r>  -14.5861    1.0000 </r>
       <r>  -13.2262    1.0000 </r>
       <r>   -3.3199    1.0000 </r>
       <r>   -2.4787    1.0000 </r>
       <r>   -2.4388    1.0000 </r>
       <r>   -1.4143    1.0000 </r>
       <r>   -1.3690    1.0000 </r>
       <r>   -0.5516    1.0000 </r>
       <r>    0.9230    1.0000 </r>
       <r>    1.2425    1.0000 </r>
       <r>    1.9465    1.0000 </r>
       <r>    2.3136    1.0000 </r>
       <r>    2.7657    1.0000 </r>
       <r>    2.9537    1.0000 </r>
       <r>    3.1516    1.0000 </r>
       <r>    3.1782    1.0000 </r>
       <r>    5.3573    0.0000 </r>
       <r>    5.5418    0.0000 </r>
       <r>    7.7190    0.0000 </r>
       <r>   11.5852    0.0000 </r>
      </set>
      <set comment="kpoint 11">
       <r>  -14.5472    1.0000 </r>
       <r>  -13.2806    1.0000 </r>
       <r>   -3.2270    1.0000 </r>
       <r>   -2.4786    1.0000 </r>
       <r>   -2.4142    1.0000 </r>
       <r>   -1.4139    1.0000 </r>
       <r>   -1.3693    1.0000 </r>
       <r>   -0.5463    1.0000 </r>
       <r>    0.8783    1.0000 </r>
       <r>    1.0595    1.0000 </r>
       <r>    1.9370    1.0000 </r>
       <r>    2.3976    1.0000 </r>
       <r>    2.6611    1.0000 </r>
       <r>    2.7946    1.0000 </r>
       <r>    3.2309    1.0000 </r>
       <r>    3.3576    1.0000 </r>
       <r>    5.4016    0.0000 </r>
       <r>    5.4278    0.0000 </r>
       <r>    7.9222    0.0000 </r>
       <r>   11.5487    0.0000 </r>
      </set>
      <set comment="kpoint 12">
       <r>  -14.3312    1.0000 </r>
       <r>  -13.2902    1.0000 </r>
       <r>   -2.9821    1.0000 </r>
       <r>   -2.4218    1.0000 </r>
       <r>   -2.3293    1.0000 </r>
       <r>   -1.5294    1.0000 </r>
       <r>   -1.4430    1.0000 </r>
       <r>   -0.5184    1.0000 </r>
       <r>    0.3079    1.0000 </r>
       <r>    1.0751    1.0000 </r>
       <r>    1.5095    1.0000 </r>
       <r>    2.0920    1.0000 </r>
       <r>    2.7593    1.0000 </r>
       <r>    2.7952    1.0000 </r>
       <r>    3.3151    1.0000 </r>
       <r>    3.4844    1.0000 </r>
       <r>    4.9462    0.0000 </r>
       <r>    5.3871    0.0000 </r>
       <r>    9.0075    0.0000 </r>
       <r>   12.4061    0.0000 </r>
      </set>
      <set comment="kpoint 13">
       <r>  -13.9923    1.0000 </r>
       <r>  -13.2641    1.0000 </r>
       <r>   -2.8753    1.0000 </r>
       <r>   -2.3473    1.0000 </r>
       <r>   -2.0854    1.0000 </r>
       <r>   -1.8821    1.0000 </r>
       <r>   -1.4475    1.0000 </r>
       <r>   -0.6595    1.0000 </r>
       <r>    0.2060    1.0000 </r>
       <r>    0.6596    1.0000 </r>
       <r>    1.5200    1.0000 </r>
       <r>    1.6742    1.0000 </r>
       <r>    2.5473    1.0000 </r>
       <r>    2.7517    1.0000 </r>
       <r>    3.2761    1.0000 </r>
       <r>    3.4638    1.0000 </r>
       <r>    4.8181    0.0000 </r>
       <r>    5.2927    0.0000 </r>
       <r>   10.4801    0.0000 </r>
       <r>   13.5074    0.0000 </r>
      </set>
      <set comment="kpoint 14">
       <r>  -13.6438    1.0000 </r>
       <r>  -13.2141    1.0000 </r>
       <r>   -2.8375    1.0000 </r>
       <r>   -2.4934    1.0000 </r>
       <r>   -2.2554    1.0000 </r>
       <r>   -1.7126    1.0000 </r>
       <r>   -1.3389    1.0000 </r>
       <r>   -0.6622    1.0000 </r>
       <r>   -0.3966    1.0000 </r>
       <r>    0.5278    1.0000 </r>
       <r>    1.4184    1.0000 </r>
       <r>    1.6730    1.0000 </r>
       <r>    2.2661    1.0000 </r>
       <r>    2.7875    1.0000 </r>
       <r>    3.2572    1.0000 </r>
       <r>    3.4622    1.0000 </r>
       <r>    4.8711    0.0000 </r>
       <r>    5.2124    0.0000 </r>
       <r>   11.8166    0.0000 </r>
       <r>   14.0742    0.0000 </r>
      </set>
      <set comment="kpoint 15">
       <r>  -13.3977    1.0000 </r>
       <r>  -13.1999    1.0000 </r>
       <r>   -2.7869    1.0000 </r>
       <r>   -2.6229    1.0000 </r>
       <r>   -2.3765    1.0000 </r>
       <r>   -1.5741    1.0000 </r>
       <r>   -1.2666    1.0000 </r>
       <r>   -0.9707    1.0000 </r>
       <r>   -0.3506    1.0000 </r>
       <r>    0.2046    1.0000 </r>
       <r>    1.0468    1.0000 </r>
       <r>    2.0690    1.0000 </r>
       <r>    2.2755    1.0000 </r>
       <r>    2.9402    1.0000 </r>
       <r>    3.1247    1.0000 </r>
       <r>    3.3745    1.0000 </r>
       <r>    5.0358    0.0000 </r>
       <r>    5.1205    0.0000 </r>
       <r>   12.7281    0.0000 </r>
       <r>   13.4729    0.0000 </r>
      </set>
      <set comment="kpoint 16">
       <r>  -13.3751    1.0000 </r>
       <r>  -13.2269    1.0000 </r>
       <r>   -2.8708    1.0000 </r>
       <r>   -2.4470    1.0000 </r>
       <r>   -2.3643    1.0000 </r>
       <r>   -1.5162    1.0000 </r>
       <r>   -1.3579    1.0000 </r>
       <r>   -1.0242    1.0000 </r>
       <r>   -0.1164    1.0000 </r>
       <r>    0.0448    1.0000 </r>
       <r>    0.8509    1.0000 </r>
       <r>    2.1427    1.0000 </r>
       <r>    2.2715    1.0000 </r>
       <r>    2.8185    1.0000 </r>
       <r>    3.2120    1.0000 </r>
       <r>    3.3593    1.0000 </r>
       <r>    4.8986    0.0000 </r>
       <r>    5.3948    0.0000 </r>
       <r>   12.4922    0.0000 </r>
       <r>   13.2548    0.0000 </r>
      </set>
      <set comment="kpoint 17">
       <r>  -13.6571    1.0000 </r>
       <r>  -13.2076    1.0000 </r>
       <r>   -2.6894    1.0000 </r>
       <r>   -2.4468    1.0000 </r>
       <r>   -2.1951    1.0000 </r>
       <r>   -1.8344    1.0000 </r>
       <r>   -1.3352    1.0000 </r>
       <r>   -0.6661    1.0000 </r>
       <r>   -0.3208    1.0000 </r>
       <r>    0.2559    1.0000 </r>
       <r>    0.9829    1.0000 </r>
       <r>    2.0871    1.0000 </r>
       <r>    2.2808    1.0000 </r>
       <r>    2.7213    1.0000 </r>
       <r>    3.2844    1.0000 </r>
       <r>    3.4600    1.0000 </r>
       <r>    4.8293    0.0000 </r>
       <r>    5.5088    0.0000 </r>
       <r>   11.3594    0.0000 </r>
       <r>   13.7161    0.0000 </r>
[...]
        <r>  0.0055  0.0848  0.0811  0.0848  0.0000  0.0000  0.0000  0.0000  0.0000 </r>
       </set>
       <set comment="band 14">
        <r>  0.0212  0.0004  0.0002  0.0004  0.7550  0.0028  0.0272  0.0028  0.0000 </r>
        <r>  0.0019  0.0000  0.0011  0.0000  0.0220  0.0023  0.0062  0.0023  0.0000 </r>
        <r>  0.0035  0.0183  0.0076  0.0183  0.0000  0.0000  0.0000  0.0000  0.0000 </r>
        <r>  0.0035  0.0183  0.0076  0.0183  0.0000  0.0000  0.0000  0.0000  0.0000 </r>
       </set>
       <set comment="band 15">
        <r>  0.0000  0.0071  0.0000  0.0071  0.0000  0.2119  0.0000  0.2119  0.0176 </r>
        <r>  0.0000  0.0062  0.0000  0.0062  0.0000  0.0082  0.0000  0.0082  0.0496 </r>
        <r>  0.0000  0.0936  0.0000  0.0936  0.0000  0.0000  0.0000  0.0000  0.0000 </r>
        <r>  0.0000  0.0936  0.0000  0.0936  0.0000  0.0000  0.0000  0.0000  0.0000 </r>
       </set>
       <set comment="band 16">
        <r>  0.0027  0.0003  0.0110  0.0003  0.0038  0.3013  0.0238  0.3013  0.0000 </r>
        <r>  0.0072  0.0003  0.0062  0.0003  0.0001  0.0007  0.0009  0.0007  0.0000 </r>
        <r>  0.0020  0.0092  0.1149  0.0092  0.0000  0.0000  0.0000  0.0000  0.0000 </r>
        <r>  0.0020  0.0092  0.1149  0.0092  0.0000  0.0000  0.0000  0.0000  0.0000 </r>
       </set>
       <set comment="band 17">
        <r>  0.0004  0.0027  0.0009  0.0027  0.0119  0.0040  0.6282  0.0040  0.0000 </r>
        <r>  0.0299  0.0030  0.0040  0.0030  0.0000  0.0001  0.0177  0.0001  0.0000 </r>
        <r>  0.0187  0.0255  0.0371  0.0255  0.0000  0.0000  0.0000  0.0000  0.0000 </r>
        <r>  0.0187  0.0255  0.0371  0.0255  0.0000  0.0000  0.0000  0.0000  0.0000 </r>
       </set>
       <set comment="band 18">
        <r>  0.0000  0.0000  0.0000  0.0000  0.0000  0.0002  0.0000  0.0002  0.5031 </r>
        <r>  0.0000  0.0021  0.0000  0.0021  0.0000  0.0002  0.0000  0.0002  0.0510 </r>
        <r>  0.0000  0.0941  0.0000  0.0941  0.0000  0.0000  0.0000  0.0000  0.0000 </r>
        <r>  0.0000  0.0941  0.0000  0.0941  0.0000  0.0000  0.0000  0.0000  0.0000 </r>
       </set>
       <set comment="band 19">
        <r>  0.0881  0.0296  0.0003  0.0296  0.0001  0.0000  0.0104  0.0000  0.0000 </r>
        <r>  0.1009  0.0302  0.0003  0.0302  0.0001  0.0000  0.0058  0.0000  0.0000 </r>
        <r>  0.0637  0.0662  0.0003  0.0662  0.0000  0.0000  0.0000  0.0000  0.0000 </r>
        <r>  0.0637  0.0662  0.0003  0.0662  0.0000  0.0000  0.0000  0.0000  0.0000 </r>
       </set>
       <set comment="band 20">
        <r>  0.1392  0.0053  0.0117  0.0053  0.0005  0.0000  0.0242  0.0000  0.0000 </r>
        <r>  0.1242  0.0074  0.0115  0.0074  0.0005  0.0001  0.0211  0.0000  0.0000 </r>
        <r>  0.0527  0.0037  0.1419  0.0037  0.0000  0.0000  0.0000  0.0000  0.0000 </r>
        <r>  0.0527  0.0037  0.1419  0.0037  0.0000  0.0000  0.0000  0.0000  0.0000 </r>
       </set>
      </set>
      <set comment="kpoint 109">
       <set comment="band 1">
        <r>  0.0374  0.0043  0.0043  0.0043  0.0000  0.0000  0.0000  0.0000  0.0000 </r>
        <r>  0.0437  0.0037  0.0037  0.0037  0.0000  0.0000  0.0000  0.0000  0.0000 </r>
        <r>  0.3515  0.0002  0.0002  0.0002  0.0000  0.0000  0.0000  0.0000  0.0000 </r>
        <r>  0.3515  0.0002  0.0002  0.0002  0.0000  0.0000  0.0000  0.0000  0.0000 </r>
       </set>
       <set comment="band 2">
        <r>  0.0335  0.0052  0.0052  0.0052  0.0000  0.0000  0.0000  0.0000  0.0000 </r>
        <r>  0.0288  0.0060  0.0060  0.0060  0.0000  0.0000  0.0000  0.0000  0.0000 </r>
        <r>  0.3591  0.0002  0.0002  0.0002  0.0000  0.0000  0.0000  0.0000  0.0000 </r>
        <r>  0.3591  0.0002  0.0002  0.0002  0.0000  0.0000  0.0000  0.0000  0.0000 </r>
       </set>
       <set comment="band 3">
        <r>  0.0043  0.0022  0.0022  0.0022  0.0012  0.0012  0.0000  0.0012  0.0000 </r>
        <r>  0.0381  0.0001  0.0001  0.0001  0.2256  0.2256  0.0000  0.2256  0.0000 </r>
        <r>  0.0059  0.0213  0.0213  0.0213  0.0000  0.0000  0.0000  0.0000  0.0000 </r>
        <r>  0.0059  0.0213  0.0213  0.0213  0.0000  0.0000  0.0000  0.0000  0.0000 </r>
       </set>
       <set comment="band 4">
        <r>  0.0000  0.0004  0.0004  0.0004  0.0000  0.0000  0.0003  0.0000  0.0003 </r>
        <r>  0.0000  0.0000  0.0000  0.0000  0.0372  0.0370  0.3599  0.0373  0.3590 </r>
        <r>  0.0000  0.0179  0.0179  0.0178  0.0000  0.0000  0.0000  0.0000  0.0000 </r>
        <r>  0.0000  0.0179  0.0179  0.0178  0.0000  0.0000  0.0000  0.0000  0.0000 </r>
       </set>
       <set comment="band 5">
        <r>  0.0000  0.0004  0.0004  0.0004  0.0000  0.0000  0.0003  0.0000  0.0003 </r>
        <r>  0.0000  0.0000  0.0000  0.0000  0.0371  0.0374  0.3590  0.0370  0.3599 </r>
        <r>  0.0000  0.0178  0.0178  0.0180  0.0000  0.0000  0.0000  0.0000  0.0000 </r>
        <r>  0.0000  0.0178  0.0178  0.0180  0.0000  0.0000  0.0000  0.0000  0.0000 </r>
       </set>
       <set comment="band 6">
        <r>  0.0000  0.0001  0.0001  0.0001  0.0001  0.0001  0.0000  0.0001  0.0000 </r>
        <r>  0.0000  0.0000  0.0000  0.0000  0.2817  0.2824  0.0637  0.2814  0.0637 </r>
        <r>  0.0000  0.0002  0.0002  0.0002  0.0000  0.0000  0.0000  0.0000  0.0000 </r>
        <r>  0.0000  0.0002  0.0002  0.0002  0.0000  0.0000  0.0000  0.0000  0.0000 </r>
       </set>
       <set comment="band 7">
        <r>  0.0000  0.0001  0.0001  0.0001  0.0001  0.0001  0.0000  0.0001  0.0000 </r>
        <r>  0.0000  0.0000  0.0000  0.0000  0.2819  0.2813  0.0637  0.2823  0.0637 </r>
        <r>  0.0000  0.0002  0.0002  0.0002  0.0000  0.0000  0.0000  0.0000  0.0000 </r>
        <r>  0.0000  0.0002  0.0002  0.0002  0.0000  0.0000  0.0000  0.0000  0.0000 </r>
       </set>
       <set comment="band 8">
        <r>  0.1124  0.0000  0.0000  0.0000  0.0678  0.0678  0.0000  0.0678  0.0000 </r>
        <r>  0.0015  0.0040  0.0040  0.0040  0.0148  0.0148  0.0000  0.0148  0.0000 </r>
        <r>  0.0155  0.0603  0.0603  0.0603  0.0000  0.0000  0.0000  0.0000  0.0000 </r>
        <r>  0.0155  0.0603  0.0603  0.0603  0.0000  0.0000  0.0000  0.0000  0.0000 </r>
       </set>
       <set comment="band 9">
        <r>  0.0000  0.0000  0.0000  0.0000  0.0368  0.0370  0.1820  0.0366  0.1821 </r>
        <r>  0.0000  0.0027  0.0027  0.0027  0.0001  0.0001  0.0014  0.0001  0.0014 </r>
        <r>  0.0000  0.0625  0.0628  0.0631  0.0000  0.0000  0.0000  0.0000  0.0000 </r>
        <r>  0.0000  0.0625  0.0628  0.0631  0.0000  0.0000  0.0000  0.0000  0.0000 </r>
       </set>
       <set comment="band 10">
        <r>  0.0000  0.0000  0.0000  0.0000  0.0368  0.0366  0.1821  0.0370  0.1820 </r>
        <r>  0.0000  0.0027  0.0027  0.0027  0.0001  0.0001  0.0014  0.0001  0.0014 </r>
        <r>  0.0000  0.0631  0.0628  0.0625  0.0000  0.0000  0.0000  0.0000  0.0000 </r>
        <r>  0.0000  0.0631  0.0628  0.0625  0.0000  0.0000  0.0000  0.0000  0.0000 </r>
       </set>
       <set comment="band 11">
        <r>  0.0016  0.0017  0.0017  0.0017  0.0014  0.0014  0.0000  0.0014  0.0000 </r>
        <r>  0.1234  0.0002  0.0002  0.0002  0.0853  0.0853  0.0000  0.0853  0.0000 </r>
        <r>  0.0201  0.0652  0.0652  0.0652  0.0000  0.0000  0.0000  0.0000  0.0000 </r>
        <r>  0.0201  0.0652  0.0652  0.0652  0.0000  0.0000  0.0000  0.0000  0.0000 </r>
       </set>
       <set comment="band 12">
        <r>  0.0000  0.0000  0.0000  0.0000  0.2773  0.2771  0.0543  0.2773  0.0543 </r>
        <r>  0.0000  0.0000  0.0000  0.0000  0.0001  0.0001  0.0000  0.0001  0.0000 </r>
        <r>  0.0000  0.0039  0.0039  0.0039  0.0000  0.0000  0.0000  0.0000  0.0000 </r>
        <r>  0.0000  0.0039  0.0039  0.0039  0.0000  0.0000  0.0000  0.0000  0.0000 </r>
       </set>
       <set comment="band 13">
        <r>  0.0000  0.0000  0.0000  0.0000  0.2772  0.2773  0.0543  0.2772  0.0543 </r>
        <r>  0.0000  0.0000  0.0000  0.0000  0.0001  0.0001  0.0000  0.0001  0.0000 </r>
        <r>  0.0000  0.0039  0.0039  0.0039  0.0000  0.0000  0.0000  0.0000  0.0000 </r>
        <r>  0.0000  0.0039  0.0039  0.0039  0.0000  0.0000  0.0000  0.0000  0.0000 </r>
       </set>
       <set comment="band 14">
        <r>  0.0441  0.0000  0.0000  0.0000  0.2464  0.2464  0.0000  0.2464  0.0000 </r>
        <r>  0.0000  0.0000  0.0000  0.0000  0.0001  0.0001  0.0000  0.0001  0.0000 </r>
        <r>  0.0076  0.0213  0.0213  0.0213  0.0000  0.0000  0.0000  0.0000  0.0000 </r>
        <r>  0.0076  0.0213  0.0213  0.0213  0.0000  0.0000  0.0000  0.0000  0.0000 </r>
       </set>
       <set comment="band 15">
        <r>  0.0000  0.0058  0.0107  0.0034  0.0000  0.0000  0.0027  0.0000  0.0007 </r>
        <r>  0.0000  0.0002  0.0003  0.0001  0.0100  0.0031  0.1397  0.0054  0.0334 </r>
        <r>  0.0000  0.0944  0.1736  0.0546  0.0000  0.0000  0.0000  0.0000  0.0000 </r>
        <r>  0.0000  0.0944  0.1736  0.0546  0.0000  0.0000  0.0000  0.0000  0.0000 </r>
       </set>
       <set comment="band 16">
        <r>  0.0000  0.0074  0.0026  0.0099  0.0000  0.0000  0.0007  0.0000  0.0027 </r>
        <r>  0.0000  0.0002  0.0001  0.0003  0.0024  0.0092  0.0334  0.0069  0.1397 </r>
        <r>  0.0000  0.1206  0.0415  0.1604  0.0000  0.0000  0.0000  0.0000  0.0000 </r>
        <r>  0.0000  0.1207  0.0415  0.1604  0.0000  0.0000  0.0000  0.0000  0.0000 </r>
       </set>
       <set comment="band 17">
        <r>  0.0000  0.0000  0.0000  0.0000  0.0073  0.0073  0.2633  0.0073  0.2628 </r>
        <r>  0.0000  0.0053  0.0053  0.0053  0.0001  0.0001  0.0017  0.0001  0.0017 </r>
        <r>  0.0000  0.0598  0.0599  0.0598  0.0000  0.0000  0.0000  0.0000  0.0000 </r>
        <r>  0.0000  0.0598  0.0599  0.0598  0.0000  0.0000  0.0000  0.0000  0.0000 </r>
       </set>
       <set comment="band 18">
        <r>  0.0000  0.0000  0.0000  0.0000  0.0073  0.0073  0.2628  0.0073  0.2633 </r>
        <r>  0.0000  0.0053  0.0053  0.0053  0.0001  0.0001  0.0017  0.0001  0.0017 </r>
        <r>  0.0000  0.0599  0.0598  0.0599  0.0000  0.0000  0.0000  0.0000  0.0000 </r>
        <r>  0.0000  0.0599  0.0598  0.0599  0.0000  0.0000  0.0000  0.0000  0.0000 </r>
       </set>
       <set comment="band 19">
        <r>  0.0954  0.0193  0.0193  0.0193  0.0009  0.0009  0.0000  0.0009  0.0000 </r>
        <r>  0.1457  0.0120  0.0120  0.0120  0.0013  0.0013  0.0000  0.0013  0.0000 </r>
        <r>  0.0855  0.0331  0.0331  0.0331  0.0000  0.0000  0.0000  0.0000  0.0000 </r>
        <r>  0.0855  0.0331  0.0331  0.0331  0.0000  0.0000  0.0000  0.0000  0.0000 </r>
       </set>
       <set comment="band 20">
        <r>  0.1177  0.0190  0.0190  0.0190  0.0019  0.0019  0.0000  0.0019  0.0000 </r>
        <r>  0.0747  0.0280  0.0280  0.0280  0.0013  0.0013  0.0000  0.0013  0.0000 </r>
        <r>  0.0770  0.0315  0.0315  0.0315  0.0000  0.0000  0.0000  0.0000  0.0000 </r>
        <r>  0.0770  0.0315  0.0315  0.0315  0.0000  0.0000  0.0000  0.0000  0.0000 </r>
       </set>
      </set>
      <set comment="kpoint 110">
       <set comment="band 1">
        <r>  0.0317  0.0029  0.0029  0.0089  0.0000  0.0000  0.0004  0.0000  0.0012 </r>
        <r>  0.0378  0.0022  0.0022  0.0085  0.0000  0.0000  0.0005  0.0000  0.0016 </r>
        <r>  0.3559  0.0001  0.0001  0.0004  0.0000  0.0000  0.0000  0.0000  0.0000 </r>
        <r>  0.3559  0.0001  0.0001  0.0004  0.0000  0.0000  0.0000  0.0000  0.0000 </r>
       </set>
       <set comment="band 2">
        <r>  0.0337  0.0068  0.0068  0.0011  0.0000  0.0000  0.0002  0.0000  0.0007 </r>
        <r>  0.0294  0.0076  0.0076  0.0017  0.0000  0.0001  0.0005  0.0000  0.0014 </r>
        <r>  0.3586  0.0003  0.0003  0.0001  0.0000  0.0000  0.0000  0.0000  0.0000 </r>
        <r>  0.3586  0.0003  0.0003  0.0001  0.0000  0.0000  0.0000  0.0000  0.0000 </r>
       </set>
       <set comment="band 3">
        <r>  0.0213  0.0002  0.0002  0.0000  0.0009  0.0031  0.0001  0.0009  0.0004 </r>
        <r>  0.0009  0.0000  0.0000  0.0003  0.0031  0.1050  0.1563  0.0031  0.4688 </r>
        <r>  0.0010  0.0183  0.0183  0.0355  0.0000  0.0000  0.0000  0.0000  0.0000 </r>
        <r>  0.0010  0.0183  0.0183  0.0355  0.0000  0.0000  0.0000  0.0000  0.0000 </r>
       </set>
       <set comment="band 4">
        <r>  0.0000  0.0005  0.0005  0.0000  0.0001  0.0000  0.0030  0.0001  0.0010 </r>
        <r>  0.0000  0.0002  0.0002  0.0000  0.0383  0.0000  0.5613  0.0383  0.1871 </r>
        <r>  0.0000  0.0276  0.0276  0.0000  0.0000  0.0000  0.0000  0.0000  0.0000 </r>
        <r>  0.0000  0.0276  0.0276  0.0000  0.0000  0.0000  0.0000  0.0000  0.0000 </r>
       </set>
       <set comment="band 5">
        <r>  0.0000  0.0018  0.0018  0.0019  0.0000  0.0000  0.0017  0.0000  0.0051 </r>
        <r>  0.0342  0.0003  0.0003  0.0018  0.2343  0.2141  0.0046  0.2343  0.0138 </r>
        <r>  0.0049  0.0149  0.0149  0.0300  0.0000  0.0000  0.0000  0.0000  0.0000 </r>
        <r>  0.0049  0.0149  0.0149  0.0300  0.0000  0.0000  0.0000  0.0000  0.0000 </r>
       </set>
       <set comment="band 6">
        <r>  0.0006  0.0000  0.0000  0.0014  0.0024  0.0010  0.0013  0.0024  0.0040 </r>
        <r>  0.0006  0.0000  0.0000  0.0005  0.1636  0.5012  0.0248  0.1636  0.0745 </r>
        <r>  0.0001  0.0001  0.0001  0.0093  0.0000  0.0000  0.0000  0.0000  0.0000 </r>
        <r>  0.0001  0.0001  0.0001  0.0093  0.0000  0.0000  0.0000  0.0000  0.0000 </r>
       </set>
       <set comment="band 7">
        <r>  0.0000  0.0004  0.0004  0.0000  0.0001  0.0000  0.0029  0.0001  0.0010 </r>
        <r>  0.0000  0.0002  0.0002  0.0000  0.4347  0.0000  0.0627  0.4347  0.0209 </r>
        <r>  0.0000  0.0028  0.0028  0.0000  0.0000  0.0000  0.0000  0.0000  0.0000 </r>
        <r>  0.0000  0.0028  0.0028  0.0000  0.0000  0.0000  0.0000  0.0000  0.0000 </r>
       </set>
       <set comment="band 8">
        <r>  0.0878  0.0011  0.0011  0.0022  0.0550  0.0927  0.0035  0.0550  0.0104 </r>
        <r>  0.0043  0.0045  0.0045  0.0035  0.0042  0.0096  0.0172  0.0042  0.0516 </r>
        <r>  0.0142  0.0705  0.0705  0.0316  0.0000  0.0000  0.0000  0.0000  0.0000 </r>
        <r>  0.0142  0.0705  0.0705  0.0316  0.0000  0.0000  0.0000  0.0000  0.0000 </r>
       </set>
       <set comment="band 9">
        <r>  0.0038  0.0002  0.0002  0.0028  0.0289  0.0201  0.0423  0.0289  0.1270 </r>
        <r>  0.0656  0.0000  0.0000  0.0015  0.0191  0.0971  0.0049  0.0191  0.0148 </r>
        <r>  0.0101  0.0300  0.0300  0.1078  0.0000  0.0000  0.0000  0.0000  0.0000 </r>
        <r>  0.0101  0.0300  0.0300  0.1078  0.0000  0.0000  0.0000  0.0000  0.0000 </r>
       </set>
       <set comment="band 10">
        <r>  0.0000  0.0014  0.0014  0.0000  0.0530  0.0000  0.2635  0.0530  0.0878 </r>
        <r>  0.0000  0.0042  0.0042  0.0000  0.0058  0.0000  0.0103  0.0058  0.0034 </r>
        <r>  0.0000  0.0929  0.0929  0.0000  0.0000  0.0000  0.0000  0.0000  0.0000 </r>
        <r>  0.0000  0.0929  0.0929  0.0000  0.0000  0.0000  0.0000  0.0000  0.0000 </r>
       </set>
       <set comment="band 11">
        <r>  0.0003  0.0024  0.0024  0.0080  0.0161  0.0460  0.0244  0.0161  0.0731 </r>
        <r>  0.0483  0.0022  0.0022  0.0088  0.0608  0.0276  0.0001  0.0608  0.0002 </r>
        <r>  0.0078  0.0527  0.0527  0.1104  0.0000  0.0000  0.0000  0.0000  0.0000 </r>
        <r>  0.0078  0.0527  0.0527  0.1104  0.0000  0.0000  0.0000  0.0000  0.0000 </r>
       </set>
       <set comment="band 12">
        <r>  0.0111  0.0013  0.0013  0.0008  0.1628  0.1934  0.0340  0.1628  0.1019 </r>
        <r>  0.0008  0.0004  0.0004  0.0022  0.0008  0.0031  0.0188  0.0008  0.0565 </r>
        <r>  0.0036  0.0173  0.0173  0.0465  0.0000  0.0000  0.0000  0.0000  0.0000 </r>
        <r>  0.0036  0.0173  0.0173  0.0465  0.0000  0.0000  0.0000  0.0000  0.0000 </r>
       </set>
       <set comment="band 13">
        <r>  0.0000  0.0011  0.0011  0.0000  0.3515  0.0000  0.0934  0.3515  0.0311 </r>
        <r>  0.0000  0.0005  0.0005  0.0000  0.0005  0.0000  0.0267  0.0005  0.0089 </r>
        <r>  0.0000  0.0205  0.0205  0.0000  0.0000  0.0000  0.0000  0.0000  0.0000 </r>
        <r>  0.0000  0.0205  0.0205  0.0000  0.0000  0.0000  0.0000  0.0000  0.0000 </r>
       </set>
       <set comment="band 14">
        <r>  0.0391  0.0000  0.0000  0.0010  0.0304  0.5840  0.0024  0.0304  0.0071 </r>
        <r>  0.0002  0.0001  0.0001  0.0017  0.0020  0.0134  0.0095  0.0020  0.0284 </r>
        <r>  0.0081  0.0238  0.0238  0.0287  0.0000  0.0000  0.0000  0.0000  0.0000 </r>
        <r>  0.0081  0.0238  0.0238  0.0287  0.0000  0.0000  0.0000  0.0000  0.0000 </r>
       </set>
       <set comment="band 15">
        <r>  0.0000  0.0091  0.0091  0.0000  0.0733  0.0000  0.0066  0.0733  0.0022 </r>
        <r>  0.0000  0.0035  0.0035  0.0000  0.0096  0.0000  0.0897  0.0096  0.0299 </r>
        <r>  0.0000  0.1389  0.1389  0.0000  0.0000  0.0000  0.0000  0.0000  0.0000 </r>
        <r>  0.0000  0.1389  0.1389  0.0000  0.0000  0.0000  0.0000  0.0000  0.0000 </r>
       </set>
       <set comment="band 16">
        <r>  0.0012  0.0018  0.0018  0.0103  0.1821  0.0025  0.0009  0.1821  0.0027 </r>
        <r>  0.0008  0.0006  0.0006  0.0081  0.0017  0.0046  0.0143  0.0017  0.0430 </r>
        <r>  0.0001  0.0326  0.0326  0.1542  0.0000  0.0000  0.0000  0.0000  0.0000 </r>
        <r>  0.0001  0.0326  0.0326  0.1542  0.0000  0.0000  0.0000  0.0000  0.0000 </r>
       </set>
       <set comment="band 17">
        <r>  0.0004  0.0022  0.0022  0.0020  0.0009  0.0144  0.1361  0.0009  0.4083 </r>
        <r>  0.0176  0.0033  0.0033  0.0028  0.0007  0.0002  0.0034  0.0007  0.0101 </r>
        <r>  0.0086  0.0330  0.0330  0.0807  0.0000  0.0000  0.0000  0.0000  0.0000 </r>
        <r>  0.0086  0.0330  0.0330  0.0807  0.0000  0.0000  0.0000  0.0000  0.0000 </r>
       </set>
       <set comment="band 18">
        <r>  0.0000  0.0000  0.0000  0.0000  0.0053  0.0000  0.3840  0.0053  0.1280 </r>
        <r>  0.0000  0.0051  0.0051  0.0000  0.0000  0.0000  0.0197  0.0000  0.0066 </r>
        <r>  0.0000  0.0928  0.0928  0.0000  0.0000  0.0000  0.0000  0.0000  0.0000 </r>
        <r>  0.0000  0.0928  0.0928  0.0000  0.0000  0.0000  0.0000  0.0000  0.0000 </r>
       </set>
       <set comment="band 19">
        <r>  0.0686  0.0179  0.0179  0.0258  0.0004  0.0005  0.0037  0.0004  0.0111 </r>
        <r>  0.1549  0.0049  0.0049  0.0180  0.0009  0.0011  0.0013  0.0009  0.0040 </r>
        <r>  0.0720  0.0133  0.0133  0.0970  0.0000  0.0000  0.0000  0.0000  0.0000 </r>
        <r>  0.0720  0.0133  0.0133  0.0970  0.0000  0.0000  0.0000  0.0000  0.0000 </r>
       </set>
       <set comment="band 20">
        <r>  0.1450  0.0177  0.0177  0.0023  0.0010  0.0011  0.0008  0.0010  0.0023 </r>
        <r>  0.0592  0.0330  0.0330  0.0124  0.0004  0.0005  0.0015  0.0004  0.0045 </r>
        <r>  0.0731  0.0544  0.0544  0.0064  0.0000  0.0000  0.0000  0.0000  0.0000 </r>
        <r>  0.0731  0.0545  0.0545  0.0065  0.0000  0.0000  0.0000  0.0000  0.0000 </r>
       </set>
      </set>
     </set>
    </set>
   </array>
  </projected>
 </calculation>
 <structure name="finalpos" >
  <crystal>
   <varray name="basis" >
    <v>       4.17000000       2.08500000       2.08500000 </v>
    <v>       2.08500000       4.17000000       2.08500000 </v>
    <v>       2.08500000       2.08500000       4.17000000 </v>
   </varray>
   <i name="volume">     36.25585650 </i>
   <varray name="rec_basis" >
    <v>       0.35971223      -0.11990408      -0.11990408 </v>
    <v>      -0.11990408       0.35971223      -0.11990408 </v>
    <v>      -0.11990408      -0.11990408       0.35971223 </v>
   </varray>
  </crystal>
  <varray name="positions" >
   <v>       0.00000000       0.00000000       0.00000000 </v>
   <v>       0.50000000       0.50000000       0.50000000 </v>
   <v>       0.25000000       0.25000000       0.25000000 </v>
   <v>       0.75000000       0.75000000       0.75000000 </v>
  </varray>
 </structure>
</modeling>
