BN                                      
   2.50000000000000     
     1.000000    0.000000    0.000000
    -0.500000    0.866025    0.000000
     0.000000    0.000000    2.672000
   B    N 
     2     2
Direct
  0.000000  0.000000  0.000000
  0.333333  0.666667  0.000000
  0.000000  0.000000  0.500000
  0.333333  0.666667  0.500000
 
   24   24   72
  14.819      17.870      25.321      33.352      38.667      40.211      38.872      36.110      32.982      30.087    
  27.790      26.323      25.820      26.323      27.789      30.087      32.981      36.110      38.872      40.211    
  38.667      33.352      25.321      17.870      17.870      17.875      22.652      29.475      34.927      37.084    
  36.127      33.380      30.087      26.972      24.421      22.643      21.739      21.740      22.642      24.416    
  26.968      30.091      33.386      36.129      37.085      34.928      29.472      22.643      25.321      23.552    
  25.321      29.471      33.444      35.150      34.136      31.290      27.790      24.421      21.595      19.514    
  18.260      17.844      18.260      19.514      21.596      24.422      27.790      31.290      34.136      35.150    
  33.444      29.472      33.352      31.918      31.915      33.346      34.927      35.152      33.404      30.153    
  26.323      22.643      19.514      17.124      15.537      14.751      14.750      15.536      17.128      19.518    
  22.642      26.321      30.152      33.403      35.150      34.928      38.667      39.176      39.239      39.176    
  38.668      37.085      34.136      30.152      25.820      21.739      18.260      15.537      13.611      12.473    
  12.097      12.473      13.611      15.537      18.260      21.739      25.820      30.152      34.136      37.085    
  40.211      43.058      44.483      44.483      43.057      40.209      36.128      31.291      26.323      21.740    
  17.844      14.751      12.473      10.983      10.251      10.252      10.984      12.472      14.750      17.843    
  21.739      26.321      31.290      36.129      38.872      43.524      46.641      47.737      46.641      43.524    
  38.872      33.385      27.789      22.642      18.260      14.750      12.097      10.251      9.1637      8.8052    
  9.1638      10.251      12.097      14.750      18.260      22.642      27.790      33.386      36.110      41.794    
  46.284      48.775      48.778      46.290      41.799      36.111      30.087      24.416      19.514      15.536    
  12.473      10.252      8.8052      8.0916      8.0920      8.8055      10.251      12.472      15.537      19.518    
  24.422      30.091      32.981      39.076      44.431      48.135      49.462      48.135      44.431      39.076    
  32.981      26.968      21.596      17.128      13.611      10.984      9.1638      8.0920      7.7377      8.0920    
  9.1638      10.984      13.611      17.128      21.596      26.968      30.087      36.111      41.799      46.290    
  48.778      48.775      46.284      41.794      36.110      30.091      24.422      19.518      15.537      12.472    
  10.251      8.8055      8.0920      8.0916      8.8052      10.252      12.473      15.536      19.514      24.416    
  27.789      33.385      38.872      43.524      46.641      47.737      46.641      43.524      38.872      33.386    
  27.790      22.642      18.260      14.750      12.097      10.251      9.1638      8.8052      9.1637      10.251    
  12.097      14.750      18.260      22.642      26.323      31.291      36.128      40.209      43.057      44.483    
  44.483      43.058      40.211      36.129      31.290      26.321      21.739      17.843      14.750      12.472    
  10.984      10.252      10.251      10.983      12.473      14.751      17.844      21.740      25.820      30.152    
  34.136      37.085      38.668      39.176      39.239      39.176      38.667      37.085      34.136      30.152    
  25.820      21.739      18.260      15.537      13.611      12.473      12.097      12.473      13.611      15.537    
  18.260      21.739      26.323      30.153      33.404      35.152      34.927      33.346      31.915      31.918    
  33.352      34.928      35.150      33.403      30.152      26.321      22.642      19.518      17.128      15.536    
  14.750      14.751      15.537      17.124      19.514      22.643      27.790      31.290      34.136      35.150    
  33.444      29.471      25.321      23.552      25.321      29.472      33.444      35.150      34.136      31.290    
  27.790      24.422      21.596      19.514      18.260      17.844      18.260      19.514      21.595      24.421    
  30.087      33.380      36.127      37.084      34.927      29.475      22.652      17.875      17.870      22.643    
  29.472      34.928      37.085      36.129      33.386      30.091      26.968      24.416      22.642      21.740    
  21.739      22.643      24.421      26.972      32.982      36.110      38.872      40.211      38.667      33.352    
  25.321      17.870      14.819      17.870      25.321      33.352      38.667      40.211      38.872      36.110    
  32.981      30.087      27.789      26.323      25.820      26.323      27.790      30.087      36.110      39.082    
  41.800      43.524      43.056      39.177      31.915      23.543      17.870      17.875      23.552      31.918    
  39.176      43.058      43.524      41.794      39.076      36.111      33.385      31.291      30.152      30.153    
  31.290      33.380      38.872      41.800      44.431      46.284      46.641      44.483      39.239      31.915    
  25.321      22.652      25.321      31.915      39.239      44.483      46.641      46.284      44.431      41.799    
  38.872      36.128      34.136      33.404      34.136      36.127      40.211      43.524      46.284      48.130    
  48.778      47.741      44.483      39.177      33.352      29.475      29.471      33.346      39.176      44.483    
  47.737      48.775      48.135      46.290      43.524      40.209      37.085      35.152      35.150      37.084    
  38.667      43.056      46.641      48.778      49.462      48.778      46.641      43.056      38.667      34.927    
  33.444      34.927      38.668      43.057      46.641      48.778      49.462      48.778      46.641      43.057    
  38.668      34.927      33.444      34.927      33.352      39.177      44.483      47.741      48.778      48.130    
  46.284      43.524      40.211      37.084      35.150      35.152      37.085      40.209      43.524      46.290    
  48.135      48.775      47.737      44.483      39.176      33.346      29.471      29.475      25.321      31.915    
  39.239      44.483      46.641      46.284      44.431      41.800      38.872      36.127      34.136      33.404    
  34.136      36.128      38.872      41.799      44.431      46.284      46.641      44.483      39.239      31.915    
  25.321      22.652      17.870      23.543      31.915      39.177      43.056      43.524      41.800      39.082    
  36.110      33.380      31.290      30.153      30.152      31.291      33.385      36.111      39.076      41.794    
  43.524      43.058      39.176      31.918      23.552      17.875      15.251      18.153      25.238      32.870    
  37.910      39.347      38.027      35.340      32.300      29.489      27.256      25.830      25.341      25.830    
  27.256      29.488      32.300      35.340      38.027      39.347      37.910      32.870      25.238      18.153    
  18.153      18.158      22.693      29.166      34.325      36.337      35.373      32.694      29.489      26.457    
  23.974      22.241      21.361      21.362      22.241      23.969      26.454      29.492      32.699      35.375    
  36.338      34.326      29.163      22.685      25.238      23.563      25.238      29.163      32.904      34.477    
  33.448      30.666      27.256      23.974      21.220      19.189      17.964      17.557      17.964      19.189    
  21.220      23.975      27.257      30.666      33.448      34.477      32.905      29.163      32.870      31.529    
  31.526      32.865      34.325      34.478      32.741      29.564      25.830      22.241      19.189      16.854    
  15.302      14.533      14.531      15.301      16.858      19.193      22.241      25.828      29.562      32.740    
  34.477      34.326      37.910      38.437      38.511      38.437      37.910      36.338      33.449      29.563    
  25.341      21.361      17.964      15.302      13.416      12.301      11.933      12.301      13.416      15.302    
  17.963      21.360      25.340      29.562      33.448      36.338      39.347      42.121      43.512      43.512    
  42.120      39.345      35.373      30.667      25.830      21.362      17.557      14.533      12.301      10.840    
  10.121      10.122      10.841      12.300      14.531      17.556      21.360      25.828      30.666      35.375    
  38.027      42.540      45.563      46.626      45.563      42.540      38.027      32.698      27.256      22.241    
  17.964      14.531      11.933      10.121      9.0540      8.7018      9.0541      10.121      11.932      14.531    
  17.963      22.241      27.257      32.699      35.340      40.854      45.205      47.617      47.620      45.211    
  40.859      35.341      29.488      23.969      19.189      15.301      12.301      10.122      8.7018      8.0008    
  8.0011      8.7022      10.121      12.300      15.302      19.193      23.975      29.492      32.300      38.215    
  43.407      46.994      48.280      46.994      43.407      38.215      32.300      26.454      21.220      16.858    
  13.416      10.841      9.0541      8.0011      7.6529      8.0011      9.0541      10.841      13.416      16.858    
  21.220      26.454      29.488      35.341      40.859      45.211      47.620      47.617      45.205      40.854    
  35.340      29.492      23.975      19.193      15.302      12.300      10.121      8.7022      8.0011      8.0008    
  8.7018      10.122      12.301      15.301      19.189      23.969      27.256      32.698      38.027      42.540    
  45.563      46.626      45.563      42.540      38.027      32.699      27.257      22.241      17.963      14.531    
  11.932      10.121      9.0541      8.7018      9.0540      10.121      11.933      14.531      17.964      22.241    
  25.830      30.667      35.373      39.345      42.120      43.512      43.512      42.121      39.347      35.375    
  30.666      25.828      21.360      17.556      14.531      12.300      10.841      10.122      10.121      10.840    
  12.301      14.533      17.557      21.362      25.341      29.563      33.449      36.338      37.910      38.437    
  38.511      38.437      37.910      36.338      33.448      29.562      25.340      21.360      17.963      15.302    
  13.416      12.301      11.933      12.301      13.416      15.302      17.964      21.361      25.830      29.564    
  32.741      34.478      34.325      32.865      31.526      31.529      32.870      34.326      34.477      32.740    
  29.562      25.828      22.241      19.193      16.858      15.301      14.531      14.533      15.302      16.854    
  19.189      22.241      27.256      30.666      33.448      34.477      32.904      29.163      25.238      23.563    
  25.238      29.163      32.905      34.477      33.448      30.666      27.257      23.975      21.220      19.189    
  17.964      17.557      17.964      19.189      21.220      23.974      29.489      32.694      35.373      36.337    
  34.325      29.166      22.693      18.158      18.153      22.685      29.163      34.326      36.338      35.375    
  32.699      29.492      26.454      23.969      22.241      21.362      21.361      22.241      23.974      26.457    
  32.300      35.340      38.027      39.347      37.910      32.870      25.238      18.153      15.251      18.153    
  25.238      32.870      37.910      39.347      38.027      35.340      32.300      29.488      27.256      25.830    
  25.341      25.830      27.256      29.489      35.340      38.221      40.859      42.540      42.120      38.437    
  31.526      23.555      18.153      18.158      23.563      31.529      38.437      42.121      42.540      40.854    
  38.215      35.341      32.698      30.667      29.563      29.564      30.666      32.694      38.027      40.859    
  43.407      45.205      45.563      43.512      38.512      31.526      25.238      22.693      25.238      31.526    
  38.511      43.512      45.563      45.205      43.407      40.859      38.027      35.373      33.449      32.741    
  33.448      35.373      39.347      42.540      45.205      46.990      47.620      46.630      43.512      38.437    
  32.870      29.166      29.163      32.865      38.437      43.512      46.626      47.617      46.994      45.211    
  42.540      39.345      36.338      34.478      34.477      36.337      37.910      42.120      45.563      47.620    
  48.280      47.620      45.563      42.120      37.910      34.325      32.904      34.325      37.910      42.120    
  45.563      47.620      48.280      47.620      45.563      42.120      37.910      34.325      32.904      34.325    
  32.870      38.437      43.512      46.630      47.620      46.990      45.205      42.540      39.347      36.337    
  34.477      34.478      36.338      39.345      42.540      45.211      46.994      47.617      46.626      43.512    
  38.437      32.865      29.163      29.166      25.238      31.526      38.512      43.512      45.563      45.205    
  43.407      40.859      38.027      35.373      33.448      32.741      33.449      35.373      38.027      40.859    
  43.407      45.205      45.563      43.512      38.511      31.526      25.238      22.693      18.153      23.555    
  31.526      38.437      42.120      42.540      40.859      38.221      35.340      32.694      30.666      29.564    
  29.563      30.667      32.698      35.341      38.215      40.854      42.540      42.121      38.437      31.529    
  23.563      18.158      16.402      18.894      24.974      31.506      35.780      36.917      35.641      33.159    
  30.367      27.788      25.737      24.425      23.974      24.425      25.737      27.787      30.367      33.159    
  35.641      36.917      35.780      31.506      24.974      18.894      18.894      18.898      22.771      28.281    
  32.629      34.235      33.243      30.747      27.788      24.992      22.699      21.094      20.277      20.278    
  21.094      22.695      24.989      27.790      30.751      33.245      34.235      32.630      28.278      22.763    
  24.974      23.558      24.974      28.278      31.381      32.580      31.507      28.898      25.737      22.699    
  20.145      18.256      17.113      16.732      17.113      18.256      20.145      22.699      25.738      28.898    
  31.506      32.580      31.382      28.278      31.506      30.421      30.418      31.502      32.629      32.581    
  30.869      27.891      24.425      21.094      18.256      16.078      14.624      13.901      13.900      14.623    
  16.081      18.260      21.094      24.423      27.890      30.868      32.580      32.630      35.780      36.359    
  36.466      36.359      35.781      34.235      31.507      27.891      23.974      20.277      17.113      14.624    
  12.854      11.803      11.455      11.803      12.854      14.624      17.113      20.276      23.974      27.890    
  31.506      34.235      36.917      39.492      40.788      40.788      39.491      36.915      33.244      28.899    
  24.425      20.278      16.732      13.901      11.803      10.425      9.7453      9.7459      10.426      11.802    
  13.899      16.731      20.276      24.423      28.898      33.245      35.641      39.772      42.536      43.507    
  42.536      39.772      35.641      30.751      25.737      21.094      17.113      13.900      11.455      9.7453    
  8.7349      8.4010      8.7350      9.7453      11.455      13.899      17.113      21.094      25.738      30.751    
  33.159      38.200      42.166      44.361      44.363      42.171      38.204      33.160      27.787      22.695    
  18.256      14.623      11.803      9.7459      8.4010      7.7361      7.7364      8.4014      9.7453      11.802    
  14.624      18.260      22.699      27.790      30.367      35.782      40.518      43.783      44.951      43.783    
  40.518      35.782      30.367      24.989      20.145      16.081      12.854      10.426      8.7350      7.7364    
  7.4059      7.7364      8.7350      10.426      12.854      16.081      20.145      24.989      27.787      33.160    
  38.204      42.171      44.363      44.361      42.166      38.200      33.159      27.790      22.699      18.260    
  14.624      11.802      9.7453      8.4014      7.7364      7.7361      8.4010      9.7459      11.803      14.623    
  18.256      22.695      25.737      30.751      35.641      39.772      42.536      43.507      42.536      39.772    
  35.641      30.751      25.738      21.094      17.113      13.899      11.455      9.7453      8.7350      8.4010    
  8.7349      9.7453      11.455      13.900      17.113      21.094      24.425      28.899      33.244      36.915    
  39.491      40.788      40.788      39.492      36.917      33.245      28.898      24.423      20.276      16.731    
  13.899      11.802      10.426      9.7459      9.7453      10.425      11.803      13.901      16.732      20.278    
  23.974      27.891      31.507      34.235      35.781      36.359      36.466      36.359      35.780      34.235    
  31.506      27.890      23.974      20.276      17.113      14.624      12.854      11.803      11.455      11.803    
  12.854      14.624      17.113      20.277      24.425      27.891      30.869      32.581      32.629      31.502    
  30.418      30.421      31.506      32.630      32.580      30.868      27.890      24.423      21.094      18.260    
  16.081      14.623      13.900      13.901      14.624      16.078      18.256      21.094      25.737      28.898    
  31.507      32.580      31.381      28.278      24.974      23.558      24.974      28.278      31.382      32.580    
  31.506      28.898      25.738      22.699      20.145      18.256      17.113      16.732      17.113      18.256    
  20.145      22.699      27.788      30.747      33.243      34.235      32.629      28.281      22.771      18.898    
  18.894      22.763      28.278      32.630      34.235      33.245      30.751      27.790      24.989      22.695    
  21.094      20.278      20.277      21.094      22.699      24.992      30.367      33.159      35.641      36.917    
  35.780      31.506      24.974      18.894      16.402      18.894      24.974      31.506      35.780      36.917    
  35.641      33.159      30.367      27.787      25.737      24.425      23.974      24.425      25.737      27.788    
  33.159      35.787      38.204      39.772      39.490      36.359      30.419      23.551      18.894      18.898    
  23.558      30.421      36.359      39.492      39.772      38.200      35.782      33.160      30.751      28.899    
  27.891      27.891      28.898      30.747      35.641      38.204      40.518      42.166      42.536      40.788    
  36.467      30.419      24.974      22.771      24.974      30.418      36.466      40.788      42.536      42.166    
  40.518      38.204      35.641      33.244      31.507      30.869      31.507      33.243      36.917      39.772    
  42.166      43.779      44.363      43.511      40.788      36.359      31.506      28.281      28.278      31.502    
  36.359      40.788      43.507      44.361      43.783      42.171      39.772      36.915      34.235      32.581    
  32.580      34.235      35.780      39.490      42.536      44.363      44.951      44.363      42.536      39.490    
  35.780      32.629      31.381      32.629      35.781      39.491      42.536      44.363      44.951      44.363    
  42.536      39.491      35.781      32.629      31.381      32.629      31.506      36.359      40.788      43.511    
  44.363      43.779      42.166      39.772      36.917      34.235      32.580      32.581      34.235      36.915    
  39.772      42.171      43.783      44.361      43.507      40.788      36.359      31.502      28.278      28.281    
  24.974      30.419      36.467      40.788      42.536      42.166      40.518      38.204      35.641      33.243    
  31.507      30.869      31.507      33.244      35.641      38.204      40.518      42.166      42.536      40.788    
  36.466      30.418      24.974      22.771      18.894      23.551      30.419      36.359      39.490      39.772    
  38.204      35.787      33.159      30.747      28.898      27.891      27.891      28.899      30.751      33.160    
  35.782      38.200      39.772      39.492      36.359      30.421      23.558      18.898      17.833      19.757    
  24.439      29.433      32.624      33.325      32.102      29.913      27.481      25.237      23.451      22.304    
  21.909      22.304      23.451      25.237      27.481      29.913      32.102      33.325      32.624      29.433    
  24.439      19.757      19.757      19.760      22.713      26.881      30.091      31.116      30.078      27.840    
  25.237      22.786      20.771      19.354      18.629      18.630      19.354      20.767      22.784      25.239    
  27.843      30.079      31.117      30.092      26.879      22.707      24.439      23.381      24.438      26.879    
  29.089      29.758      28.615      26.250      23.451      20.771      18.512      16.833      15.811      15.469    
  15.811      16.833      18.512      20.771      23.451      26.250      28.615      29.758      29.090      26.879    
  29.433      28.703      28.701      29.429      30.091      29.759      28.078      25.383      22.304      19.354    
  16.833      14.888      13.580      12.927      12.926      13.580      14.890      16.836      19.354      22.303    
  25.383      28.078      29.758      30.092      32.624      33.274      33.427      33.274      32.625      31.117    
  28.615      25.383      21.909      18.629      15.811      13.580      11.984      11.030      10.714      11.031    
  11.984      13.580      15.810      18.629      21.909      25.383      28.615      31.117      33.325      35.617    
  36.781      36.781      35.617      33.323      30.078      26.251      22.304      18.630      15.469      12.927    
  11.030      9.7782      9.1578      9.1583      9.7786      11.030      12.925      15.468      18.629      22.303    
  26.250      30.079      32.102      35.689      38.085      38.926      38.085      35.689      32.102      27.843    
  23.451      19.354      15.811      12.926      10.714      9.1578      8.2346      7.9288      8.2347      9.1578    
  10.714      12.925      15.810      19.354      23.451      27.843      29.913      34.273      37.687      39.572    
  39.574      37.691      34.276      29.914      25.237      20.767      16.833      13.580      11.031      9.1583    
  7.9288      7.3195      7.3198      7.9291      9.1578      11.030      13.580      16.836      20.771      25.239    
  27.481      32.173      36.252      39.054      40.054      39.054      36.252      32.173      27.481      22.784    
  18.512      14.890      11.984      9.7786      8.2347      7.3198      7.0166      7.3198      8.2347      9.7786    
  11.984      14.890      18.512      22.784      25.237      29.914      34.276      37.691      39.574      39.572    
  37.687      34.273      29.913      25.239      20.771      16.836      13.580      11.030      9.1578      7.9291    
  7.3198      7.3195      7.9288      9.1583      11.031      13.580      16.833      20.767      23.451      27.843    
  32.102      35.689      38.085      38.926      38.085      35.689      32.102      27.843      23.451      19.354    
  15.810      12.925      10.714      9.1578      8.2347      7.9288      8.2346      9.1578      10.714      12.926    
  15.811      19.354      22.304      26.251      30.078      33.323      35.617      36.781      36.781      35.617    
  33.325      30.079      26.250      22.303      18.629      15.468      12.925      11.030      9.7786      9.1583    
  9.1578      9.7782      11.030      12.927      15.469      18.630      21.909      25.383      28.615      31.117    
  32.625      33.274      33.427      33.274      32.624      31.117      28.615      25.383      21.909      18.629    
  15.810      13.580      11.984      11.031      10.714      11.030      11.984      13.580      15.811      18.629    
  22.304      25.383      28.078      29.759      30.091      29.429      28.701      28.703      29.433      30.092    
  29.758      28.078      25.383      22.303      19.354      16.836      14.890      13.580      12.926      12.927    
  13.580      14.888      16.833      19.354      23.451      26.250      28.615      29.758      29.089      26.879    
  24.438      23.381      24.439      26.879      29.090      29.758      28.615      26.250      23.451      20.771    
  18.512      16.833      15.811      15.469      15.811      16.833      18.512      20.771      25.237      27.840    
  30.078      31.116      30.091      26.881      22.713      19.760      19.757      22.707      26.879      30.092    
  31.117      30.079      27.843      25.239      22.784      20.767      19.354      18.630      18.629      19.354    
  20.771      22.786      27.481      29.913      32.102      33.325      32.624      29.433      24.439      19.757    
  17.833      19.757      24.439      29.433      32.624      33.325      32.102      29.913      27.481      25.237    
  23.451      22.304      21.909      22.304      23.451      25.237      29.913      32.176      34.276      35.689    
  35.616      33.274      28.701      23.376      19.757      19.760      23.381      28.703      33.274      35.617    
  35.689      34.273      32.173      29.914      27.843      26.251      25.383      25.383      26.250      27.840    
  32.102      34.276      36.252      37.687      38.085      36.781      33.427      28.701      24.439      22.713    
  24.438      28.701      33.427      36.781      38.085      37.687      36.252      34.276      32.102      30.078    
  28.615      28.078      28.615      30.078      33.325      35.689      37.687      39.051      39.574      38.929    
  36.781      33.274      29.433      26.881      26.879      29.429      33.274      36.781      38.926      39.572    
  39.054      37.691      35.689      33.323      31.117      29.759      29.758      31.116      32.624      35.616    
  38.085      39.574      40.054      39.574      38.085      35.616      32.624      30.091      29.089      30.091    
  32.625      35.617      38.085      39.574      40.054      39.574      38.085      35.617      32.625      30.091    
  29.089      30.091      29.433      33.274      36.781      38.929      39.574      39.051      37.687      35.689    
  33.325      31.116      29.758      29.759      31.117      33.323      35.689      37.691      39.054      39.572    
  38.926      36.781      33.274      29.429      26.879      26.881      24.439      28.701      33.427      36.781    
  38.085      37.687      36.252      34.276      32.102      30.078      28.615      28.078      28.615      30.078    
  32.102      34.276      36.252      37.687      38.085      36.781      33.427      28.701      24.438      22.713    
  19.757      23.376      28.701      33.274      35.616      35.689      34.276      32.176      29.913      27.840    
  26.250      25.383      25.383      26.251      27.843      29.914      32.173      34.273      35.689      35.617    
  33.274      28.703      23.381      19.760      18.912      20.233      23.433      26.792      28.826      29.059    
  27.905      26.055      24.036      22.175      20.690      19.732      19.402      19.732      20.690      22.175    
  24.036      26.055      27.905      29.059      28.826      26.792      23.433      20.233      20.233      20.236    
  22.217      24.966      26.967      27.377      26.299      24.362      22.175      20.122      18.427      17.229    
  16.612      16.613      17.229      18.425      20.121      22.177      24.365      26.300      27.377      26.968    
  24.965      22.213      23.433      22.754      23.433      24.965      26.234      26.348      25.144      23.065    
  20.690      18.427      16.513      15.080      14.201      13.906      14.201      15.080      16.513      18.427    
  20.690      23.065      25.144      26.348      26.235      24.965      26.792      26.432      26.431      26.789    
  26.968      26.348      24.721      22.358      19.732      17.229      15.080      13.410      12.278      11.708    
  11.707      12.277      13.411      15.082      17.229      19.731      22.357      24.720      26.348      26.968    
  28.826      29.538      29.736      29.538      28.826      27.377      25.144      22.357      19.402      16.612    
  14.201      12.278      10.890      10.056      9.7776      10.056      10.890      12.278      14.201      16.612    
  19.402      22.357      25.144      27.377      29.059      31.029      32.040      32.040      31.029      29.058    
  26.299      23.065      19.732      16.613      13.906      11.708      10.056      8.9567      8.4095      8.4098    
  8.9570      10.055      11.707      13.905      16.612      19.731      23.065      26.300      27.905      30.876    