BN                                      
   2.50000000000000     
     1.000000    0.000000    0.000000
    -0.500000    0.866025    0.000000
     0.000000    0.000000    2.672000
   B    N 
     2     2
Direct
  0.000000  0.000000  0.000000
  0.333333  0.666667  0.000000
  0.000000  0.000000  0.500000
  0.333333  0.666667  0.500000
 
   24   24   72
 0.14818655973E+02 0.17869700902E+02 0.25321204612E+02 0.33351659134E+02 0.38667295529E+02
 0.40210718451E+02 0.38871798531E+02 0.36110041684E+02 0.32981628472E+02 0.30087346617E+02
 0.27789877716E+02 0.26322976226E+02 0.25820061155E+02 0.26322702573E+02 0.27789468159E+02
 0.30086995753E+02 0.32981479642E+02 0.36110119670E+02 0.38872018011E+02 0.40210950858E+02
 0.38667444359E+02 0.33351699605E+02 0.25321175207E+02 0.17869664163E+02 0.17869664161E+02
 0.17875074399E+02 0.22651943980E+02 0.29474837559E+02 0.34926940005E+02 0.37084105222E+02
 0.36127304530E+02 0.33380479720E+02 0.30087346617E+02 0.26971927823E+02 0.24421006401E+02
 0.22642514848E+02 0.21739317811E+02 0.21740395685E+02 0.22641945404E+02 0.24415925719E+02
 0.26968389148E+02 0.30090554740E+02 0.33385737387E+02 0.36129089797E+02 0.37084820200E+02
 0.34928445280E+02 0.29471785115E+02 0.22642849968E+02 0.25321175201E+02 0.23551661141E+02
 0.25320659870E+02 0.29471143581E+02 0.33444126735E+02 0.35150141244E+02 0.34135745086E+02
 0.31289661409E+02 0.27789877716E+02 0.24421006401E+02 0.21595221549E+02 0.19513830713E+02
 0.18259863146E+02 0.17844257776E+02 0.18259772174E+02 0.19513857337E+02 0.21595535777E+02
 0.24421513346E+02 0.27790267847E+02 0.31289708118E+02 0.34135552418E+02 0.35150073994E+02
 0.33444464469E+02 0.29471785112E+02 0.33351699598E+02 0.31917927848E+02 0.31914592968E+02
 0.33346320613E+02 0.34927217801E+02 0.35151794838E+02 0.33403750706E+02 0.30152843746E+02
 0.26322976226E+02 0.22642514848E+02 0.19513830713E+02 0.17124254290E+02 0.15537074228E+02
 0.14751498723E+02 0.14749981047E+02 0.15536168114E+02 0.17127730854E+02 0.19517938801E+02
 0.22642396834E+02 0.26320512475E+02 0.30151652707E+02 0.33402758103E+02 0.35150073992E+02
 0.34928445276E+02 0.38667444353E+02 0.39176088741E+02 0.39238642739E+02 0.39176236151E+02
 0.38667736491E+02 0.37085239552E+02 0.34136053404E+02 0.30152161014E+02 0.25820061155E+02
 0.21739317811E+02 0.18259863146E+02 0.15537074228E+02 0.13610996098E+02 0.12472595423E+02
 0.12097382409E+02 0.12472658049E+02 0.13611072137E+02 0.15537086921E+02 0.18259742312E+02
 0.21739031515E+02 0.25819630691E+02 0.30151652707E+02 0.34135552418E+02 0.37084820197E+02
 0.40210950856E+02 0.43057622617E+02 0.44482690768E+02 0.44482616426E+02 0.43056530275E+02
 0.40208542142E+02 0.36127603068E+02 0.31290826698E+02 0.26322702573E+02 0.21740395685E+02
 0.17844257776E+02 0.14751498723E+02 0.12472595423E+02 0.10982904498E+02 0.10250748226E+02
 0.10251530987E+02 0.10983706404E+02 0.12471609801E+02 0.14749708624E+02 0.17843083775E+02
 0.21739031515E+02 0.26320512475E+02 0.31289708118E+02 0.36129089797E+02 0.38872018011E+02
 0.43523667380E+02 0.46640552201E+02 0.47736543201E+02 0.46640829256E+02 0.43523863581E+02
 0.38871766490E+02 0.33385025270E+02 0.27789468159E+02 0.22641945404E+02 0.18259772174E+02
 0.14749981047E+02 0.12097382409E+02 0.10250748226E+02 0.91637003602E+01 0.88051718141E+01
 0.91638294112E+01 0.10250803139E+02 0.12097210486E+02 0.14749708624E+02 0.18259742312E+02
 0.22642396834E+02 0.27790267847E+02 0.33385737387E+02 0.36110119670E+02 0.41793927094E+02
 0.46284001294E+02 0.48775190781E+02 0.48777949815E+02 0.46290316637E+02 0.41799435566E+02
 0.36111283438E+02 0.30086995753E+02 0.24415925719E+02 0.19513857337E+02 0.15536168114E+02
 0.12472658049E+02 0.10251530987E+02 0.88051718141E+01 0.80916156089E+01 0.80920155152E+01
 0.88055464993E+01 0.10250803139E+02 0.12471609801E+02 0.15537086921E+02 0.19517938801E+02
 0.24421513346E+02 0.30090554740E+02 0.32981479642E+02 0.39076167352E+02 0.44430748725E+02
 0.48134720100E+02 0.49462274816E+02 0.48134720100E+02 0.44430748725E+02 0.39076167352E+02
 0.32981479642E+02 0.26968389148E+02 0.21595535777E+02 0.17127730854E+02 0.13611072137E+02
 0.10983706404E+02 0.91638294112E+01 0.80920155152E+01 0.77376836914E+01 0.80920155152E+01
 0.91638294112E+01 0.10983706404E+02 0.13611072137E+02 0.17127730854E+02 0.21595535777E+02
 0.26968389148E+02 0.30086995753E+02 0.36111283438E+02 0.41799435566E+02 0.46290316637E+02
 0.48777949815E+02 0.48775190781E+02 0.46284001294E+02 0.41793927094E+02 0.36110119670E+02
 0.30090554740E+02 0.24421513346E+02 0.19517938801E+02 0.15537086921E+02 0.12471609801E+02
 0.10250803139E+02 0.88055464993E+01 0.80920155152E+01 0.80916156089E+01 0.88051718141E+01
 0.10251530987E+02 0.12472658049E+02 0.15536168114E+02 0.19513857337E+02 0.24415925719E+02
 0.27789468159E+02 0.33385025270E+02 0.38871766490E+02 0.43523863581E+02 0.46640829256E+02
 0.47736543201E+02 0.46640552201E+02 0.43523667380E+02 0.38872018011E+02 0.33385737387E+02
 0.27790267847E+02 0.22642396834E+02 0.18259742312E+02 0.14749708624E+02 0.12097210486E+02
 0.10250803139E+02 0.91638294112E+01 0.88051718141E+01 0.91637003602E+01 0.10250748226E+02
 0.12097382409E+02 0.14749981047E+02 0.18259772174E+02 0.22641945404E+02 0.26322702573E+02
 0.31290826698E+02 0.36127603068E+02 0.40208542142E+02 0.43056530275E+02 0.44482616426E+02
 0.44482690768E+02 0.43057622617E+02 0.40210950856E+02 0.36129089797E+02 0.31289708118E+02
 0.26320512475E+02 0.21739031515E+02 0.17843083775E+02 0.14749708624E+02 0.12471609801E+02
 0.10983706404E+02 0.10251530987E+02 0.10250748226E+02 0.10982904498E+02 0.12472595423E+02
 0.14751498723E+02 0.17844257776E+02 0.21740395685E+02 0.25820061155E+02 0.30152161014E+02
 0.34136053404E+02 0.37085239552E+02 0.38667736491E+02 0.39176236151E+02 0.39238642739E+02
 0.39176088741E+02 0.38667444353E+02 0.37084820197E+02 0.34135552418E+02 0.30151652707E+02
 0.25819630691E+02 0.21739031515E+02 0.18259742312E+02 0.15537086921E+02 0.13611072137E+02
 0.12472658049E+02 0.12097382409E+02 0.12472595423E+02 0.13610996098E+02 0.15537074228E+02
 0.18259863146E+02 0.21739317811E+02 0.26322976226E+02 0.30152843745E+02 0.33403750706E+02
 0.35151794838E+02 0.34927217801E+02 0.33346320613E+02 0.31914592968E+02 0.31917927848E+02
 0.33351699598E+02 0.34928445276E+02 0.35150073992E+02 0.33402758103E+02 0.30151652707E+02
 0.26320512475E+02 0.22642396834E+02 0.19517938801E+02 0.17127730854E+02 0.15536168114E+02
 0.14749981047E+02 0.14751498723E+02 0.15537074228E+02 0.17124254290E+02 0.19513830713E+02
 0.22642514848E+02 0.27789877716E+02 0.31289661409E+02 0.34135745086E+02 0.35150141244E+02
 0.33444126735E+02 0.29471143581E+02 0.25320659870E+02 0.23551661141E+02 0.25321175201E+02
 0.29471785112E+02 0.33444464469E+02 0.35150073994E+02 0.34135552418E+02 0.31289708118E+02
 0.27790267847E+02 0.24421513346E+02 0.21595535777E+02 0.19513857337E+02 0.18259772174E+02
 0.17844257776E+02 0.18259863146E+02 0.19513830713E+02 0.21595221549E+02 0.24421006401E+02
 0.30087346617E+02 0.33380479720E+02 0.36127304530E+02 0.37084105222E+02 0.34926940005E+02
 0.29474837559E+02 0.22651943980E+02 0.17875074399E+02 0.17869664161E+02 0.22642849968E+02
 0.29471785115E+02 0.34928445280E+02 0.37084820200E+02 0.36129089797E+02 0.33385737387E+02
 0.30090554740E+02 0.26968389148E+02 0.24415925719E+02 0.22641945403E+02 0.21740395685E+02
 0.21739317811E+02 0.22642514848E+02 0.24421006401E+02 0.26971927823E+02 0.32981628472E+02
 0.36110041684E+02 0.38871798531E+02 0.40210718451E+02 0.38667295529E+02 0.33351659134E+02
 0.25321204612E+02 0.17869700902E+02 0.14818655973E+02 0.17869664163E+02 0.25321175207E+02
 0.33351699605E+02 0.38667444359E+02 0.40210950858E+02 0.38872018011E+02 0.36110119670E+02
 0.32981479642E+02 0.30086995753E+02 0.27789468159E+02 0.26322702573E+02 0.25820061155E+02
 0.26322976226E+02 0.27789877716E+02 0.30087346617E+02 0.36110041684E+02 0.39082022890E+02
 0.41799808777E+02 0.43523592864E+02 0.43056091539E+02 0.39176858598E+02 0.31915293880E+02
 0.23542909177E+02 0.17869700901E+02 0.17875074399E+02 0.23551661146E+02 0.31917927856E+02
 0.39176088748E+02 0.43057622621E+02 0.43523667381E+02 0.41793927094E+02 0.39076167352E+02
 0.36111283438E+02 0.33385025270E+02 0.31290826698E+02 0.30152161014E+02 0.30152843745E+02
 0.31289661409E+02 0.33380479719E+02 0.38871798530E+02 0.41799808777E+02 0.44431167985E+02
 0.46284180898E+02 0.46640518347E+02 0.44482757255E+02 0.39239074725E+02 0.31915293877E+02
 0.25321204606E+02 0.22651943975E+02 0.25320659870E+02 0.31914592973E+02 0.39238642746E+02
 0.44482690773E+02 0.46640552203E+02 0.46284001294E+02 0.44430748725E+02 0.41799435566E+02
 0.38871766490E+02 0.36127603067E+02 0.34136053403E+02 0.33403750704E+02 0.34135745084E+02
 0.36127304529E+02 0.40210718449E+02 0.43523592863E+02 0.46284180898E+02 0.48130004261E+02
 0.48777787923E+02 0.47740811128E+02 0.44482757254E+02 0.39176858594E+02 0.33351659127E+02
 0.29474837551E+02 0.29471143576E+02 0.33346320613E+02 0.39176236154E+02 0.44482616430E+02
 0.47736543203E+02 0.48775190781E+02 0.48134720100E+02 0.46290316638E+02 0.43523863581E+02
 0.40208542142E+02 0.37085239551E+02 0.35151794835E+02 0.35150141239E+02 0.37084105217E+02
 0.38667295523E+02 0.43056091536E+02 0.46640518346E+02 0.48777787923E+02 0.49462177270E+02
 0.48777787923E+02 0.46640518346E+02 0.43056091536E+02 0.38667295523E+02 0.34926939997E+02
 0.33444126728E+02 0.34927217798E+02 0.38667736491E+02 0.43056530276E+02 0.46640829257E+02
 0.48777949816E+02 0.49462274815E+02 0.48777949816E+02 0.46640829257E+02 0.43056530276E+02
 0.38667736491E+02 0.34927217798E+02 0.33444126728E+02 0.34926939997E+02 0.33351659127E+02
 0.39176858594E+02 0.44482757254E+02 0.47740811128E+02 0.48777787923E+02 0.48130004261E+02
 0.46284180898E+02 0.43523592863E+02 0.40210718449E+02 0.37084105217E+02 0.35150141239E+02
 0.35151794835E+02 0.37085239551E+02 0.40208542142E+02 0.43523863581E+02 0.46290316638E+02
 0.48134720100E+02 0.48775190781E+02 0.47736543203E+02 0.44482616430E+02 0.39176236154E+02
 0.33346320613E+02 0.29471143576E+02 0.29474837551E+02 0.25321204606E+02 0.31915293877E+02
 0.39239074725E+02 0.44482757255E+02 0.46640518347E+02 0.46284180898E+02 0.44431167985E+02
 0.41799808777E+02 0.38871798530E+02 0.36127304529E+02 0.34135745084E+02 0.33403750704E+02
 0.34136053403E+02 0.36127603067E+02 0.38871766490E+02 0.41799435566E+02 0.44430748725E+02
 0.46284001294E+02 0.46640552203E+02 0.44482690773E+02 0.39238642746E+02 0.31914592973E+02
 0.25320659870E+02 0.22651943975E+02 0.17869700901E+02 0.23542909177E+02 0.31915293880E+02
 0.39176858598E+02 0.43056091539E+02 0.43523592864E+02 0.41799808777E+02 0.39082022890E+02
 0.36110041684E+02 0.33380479719E+02 0.31289661409E+02 0.30152843745E+02 0.30152161014E+02
 0.31290826698E+02 0.33385025270E+02 0.36111283438E+02 0.39076167352E+02 0.41793927094E+02
 0.43523667381E+02 0.43057622621E+02 0.39176088748E+02 0.31917927856E+02 0.23551661146E+02
 0.17875074399E+02 0.15250970094E+02 0.18152678140E+02 0.25238309641E+02 0.32869928698E+02
 0.37909756508E+02 0.39347183244E+02 0.38026704551E+02 0.35339816115E+02 0.32300099322E+02
 0.29488791750E+02 0.27256404109E+02 0.25830095171E+02 0.25340839867E+02 0.25829837263E+02
 0.27256018724E+02 0.29488462701E+02 0.32299961194E+02 0.35339891011E+02 0.38026911078E+02
 0.39347400422E+02 0.37909894636E+02 0.32869965673E+02 0.25238281972E+02 0.18152643974E+02
 0.18152643972E+02 0.18157800367E+02 0.22693180265E+02 0.29166061392E+02 0.34324990667E+02
 0.36337237759E+02 0.35373190289E+02 0.32693833542E+02 0.29488791750E+02 0.26457477741E+02
 0.23974232417E+02 0.22241415378E+02 0.21360601100E+02 0.21361622061E+02 0.22240871105E+02
 0.23969412282E+02 0.26454131258E+02 0.29491846939E+02 0.32698816459E+02 0.35374868709E+02
 0.36337915455E+02 0.34326429764E+02 0.29163153979E+02 0.22684512783E+02 0.25238281967E+02
 0.23563067752E+02 0.25237791923E+02 0.29162543495E+02 0.32904461632E+02 0.34476736079E+02
 0.33448349775E+02 0.30666364961E+02 0.27256404109E+02 0.23974232417E+02 0.21219772208E+02
 0.19188748218E+02 0.17963588540E+02 0.17557155567E+02 0.17963501993E+02 0.19188772775E+02
 0.21220068962E+02 0.23974711463E+02 0.27256772298E+02 0.30666407999E+02 0.33448166875E+02
 0.34476673369E+02 0.32904783886E+02 0.29163153976E+02 0.32869965666E+02 0.31528963189E+02
 0.31525786635E+02 0.32864840349E+02 0.34325255610E+02 0.34478305184E+02 0.32740994378E+02
 0.29563617762E+02 0.25830095171E+02 0.22241415378E+02 0.19188748218E+02 0.16854447663E+02
 0.15301852937E+02 0.14532511644E+02 0.14531071158E+02 0.15300994007E+02 0.16857747948E+02
 0.19192642236E+02 0.22241295482E+02 0.25827757146E+02 0.29562497079E+02 0.32740059333E+02
 0.34476673368E+02 0.34326429760E+02 0.37909894631E+02 0.38436721774E+02 0.38511140059E+02
 0.38436865639E+02 0.37910176736E+02 0.36338315494E+02 0.33448640125E+02 0.29562974644E+02
 0.25340839867E+02 0.21360601100E+02 0.17963588540E+02 0.15301852937E+02 0.13416395220E+02
 0.12300627760E+02 0.11932583927E+02 0.12300686512E+02 0.13416465871E+02 0.15301863087E+02
 0.17963473005E+02 0.21360331109E+02 0.25340435690E+02 0.29562497079E+02 0.33448166875E+02
 0.36337915453E+02 0.39347400420E+02 0.42121243528E+02 0.43511926478E+02 0.43511856535E+02
 0.42120210839E+02 0.39345124128E+02 0.35373470043E+02 0.30667478187E+02 0.25829837263E+02
 0.21361622061E+02 0.17557155567E+02 0.14532511644E+02 0.12300627760E+02 0.10839876908E+02
 0.10121254828E+02 0.10121994585E+02 0.10840631827E+02 0.12299689074E+02 0.14530814682E+02
 0.17556046311E+02 0.21360331109E+02 0.25827757146E+02 0.30666407999E+02 0.35374868708E+02
 0.38026911078E+02 0.42540288859E+02 0.45563125095E+02 0.46625860308E+02 0.45563383847E+02
 0.42540470171E+02 0.38026670793E+02 0.32698143648E+02 0.27256018724E+02 0.22240871105E+02
 0.17963501993E+02 0.14531071158E+02 0.11932583927E+02 0.10121254828E+02 0.90539929792E+01
 0.87018075040E+01 0.90541159325E+01 0.10121308497E+02 0.11932423354E+02 0.14530814682E+02
 0.17963473005E+02 0.22241295482E+02 0.27256772298E+02 0.32698816459E+02 0.35339891011E+02
 0.40853577310E+02 0.45204677383E+02 0.47617275256E+02 0.47619898930E+02 0.45210674874E+02
 0.40858793882E+02 0.35340978140E+02 0.29488462701E+02 0.23969412282E+02 0.19188772775E+02
 0.15300994007E+02 0.12300686512E+02 0.10121994585E+02 0.87018075040E+01 0.80007609629E+01
 0.80011483630E+01 0.87021764422E+01 0.10121308497E+02 0.12299689074E+02 0.15301863087E+02
 0.19192642236E+02 0.23974711463E+02 0.29491846939E+02 0.32299961194E+02 0.38215481710E+02
 0.43406516059E+02 0.46994286780E+02 0.48279621708E+02 0.46994286780E+02 0.43406516059E+02
 0.38215481710E+02 0.32299961194E+02 0.26454131258E+02 0.21220068962E+02 0.16857747948E+02
 0.13416465871E+02 0.10840631827E+02 0.90541159325E+01 0.80011483630E+01 0.76529310546E+01
 0.80011483630E+01 0.90541159325E+01 0.10840631827E+02 0.13416465871E+02 0.16857747948E+02
 0.21220068962E+02 0.26454131258E+02 0.29488462701E+02 0.35340978140E+02 0.40858793882E+02
 0.45210674874E+02 0.47619898930E+02 0.47617275256E+02 0.45204677383E+02 0.40853577310E+02
 0.35339891011E+02 0.29491846939E+02 0.23974711463E+02 0.19192642236E+02 0.15301863087E+02
 0.12299689074E+02 0.10121308497E+02 0.87021764422E+01 0.80011483630E+01 0.80007609629E+01
 0.87018075040E+01 0.10121994585E+02 0.12300686512E+02 0.15300994007E+02 0.19188772775E+02
 0.23969412282E+02 0.27256018724E+02 0.32698143648E+02 0.38026670793E+02 0.42540470171E+02
 0.45563383847E+02 0.46625860308E+02 0.45563125095E+02 0.42540288859E+02 0.38026911078E+02
 0.32698816459E+02 0.27256772298E+02 0.22241295482E+02 0.17963473005E+02 0.14530814682E+02
 0.11932423354E+02 0.10121308497E+02 0.90541159325E+01 0.87018075040E+01 0.90539929792E+01
 0.10121254828E+02 0.11932583927E+02 0.14531071158E+02 0.17963501993E+02 0.22240871105E+02
 0.25829837263E+02 0.30667478187E+02 0.35373470043E+02 0.39345124128E+02 0.42120210839E+02
 0.43511856535E+02 0.43511926478E+02 0.42121243528E+02 0.39347400420E+02 0.35374868708E+02
 0.30666407999E+02 0.25827757146E+02 0.21360331109E+02 0.17556046311E+02 0.14530814682E+02
 0.12299689074E+02 0.10840631827E+02 0.10121994585E+02 0.10121254828E+02 0.10839876908E+02
 0.12300627760E+02 0.14532511644E+02 0.17557155567E+02 0.21361622061E+02 0.25340839867E+02
 0.29562974644E+02 0.33448640125E+02 0.36338315494E+02 0.37910176736E+02 0.38436865639E+02
 0.38511140059E+02 0.38436721774E+02 0.37909894631E+02 0.36337915453E+02 0.33448166875E+02
 0.29562497079E+02 0.25340435690E+02 0.21360331109E+02 0.17963473005E+02 0.15301863087E+02
 0.13416465871E+02 0.12300686512E+02 0.11932583927E+02 0.12300627760E+02 0.13416395220E+02
 0.15301852937E+02 0.17963588540E+02 0.21360601100E+02 0.25830095171E+02 0.29563617762E+02
 0.32740994378E+02 0.34478305184E+02 0.34325255610E+02 0.32864840349E+02 0.31525786635E+02
 0.31528963189E+02 0.32869965666E+02 0.34326429760E+02 0.34476673368E+02 0.32740059333E+02
 0.29562497079E+02 0.25827757146E+02 0.22241295482E+02 0.19192642236E+02 0.16857747948E+02
 0.15300994007E+02 0.14531071158E+02 0.14532511644E+02 0.15301852937E+02 0.16854447663E+02
 0.19188748218E+02 0.22241415378E+02 0.27256404109E+02 0.30666364961E+02 0.33448349775E+02
 0.34476736079E+02 0.32904461632E+02 0.29162543495E+02 0.25237791923E+02 0.23563067752E+02
 0.25238281967E+02 0.29163153976E+02 0.32904783886E+02 0.34476673369E+02 0.33448166875E+02
 0.30666407999E+02 0.27256772298E+02 0.23974711463E+02 0.21220068962E+02 0.19188772775E+02
 0.17963501993E+02 0.17557155567E+02 0.17963588540E+02 0.19188748218E+02 0.21219772208E+02
 0.23974232417E+02 0.29488791750E+02 0.32693833542E+02 0.35373190289E+02 0.36337237759E+02
 0.34324990667E+02 0.29166061392E+02 0.22693180265E+02 0.18157800367E+02 0.18152643972E+02
 0.22684512783E+02 0.29163153979E+02 0.34326429764E+02 0.36337915455E+02 0.35374868709E+02
 0.32698816459E+02 0.29491846939E+02 0.26454131258E+02 0.23969412282E+02 0.22240871105E+02
 0.21361622061E+02 0.21360601100E+02 0.22241415378E+02 0.23974232417E+02 0.26457477741E+02
 0.32300099322E+02 0.35339816115E+02 0.38026704551E+02 0.39347183244E+02 0.37909756508E+02
 0.32869928698E+02 0.25238309641E+02 0.18152678140E+02 0.15250970094E+02 0.18152643974E+02
 0.25238281972E+02 0.32869965673E+02 0.37909894636E+02 0.39347400422E+02 0.38026911078E+02
 0.35339891011E+02 0.32299961194E+02 0.29488462701E+02 0.27256018724E+02 0.25829837263E+02
 0.25340839867E+02 0.25830095171E+02 0.27256404109E+02 0.29488791750E+02 0.35339816115E+02
 0.38221049741E+02 0.40859149708E+02 0.42540202546E+02 0.42119793508E+02 0.38437465642E+02
 0.31526452343E+02 0.23554723207E+02 0.18152678138E+02 0.18157800367E+02 0.23563067757E+02
 0.31528963197E+02 0.38436721781E+02 0.42121243532E+02 0.42540288860E+02 0.40853577310E+02
 0.38215481710E+02 0.35340978140E+02 0.32698143648E+02 0.30667478187E+02 0.29562974644E+02
 0.29563617762E+02 0.30666364961E+02 0.32693833542E+02 0.38026704551E+02 0.40859149708E+02
 0.43406913125E+02 0.45204844967E+02 0.45563089456E+02 0.43511986992E+02 0.38511549181E+02
 0.31526452340E+02 0.25238309636E+02 0.22693180261E+02 0.25237791923E+02 0.31525786640E+02
 0.38511140066E+02 0.43511926483E+02 0.45563125096E+02 0.45204677383E+02 0.43406516059E+02
 0.40858793882E+02 0.38026670793E+02 0.35373470043E+02 0.33448640124E+02 0.32740994377E+02
 0.33448349774E+02 0.35373190288E+02 0.39347183242E+02 0.42540202545E+02 0.45204844967E+02
 0.46989814869E+02 0.47619747542E+02 0.46629910875E+02 0.43511986991E+02 0.38437465638E+02
 0.32869928691E+02 0.29166061384E+02 0.29162543490E+02 0.32864840349E+02 0.38436865642E+02
 0.43511856539E+02 0.46625860310E+02 0.47617275256E+02 0.46994286780E+02 0.45210674875E+02
 0.42540470171E+02 0.39345124128E+02 0.36338315493E+02 0.34478305180E+02 0.34476736075E+02
 0.36337237755E+02 0.37909756503E+02 0.42119793505E+02 0.45563089455E+02 0.47619747542E+02
 0.48279532037E+02 0.47619747542E+02 0.45563089455E+02 0.42119793505E+02 0.37909756503E+02
 0.34324990660E+02 0.32904461625E+02 0.34325255606E+02 0.37910176736E+02 0.42120210841E+02
 0.45563383848E+02 0.47619898930E+02 0.48279621708E+02 0.47619898930E+02 0.45563383848E+02
 0.42120210841E+02 0.37910176736E+02 0.34325255606E+02 0.32904461625E+02 0.34324990660E+02
 0.32869928691E+02 0.38437465638E+02 0.43511986991E+02 0.46629910875E+02 0.47619747542E+02
 0.46989814869E+02 0.45204844967E+02 0.42540202545E+02 0.39347183242E+02 0.36337237755E+02
 0.34476736075E+02 0.34478305180E+02 0.36338315493E+02 0.39345124128E+02 0.42540470171E+02
 0.45210674875E+02 0.46994286780E+02 0.47617275256E+02 0.46625860310E+02 0.43511856539E+02
 0.38436865642E+02 0.32864840349E+02 0.29162543490E+02 0.29166061384E+02 0.25238309636E+02
 0.31526452340E+02 0.38511549181E+02 0.43511986992E+02 0.45563089456E+02 0.45204844967E+02
 0.43406913125E+02 0.40859149708E+02 0.38026704551E+02 0.35373190288E+02 0.33448349774E+02
 0.32740994377E+02 0.33448640124E+02 0.35373470043E+02 0.38026670793E+02 0.40858793882E+02
 0.43406516059E+02 0.45204677383E+02 0.45563125096E+02 0.43511926483E+02 0.38511140066E+02
 0.31525786640E+02 0.25237791923E+02 0.22693180261E+02 0.18152678138E+02 0.23554723207E+02
 0.31526452343E+02 0.38437465642E+02 0.42119793508E+02 0.42540202546E+02 0.40859149708E+02
 0.38221049741E+02 0.35339816115E+02 0.32693833542E+02 0.30666364961E+02 0.29563617762E+02
 0.29562974644E+02 0.30667478187E+02 0.32698143648E+02 0.35340978140E+02 0.38215481710E+02
 0.40853577310E+02 0.42540288860E+02 0.42121243532E+02 0.38436721781E+02 0.31528963197E+02
 0.23563067757E+02 0.18157800367E+02 0.16401534959E+02 0.18893608978E+02 0.24974206636E+02
 0.31506453488E+02 0.35780328852E+02 0.36916909087E+02 0.35640721378E+02 0.33159012847E+02
 0.30366998401E+02 0.27787592709E+02 0.25737242445E+02 0.24424895374E+02 0.23974072859E+02
 0.24424680459E+02 0.25736922864E+02 0.27787322699E+02 0.30366888802E+02 0.33159078853E+02
 0.35640892641E+02 0.36917085283E+02 0.35780438451E+02 0.31506481296E+02 0.24974183691E+02
 0.18893581691E+02 0.18893581689E+02 0.18898041082E+02 0.22770744134E+02 0.28280795355E+02
 0.32628830424E+02 0.34234554783E+02 0.33243449237E+02 0.30747241246E+02 0.27787592709E+02
 0.24992161560E+02 0.22698870163E+02 0.21094447027E+02 0.20276660569E+02 0.20277526573E+02
 0.21093972609E+02 0.22694761743E+02 0.24989337562E+02 0.27790227364E+02 0.30751474474E+02
 0.33244839134E+02 0.34235131258E+02 0.32630086330E+02 0.28278284773E+02 0.22763247405E+02
 0.24974183686E+02 0.23557834096E+02 0.24973763905E+02 0.28277760732E+02 0.31381392093E+02
 0.32579846766E+02 0.31506601358E+02 0.28897947711E+02 0.25737242445E+02 0.22698870163E+02
 0.20145213943E+02 0.18256299524E+02 0.17112639646E+02 0.16732213330E+02 0.17112565331E+02
 0.18256318519E+02 0.20145462852E+02 0.22699272833E+02 0.25737550778E+02 0.28897981123E+02
 0.31506445505E+02 0.32579796198E+02 0.31381670912E+02 0.28278284771E+02 0.31506481290E+02
 0.30421038789E+02 0.30418297007E+02 0.31502052765E+02 0.32629059348E+02 0.32581185021E+02
 0.30868672905E+02 0.27891264596E+02 0.24424895374E+02 0.21094447027E+02 0.18256299524E+02
 0.16078420004E+02 0.14624017103E+02 0.13900906919E+02 0.13899677752E+02 0.14623287403E+02
 0.16081238297E+02 0.18259609093E+02 0.21094323578E+02 0.24422901241E+02 0.27890334334E+02
 0.30867893523E+02 0.32579796197E+02 0.32630086327E+02 0.35780438446E+02 0.36358769604E+02
 0.36466245371E+02 0.36358902288E+02 0.35780691115E+02 0.34235477152E+02 0.31506842796E+02
 0.27890728562E+02 0.23974072859E+02 0.20276660569E+02 0.17112639646E+02 0.14624017103E+02
 0.12854147225E+02 0.11803014001E+02 0.11455496682E+02 0.11803062274E+02 0.12854203484E+02
 0.14624020830E+02 0.17112538990E+02 0.20276435006E+02 0.23973739829E+02 0.27890334334E+02
 0.31506445504E+02 0.34235131256E+02 0.36917085281E+02 0.39491588537E+02 0.40788334705E+02
 0.40788276087E+02 0.39490716924E+02 0.36915168087E+02 0.33243678260E+02 0.28898917144E+02
 0.24424680459E+02 0.20277526573E+02 0.16732213330E+02 0.13900906919E+02 0.11803014001E+02
 0.10425051578E+02 0.97452835758E+01 0.97459057103E+01 0.10425678102E+02 0.11802203961E+02
 0.13899464693E+02 0.16731280487E+02 0.20276435006E+02 0.24422901241E+02 0.28897981123E+02
 0.33244839134E+02 0.35640892641E+02 0.39772332300E+02 0.42535954820E+02 0.43507118987E+02
 0.42536164423E+02 0.39772474148E+02 0.35640683986E+02 0.30750909314E+02 0.25736922864E+02
 0.21093972609E+02 0.17112565331E+02 0.13899677752E+02 0.11455496682E+02 0.97452835758E+01
 0.87349066041E+01 0.84010032786E+01 0.87350125811E+01 0.97453333446E+01 0.11455366662E+02
 0.13899464693E+02 0.17112538990E+02 0.21094323578E+02 0.25737550778E+02 0.30751474474E+02
 0.33159078853E+02 0.38199759833E+02 0.42165604075E+02 0.44360686020E+02 0.44362939565E+02
 0.42170733851E+02 0.38204182293E+02 0.33159960834E+02 0.27787322699E+02 0.22694761743E+02
 0.18256318519E+02 0.14623287403E+02 0.11803062274E+02 0.97459057103E+01 0.84010032786E+01
 0.77360544391E+01 0.77364068034E+01 0.84013551175E+01 0.97453333446E+01 0.11802203961E+02
 0.14624020830E+02 0.18259609093E+02 0.22699272833E+02 0.27790227364E+02 0.30366888802E+02
 0.35782268344E+02 0.40517784029E+02 0.43782937352E+02 0.44951213289E+02 0.43782937352E+02
 0.40517784029E+02 0.35782268344E+02 0.30366888802E+02 0.24989337562E+02 0.20145462852E+02
 0.16081238297E+02 0.12854203484E+02 0.10425678102E+02 0.87350125811E+01 0.77364068034E+01
 0.74058660566E+01 0.77364068034E+01 0.87350125811E+01 0.10425678102E+02 0.12854203484E+02
 0.16081238297E+02 0.20145462852E+02 0.24989337562E+02 0.27787322699E+02 0.33159960834E+02
 0.38204182293E+02 0.42170733851E+02 0.44362939565E+02 0.44360686020E+02 0.42165604075E+02
 0.38199759833E+02 0.33159078853E+02 0.27790227364E+02 0.22699272833E+02 0.18259609093E+02
 0.14624020830E+02 0.11802203961E+02 0.97453333446E+01 0.84013551175E+01 0.77364068034E+01
 0.77360544391E+01 0.84010032786E+01 0.97459057103E+01 0.11803062274E+02 0.14623287403E+02
 0.18256318519E+02 0.22694761743E+02 0.25736922864E+02 0.30750909314E+02 0.35640683986E+02
 0.39772474148E+02 0.42536164423E+02 0.43507118987E+02 0.42535954820E+02 0.39772332300E+02
 0.35640892641E+02 0.30751474474E+02 0.25737550778E+02 0.21094323578E+02 0.17112538990E+02
 0.13899464693E+02 0.11455366662E+02 0.97453333446E+01 0.87350125811E+01 0.84010032786E+01
 0.87349066041E+01 0.97452835758E+01 0.11455496682E+02 0.13899677752E+02 0.17112565331E+02
 0.21093972609E+02 0.24424680459E+02 0.28898917144E+02 0.33243678260E+02 0.36915168087E+02
 0.39490716924E+02 0.40788276087E+02 0.40788334705E+02 0.39491588537E+02 0.36917085281E+02
 0.33244839134E+02 0.28897981123E+02 0.24422901241E+02 0.20276435006E+02 0.16731280487E+02
 0.13899464693E+02 0.11802203961E+02 0.10425678102E+02 0.97459057103E+01 0.97452835758E+01
 0.10425051578E+02 0.11803014001E+02 0.13900906919E+02 0.16732213330E+02 0.20277526573E+02
 0.23974072859E+02 0.27890728562E+02 0.31506842796E+02 0.34235477152E+02 0.35780691115E+02
 0.36358902288E+02 0.36466245371E+02 0.36358769604E+02 0.35780438446E+02 0.34235131256E+02
 0.31506445504E+02 0.27890334334E+02 0.23973739829E+02 0.20276435006E+02 0.17112538990E+02
 0.14624020830E+02 0.12854203484E+02 0.11803062274E+02 0.11455496682E+02 0.11803014001E+02
 0.12854147225E+02 0.14624017103E+02 0.17112639646E+02 0.20276660569E+02 0.24424895374E+02
 0.27891264596E+02 0.30868672905E+02 0.32581185021E+02 0.32629059348E+02 0.31502052765E+02
 0.30418297007E+02 0.30421038789E+02 0.31506481290E+02 0.32630086327E+02 0.32579796197E+02
 0.30867893523E+02 0.27890334334E+02 0.24422901241E+02 0.21094323578E+02 0.18259609093E+02
 0.16081238297E+02 0.14623287403E+02 0.13899677752E+02 0.13900906919E+02 0.14624017103E+02
 0.16078420004E+02 0.18256299524E+02 0.21094447027E+02 0.25737242445E+02 0.28897947711E+02
 0.31506601358E+02 0.32579846766E+02 0.31381392093E+02 0.28277760732E+02 0.24973763905E+02
 0.23557834096E+02 0.24974183686E+02 0.28278284771E+02 0.31381670912E+02 0.32579796198E+02
 0.31506445505E+02 0.28897981123E+02 0.25737550778E+02 0.22699272833E+02 0.20145462852E+02
 0.18256318519E+02 0.17112565331E+02 0.16732213330E+02 0.17112639646E+02 0.18256299524E+02
 0.20145213943E+02 0.22698870163E+02 0.27787592709E+02 0.30747241246E+02 0.33243449237E+02
 0.34234554783E+02 0.32628830424E+02 0.28280795355E+02 0.22770744134E+02 0.18898041082E+02
 0.18893581689E+02 0.22763247405E+02 0.28278284773E+02 0.32630086330E+02 0.34235131258E+02
 0.33244839134E+02 0.30751474474E+02 0.27790227364E+02 0.24989337562E+02 0.22694761743E+02
 0.21093972609E+02 0.20277526573E+02 0.20276660569E+02 0.21094447027E+02 0.22698870163E+02
 0.24992161560E+02 0.30366998401E+02 0.33159012847E+02 0.35640721378E+02 0.36916909087E+02
 0.35780328852E+02 0.31506453488E+02 0.24974206636E+02 0.18893608978E+02 0.16401534959E+02
 0.18893581691E+02 0.24974183691E+02 0.31506481296E+02 0.35780438451E+02 0.36917085283E+02
 0.35640892641E+02 0.33159078853E+02 0.30366888802E+02 0.27787322699E+02 0.25736922864E+02
 0.24424680459E+02 0.23974072859E+02 0.24424895374E+02 0.25737242445E+02 0.27787592709E+02
 0.33159012847E+02 0.35787048789E+02 0.38204489536E+02 0.39772216979E+02 0.39490359122E+02
 0.36359439183E+02 0.30418865171E+02 0.23550608572E+02 0.18893608976E+02 0.18898041082E+02
 0.23557834100E+02 0.30421038795E+02 0.36358769610E+02 0.39491588541E+02 0.39772332301E+02
 0.38199759833E+02 0.35782268344E+02 0.33159960834E+02 0.30750909314E+02 0.28898917144E+02
 0.27890728562E+02 0.27891264596E+02 0.28897947711E+02 0.30747241246E+02 0.35640721378E+02
 0.38204489536E+02 0.40518120059E+02 0.42165739437E+02 0.42535915451E+02 0.40788379567E+02
 0.36466591534E+02 0.30418865169E+02 0.24974206631E+02 0.22770744131E+02 0.24973763905E+02
 0.30418297011E+02 0.36466245377E+02 0.40788334709E+02 0.42535954822E+02 0.42165604075E+02
 0.40517784029E+02 0.38204182293E+02 0.35640683986E+02 0.33243678260E+02 0.31506842795E+02
 0.30868672904E+02 0.31506601356E+02 0.33243449236E+02 0.36916909085E+02 0.39772216979E+02
 0.42165739437E+02 0.43779130089E+02 0.44362816391E+02 0.43510577175E+02 0.40788379566E+02
 0.36359439180E+02 0.31506453483E+02 0.28280795349E+02 0.28277760727E+02 0.31502052765E+02
 0.36358902291E+02 0.40788276090E+02 0.43507118989E+02 0.44360686020E+02 0.43782937352E+02