   4   4   0   0
  0.9039140E+01  0.2500000E-09  0.2500000E-09  0.6680000E-09  0.5000000E-15
  1.000000000000000E-004
  CAR 
 BN                                      
     15.41111607    -24.23004190  301      4.02591713      1.00000000
    -24.230  0.0000E+00  0.0000E+00
    -24.098  0.0000E+00  0.0000E+00
    -23.966  0.0000E+00  0.0000E+00
    -23.834  0.0000E+00  0.0000E+00
    -23.701  0.0000E+00  0.0000E+00
    -23.569  0.0000E+00  0.0000E+00
    -23.437  0.0000E+00  0.0000E+00
    -23.305  0.0000E+00  0.0000E+00
    -23.173  0.0000E+00  0.0000E+00
    -23.041  0.0000E+00  0.0000E+00
    -22.909  0.0000E+00  0.0000E+00
    -22.777  0.0000E+00  0.0000E+00
    -22.644  0.0000E+00  0.0000E+00
    -22.512  0.0000E+00  0.0000E+00
    -22.380  0.0000E+00  0.0000E+00
    -22.248  0.0000E+00  0.0000E+00
    -22.116  0.2777E+00  0.3033E-01
    -21.984  0.3439E+00  0.7140E-01
    -21.852  0.3043E+00  0.1144E+00
    -21.719  0.3280E+00  0.1562E+00
    -21.587  0.3207E+00  0.2004E+00
    -21.455  0.3165E+00  0.2425E+00
    -21.323  0.3268E+00  0.2848E+00
    -21.191  0.3392E+00  0.3288E+00
    -21.059  0.3226E+00  0.3724E+00
    -20.927  0.3258E+00  0.4153E+00
    -20.794  0.3303E+00  0.4585E+00
    -20.662  0.3384E+00  0.5027E+00
    -20.530  0.3340E+00  0.5475E+00
    -20.398  0.3308E+00  0.5914E+00
    -20.266  0.3350E+00  0.6354E+00
    -20.134  0.3393E+00  0.6799E+00
    -20.002  0.3446E+00  0.7251E+00
    -19.870  0.3470E+00  0.7710E+00
    -19.737  0.3444E+00  0.8165E+00
    -19.605  0.3463E+00  0.8621E+00
    -19.473  0.3509E+00  0.9081E+00
    -19.341  0.3563E+00  0.9548E+00
    -19.209  0.3616E+00  0.1002E+01
    -19.077  0.3651E+00  0.1050E+01
    -18.945  0.3681E+00  0.1099E+01
    -18.812  0.3754E+00  0.1148E+01
    -18.680  0.3829E+00  0.1198E+01
    -18.548  0.3955E+00  0.1249E+01
    -18.416  0.4093E+00  0.1303E+01
    -18.284  0.4232E+00  0.1358E+01
    -18.152  0.4515E+00  0.1415E+01
    -18.020  0.4912E+00  0.1477E+01
    -17.887  0.5749E+00  0.1548E+01
    -17.755  0.6341E+00  0.1653E+01
    -17.623  0.4153E+00  0.1715E+01
    -17.491  0.3189E+00  0.1764E+01
    -17.359  0.4397E+00  0.1813E+01
    -17.227  0.2581E+00  0.1853E+01
    -17.095  0.2234E+00  0.1885E+01
    -16.962  0.1887E+00  0.1912E+01
    -16.830  0.1540E+00  0.1935E+01
    -16.698  0.1265E+00  0.1953E+01
    -16.566  0.1446E+00  0.1971E+01
    -16.434  0.1628E+00  0.1991E+01
    -16.302  0.0000E+00  0.2000E+01
    -16.170  0.0000E+00  0.2000E+01
    -16.038  0.0000E+00  0.2000E+01
    -15.905  0.0000E+00  0.2000E+01
    -15.773  0.0000E+00  0.2000E+01
    -15.641  0.0000E+00  0.2000E+01
    -15.509  0.0000E+00  0.2000E+01
    -15.377  0.2305E+00  0.2028E+01
    -15.245  0.2298E+00  0.2051E+01
    -15.113  0.1016E+01  0.2124E+01
    -14.980  0.6552E+00  0.2261E+01
    -14.848  0.5677E+00  0.2342E+01
    -14.716  0.4802E+00  0.2411E+01
    -14.584  0.4093E+00  0.2469E+01
    -14.452  0.3867E+00  0.2521E+01
    -14.320  0.3703E+00  0.2571E+01
    -14.188  0.3539E+00  0.2619E+01
    -14.055  0.3375E+00  0.2665E+01
    -13.923  0.3203E+00  0.2708E+01
    -13.791  0.3024E+00  0.2749E+01
    -13.659  0.2888E+00  0.2788E+01
    -13.527  0.2827E+00  0.2826E+01
    -13.395  0.2766E+00  0.2863E+01
    -13.263  0.2704E+00  0.2899E+01
    -13.131  0.2633E+00  0.2934E+01
    -12.998  0.2562E+00  0.2969E+01
    -12.866  0.2491E+00  0.3002E+01
    -12.734  0.2320E+00  0.3034E+01
    -12.602  0.2288E+00  0.3065E+01
    -12.470  0.2252E+00  0.3095E+01
    -12.338  0.2215E+00  0.3124E+01
    -12.206  0.2177E+00  0.3153E+01
    -12.073  0.2140E+00  0.3182E+01
    -11.941  0.2102E+00  0.3210E+01
    -11.809  0.2047E+00  0.3237E+01
    -11.677  0.1959E+00  0.3264E+01
    -11.545  0.1871E+00  0.3289E+01
    -11.413  0.1844E+00  0.3314E+01
    -11.281  0.1820E+00  0.3338E+01
    -11.148  0.1796E+00  0.3362E+01
    -11.016  0.3579E+00  0.3408E+01
    -10.884  0.3997E+00  0.3458E+01
    -10.752  0.4207E+00  0.3513E+01
    -10.620  0.3926E+00  0.3567E+01
    -10.488  0.4022E+00  0.3620E+01
    -10.356  0.4056E+00  0.3673E+01
    -10.223  0.4173E+00  0.3727E+01
    -10.091  0.4298E+00  0.3783E+01
     -9.959  0.4388E+00  0.3841E+01
     -9.827  0.4485E+00  0.3899E+01
     -9.695  0.4569E+00  0.3959E+01
     -9.563  0.4646E+00  0.4020E+01
     -9.431  0.4724E+00  0.4082E+01
     -9.299  0.4865E+00  0.4145E+01
     -9.166  0.4961E+00  0.4210E+01
     -9.034  0.5373E+00  0.4278E+01
     -8.902  0.5612E+00  0.4351E+01
     -8.770  0.5826E+00  0.4427E+01
     -8.638  0.5980E+00  0.4505E+01
     -8.506  0.6224E+00  0.4585E+01
     -8.374  0.8527E+00  0.4679E+01
     -8.241  0.1023E+01  0.4805E+01
     -8.109  0.9561E+00  0.4940E+01
     -7.977  0.1100E+01  0.5075E+01
     -7.845  0.1312E+01  0.5248E+01
     -7.713  0.5016E+00  0.5361E+01
     -7.581  0.4378E+00  0.5421E+01
     -7.449  0.6614E+00  0.5489E+01
     -7.316  0.9605E+00  0.5600E+01
     -7.184  0.9802E+00  0.5730E+01
     -7.052  0.8464E+00  0.5855E+01
     -6.920  0.5547E+00  0.5927E+01
     -6.788  0.8008E+00  0.6017E+01
     -6.656  0.8647E+00  0.6130E+01
     -6.524  0.8923E+00  0.6248E+01
     -6.392  0.1092E+01  0.6359E+01
     -6.259  0.7256E+00  0.6482E+01
     -6.127  0.6228E+00  0.6569E+01
     -5.995  0.6053E+00  0.6652E+01
     -5.863  0.1237E+01  0.6818E+01
     -5.731  0.9272E+00  0.6961E+01
     -5.599  0.9924E+00  0.7078E+01
     -5.467  0.6951E+00  0.7190E+01
     -5.334  0.6666E+00  0.7278E+01
     -5.202  0.6664E+00  0.7366E+01
     -5.070  0.6749E+00  0.7455E+01
     -4.938  0.6800E+00  0.7544E+01
     -4.806  0.6836E+00  0.7635E+01
     -4.674  0.6841E+00  0.7725E+01
     -4.542  0.6891E+00  0.7816E+01
     -4.409  0.6995E+00  0.7907E+01
     -4.277  0.7109E+00  0.8001E+01
     -4.145  0.7229E+00  0.8095E+01
     -4.013  0.7277E+00  0.8191E+01
     -3.881  0.7421E+00  0.8288E+01
     -3.749  0.7671E+00  0.8388E+01
     -3.617  0.8013E+00  0.8491E+01
     -3.485  0.9837E+00  0.8602E+01
     -3.352  0.9095E+00  0.8735E+01
     -3.220  0.7368E+00  0.8841E+01
     -3.088  0.7111E+00  0.8937E+01
     -2.956  0.6592E+00  0.9051E+01
     -2.824  0.6725E+00  0.9139E+01
     -2.692  0.6905E+00  0.9229E+01
     -2.560  0.8802E+00  0.9331E+01
     -2.427  0.8604E+00  0.9446E+01
     -2.295  0.7029E+00  0.9587E+01
     -2.163  0.6933E+00  0.9676E+01
     -2.031  0.3837E+00  0.9743E+01
     -1.899  0.4539E+00  0.9796E+01
     -1.767  0.7323E+00  0.9879E+01
     -1.635  0.6896E+00  0.9985E+01
     -1.502  0.5687E+00  0.1006E+02
     -1.370  0.6042E+00  0.1014E+02
     -1.238  0.5653E+00  0.1022E+02
     -1.106  0.5017E+00  0.1029E+02
     -0.974  0.4971E+00  0.1036E+02
     -0.842  0.5273E+00  0.1042E+02
     -0.710  0.5664E+00  0.1050E+02
     -0.577  0.6761E+00  0.1058E+02
     -0.445  0.4565E+00  0.1065E+02
     -0.313  0.5147E+00  0.1072E+02
     -0.181  0.6015E+00  0.1079E+02
     -0.049  0.6347E+00  0.1087E+02
      0.083  0.6510E+00  0.1096E+02
      0.215  0.7456E+00  0.1105E+02
      0.347  0.7940E+00  0.1116E+02
      0.480  0.8819E+00  0.1126E+02
      0.612  0.9196E+00  0.1139E+02
      0.744  0.8963E+00  0.1151E+02
      0.876  0.9115E+00  0.1162E+02
      1.008  0.9413E+00  0.1175E+02
      1.140  0.1132E+01  0.1189E+02
      1.272  0.1085E+01  0.1203E+02
      1.405  0.1275E+01  0.1218E+02
      1.537  0.1469E+01  0.1240E+02
      1.669  0.1436E+01  0.1259E+02
      1.801  0.1410E+01  0.1278E+02
      1.933  0.1127E+01  0.1295E+02
      2.065  0.9116E+00  0.1308E+02
      2.197  0.8469E+00  0.1320E+02
      2.330  0.8195E+00  0.1331E+02
      2.462  0.1041E+01  0.1343E+02
      2.594  0.1299E+01  0.1358E+02
      2.726  0.1492E+01  0.1377E+02
      2.858  0.1741E+01  0.1398E+02
      2.990  0.1226E+01  0.1418E+02
      3.122  0.1135E+01  0.1433E+02
      3.254  0.1225E+01  0.1453E+02
      3.387  0.1522E+01  0.1471E+02
      3.519  0.1916E+01  0.1492E+02
      3.651  0.1485E+01  0.1515E+02
      3.783  0.2026E+01  0.1538E+02
      3.915  0.2403E+01  0.1575E+02
      4.047  0.2575E+01  0.1605E+02
      4.179  0.2120E+01  0.1637E+02
      4.312  0.1615E+01  0.1661E+02
      4.444  0.1257E+01  0.1682E+02
      4.576  0.1245E+01  0.1698E+02
      4.708  0.1304E+01  0.1715E+02
      4.840  0.1372E+01  0.1733E+02
      4.972  0.1575E+01  0.1757E+02
      5.104  0.1355E+01  0.1775E+02
      5.237  0.1352E+01  0.1793E+02
      5.369  0.1433E+01  0.1812E+02
      5.501  0.1352E+01  0.1830E+02
      5.633  0.1150E+01  0.1846E+02
      5.765  0.1074E+01  0.1861E+02
      5.897  0.1134E+01  0.1876E+02
      6.029  0.2397E+01  0.1896E+02
      6.162  0.9075E+00  0.1914E+02
      6.294  0.1223E+01  0.1927E+02
      6.426  0.9519E+00  0.1943E+02
      6.558  0.7041E+00  0.1959E+02
      6.690  0.7591E+00  0.1969E+02
      6.822  0.7942E+00  0.1980E+02
      6.954  0.1062E+01  0.1991E+02
      7.086  0.7690E+00  0.2007E+02
      7.219  0.8276E+00  0.2017E+02
      7.351  0.7804E+00  0.2028E+02
      7.483  0.8105E+00  0.2039E+02
      7.615  0.6129E+00  0.2048E+02
      7.747  0.5400E+00  0.2056E+02
      7.879  0.4649E+00  0.2062E+02
      8.011  0.4594E+00  0.2068E+02
      8.144  0.4271E+00  0.2074E+02
      8.276  0.4108E+00  0.2080E+02
      8.408  0.4077E+00  0.2085E+02
      8.540  0.3736E+00  0.2090E+02
      8.672  0.5012E+00  0.2096E+02
      8.804  0.6493E+00  0.2105E+02
      8.936  0.8787E+00  0.2115E+02
      9.069  0.1166E+01  0.2128E+02
      9.201  0.1078E+01  0.2144E+02
      9.333  0.1131E+01  0.2158E+02
      9.465  0.1132E+01  0.2173E+02
      9.597  0.1046E+01  0.2187E+02
      9.729  0.1007E+01  0.2201E+02
      9.861  0.9196E+00  0.2213E+02
      9.993  0.8198E+00  0.2225E+02
     10.126  0.7180E+00  0.2235E+02
     10.258  0.7363E+00  0.2244E+02
     10.390  0.7827E+00  0.2254E+02
     10.522  0.6910E+00  0.2264E+02
     10.654  0.6481E+00  0.2273E+02
     10.786  0.6502E+00  0.2282E+02
     10.918  0.6160E+00  0.2290E+02
     11.051  0.5920E+00  0.2298E+02
     11.183  0.5837E+00  0.2306E+02
     11.315  0.5829E+00  0.2313E+02
     11.447  0.6878E+00  0.2322E+02
     11.579  0.8712E+00  0.2332E+02
     11.711  0.8318E+00  0.2343E+02
     11.843  0.7908E+00  0.2354E+02
     11.976  0.6970E+00  0.2363E+02
     12.108  0.6014E+00  0.2372E+02
     12.240  0.4474E+00  0.2379E+02
     12.372  0.3430E+00  0.2384E+02
     12.504  0.2913E+00  0.2388E+02
     12.636  0.2420E+00  0.2392E+02
     12.768  0.1946E+00  0.2395E+02
     12.901  0.1425E+00  0.2397E+02
     13.033  0.1001E+00  0.2399E+02
     13.165  0.4672E-01  0.2400E+02
     13.297  0.1224E-01  0.2400E+02
     13.429  0.0000E+00  0.2400E+02
     13.561  0.0000E+00  0.2400E+02
     13.693  0.0000E+00  0.2400E+02
     13.825  0.0000E+00  0.2400E+02
     13.958  0.0000E+00  0.2400E+02
     14.090  0.0000E+00  0.2400E+02
     14.222  0.0000E+00  0.2400E+02
     14.354  0.0000E+00  0.2400E+02
     14.486  0.0000E+00  0.2400E+02
     14.618  0.0000E+00  0.2400E+02
     14.750  0.0000E+00  0.2400E+02
     14.883  0.0000E+00  0.2400E+02
     15.015  0.0000E+00  0.2400E+02
     15.147  0.0000E+00  0.2400E+02
     15.279  0.0000E+00  0.2400E+02
     15.411  0.0000E+00  0.2400E+02
