    4    4    1    1
  0.9039140E+01  0.2500000E-09  0.2500000E-09  0.6680000E-09  0.5000000E-15
  1.000000000000000E-004
  CAR 
 BN                                      
     16    120     12
 
  0.0000000E+00  0.0000000E+00  0.0000000E+00  0.6510417E-03
    1      -22.230040
    2       -8.025632
    3       -6.639985
    4       -5.456033
    5       -5.454646
    6       -0.161515
    7        3.255475
    8        5.943618
    9        5.945721
   10        7.292956
   11        7.293059
   12        7.848164
 
  0.6250000E-01 -0.6938894E-17  0.0000000E+00  0.3906250E-02
    1      -22.141296
    2       -7.940517
    3       -6.544966
    4       -5.900685
    5       -5.602263
    6       -0.048730
    7        3.538269
    8        6.019460
    9        6.242880
   10        6.941439
   11        7.048009
   12        7.655102
 
  0.1250000E+00 -0.1387779E-16  0.0000000E+00  0.3906250E-02
    1      -21.876297
    2       -7.685921
    3       -7.033809
    4       -6.259498
    5       -5.987853
    6        0.288827
    7        3.988454
    8        5.989879
    9        6.435393
   10        6.437287
   11        7.062708
   12        7.129467
 
  0.1875000E+00 -0.1387779E-16  0.0000000E+00  0.3906250E-02
    1      -21.438021
    2       -8.520696
    3       -7.263528
    4       -6.500865
    5       -5.790740
    6        0.847869
    7        4.051780
    8        4.665710
    9        5.678606
   10        6.305524
   11        7.501481
   12        8.268484
 
  0.2500000E+00 -0.2775558E-16  0.0000000E+00  0.3906250E-02
    1      -20.832741
    2      -10.137251
    3       -7.031160
    4       -6.676837
    5       -5.153687
    6        1.620868
    7        3.164054
    8        3.836004
    9        4.940000
   10        5.264439
   11        8.949846
   12        9.699197
 
  0.3125000E+00 -0.2775558E-16  0.0000000E+00  0.3906250E-02
    1      -20.071497
    2      -11.756838
    3       -7.500151
    4       -5.931144
    5       -4.371092
    6        1.618991
    7        2.589327
    8        3.561706
    9        4.096063
   10        4.310420
   11       10.487841
   12       10.962947
 
  0.3750000E+00 -0.2775558E-16  0.0000000E+00  0.3906250E-02
    1      -19.184691
    2      -13.290579
    3       -7.866110
    4       -5.037105
    5       -3.506516
    6        0.114717
    7        2.869602
    8        3.322784
    9        3.759576
   10        3.837425
   11       11.507967
   12       11.818136
 
  0.4375000E+00 -0.2775558E-16  0.0000000E+00  0.3906250E-02
    1      -18.263825
    2      -14.609690
    3       -8.095072
    4       -4.025797
    5       -2.700493
    6       -1.276233
    7        1.861598
    8        3.166679
    9        3.545758
   10        4.926917
   11        9.781009
   12       12.772611
 
  0.5000000E+00 -0.5551115E-16  0.0000000E+00  0.1953125E-02
    1      -17.739327
    2      -15.270343
    3       -8.173065
    4       -3.245676
    5       -2.316052
    6       -2.185012
    7        1.401066
    8        3.111871
    9        3.447354
   10        5.592624
   11        8.927228
   12       13.145228
 
  0.6250000E-01  0.6250000E-01  0.0000000E+00  0.3906250E-02
    1      -21.964260
    2       -7.770625
    3       -6.660066
    4       -6.353628
    5       -5.895300
    6        0.176533
    7        3.949363
    8        6.101374
    9        6.349806
   10        6.560254
   11        6.923485
   12        7.306833
 
  0.1250000E+00  0.6250000E-01  0.0000000E+00  0.7812500E-02
    1      -21.612503
    2       -7.908601
    3       -7.432124
    4       -6.403589
    5       -5.976181
    6        0.625003
    7        4.325466
    8        5.295187
    9        5.797651
   10        6.527452
   11        6.630542
   12        8.130127
 
  0.1875000E+00  0.6250000E-01  0.0000000E+00  0.7812500E-02
    1      -21.090469
    2       -9.403688
    3       -6.980480
    4       -6.926882
    5       -5.422676
    6        1.291659
    7        3.918128
    8        4.297918
    9        5.024329
   10        5.704872
   11        7.585451
   12        9.603984
 
  0.2500000E+00  0.6250000E-01  0.0000000E+00  0.7812500E-02
    1      -20.406436
    2      -10.985418
    3       -7.520164
    4       -6.261225
    5       -4.710443
    6        2.165595
    7        2.411243
    8        4.061893
    9        4.337225
   10        4.605344
   11        8.996580
   12       10.537492
 
  0.3125000E+00  0.6250000E-01  0.0000000E+00  0.7812500E-02
    1      -19.577947
    2      -12.542311
    3       -7.963206
    4       -5.440470
    5       -3.878286
    6        0.893385
    7        3.177026
    8        3.474382
    9        3.775604
   10        3.823483
   11       10.468671
   12       11.595803
 
  0.3750000E+00  0.6250000E-01  0.0000000E+00  0.7812500E-02
    1      -18.653979
    2      -13.975053
    3       -8.275899
    4       -4.481601
    5       -3.014306
    6       -0.556583
    7        2.283246
    8        3.406526
    9        3.619608
   10        4.429843
   11       10.611453
   12       11.716297
 
  0.4375000E+00  0.6250000E-01  0.0000000E+00  0.7812500E-02
    1      -17.830979
    2      -15.058979
    3       -8.434708
    4       -3.466615
    5       -2.350743
    6       -1.824053
    7        1.480495
    8        3.214305
    9        3.513943
   10        5.481844
   11        9.193073
   12       12.462927
 
  0.1250000E+00  0.1250000E+00  0.0000000E+00  0.3906250E-02
    1      -21.176690
    2       -9.066448
    3       -7.068758
    4       -7.009988
    5       -5.512552
    6        1.181584
    7        4.433691
    8        4.781020
    9        4.874033
   10        5.864835
   11        6.645308
   12        9.577717
 
  0.1875000E+00  0.1250000E+00  0.0000000E+00  0.7812500E-02
    1      -20.574957
    2      -10.416957
    3       -7.767439
    4       -6.427006
    5       -4.881502
    6        1.951538
    7        3.188676
    8        3.937261
    9        4.887634
   10        5.051783
   11        7.443280
   12       10.330494
 
  0.2500000E+00  0.1250000E+00  0.0000000E+00  0.7812500E-02
    1      -19.819316
    2      -11.857361
    3       -8.365552
    4       -5.684875
    5       -4.110106
    6        1.734940
    7        2.917202
    8        3.319261
    9        3.796143
   10        4.904610
   11        8.767314
   12       11.282026
 
  0.3125000E+00  0.1250000E+00  0.0000000E+00  0.7812500E-02
    1      -18.937185
    2      -13.282382
    3       -8.809993
    4       -4.795141
    5       -3.249307
    6        0.277480
    7        2.657094
    8        2.867571
    9        4.066294
   10        4.712215
   11       10.166663
   12       11.547356
 
  0.3750000E+00  0.1250000E+00  0.0000000E+00  0.7812500E-02
    1      -18.016571
    2      -14.547271
    3       -9.080316
    4       -3.787757
    5       -2.429352
    6       -1.089018
    7        1.669690
    8        2.591164
    9        4.577796
   10        5.253496
   11        9.858679
   12       11.281443
 
  0.4375000E+00  0.1250000E+00  0.0000000E+00  0.3906250E-02
    1      -17.482587
    2      -15.200631
    3       -9.172515
    4       -3.000887
    5       -2.030718
    6       -1.998419
    7        1.206549
    8        2.498093
    9        4.527748
   10        5.941585
   11        8.998594
   12       11.714962
 
  0.1875000E+00  0.1875000E+00  0.0000000E+00  0.3906250E-02
    1      -19.900088
    2      -11.537258
    3       -8.610766
    4       -5.766646
    5       -4.186505
    6        2.486572
    7        2.677505
    8        2.818099
    9        3.930427
   10        5.832059
   11        7.659139
   12       11.179190
 
  0.2500000E+00  0.1875000E+00  0.0000000E+00  0.7812500E-02
    1      -19.084329
    2      -12.754027
    3       -9.312634
    4       -4.954125
    5       -3.374575
    6        1.177024
    7        2.076180
    8        2.885145
    9        3.872374
   10        6.048348
   11        8.634499
   12       12.212749
 
  0.3125000E+00  0.1875000E+00  0.0000000E+00  0.7812500E-02
    1      -18.168849
    2      -13.980837
    3       -9.784947
    4       -4.004936
    5       -2.504607
    6       -0.203466
    7        1.726257
    8        1.855654
    9        5.061006
   10        5.993281
   11        9.874125
   12       10.647858
 
  0.3750000E+00  0.1875000E+00  0.0000000E+00  0.7812500E-02
    1      -17.330119
    2      -14.990731
    3      -10.017955
    4       -2.992388
    5       -1.795623
    6       -1.443058
    7        1.063982
    8        1.549652
    9        5.933529
   10        6.157134
   11        9.276798
   12       10.733577
 
  0.2500000E+00  0.2500000E+00  0.0000000E+00  0.3906250E-02
    1      -18.225745
    2      -13.706996
    3      -10.114146
    4       -4.079795
    5       -2.536779
    6        0.706151
    7        0.813551
    8        1.931422
    9        4.988336
   10        7.002712
   11        8.880477
   12       11.073144
 
  0.3125000E+00  0.2500000E+00  0.0000000E+00  0.7812500E-02
    1      -17.307974
    2      -14.688261
    3      -10.622333
    4       -3.089271
    5       -1.677874
    6       -0.538242
    7        0.518841
    8        1.015221
    9        6.194976
   10        7.347689
   11        9.603660
   12        9.726915
 
  0.3750000E+00  0.2500000E+00  0.0000000E+00  0.3906250E-02
    1      -16.715768
    2      -15.306736
    3      -10.794021
    4       -2.292053
    5       -1.437550
    6       -1.180978
    7        0.432980
    8        0.496275
    9        6.984491
   10        7.397726
   11        8.876261
   12       10.011401
 
  0.3125000E+00  0.3125000E+00  0.0000000E+00  0.3906250E-02
    1      -16.428457
    2      -15.449291
    3      -11.105732
    4       -2.126548
    5       -0.835571
    6       -0.814761
    7       -0.500297
    8        0.171059
    9        7.374929
   10        8.414812
   11        8.705987
   12        9.297194
 
  0.0000000E+00  0.0000000E+00  0.1666667E+00  0.1302083E-02
    1      -22.230042
    2       -8.064639
    3       -6.571795
    4       -5.457106
    5       -5.455720
    6       -0.261554
    7        3.255457
    8        5.949913
    9        5.951864
   10        7.292882
   11        7.838979
   12        8.624652
 
  0.6250000E-01 -0.6938894E-17  0.1666667E+00  0.7812500E-02
    1      -22.141377
    2       -7.978796
    3       -6.477163
    4       -5.899119
    5       -5.601851
    6       -0.147988
    7        3.538501
    8        6.018661
    9        6.245003
   10        6.941183
   11        7.047930
   12        7.659213
 
  0.1250000E+00 -0.1387779E-16  0.1666667E+00  0.7812500E-02
    1      -21.876256
    2       -7.721987
    3       -7.034775
    4       -6.194569
    5       -5.987865
    6        0.191883
    7        3.988263
    8        5.989928
    9        6.435379
   10        6.438870
   11        7.068867
   12        7.131993
 
  0.1875000E+00 -0.1387779E-16  0.1666667E+00  0.7812500E-02
    1      -21.437988
    2       -8.521164
    3       -7.296312
    4       -6.499901
    5       -5.730817
    6        0.754806
    7        4.051407
    8        4.665319
    9        5.678550
   10        6.312551
   11        7.500659
   12        8.275370
 
  0.2500000E+00 -0.2775558E-16  0.1666667E+00  0.7812500E-02
    1      -20.832495
    2      -10.138216
    3       -7.030793
    4       -6.705769
    5       -5.099445
    6        1.533444
    7        3.163428
    8        3.836494
    9        4.939903
   10        5.266833
   11        8.949330
   12        9.698975
 
  0.3125000E+00 -0.2775558E-16  0.1666667E+00  0.7812500E-02
    1      -20.071916
    2      -11.757013
    3       -7.502284
    4       -5.956018
    5       -4.329258
    6        1.617377
    7        2.511548
    8        3.561668
    9        4.100022
   10        4.310285
   11       10.484737
   12       11.263858
 
  0.3750000E+00 -0.2775558E-16  0.1666667E+00  0.7812500E-02
    1      -19.184907
    2      -13.290560
    3       -7.866535
    4       -5.057884
    5       -3.472850
    6        0.114183
    7        2.885493
    8        3.321383
    9        3.685030
   10        3.837297
   11       11.409701
   12       11.907628
 
  0.4375000E+00 -0.2775558E-16  0.1666667E+00  0.7812500E-02
    1      -18.263749
    2      -14.609639
    3       -8.094744
    4       -4.042033
    5       -2.678716
    6       -1.267560
    7        1.876067
    8        3.166710
    9        3.545646
   10        4.866143
   11        9.724417
   12       12.850086
 
  0.5000000E+00 -0.5551115E-16  0.1666667E+00  0.3906250E-02
    1      -17.738812
    2      -15.269785
    3       -8.172178
    4       -3.248878
    5       -2.436487
    6       -2.047603
    7        1.416633
    8        3.112544
    9        3.447246
   10        5.541685
   11        8.863386
   12       13.224314
 
  0.6250000E-01  0.6250000E-01  0.1666667E+00  0.7812500E-02
    1      -21.964445
    2       -7.807479
    3       -6.660225
    4       -6.288384
    5       -5.895402
    6        0.078765
    7        3.949407
    8        6.099926
    9        6.348964
   10        6.560903
   11        6.920061
   12        7.305659
 
  0.1250000E+00  0.6250000E-01  0.1666667E+00  0.1562500E-01
    1      -21.612663
    2       -7.908229
    3       -7.466259
    4       -6.403243
    5       -5.915267
    6        0.530279
    7        4.324937
    8        5.294355
    9        5.798247
   10        6.526195
   11        6.632778
   12        8.129765
 
  0.1875000E+00  0.6250000E-01  0.1666667E+00  0.1562500E-01
    1      -21.090516
    2       -9.404230
    3       -6.980552
    4       -6.956944
    5       -5.367317
    6        1.201623
    7        3.917477
    8        4.298046
    9        5.024180
   10        5.708027
   11        7.584651
   12        9.603301
 
  0.2500000E+00  0.6250000E-01  0.1666667E+00  0.1562500E-01
    1      -20.406354
    2      -10.985531
    3       -7.519235
    4       -6.287727
    5       -4.662608
    6        2.081631
    7        2.411136
    8        4.062975
    9        4.335590
   10        4.613971
   11        8.996752
   12       10.851878
 
  0.3125000E+00  0.6250000E-01  0.1666667E+00  0.1562500E-01
    1      -19.578410
    2      -12.542104
    3       -7.963509
    4       -5.463019
    5       -3.841386
    6        0.892041
    7        3.124638
    8        3.459992
    9        3.778931
   10        3.821527
   11       10.461463
   12       11.862418
 
  0.3750000E+00  0.6250000E-01  0.1666667E+00  0.1562500E-01
    1      -18.654053
    2      -13.975086
    3       -8.274628
    4       -4.500023
    5       -2.983878
    6       -0.555091
    7        2.296198
    8        3.407575
    9        3.617997
   10        4.363067
   11       10.553876
   12       11.751302
 
  0.4375000E+00  0.6250000E-01  0.1666667E+00  0.1562500E-01
    1      -17.830870
    2      -15.058816
    3       -8.434787
    4       -3.478041
    5       -2.369441
    6       -1.781798
    7        1.494540
    8        3.215076
    9        3.514051
   10        5.427865
   11        9.135344
   12       12.494898
 
  0.1250000E+00  0.1250000E+00  0.1666667E+00  0.7812500E-02
    1      -21.176759
    2       -9.068153
    3       -7.071378
    4       -7.040508
    5       -5.456928
    6        1.090675
    7        4.431947
    8        4.782527
    9        4.872077
   10        5.862284
   11        6.644158
   12        9.653697
 
  0.1875000E+00  0.1250000E+00  0.1666667E+00  0.1562500E-01
    1      -20.575252
    2      -10.416576
    3       -7.768519
    4       -6.454473
    5       -4.833396
    6        1.866237
    7        3.187055
    8        3.937288
    9        4.894258
   10        5.050602
   11        7.443339
   12       10.648120
 
  0.2500000E+00  0.1250000E+00  0.1666667E+00  0.1562500E-01
    1      -19.819462
    2      -11.856951
    3       -8.366253
    4       -5.708439
    5       -4.067886
    6        1.732957
    7        2.841378
    8        3.316574
    9        3.808743
   10        4.903239
   11        8.766037
   12       11.575030
 
  0.3125000E+00  0.1250000E+00  0.1666667E+00  0.1562500E-01
    1      -18.937285
    2      -13.281556
    3       -8.810412
    4       -4.814818
    5       -3.213968
    6        0.276469
    7        2.661178
    8        2.877884
    9        3.996453
   10        4.712394
   11       10.159329
   12       11.525011
 
  0.3750000E+00  0.1250000E+00  0.1666667E+00  0.1562500E-01
    1      -18.016643
    2      -14.547687
    3       -9.081160
    4       -3.803235
    5       -2.410792
    6       -1.081177
    7        1.678118
    8        2.594312
    9        4.575734
   10        5.194796
   11        9.809716
   12       11.303274
 
  0.4375000E+00  0.1250000E+00  0.1666667E+00  0.7812500E-02
    1      -17.482687
    2      -15.200660
    3       -9.172360
    4       -3.004116
    5       -2.188211
    6       -1.826413
    7        1.216472
    8        2.500647
    9        4.527112
   10        5.890934
   11        8.947194
   12       11.737054
 
  0.1875000E+00  0.1875000E+00  0.1666667E+00  0.7812500E-02
    1      -19.900492
    2      -11.538385
    3       -8.612310
    4       -5.790616
    5       -4.144419
    6        2.481622
    7        2.672988
    8        2.745543
    9        3.936213
   10        5.830354
   11        7.653905
   12       11.474858
 
  0.2500000E+00  0.1875000E+00  0.1666667E+00  0.1562500E-01
    1      -19.083905
    2      -12.753604
    3       -9.312432
    4       -4.974313
    5       -3.333484
    6        1.174496
    7        2.072257
    8        2.899956
    9        3.802538
   10        6.049264
   11        8.635465
   12       12.305511
 
  0.3125000E+00  0.1875000E+00  0.1666667E+00  0.1562500E-01
    1      -18.168891
    2      -13.980823
    3       -9.784561
    4       -4.021627
    5       -2.476659
    6       -0.203463
    7        1.697200
    8        1.895690
    9        5.000054
   10        5.991633
   11        9.865316
   12       10.634474
 
  0.3750000E+00  0.1875000E+00  0.1666667E+00  0.1562500E-01
    1      -17.330128
    2      -14.990720
    3      -10.018527
    4       -3.002940
    5       -1.826166
    6       -1.392866
    7        1.060606
    8        1.562702
    9        5.932447
   10        6.104796
   11        9.234997
   12       10.753799
 
  0.2500000E+00  0.2500000E+00  0.1666667E+00  0.7812500E-02
    1      -18.225108
    2      -13.706360
    3      -10.113328
    4       -4.096709
    5       -2.503331
    6        0.708782
    7        0.802104
    8        1.950513
    9        4.927199
   10        7.003543
   11        8.880358
   12       11.046040
 
  0.3125000E+00  0.2500000E+00  0.1666667E+00  0.1562500E-01
    1      -17.308374
    2      -14.688179
    3      -10.622777
    4       -3.102599
    5       -1.666166
    6       -0.533564
    7        0.501010
    8        1.043286
    9        6.140905
   10        7.343355
   11        9.574190
   12        9.732445
 
  0.3750000E+00  0.2500000E+00  0.1666667E+00  0.7812500E-02
    1      -16.716101
    2      -15.306528
    3      -10.793404
    4       -2.295111
    5       -1.516858
    6       -1.093077
    7        0.355659
    8        0.583296
    9        6.933602
   10        7.393341
   11        8.844150
   12       10.026982
 
  0.3125000E+00  0.3125000E+00  0.1666667E+00  0.7812500E-02
    1      -16.429084
    2      -15.449026
    3      -11.105179
    4       -2.133750
    5       -0.946760
    6       -0.688558
    7       -0.528800
    8        0.207362
    9        7.322323
   10        8.355134
   11        8.731352
   12        9.312241
 
  0.0000000E+00  0.0000000E+00  0.3333333E+00  0.1302083E-02
    1      -22.230002
    2       -8.134243
    3       -6.438160
    4       -5.453319
    5       -5.451956
    6       -0.456366
    7        3.255579
    8        5.948251
    9        5.950225
   10        7.292796
   11        7.292899
   12        7.850830
 
  0.6250000E-01 -0.6938894E-17  0.3333333E+00  0.7812500E-02
    1      -22.141285
    2       -8.047258
    3       -6.345161
    4       -5.899087
    5       -5.599639
    6       -0.341270
    7        3.538520
    8        6.016226
    9        6.245540
   10        6.940506
   11        7.048077
   12        7.664399
 
  0.1250000E+00 -0.1387779E-16  0.3333333E+00  0.7812500E-02
    1      -21.876080
    2       -7.786980
    3       -7.036047
    4       -6.068218
    5       -5.986687
    6        0.002982
    7        3.988334
    8        5.989705
    9        6.435352
   10        6.436925
   11        7.068806
   12        7.137977
 
  0.1875000E+00 -0.1387779E-16  0.3333333E+00  0.7812500E-02
    1      -21.437824
    2       -8.522804
    3       -7.356116
    4       -6.500059
    5       -5.614737
    6        0.573464
    7        4.050718
    8        4.664213
    9        5.678410
   10        6.313562
   11        7.499340
   12        8.275865
 
  0.2500000E+00 -0.2775558E-16  0.3333333E+00  0.7812500E-02
    1      -20.832251
    2      -10.137451
    3       -7.030947
    4       -6.758890
    5       -4.996068
    6        1.363481
    7        3.161685
    8        3.837898
    9        4.939716
   10        5.277934
   11        8.953713
   12        9.702962
 
  0.3125000E+00 -0.2775558E-16  0.3333333E+00  0.7812500E-02
    1      -20.072056
    2      -11.756850
    3       -7.501617
    4       -6.002237
    5       -4.239733
    6        1.614976
    7        2.358984
    8        3.561850
    9        4.112333
   10        4.310081
   11       10.475871
   12       11.173132
 
  0.3750000E+00 -0.2775558E-16  0.3333333E+00  0.7812500E-02
    1      -19.184894
    2      -13.289585
    3       -7.866463
    4       -5.097091
    5       -3.401291
    6        0.113676
    7        2.917712
    8        3.320184
    9        3.538131
   10        3.837067
   11       11.265319
   12       12.034016
 
  0.4375000E+00 -0.2775558E-16  0.3333333E+00  0.7812500E-02
    1      -18.264161
    2      -14.609861
    3       -8.093631
    4       -4.073337
    5       -2.645053
    6       -1.248965
    7        1.904268
    8        3.166274
    9        3.545431
   10        4.746715
   11        9.615799
   12       12.967548
 
  0.5000000E+00 -0.5551115E-16  0.3333333E+00  0.3906250E-02
    1      -17.738943
    2      -15.269813
    3       -8.171295
    4       -3.255274
    5       -2.557267
    6       -1.903799
    7        1.449863
    8        3.111878
    9        3.447021
   10        5.441164
   11        8.740186
   12       13.354327
 
  0.6250000E-01  0.6250000E-01  0.3333333E+00  0.7812500E-02
    1      -21.964326
    2       -7.873639
    3       -6.661074
    4       -6.160284
    5       -5.894369
    6       -0.111596
    7        3.948576
    8        6.102784
    9        6.347297
   10        6.561739
   11        6.916216
   12        7.309887
 
  0.1250000E+00  0.6250000E-01  0.3333333E+00  0.1562500E-01
    1      -21.612450
    2       -7.908307
    3       -7.528013
    4       -6.403178
    5       -5.793917
    6        0.345973
    7        4.325193
    8        5.292500
    9        5.799188
   10        6.525652
   11        6.641206
   12        8.128332
 
  0.1875000E+00  0.6250000E-01  0.3333333E+00  0.1562500E-01
    1      -21.090396
    2       -9.405321
    3       -7.014278
    4       -6.979390
    5       -5.258261
    6        1.026708
    7        3.915853
    8        4.296930
    9        5.023755
   10        5.717357
   11        7.583868
   12        9.600751
 
  0.2500000E+00  0.6250000E-01  0.3333333E+00  0.1562500E-01
    1      -20.406174
    2      -10.984873
    3       -7.519693
    4       -6.336828
    5       -4.566982
    6        1.920585
    7        2.408366
    8        4.064902
    9        4.332458
   10        4.628134
   11        8.994602
   12       11.145301
 
  0.3125000E+00  0.6250000E-01  0.3333333E+00  0.1562500E-01
    1      -19.578361
    2      -12.541753
    3       -7.962636
    4       -5.505144
    5       -3.760354
    6        0.889788
    7        3.002638
    8        3.450159
    9        3.787516
   10        3.817152
   11       10.450624
   12       12.271887
 
  0.3750000E+00  0.6250000E-01  0.3333333E+00  0.1562500E-01
    1      -18.654482
    2      -13.974866
    3       -8.273422
    4       -4.535346
    5       -2.927341
    6       -0.551491
    7        2.322465
    8        3.409785
    9        3.616038
   10        4.232381
   11       10.447047
   12       11.806590
 
  0.4375000E+00  0.6250000E-01  0.3333333E+00  0.1562500E-01
    1      -17.831005
    2      -15.058717
    3       -8.433274
    4       -3.500502
    5       -2.404583
    6       -1.704353
    7        1.523269
    8        3.216671
    9        3.513561
   10        5.321647
   11        9.023515
   12       12.556403
 
  0.1250000E+00  0.1250000E+00  0.3333333E+00  0.7812500E-02
    1      -21.176680
    2       -9.067684
    3       -7.099837
    4       -7.067981
    5       -5.344658
    6        0.914161
    7        4.428605
    8        4.785185
    9        4.870142
   10        5.873388
   11        6.644943
   12        9.653554
 
  0.1875000E+00  0.1250000E+00  0.3333333E+00  0.1562500E-01
    1      -20.574867
    2      -10.416814
    3       -7.769351
    4       -6.505208
    5       -4.733721
    6        1.700899
    7        3.183457
    8        3.937162
    9        4.906949
   10        5.049575
   11        7.442849
   12       11.264606
 
  0.2500000E+00  0.1250000E+00  0.3333333E+00  0.1562500E-01
    1      -19.819405
    2      -11.856859
    3       -8.367055
    4       -5.752491
    5       -3.983283
    6        1.729494
    7        2.692638
    8        3.311308
    9        3.823553
   10        4.902860
   11        8.764243
   12       12.342028
 
  0.3125000E+00  0.1250000E+00  0.3333333E+00  0.1562500E-01
    1      -18.937342
    2      -13.281490
    3       -8.810301
    4       -4.852231
    5       -3.146512
    6        0.274729
    7        2.661459
    8        2.899171
    9        3.859400
   10        4.712028
   11       10.145725
   12       11.491158
 
  0.3750000E+00  0.1250000E+00  0.3333333E+00  0.1562500E-01
    1      -18.016639
    2      -14.547566
    3       -9.081296
    4       -3.833005
    5       -2.376879
    6       -1.064278
    7        1.696585
    8        2.600884
    9        4.575221
   10        5.079941
   11        9.715578
   12       11.346678
 
  0.4375000E+00  0.1250000E+00  0.3333333E+00  0.7812500E-02
    1      -17.482499
    2      -15.200588
    3       -9.172222
    4       -3.010533
    5       -2.309167
    6       -1.680416
    7        1.238386
    8        2.505926
    9        4.527297
   10        5.791467
   11        8.846863
   12       11.786365
 
  0.1875000E+00  0.1875000E+00  0.3333333E+00  0.7812500E-02
    1      -19.900581
    2      -11.538170
    3       -8.612881
    4       -5.835323
    5       -4.059464
    6        2.471929
    7        2.583109
    8        2.685645
    9        3.955220
   10        5.827867
   11        7.651151
   12       12.835970
 
  0.2500000E+00  0.1875000E+00  0.3333333E+00  0.1562500E-01
    1      -19.084495
    2      -12.753612
    3       -9.312614
    4       -5.012815
    5       -3.265694
    6        1.169579
    7        2.065013
    8        2.925129
    9        3.665225
   10        6.046481
   11        8.631989
   12       12.262713
 
  0.3125000E+00  0.1875000E+00  0.3333333E+00  0.1562500E-01
    1      -18.169149
    2      -13.980705
    3       -9.785062
    4       -4.053585
    5       -2.425391
    6       -0.203129
    7        1.660530
    8        1.951010
    9        4.880818
   10        5.989433
   11        9.842243
   12       10.610603
 
  0.3750000E+00  0.1875000E+00  0.3333333E+00  0.1562500E-01
    1      -17.330349
    2      -14.990926
    3      -10.018560
    4       -3.023731
    5       -1.872836
    6       -1.308542
    7        1.056092
    8        1.588716
    9        5.928269
   10        6.003032
   11        9.153594
   12       10.788201
 
  0.2500000E+00  0.2500000E+00  0.3333333E+00  0.7812500E-02
    1      -18.225367
    2      -13.706630
    3      -10.113312
    4       -4.129215
    5       -2.448598
    6        0.714303
    7        0.779867
    8        1.981754
    9        4.807026
   10        6.999327
   11        8.879976
   12       10.992364
 
  0.3125000E+00  0.2500000E+00  0.3333333E+00  0.1562500E-01
    1      -17.308791
    2      -14.688321
    3      -10.622961
    4       -3.128306
    5       -1.638411
    6       -0.523659
    7        0.470687
    8        1.094181
    9        6.035677
   10        7.334842
   11        9.517017
   12        9.742635
 
  0.3750000E+00  0.2500000E+00  0.3333333E+00  0.7812500E-02
    1      -16.715987
    2      -15.306744
    3      -10.793162
    4       -2.301225
    5       -1.615542
    6       -0.974992
    7        0.284724
    8        0.670161
    9        6.834693
   10        7.378171
   11        8.781352
   12       10.056125
 
  0.3125000E+00  0.3125000E+00  0.3333333E+00  0.7812500E-02
    1      -16.429499
    2      -15.449255
    3      -11.105196
    4       -2.148020
    5       -1.026252
    6       -0.579280
    7       -0.579261
    8        0.270390
    9        7.220754
   10        8.253103
   11        8.764367
   12        9.338111
 
  0.0000000E+00  0.0000000E+00  0.5000000E+00  0.6510417E-03
    1      -22.229332
    2       -8.165454
    3       -6.367343
    4       -5.453034
    5       -5.451670
    6       -0.551643
    7        3.255565
    8        5.949947
    9        5.951923
   10        7.292751
   11        7.292853
   12        7.862697
 