Automatically generated mesh
     120
Reciprocal lattice
    0.00000000000000    0.00000000000000    0.00000000000000             1
    0.06250000000000   -0.00000000000000    0.00000000000000             6
    0.12500000000000   -0.00000000000000    0.00000000000000             6
    0.18750000000000   -0.00000000000000    0.00000000000000             6
    0.25000000000000   -0.00000000000000    0.00000000000000             6
    0.31250000000000   -0.00000000000000    0.00000000000000             6
    0.37500000000000   -0.00000000000000    0.00000000000000             6
    0.43750000000000   -0.00000000000000    0.00000000000000             6
    0.50000000000000   -0.00000000000000    0.00000000000000             3
    0.06250000000000    0.06250000000000    0.00000000000000             6
    0.12500000000000    0.06250000000000    0.00000000000000            12
    0.18750000000000    0.06250000000000    0.00000000000000            12
    0.25000000000000    0.06250000000000    0.00000000000000            12
    0.31250000000000    0.06250000000000    0.00000000000000            12
    0.37500000000000    0.06250000000000    0.00000000000000            12
    0.43750000000000    0.06250000000000    0.00000000000000            12
    0.12500000000000    0.12500000000000    0.00000000000000             6
    0.18750000000000    0.12500000000000    0.00000000000000            12
    0.25000000000000    0.12500000000000    0.00000000000000            12
    0.31250000000000    0.12500000000000    0.00000000000000            12
    0.37500000000000    0.12500000000000    0.00000000000000            12
    0.43750000000000    0.12500000000000    0.00000000000000             6
    0.18750000000000    0.18750000000000    0.00000000000000             6
    0.25000000000000    0.18750000000000    0.00000000000000            12
    0.31250000000000    0.18750000000000    0.00000000000000            12
    0.37500000000000    0.18750000000000    0.00000000000000            12
    0.25000000000000    0.25000000000000    0.00000000000000             6
    0.31250000000000    0.25000000000000    0.00000000000000            12
    0.37500000000000    0.25000000000000    0.00000000000000             6
    0.31250000000000    0.31250000000000    0.00000000000000             6
    0.00000000000000    0.00000000000000    0.16666666666667             2
    0.06250000000000   -0.00000000000000    0.16666666666667            12
    0.12500000000000   -0.00000000000000    0.16666666666667            12
    0.18750000000000   -0.00000000000000    0.16666666666667            12
    0.25000000000000   -0.00000000000000    0.16666666666667            12
    0.31250000000000   -0.00000000000000    0.16666666666667            12
    0.37500000000000   -0.00000000000000    0.16666666666667            12
    0.43750000000000   -0.00000000000000    0.16666666666667            12
    0.50000000000000   -0.00000000000000    0.16666666666667             6
    0.06250000000000    0.06250000000000    0.16666666666667            12
    0.12500000000000    0.06250000000000    0.16666666666667            24
    0.18750000000000    0.06250000000000    0.16666666666667            24
    0.25000000000000    0.06250000000000    0.16666666666667            24
    0.31250000000000    0.06250000000000    0.16666666666667            24
    0.37500000000000    0.06250000000000    0.16666666666667            24
    0.43750000000000    0.06250000000000    0.16666666666667            24
    0.12500000000000    0.12500000000000    0.16666666666667            12
    0.18750000000000    0.12500000000000    0.16666666666667            24
    0.25000000000000    0.12500000000000    0.16666666666667            24
    0.31250000000000    0.12500000000000    0.16666666666667            24
    0.37500000000000    0.12500000000000    0.16666666666667            24
    0.43750000000000    0.12500000000000    0.16666666666667            12
    0.18750000000000    0.18750000000000    0.16666666666667            12
    0.25000000000000    0.18750000000000    0.16666666666667            24
    0.31250000000000    0.18750000000000    0.16666666666667            24
    0.37500000000000    0.18750000000000    0.16666666666667            24
    0.25000000000000    0.25000000000000    0.16666666666667            12
    0.31250000000000    0.25000000000000    0.16666666666667            24
    0.37500000000000    0.25000000000000    0.16666666666667            12
    0.31250000000000    0.31250000000000    0.16666666666667            12
    0.00000000000000    0.00000000000000    0.33333333333333             2
    0.06250000000000   -0.00000000000000    0.33333333333333            12
    0.12500000000000   -0.00000000000000    0.33333333333333            12
    0.18750000000000   -0.00000000000000    0.33333333333333            12
    0.25000000000000   -0.00000000000000    0.33333333333333            12
    0.31250000000000   -0.00000000000000    0.33333333333333            12
    0.37500000000000   -0.00000000000000    0.33333333333333            12
    0.43750000000000   -0.00000000000000    0.33333333333333            12
    0.50000000000000   -0.00000000000000    0.33333333333333             6
    0.06250000000000    0.06250000000000    0.33333333333333            12
    0.12500000000000    0.06250000000000    0.33333333333333            24
    0.18750000000000    0.06250000000000    0.33333333333333            24
    0.25000000000000    0.06250000000000    0.33333333333333            24
    0.31250000000000    0.06250000000000    0.33333333333333            24
    0.37500000000000    0.06250000000000    0.33333333333333            24
    0.43750000000000    0.06250000000000    0.33333333333333            24
    0.12500000000000    0.12500000000000    0.33333333333333            12
    0.18750000000000    0.12500000000000    0.33333333333333            24
    0.25000000000000    0.12500000000000    0.33333333333333            24
    0.31250000000000    0.12500000000000    0.33333333333333            24
    0.37500000000000    0.12500000000000    0.33333333333333            24
    0.43750000000000    0.12500000000000    0.33333333333333            12
    0.18750000000000    0.18750000000000    0.33333333333333            12
    0.25000000000000    0.18750000000000    0.33333333333333            24
    0.31250000000000    0.18750000000000    0.33333333333333            24
    0.37500000000000    0.18750000000000    0.33333333333333            24
    0.25000000000000    0.25000000000000    0.33333333333333            12
    0.31250000000000    0.25000000000000    0.33333333333333            24
    0.37500000000000    0.25000000000000    0.33333333333333            12
    0.31250000000000    0.31250000000000    0.33333333333333            12
    0.00000000000000    0.00000000000000    0.50000000000000             1
    0.06250000000000   -0.00000000000000    0.50000000000000             6
    0.12500000000000   -0.00000000000000    0.50000000000000             6
    0.18750000000000   -0.00000000000000    0.50000000000000             6
    0.25000000000000   -0.00000000000000    0.50000000000000             6
    0.31250000000000   -0.00000000000000    0.50000000000000             6
    0.37500000000000   -0.00000000000000    0.50000000000000             6
    0.43750000000000   -0.00000000000000    0.50000000000000             6
    0.50000000000000   -0.00000000000000    0.50000000000000             3
    0.06250000000000    0.06250000000000    0.50000000000000             6
    0.12500000000000    0.06250000000000    0.50000000000000            12
    0.18750000000000    0.06250000000000    0.50000000000000            12
    0.25000000000000    0.06250000000000    0.50000000000000            12
    0.31250000000000    0.06250000000000    0.50000000000000            12
    0.37500000000000    0.06250000000000    0.50000000000000            12
    0.43750000000000    0.06250000000000    0.50000000000000            12
    0.12500000000000    0.12500000000000    0.50000000000000             6
    0.18750000000000    0.12500000000000    0.50000000000000            12
    0.25000000000000    0.12500000000000    0.50000000000000            12
    0.31250000000000    0.12500000000000    0.50000000000000            12
    0.37500000000000    0.12500000000000    0.50000000000000            12
    0.43750000000000    0.12500000000000    0.50000000000000             6
    0.18750000000000    0.18750000000000    0.50000000000000             6
    0.25000000000000    0.18750000000000    0.50000000000000            12
    0.31250000000000    0.18750000000000    0.50000000000000            12
    0.37500000000000    0.18750000000000    0.50000000000000            12
    0.25000000000000    0.25000000000000    0.50000000000000             6
    0.31250000000000    0.25000000000000    0.50000000000000            12
    0.37500000000000    0.25000000000000    0.50000000000000             6
    0.31250000000000    0.31250000000000    0.50000000000000             6
Tetrahedra
      1584    0.00010850694444
         8         2         2        10        32
         8         1         2         2        32
         4         1         2        31        32
         4         2        10        32        40
         8         2        32        32        40
         8         2        31        32        32
         8         3        10        11        40
         8         2         3        10        40
         4         2         3        32        40
         4         3        11        40        41
         8         3        33        40        41
         8         3        32        33        40
         8         4        11        12        41
         8         3         4        11        41
         4         3         4        33        41
         4         4        12        41        42
         8         4        34        41        42
         8         4        33        34        41
         8         5        12        13        42
         8         4         5        12        42
         4         4         5        34        42
         4         5        13        42        43
         8         5        35        42        43
         8         5        34        35        42
         8         6        13        14        43
         8         5         6        13        43
         4         5         6        35        43
         4         6        14        43        44
         8         6        36        43        44
         8         6        35        36        43
         8         7        14        15        44
         8         6         7        14        44
         4         6         7        36        44
         4         7        15        44        45
         8         7        37        44        45
         8         7        36        37        44
         8         8        15        16        45
         8         7         8        15        45
         4         7         8        37        45
         4         8        16        45        46
         8         8        38        45        46
         8         8        37        38        45
         8         9        16        16        46
         8         8         9        16        46
         4         8         9        38        46
         4         9        16        46        46
         4         9        39        46        46
         8         9        38        39        46
         8         8        15        16        46
         4         8         9        39        46
         4         8        15        45        46
         8         8        38        39        46
         8         7        14        15        45
         4         7         8        38        45
         4         7        14        44        45
         8         7        37        38        45
         8         6        13        14        44
         4         6         7        37        44
         4         6        13        43        44
         8         6        36        37        44
         8         5        12        13        43
         4         5         6        36        43
         4         5        12        42        43
         8         5        35        36        43
         8         4        11        12        42
         4         4         5        35        42
         4         4        11        41        42
         8         4        34        35        42
         8         3        10        11        41
         4         3         4        34        41
         4         3        10        40        41
         8         3        33        34        41
         4         2         2        10        40
         4         2         3        33        40
         4         2         2        32        40
         8         2        32        33        40
         4         1         2        32        32
         4         1        31        32        32
         8         3        10        11        33
         8         2         3        10        33
         4         2        10        32        33
         4        10        11        33        41
         8        10        33        40        41
         8        10        32        33        40
         8        11        11        17        41
         8        10        11        11        41
         4        10        11        40        41
         4        11        17        41        47
         8        11        41        41        47
         8        11        40        41        41
         8        12        17        18        47
         8        11        12        17        47
         4        11        12        41        47
         4        12        18        47        48
         8        12        42        47        48
         8        12        41        42        47
         8        13        18        19        48
         8        12        13        18        48
         4        12        13        42        48
         4        13        19        48        49
         8        13        43        48        49
         8        13        42        43        48
         8        14        19        20        49
         8        13        14        19        49
         4        13        14        43        49
         4        14        20        49        50
         8        14        44        49        50
         8        14        43        44        49
         8        15        20        21        50
         8        14        15        20        50
         4        14        15        44        50
         4        15        21        50        51
         8        15        45        50        51
         8        15        44        45        50
         8        16        21        22        51
         8        15        16        21        51
         4        15        16        45        51
         4        16        22        51        52
         8        16        46        51        52
         8        16        45        46        51
         8        16        21        22        52
         4        16        16        22        52
         4        16        16        46        52
         4        16        21        51        52
         8        16        46        46        52
         8        15        20        21        51
         4        15        16        46        51
         4        15        20        50        51
         8        15        45        46        51
         8        14        19        20        50
         4        14        15        45        50
         4        14        19        49        50
         8        14        44        45        50
         8        13        18        19        49
         4        13        14        44        49
         4        13        18        48        49
         8        13        43        44        49
         8        12        17        18        48
         4        12        13        43        48
         4        12        17        47        48
         8        12        42        43        48
         4        11        11        17        47
         4        11        12        42        47
         4        11        11        41        47
         8        11        41        42        47
         4        10        11        41        41
         4         3        10        33        41
         4        10        40        41        41
         4         2        10        33        40
         8         4        11        12        34
         8         3         4        11        34
         4         3        11        33        34
         4        11        12        34        42
         8        11        34        41        42
         8        11        33        34        41
         8        12        17        18        42
         8        11        12        17        42
         4        11        17        41        42
         4        17        18        42        48
         8        17        42        47        48
         8        17        41        42        47
         8        18        18        23        48
         8        17        18        18        48
         4        17        18        47        48
         4        18        23        48        53
         8        18        48        48        53
         8        18        47        48        48
         8        19        23        24        53
         8        18        19        23        53
         4        18        19        48        53
         4        19        24        53        54
         8        19        49        53        54
         8        19        48        49        53
         8        20        24        25        54
         8        19        20        24        54
         4        19        20        49        54
         4        20        25        54        55
         8        20        50        54        55
         8        20        49        50        54
         8        21        25        26        55
         8        20        21        25        55
         4        20        21        50        55
         4        21        26        55        56
         8        21        51        55        56
         8        21        50        51        55
         8        22        26        26        56
         8        21        22        26        56
         4        21        22        51        56
         4        22        26        56        56
         4        22        52        56        56
         8        22        51        52        56
         8        21        25        26        56
         4        21        22        52        56
         4        21        25        55        56
         8        21        51        52        56
         8        20        24        25        55
         4        20        21        51        55
         4        20        24        54        55
         8        20        50        51        55
         8        19        23        24        54
         4        19        20        50        54
         4        19        23        53        54
         8        19        49        50        54
         4        18        18        23        53
         4        18        19        49        53
         4        18        18        48        53
         8        18        48        49        53
         4        17        18        48        48
         4        12        17        42        48
         4        17        47        48        48
         4        11        17        42        47
         4         4        11        34        42
         4         3        11        34        41
         8         5        12        13        35
         8         4         5        12        35
         4         4        12        34        35
         4        12        13        35        43
         8        12        35        42        43
         8        12        34        35        42
         8        13        18        19        43
         8        12        13        18        43
         4        12        18        42        43
         4        18        19        43        49
         8        18        43        48        49
         8        18        42        43        48
         8        19        23        24        49
         8        18        19        23        49
         4        18        23        48        49
         4        23        24        49        54
         8        23        49        53        54
         8        23        48        49        53
         8        24        24        27        54
         8        23        24        24        54
         4        23        24        53        54
         4        24        27        54        57
         8        24        54        54        57
         8        24        53        54        54
         8        25        27        28        57
         8        24        25        27        57
         4        24        25        54        57
         4        25        28        57        58
         8        25        55        57        58
         8        25        54        55        57
         8        26        28        29        58
         8        25        26        28        58
         4        25        26        55        58
         4        26        29        58        59
         8        26        56        58        59
         8        26        55        56        58
         8        26        28        29        59
         4        26        26        29        59
         4        26        26        56        59
         4        26        28        58        59
         8        26        56        56        59
         8        25        27        28        58
         4        25        26        56        58
         4        25        27        57        58
         8        25        55        56        58
         4        24        24        27        57
         4        24        25        55        57
         4        24        24        54        57
         8        24        54        55        57
         4        23        24        54        54
         4        19        23        49        54
         4        23        53        54        54
         4        18        23        49        53
         4        13        18        43        49
         4        12        18        43        48
         4         5        12        35        43
         4         4        12        35        42
         8         6        13        14        36
         8         5         6        13        36
         4         5        13        35        36
         4        13        14        36        44
         8        13        36        43        44
         8        13        35        36        43
         8        14        19        20        44
         8        13        14        19        44
         4        13        19        43        44
         4        19        20        44        50
         8        19        44        49        50
         8        19        43        44        49
         8        20        24        25        50
         8        19        20        24        50
         4        19        24        49        50
         4        24        25        50        55
         8        24        50        54        55
         8        24        49        50        54
         8        25        27        28        55
         8        24        25        27        55
         4        24        27        54        55
         4        27        28        55        58
         8        27        55        57        58
         8        27        54        55        57
         8        28        28        30        58
         8        27        28        28        58
         4        27        28        57        58
         4        28        30        58        60
         8        28        58        58        60
         8        28        57        58        58
         8        29        30        30        60
         8        28        29        30        60
         4        28        29        58        60
         4        29        30        60        60
         4        29        59        60        60
         8        29        58        59        60
         4        28        28        30        60
         4        28        29        59        60
         4        28        28        58        60
         8        28        58        59        60
         4        27        28        58        58
         4        25        27        55        58
         4        27        57        58        58
         4        24        27        55        57
         4        20        24        50        55
         4        19        24        50        54
         4        14        19        44        50
         4        13        19        44        49
         4         6        13        36        44
         4         5        13        36        43
         8         7        14        15        37
         8         6         7        14        37
         4         6        14        36        37
         4        14        15        37        45
         8        14        37        44        45
         8        14        36        37        44
         8        15        20        21        45
         8        14        15        20        45
         4        14        20        44        45
         4        20        21        45        51
         8        20        45        50        51
         8        20        44        45        50
         8        21        25        26        51
         8        20        21        25        51
         4        20        25        50        51
         4        25        26        51        56
         8        25        51        55        56
         8        25        50        51        55
         8        26        28        29        56
         8        25        26        28        56
         4        25        28        55        56
         4        28        29        56        59
         8        28        56        58        59
         8        28        55        56        58
         4        29        30        30        59
         8        28        29        30        59
         4        28        30        58        59
         4        30        30        59        60
         8        30        59        60        60
         8        30        58        59        60
         4        30        30        30        60
         4        30        30        60        60
         4        29        30        59        60
         4        30        60        60        60
         4        28        30        59        60
         4        26        28        56        59
         4        25        28        56        58
         4        21        25        51        56
         4        20        25        51        55
         4        15        20        45        51
         4        14        20        45        50
         4         7        14        37        45
         4         6        14        37        44
         8         8        15        16        38
         8         7         8        15        38
         4         7        15        37        38
         4        15        16        38        46
         8        15        38        45        46
         8        15        37        38        45
         8        16        21        22        46
         8        15        16        21        46
         4        15        21        45        46
         4        21        22        46        52
         8        21        46        51        52
         8        21        45        46        51
         4        22        26        26        52
         8        21        22        26        52
         4        21        26        51        52
         4        26        26        52        56
         8        26        52        56        56
         8        26        51        52        56
         8        26        26        29        56
         4        26        29        56        56
         4        28        29        56        58
         8        29        56        58        59
         4        29        56        56        59
         8        28        29        30        58
         4        29        30        58        59
         4        28        30        58        58
         4        30        58        58        60
         4        29        30        58        60
         4        26        29        56        58
         4        26        29        56        59
         4        22        26        52        56
         4        21        26        52        56
         4        16        21        46        52
         4        15        21        46        51
         4         8        15        38        46
         4         7        15        38        45
         4         9        16        16        39
         8         8         9        16        39
         4         8        16        38        39
         4        16        16        39        46
         8        16        39        46        46
         8        16        38        39        46
         8        16        16        22        46
         4        16        22        46        46
         4        21        22        46        51
         8        22        46        51        52