       N       E                     dE             d eps       ncg     rms          rms(c)
DAV:   1     0.432721818726E+02    0.43272E+02   -0.72125E+03  2880   0.101E+03
DAV:   2    -0.333014838981E+02   -0.76574E+02   -0.71195E+02  3900   0.213E+02
DAV:   3    -0.362358813729E+02   -0.29344E+01   -0.28995E+01  3716   0.434E+01
DAV:   4    -0.362675019903E+02   -0.31621E-01   -0.31537E-01  3656   0.466E+00
DAV:   5    -0.362681513082E+02   -0.64932E-03   -0.64885E-03  3728   0.593E-01    0.138E+01
DAV:   6    -0.354964583948E+02    0.77169E+00   -0.26428E+01  3656   0.371E+01    0.203E+01
DAV:   7    -0.242148335389E+02    0.11282E+02   -0.30474E+01  3024   0.193E+01    0.606E+00
DAV:   8    -0.234081427177E+02    0.80669E+00   -0.30483E+00  3192   0.762E+00    0.380E+00
DAV:   9    -0.233612574247E+02    0.46885E-01   -0.39797E+00  3196   0.605E+00    0.345E+00
DAV:  10    -0.230484883988E+02    0.31277E+00   -0.99446E-01  3232   0.268E+00    0.191E-01
DAV:  11    -0.230541342197E+02   -0.56458E-02   -0.34339E-02  3612   0.734E-01    0.482E-01
DAV:  12    -0.230523935160E+02    0.17407E-02   -0.73581E-02  3192   0.479E-01    0.323E-01
DAV:  13    -0.230496036836E+02    0.27898E-02   -0.12563E-03  3264   0.194E-01    0.150E-01
DAV:  14    -0.230490775882E+02    0.52610E-03   -0.99624E-04  2932   0.887E-02    0.318E-02
DAV:  15    -0.230490787794E+02   -0.11912E-05   -0.19079E-05  1712   0.321E-02
   1 F= -.23049079E+02 E0= -.23049079E+02  d E =0.000000E+00
 imaginary and real dielectric function
