 vasp.5.3.5 31Mar14 (build Dec 14 2018 19:18:10) complex                        
  
 executed on             LinuxIFC date 2022.11.15  23:34:21
 serial version


--------------------------------------------------------------------------------------------------------


 INCAR:
 POTCAR:    PAW B                                 
 POTCAR:    PAW N                                 
 POTCAR:    PAW B                                 
   VRHFIN =B: s2p1                                                              
   LEXCH  = CA                                                                  
   EATOM  =    70.8550 eV,    5.2077 Ry                                         
                                                                                
   TITEL  = PAW B                                                               
   LULTRA =        F    use ultrasoft PP ?                                      
   IUNSCR =        0    unscreen: 0-lin 1-nonlin 2-no                           
   RPACOR =     .000    partial core radius                                     
   POMASS =   10.811; ZVAL   =    3.000    mass and valenz                      
   RCORE  =    1.700    outmost cutoff radius                                   
   RWIGS  =    1.710; RWIGS  =     .905    wigner-seitz radius (au A)           
   ENMAX  =  318.762; ENMIN  =  239.072 eV                                      
   ICORE  =        2    local potential                                         
   LCOR   =        T    correct aug charges                                     
   LPAW   =        T    paw PP                                                  
   EAUG   =  535.514                                                            
   DEXC   =     .000                                                            
   RMAX   =    2.582    core radius for proj-oper                               
   RDEP   =    1.757    core radius for depl-charge                             
   QCUT   =   -4.840; QGAM   =    9.681    optimization parameters              
                                                                                
   Description                                                                  
     l     E      TYP  RCUT    TYP  RCUT                                        
     0   .000     23  1.500                                                     
     0   .000     23  1.500                                                     
     1   .000     23  1.700                                                     
     1   .000     23  1.700                                                     
     2   .000      7  1.700                                                     
  local pseudopotential read in
  atomic valenz-charges read in
  non local Contribution for L=           0  read in
    real space projection operators read in
  non local Contribution for L=           0  read in
    real space projection operators read in
  non local Contribution for L=           1  read in
    real space projection operators read in
  non local Contribution for L=           1  read in
    real space projection operators read in
    PAW grid and wavefunctions read in
 
   number of l-projection  operators is LMAX  =           4
   number of lm-projection operators is LMMAX =           8
 
 POTCAR:    PAW N                                 
   VRHFIN =N: s2p3                                                              
   LEXCH  = CA                                                                  
   EATOM  =   263.8773 eV,   19.3944 Ry                                         
                                                                                
   TITEL  = PAW N                                                               
   LULTRA =        F    use ultrasoft PP ?                                      
   IUNSCR =        0    unscreen: 0-lin 1-nonlin 2-no                           
   RPACOR =     .000    partial core radius                                     
   POMASS =   14.001; ZVAL   =    5.000    mass and valenz                      
   RCORE  =    1.500    outmost cutoff radius                                   
   RWIGS  =    1.400; RWIGS  =     .741    wigner-seitz radius (au A)           
   ENMAX  =  400.000; ENMIN  =  300.000 eV                                      
   ICORE  =        2    local potential                                         
   LCOR   =        T    correct aug charges                                     
   LPAW   =        T    paw PP                                                  
   EAUG   =  555.011                                                            
   DEXC   =     .000                                                            
   RMAX   =    2.248    core radius for proj-oper                               
   RAUG   =    1.300    factor for augmentation sphere                          
   RDEP   =    1.514    core radius for depl-charge                             
   QCUT   =   -5.561; QGAM   =   11.121    optimization parameters              
                                                                                
   Description                                                                  
     l     E      TYP  RCUT    TYP  RCUT                                        
     0   .000     23  1.200                                                     
     0   .000     23  1.200                                                     
     1   .000     23  1.500                                                     
     1   .700     23  1.500                                                     
     2   .000      7  1.500                                                     
  local pseudopotential read in
  atomic valenz-charges read in
  non local Contribution for L=           0  read in
    real space projection operators read in
  non local Contribution for L=           0  read in
    real space projection operators read in
  non local Contribution for L=           1  read in
    real space projection operators read in
  non local Contribution for L=           1  read in
    real space projection operators read in
    PAW grid and wavefunctions read in
 
   number of l-projection  operators is LMAX  =           4
   number of lm-projection operators is LMMAX =           8
 
  PAW B                                 :
 energy of atom  1       EATOM=  -70.8550
 kinetic energy error for atom=    0.0020 (will be added to EATOM!!)
  PAW N                                 :
 energy of atom  2       EATOM= -263.8773
 kinetic energy error for atom=    0.0726 (will be added to EATOM!!)
 
 
 POSCAR: BN hexagonal                            
  positions in direct lattice
  velocities in cartesian coordinates
 exchange correlation table for  LEXCH =        2
   RHO(1)=    0.500       N(1)  =     2000
   RHO(2)=  100.500       N(2)  =     4000
 


--------------------------------------------------------------------------------------------------------


 ion  position               nearest neighbor table
   1  0.000  0.000  0.000-   2 1.44   2 1.44   2 1.44
   2  0.333  0.667  0.000-   1 1.44   1 1.44   1 1.44
   3  0.000  0.000  0.500-   4 1.44   4 1.44   4 1.44
   4  0.333  0.667  0.500-   3 1.44   3 1.44   3 1.44
 
  LATTYP: Found a hexagonal cell.
 ALAT       =     2.4999999983
 C/A-ratio  =     2.6720000018
  
  Lattice vectors:
  
 A1 = (   2.5000000000,   0.0000000000,   0.0000000000)
 A2 = (  -1.2500000000,   2.1650635075,   0.0000000000)
 A3 = (   0.0000000000,   0.0000000000,   6.6800000000)


Analysis of symmetry for initial positions (statically):
=====================================================================
 Subroutine PRICEL returns:
 Original cell was already a primitive cell.
 

 Routine SETGRP: Setting up the symmetry group for a 
 hexagonal supercell.


 Subroutine GETGRP returns: Found 24 space group operations
 (whereof 12 operations were pure point group operations)
 out of a pool of 24 trial point group operations.


The static configuration has the point symmetry D_3h.
 The point group associated with its full space group is D_6h.


Analysis of symmetry for dynamics (positions and initial velocities):
=====================================================================
 Subroutine PRICEL returns:
 Original cell was already a primitive cell.
 

 Routine SETGRP: Setting up the symmetry group for a 
 hexagonal supercell.


 Subroutine GETGRP returns: Found 24 space group operations
 (whereof 12 operations were pure point group operations)
 out of a pool of 24 trial point group operations.


The dynamic configuration has the point symmetry D_3h.
 The point group associated with its full space group is D_6h.
 
 
 KPOINTS: 16X16x6                                 

Automatic generation of k-mesh.
Space group operators:
 irot       det(A)        alpha          n_x          n_y          n_z        tau_x        tau_y        tau_z
    1     1.000000     0.000000     1.000000     0.000000     0.000000     0.000000     0.000000     0.000000
    2    -1.000000    60.000000     0.000000     0.000000    -1.000000     0.000000     0.000000     0.000000
    3     1.000000   120.000000     0.000000     0.000000    -1.000000     0.000000     0.000000     0.000000
    4    -1.000000   180.000000     0.000000     0.000000     1.000000     0.000000     0.000000     0.000000
    5     1.000000   120.000000     0.000000     0.000000     1.000000     0.000000     0.000000     0.000000
    6    -1.000000    60.000000     0.000000     0.000000     1.000000     0.000000     0.000000     0.000000
    7    -1.000000   179.999999     1.000000     0.000000     0.000000     0.000000     0.000000     0.000000
    8     1.000000   180.000000     0.866025    -0.500000     0.000000     0.000000     0.000000     0.000000
    9    -1.000000   180.000000     0.500000    -0.866025     0.000000     0.000000     0.000000     0.000000
   10     1.000000   180.000000     0.000000     1.000000     0.000000     0.000000     0.000000     0.000000
   11    -1.000000   180.000000    -0.500000    -0.866025     0.000000     0.000000     0.000000     0.000000
   12     1.000000   180.000000     0.866025     0.500000     0.000000     0.000000     0.000000     0.000000
   13    -1.000000     0.000000     1.000000     0.000000     0.000000     0.333333     0.666667     0.000000
   14     1.000000    60.000000     0.000000     0.000000    -1.000000     0.333333     0.666667     0.000000
   15    -1.000000   120.000000     0.000000     0.000000    -1.000000     0.333333     0.666667     0.000000
   16     1.000000   180.000000     0.000000     0.000000     1.000000     0.333333     0.666667     0.000000
   17    -1.000000   120.000000     0.000000     0.000000     1.000000     0.333333     0.666667     0.000000
   18     1.000000    60.000000     0.000000     0.000000     1.000000     0.333333     0.666667     0.000000
   19     1.000000   179.999999     1.000000     0.000000     0.000000     0.333333     0.666667     0.000000
   20    -1.000000   180.000000     0.866025    -0.500000     0.000000     0.333333     0.666667     0.000000
   21     1.000000   180.000000     0.500000    -0.866025     0.000000     0.333333     0.666667     0.000000
   22    -1.000000   180.000000     0.000000     1.000000     0.000000     0.333333     0.666667     0.000000
   23     1.000000   180.000000    -0.500000    -0.866025     0.000000     0.333333     0.666667     0.000000
   24    -1.000000   180.000000     0.866025     0.500000     0.000000     0.333333     0.666667     0.000000
 
 Subroutine IBZKPT returns following result:
 ===========================================
 
 Found    120 irreducible k-points:
 
 Following reciprocal coordinates:
            Coordinates               Weight
  0.000000  0.000000  0.000000      1.000000
  0.062500 -0.000000  0.000000      6.000000
  0.125000 -0.000000  0.000000      6.000000
  0.187500 -0.000000  0.000000      6.000000
  0.250000 -0.000000  0.000000      6.000000
  0.312500 -0.000000  0.000000      6.000000
  0.375000 -0.000000  0.000000      6.000000
  0.437500 -0.000000  0.000000      6.000000
  0.500000 -0.000000  0.000000      3.000000
  0.062500  0.062500  0.000000      6.000000
  0.125000  0.062500  0.000000     12.000000
  0.187500  0.062500  0.000000     12.000000
  0.250000  0.062500  0.000000     12.000000
  0.312500  0.062500  0.000000     12.000000
  0.375000  0.062500  0.000000     12.000000
  0.437500  0.062500  0.000000     12.000000
  0.125000  0.125000  0.000000      6.000000
  0.187500  0.125000  0.000000     12.000000
  0.250000  0.125000  0.000000     12.000000
  0.312500  0.125000  0.000000     12.000000
  0.375000  0.125000  0.000000     12.000000
  0.437500  0.125000  0.000000      6.000000
  0.187500  0.187500  0.000000      6.000000
  0.250000  0.187500  0.000000     12.000000
  0.312500  0.187500  0.000000     12.000000
  0.375000  0.187500  0.000000     12.000000
  0.250000  0.250000  0.000000      6.000000
  0.312500  0.250000  0.000000     12.000000
  0.375000  0.250000  0.000000      6.000000
  0.312500  0.312500  0.000000      6.000000
  0.000000  0.000000  0.166667      2.000000
  0.062500 -0.000000  0.166667     12.000000
  0.125000 -0.000000  0.166667     12.000000
  0.187500 -0.000000  0.166667     12.000000
  0.250000 -0.000000  0.166667     12.000000
  0.312500 -0.000000  0.166667     12.000000
  0.375000 -0.000000  0.166667     12.000000
  0.437500 -0.000000  0.166667     12.000000
  0.500000 -0.000000  0.166667      6.000000
  0.062500  0.062500  0.166667     12.000000
  0.125000  0.062500  0.166667     24.000000
  0.187500  0.062500  0.166667     24.000000
  0.250000  0.062500  0.166667     24.000000
  0.312500  0.062500  0.166667     24.000000
  0.375000  0.062500  0.166667     24.000000
  0.437500  0.062500  0.166667     24.000000
  0.125000  0.125000  0.166667     12.000000
  0.187500  0.125000  0.166667     24.000000
  0.250000  0.125000  0.166667     24.000000
  0.312500  0.125000  0.166667     24.000000
  0.375000  0.125000  0.166667     24.000000
  0.437500  0.125000  0.166667     12.000000
  0.187500  0.187500  0.166667     12.000000
  0.250000  0.187500  0.166667     24.000000
  0.312500  0.187500  0.166667     24.000000
  0.375000  0.187500  0.166667     24.000000
  0.250000  0.250000  0.166667     12.000000
  0.312500  0.250000  0.166667     24.000000
  0.375000  0.250000  0.166667     12.000000
  0.312500  0.312500  0.166667     12.000000
  0.000000  0.000000  0.333333      2.000000
  0.062500 -0.000000  0.333333     12.000000
  0.125000 -0.000000  0.333333     12.000000
  0.187500 -0.000000  0.333333     12.000000
  0.250000 -0.000000  0.333333     12.000000
  0.312500 -0.000000  0.333333     12.000000
  0.375000 -0.000000  0.333333     12.000000
  0.437500 -0.000000  0.333333     12.000000
  0.500000 -0.000000  0.333333      6.000000
  0.062500  0.062500  0.333333     12.000000
  0.125000  0.062500  0.333333     24.000000
  0.187500  0.062500  0.333333     24.000000
  0.250000  0.062500  0.333333     24.000000
  0.312500  0.062500  0.333333     24.000000
  0.375000  0.062500  0.333333     24.000000
  0.437500  0.062500  0.333333     24.000000
  0.125000  0.125000  0.333333     12.000000
  0.187500  0.125000  0.333333     24.000000
  0.250000  0.125000  0.333333     24.000000
  0.312500  0.125000  0.333333     24.000000
  0.375000  0.125000  0.333333     24.000000
  0.437500  0.125000  0.333333     12.000000
  0.187500  0.187500  0.333333     12.000000
  0.250000  0.187500  0.333333     24.000000
  0.312500  0.187500  0.333333     24.000000
  0.375000  0.187500  0.333333     24.000000
  0.250000  0.250000  0.333333     12.000000
  0.312500  0.250000  0.333333     24.000000
  0.375000  0.250000  0.333333     12.000000
  0.312500  0.312500  0.333333     12.000000
  0.000000  0.000000  0.500000      1.000000
  0.062500 -0.000000  0.500000      6.000000
  0.125000 -0.000000  0.500000      6.000000
  0.187500 -0.000000  0.500000      6.000000
  0.250000 -0.000000  0.500000      6.000000
  0.312500 -0.000000  0.500000      6.000000
  0.375000 -0.000000  0.500000      6.000000
  0.437500 -0.000000  0.500000      6.000000
  0.500000 -0.000000  0.500000      3.000000
  0.062500  0.062500  0.500000      6.000000
  0.125000  0.062500  0.500000     12.000000
  0.187500  0.062500  0.500000     12.000000
  0.250000  0.062500  0.500000     12.000000
  0.312500  0.062500  0.500000     12.000000
  0.375000  0.062500  0.500000     12.000000
  0.437500  0.062500  0.500000     12.000000
  0.125000  0.125000  0.500000      6.000000
  0.187500  0.125000  0.500000     12.000000
  0.250000  0.125000  0.500000     12.000000
  0.312500  0.125000  0.500000     12.000000
  0.375000  0.125000  0.500000     12.000000
  0.437500  0.125000  0.500000      6.000000
  0.187500  0.187500  0.500000      6.000000
  0.250000  0.187500  0.500000     12.000000
  0.312500  0.187500  0.500000     12.000000
  0.375000  0.187500  0.500000     12.000000
  0.250000  0.250000  0.500000      6.000000
  0.312500  0.250000  0.500000     12.000000
  0.375000  0.250000  0.500000      6.000000
  0.312500  0.312500  0.500000      6.000000
 
 Following cartesian coordinates:
            Coordinates               Weight
  0.000000  0.000000  0.000000      1.000000
  0.062500  0.036084  0.000000      6.000000
  0.125000  0.072169  0.000000      6.000000
  0.187500  0.108253  0.000000      6.000000
  0.250000  0.144338  0.000000      6.000000
  0.312500  0.180422  0.000000      6.000000
  0.375000  0.216506  0.000000      6.000000
  0.437500  0.252591  0.000000      6.000000
  0.500000  0.288675  0.000000      3.000000
  0.062500  0.108253  0.000000      6.000000
  0.125000  0.144338  0.000000     12.000000
  0.187500  0.180422  0.000000     12.000000
  0.250000  0.216506  0.000000     12.000000
  0.312500  0.252591  0.000000     12.000000
  0.375000  0.288675  0.000000     12.000000
  0.437500  0.324760  0.000000     12.000000
  0.125000  0.216506  0.000000      6.000000
  0.187500  0.252591  0.000000     12.000000
  0.250000  0.288675  0.000000     12.000000
  0.312500  0.324760  0.000000     12.000000
  0.375000  0.360844  0.000000     12.000000
  0.437500  0.396928  0.000000      6.000000
  0.187500  0.324760  0.000000      6.000000
  0.250000  0.360844  0.000000     12.000000
  0.312500  0.396928  0.000000     12.000000
  0.375000  0.433013  0.000000     12.000000
  0.250000  0.433013  0.000000      6.000000
  0.312500  0.469097  0.000000     12.000000
  0.375000  0.505181  0.000000      6.000000
  0.312500  0.541266  0.000000      6.000000
  0.000000  0.000000  0.062375      2.000000
  0.062500  0.036084  0.062375     12.000000
  0.125000  0.072169  0.062375     12.000000
  0.187500  0.108253  0.062375     12.000000
  0.250000  0.144338  0.062375     12.000000
  0.312500  0.180422  0.062375     12.000000
  0.375000  0.216506  0.062375     12.000000
  0.437500  0.252591  0.062375     12.000000
  0.500000  0.288675  0.062375      6.000000
  0.062500  0.108253  0.062375     12.000000
  0.125000  0.144338  0.062375     24.000000
  0.187500  0.180422  0.062375     24.000000
  0.250000  0.216506  0.062375     24.000000
  0.312500  0.252591  0.062375     24.000000
  0.375000  0.288675  0.062375     24.000000
  0.437500  0.324760  0.062375     24.000000
  0.125000  0.216506  0.062375     12.000000
  0.187500  0.252591  0.062375     24.000000
  0.250000  0.288675  0.062375     24.000000
  0.312500  0.324760  0.062375     24.000000
  0.375000  0.360844  0.062375     24.000000
  0.437500  0.396928  0.062375     12.000000
  0.187500  0.324760  0.062375     12.000000
  0.250000  0.360844  0.062375     24.000000
  0.312500  0.396928  0.062375     24.000000
  0.375000  0.433013  0.062375     24.000000
  0.250000  0.433013  0.062375     12.000000
  0.312500  0.469097  0.062375     24.000000
  0.375000  0.505181  0.062375     12.000000
  0.312500  0.541266  0.062375     12.000000
  0.000000  0.000000  0.124750      2.000000
  0.062500  0.036084  0.124750     12.000000
  0.125000  0.072169  0.124750     12.000000
  0.187500  0.108253  0.124750     12.000000
  0.250000  0.144338  0.124750     12.000000
  0.312500  0.180422  0.124750     12.000000
  0.375000  0.216506  0.124750     12.000000
  0.437500  0.252591  0.124750     12.000000
  0.500000  0.288675  0.124750      6.000000
  0.062500  0.108253  0.124750     12.000000
  0.125000  0.144338  0.124750     24.000000
  0.187500  0.180422  0.124750     24.000000
  0.250000  0.216506  0.124750     24.000000
  0.312500  0.252591  0.124750     24.000000
  0.375000  0.288675  0.124750     24.000000
  0.437500  0.324760  0.124750     24.000000
  0.125000  0.216506  0.124750     12.000000
  0.187500  0.252591  0.124750     24.000000
  0.250000  0.288675  0.124750     24.000000
  0.312500  0.324760  0.124750     24.000000
  0.375000  0.360844  0.124750     24.000000
  0.437500  0.396928  0.124750     12.000000
  0.187500  0.324760  0.124750     12.000000
  0.250000  0.360844  0.124750     24.000000
  0.312500  0.396928  0.124750     24.000000
  0.375000  0.433013  0.124750     24.000000
  0.250000  0.433013  0.124750     12.000000
  0.312500  0.469097  0.124750     24.000000
  0.375000  0.505181  0.124750     12.000000
  0.312500  0.541266  0.124750     12.000000
  0.000000  0.000000  0.187126      1.000000
  0.062500  0.036084  0.187126      6.000000
  0.125000  0.072169  0.187126      6.000000
  0.187500  0.108253  0.187126      6.000000
  0.250000  0.144338  0.187126      6.000000
  0.312500  0.180422  0.187126      6.000000
  0.375000  0.216506  0.187126      6.000000
  0.437500  0.252591  0.187126      6.000000
  0.500000  0.288675  0.187126      3.000000
  0.062500  0.108253  0.187126      6.000000
  0.125000  0.144338  0.187126     12.000000
  0.187500  0.180422  0.187126     12.000000
  0.250000  0.216506  0.187126     12.000000
  0.312500  0.252591  0.187126     12.000000
  0.375000  0.288675  0.187126     12.000000
  0.437500  0.324760  0.187126     12.000000
  0.125000  0.216506  0.187126      6.000000
  0.187500  0.252591  0.187126     12.000000
  0.250000  0.288675  0.187126     12.000000
  0.312500  0.324760  0.187126     12.000000
  0.375000  0.360844  0.187126     12.000000
  0.437500  0.396928  0.187126      6.000000
  0.187500  0.324760  0.187126      6.000000
  0.250000  0.360844  0.187126     12.000000
  0.312500  0.396928  0.187126     12.000000
  0.375000  0.433013  0.187126     12.000000
  0.250000  0.433013  0.187126      6.000000
  0.312500  0.469097  0.187126     12.000000
  0.375000  0.505181  0.187126      6.000000
  0.312500  0.541266  0.187126      6.000000
 
 TETIRR: Found   1584 inequivalent tetrahedra from     9216


--------------------------------------------------------------------------------------------------------




 Dimension of arrays:
   k-points           NKPTS =    120   k-points in BZ     NKDIM =    120   number of bands    NBANDS=     12
   number of dos      NEDOS =    301   number of ions     NIONS =      4
   non local maximal  LDIM  =      4   non local SUM 2l+1 LMDIM =      8
   total plane-waves  NPLWV =   5184
   max r-space proj   IRMAX =      1   max aug-charges    IRDMAX=   2435
   dimension x,y,z NGX =    12 NGY =   12 NGZ =   36
   dimension x,y,z NGXF=    24 NGYF=   24 NGZF=   72
   support grid    NGXF=    24 NGYF=   24 NGZF=   72
   ions per type =               2   2
 NGX,Y,Z   is equivalent  to a cutoff of   7.98,  7.98,  8.96 a.u.
 NGXF,Y,Z  is equivalent  to a cutoff of  15.96, 15.96, 17.92 a.u.


 I would recommend the setting:
   dimension x,y,z NGX =    12 NGY =   12 NGZ =   33
 SYSTEM =  BN                                      
 POSCAR =  BN hexagonal                            

 Startparameter for this run:
   NWRITE =      2    write-flag & timer
   PREC   = normal    normal or accurate (medium, high low for compatibility)
   ISTART =      0    job   : 0-new  1-cont  2-samecut
   ICHARG =      2    charge: 1-file 2-atom 10-const
   ISPIN  =      1    spin polarized calculation?
   LNONCOLLINEAR =      F non collinear calculations
   LSORBIT =      F    spin-orbit coupling
   INIWAV =      1    electr: 0-lowe 1-rand  2-diag
   LASPH  =      F    aspherical Exc in radial PAW
   METAGGA=      F    non-selfconsistent MetaGGA calc.

 Electronic Relaxation 1
   ENCUT  =  400.0 eV  29.40 Ry    5.42 a.u.   4.08  4.08 10.89*2*pi/ulx,y,z
   ENINI  =  400.0     initial cutoff
   ENAUG  =  555.0 eV  augmentation charge cutoff
   NELM   =     60;   NELMIN=  2; NELMDL= -5     # of ELM steps 
   EDIFF  = 0.1E-03   stopping-criterion for ELM
   LREAL  =      F    real-space projection
   NLSPLINE    = F    spline interpolate recip. space projectors
   LCOMPAT=      F    compatible to vasp.4.4
   GGA_COMPAT  = T    GGA compatible to vasp.4.4-vasp.4.6
   LMAXPAW     = -100 max onsite density
   LMAXMIX     =    2 max onsite mixed and CHGCAR
   VOSKOWN=      0    Vosko Wilk Nusair interpolation
   ROPT   =    0.00000   0.00000
 Ionic relaxation
   EDIFFG = 0.1E-02   stopping-criterion for IOM
   NSW    =      0    number of steps for IOM
   NBLOCK =      1;   KBLOCK =      1    inner block; outer block 
   IBRION =     -1    ionic relax: 0-MD 1-quasi-New 2-CG
   NFREE  =      0    steps in history (QN), initial steepest desc. (CG)
   ISIF   =      2    stress and relaxation
   IWAVPR =      0    prediction:  0-non 1-charg 2-wave 3-comb
   ISYM   =      2    0-nonsym 1-usesym 2-fastsym
   LCORR  =      T    Harris-Foulkes like correction to forces

   POTIM  = 0.5000    time-step for ionic-motion
   TEIN   =    0.0    initial temperature
   TEBEG  =    0.0;   TEEND  =   0.0 temperature during run
   SMASS  =  -3.00    Nose mass-parameter (am)
   estimated Nose-frequenzy (Omega)   =  0.10E-29 period in steps =****** mass=  -0.143E-27a.u.
   SCALEE = 1.0000    scale energy and forces
   NPACO  =    256;   APACO  = 16.0  distance and # of slots for P.C.
   PSTRESS=    0.0 pullay stress

  Mass of Ions in am
   POMASS =  10.81 14.00
  Ionic Valenz
   ZVAL   =   3.00  5.00
  Atomic Wigner-Seitz radii
   RWIGS  =  -1.00 -1.00
  virtual crystal weights 
   VCA    =   1.00  1.00
   NELECT =      16.0000    total number of electrons
   NUPDOWN=      -1.0000    fix difference up-down

 DOS related values:
   EMIN   =  10.00;   EMAX   =-10.00  energy-range for DOS
   EFERMI =   0.00
   ISMEAR =    -4;   SIGMA  =   0.20  broadening in eV -4-tet -1-fermi 0-gaus

 Electronic relaxation 2 (details)
   IALGO  =     38    algorithm
   LDIAG  =      T    sub-space diagonalisation (order eigenvalues)
   LSUBROT=      F    optimize rotation matrix (better conditioning)
   TURBO    =      0    0=normal 1=particle mesh
   IRESTART =      0    0=no restart 2=restart with 2 vectors
   NREBOOT  =      0    no. of reboots
   NMIN     =      0    reboot dimension
   EREF     =   0.00    reference energy to select bands
   IMIX   =      4    mixing-type and parameters
     AMIX     =   0.40;   BMIX     =  1.00
     AMIX_MAG =   1.60;   BMIX_MAG =  1.00
     AMIN     =   0.10
     WC   =   100.;   INIMIX=   1;  MIXPRE=   1;  MAXMIX= -45

 Intra band minimization:
   WEIMIN = 0.0000     energy-eigenvalue tresh-hold
   EBREAK =  0.21E-05  absolut break condition
   DEPER  =   0.30     relativ break condition  

   TIME   =   0.40     timestep for ELM

  volume/ion in A,a.u.               =       9.04        61.00
  Fermi-wavevector in a.u.,A,eV,Ry     =   1.247534  2.357498 21.175312  1.556342
  Thomas-Fermi vector in A             =   2.381662
 
 Write flags
   LWAVE  =      T    write WAVECAR
   LCHARG =      T    write CHGCAR
   LVTOT  =      F    write LOCPOT, total local potential
   LVHAR  =      F    write LOCPOT, Hartree potential only
   LELF   =      F    write electronic localiz. function (ELF)
   LORBIT =      0    0 simple, 1 ext, 2 COOP (PROOUT)


 Dipole corrections
   LMONO  =      F    monopole corrections only (constant potential shift)
   LDIPOL =      F    correct potential (dipole corrections)
   IDIPOL =      0    1-x, 2-y, 3-z, 4-all directions 
   EPSILON=  1.0000000 bulk dielectric constant

 Exchange correlation treatment:
   GGA     =    --    GGA type
   LEXCH   =     2    internal setting for exchange type
   VOSKOWN=      0    Vosko Wilk Nusair interpolation
   LHFCALC =     F    Hartree Fock is set to
   LHFONE  =     F    Hartree Fock one center treatment
   AEXX    =    0.0000 exact exchange contribution

 Linear response parameters
   LEPSILON=     F    determine dielectric tensor
   LRPA    =     F    only Hartree local field effects (RPA)
   LNABLA  =     F    use nabla operator in PAW spheres
   LVEL    =     F    velocity operator in full k-point grid
   LINTERFAST=   F  fast interpolation
   KINTER  =     0    interpolate to denser k-point grid
   CSHIFT  =0.1000    complex shift for real part using Kramers Kronig
   OMEGAMAX=  -1.0    maximum frequency
   DEG_THRESHOLD= 0.2000000E-02 threshold for treating states as degnerate
   RTIME   =    0.100 relaxation time in fs

 Orbital magnetization related:
   ORBITALMAG=     F  switch on orbital magnetization
   LCHIMAG   =     F  perturbation theory with respect to B field
   DQ        =  0.001000  dq finite difference perturbation B field



--------------------------------------------------------------------------------------------------------


 Static calculation
 charge density and potential will be updated during run
 non-spin polarized calculation
 Variant of blocked Davidson
 Davidson routine will perform the subspace rotation
 perform sub-space diagonalisation
    after iterative eigenvector-optimisation
 modified Broyden-mixing scheme, WC =      100.0
 initial mixing is a Kerker type mixing with AMIX =  0.4000 and BMIX =      1.0000
 Hartree-type preconditioning will be used
 using additional bands            4
 reciprocal scheme for non local part
 calculate Harris-corrections to forces 
   (improved forces if not selfconsistent)
 use of overlap-Matrix (Vanderbilt PP)
 Fermi weights with tetrahedron method witout Bloechl corrections


--------------------------------------------------------------------------------------------------------


  energy-cutoff  :      400.00
  volume of cell :       36.16
      direct lattice vectors                 reciprocal lattice vectors
     2.500000000  0.000000000  0.000000000     0.400000000  0.230940108  0.000000000
    -1.250000000  2.165063507  0.000000000     0.000000000  0.461880216  0.000000000
     0.000000000  0.000000000  6.680000000     0.000000000  0.000000000  0.149700599

  length of vectors
     2.500000000  2.499999998  6.680000000     0.461880215  0.461880216  0.149700599


 
 k-points in units of 2pi/SCALE and weight: 16X16x6                                 
   0.00000000  0.00000000  0.00000000       0.001
   0.06250000  0.03608439  0.00000000       0.004
   0.12500000  0.07216878  0.00000000       0.004
   0.18750000  0.10825318  0.00000000       0.004
   0.25000000  0.14433757  0.00000000       0.004
   0.31250000  0.18042196  0.00000000       0.004
   0.37500000  0.21650635  0.00000000       0.004
   0.43750000  0.25259074  0.00000000       0.004
   0.50000000  0.28867513  0.00000000       0.002
   0.06250000  0.10825318  0.00000000       0.004
   0.12500000  0.14433757  0.00000000       0.008
   0.18750000  0.18042196  0.00000000       0.008
   0.25000000  0.21650635  0.00000000       0.008
   0.31250000  0.25259074  0.00000000       0.008
   0.37500000  0.28867513  0.00000000       0.008
   0.43750000  0.32475953  0.00000000       0.008
   0.12500000  0.21650635  0.00000000       0.004
   0.18750000  0.25259074  0.00000000       0.008
   0.25000000  0.28867513  0.00000000       0.008
   0.31250000  0.32475953  0.00000000       0.008
   0.37500000  0.36084392  0.00000000       0.008
   0.43750000  0.39692831  0.00000000       0.004
   0.18750000  0.32475953  0.00000000       0.004
   0.25000000  0.36084392  0.00000000       0.008
   0.31250000  0.39692831  0.00000000       0.008
   0.37500000  0.43301270  0.00000000       0.008
   0.25000000  0.43301270  0.00000000       0.004
   0.31250000  0.46909709  0.00000000       0.008
   0.37500000  0.50518149  0.00000000       0.004
   0.31250000  0.54126588  0.00000000       0.004
   0.00000000  0.00000000  0.06237525       0.001
   0.06250000  0.03608439  0.06237525       0.008
   0.12500000  0.07216878  0.06237525       0.008
   0.18750000  0.10825318  0.06237525       0.008
   0.25000000  0.14433757  0.06237525       0.008
   0.31250000  0.18042196  0.06237525       0.008
   0.37500000  0.21650635  0.06237525       0.008
   0.43750000  0.25259074  0.06237525       0.008
   0.50000000  0.28867513  0.06237525       0.004
   0.06250000  0.10825318  0.06237525       0.008
   0.12500000  0.14433757  0.06237525       0.016
   0.18750000  0.18042196  0.06237525       0.016
   0.25000000  0.21650635  0.06237525       0.016
   0.31250000  0.25259074  0.06237525       0.016
   0.37500000  0.28867513  0.06237525       0.016
   0.43750000  0.32475953  0.06237525       0.016
   0.12500000  0.21650635  0.06237525       0.008
   0.18750000  0.25259074  0.06237525       0.016
   0.25000000  0.28867513  0.06237525       0.016
   0.31250000  0.32475953  0.06237525       0.016
   0.37500000  0.36084392  0.06237525       0.016
   0.43750000  0.39692831  0.06237525       0.008
   0.18750000  0.32475953  0.06237525       0.008
   0.25000000  0.36084392  0.06237525       0.016
   0.31250000  0.39692831  0.06237525       0.016
   0.37500000  0.43301270  0.06237525       0.016
   0.25000000  0.43301270  0.06237525       0.008
   0.31250000  0.46909709  0.06237525       0.016
   0.37500000  0.50518149  0.06237525       0.008
   0.31250000  0.54126588  0.06237525       0.008
   0.00000000  0.00000000  0.12475050       0.001
   0.06250000  0.03608439  0.12475050       0.008
   0.12500000  0.07216878  0.12475050       0.008
   0.18750000  0.10825318  0.12475050       0.008
   0.25000000  0.14433757  0.12475050       0.008
   0.31250000  0.18042196  0.12475050       0.008
   0.37500000  0.21650635  0.12475050       0.008
   0.43750000  0.25259074  0.12475050       0.008
   0.50000000  0.28867513  0.12475050       0.004
   0.06250000  0.10825318  0.12475050       0.008
   0.12500000  0.14433757  0.12475050       0.016
   0.18750000  0.18042196  0.12475050       0.016
   0.25000000  0.21650635  0.12475050       0.016
   0.31250000  0.25259074  0.12475050       0.016
   0.37500000  0.28867513  0.12475050       0.016
   0.43750000  0.32475953  0.12475050       0.016
   0.12500000  0.21650635  0.12475050       0.008
   0.18750000  0.25259074  0.12475050       0.016
   0.25000000  0.28867513  0.12475050       0.016
   0.31250000  0.32475953  0.12475050       0.016
   0.37500000  0.36084392  0.12475050       0.016
   0.43750000  0.39692831  0.12475050       0.008
   0.18750000  0.32475953  0.12475050       0.008
   0.25000000  0.36084392  0.12475050       0.016
   0.31250000  0.39692831  0.12475050       0.016
   0.37500000  0.43301270  0.12475050       0.016
   0.25000000  0.43301270  0.12475050       0.008
   0.31250000  0.46909709  0.12475050       0.016
   0.37500000  0.50518149  0.12475050       0.008
   0.31250000  0.54126588  0.12475050       0.008
   0.00000000  0.00000000  0.18712575       0.001
   0.06250000  0.03608439  0.18712575       0.004
   0.12500000  0.07216878  0.18712575       0.004
   0.18750000  0.10825318  0.18712575       0.004
   0.25000000  0.14433757  0.18712575       0.004
   0.31250000  0.18042196  0.18712575       0.004
   0.37500000  0.21650635  0.18712575       0.004
   0.43750000  0.25259074  0.18712575       0.004
   0.50000000  0.28867513  0.18712575       0.002
   0.06250000  0.10825318  0.18712575       0.004
   0.12500000  0.14433757  0.18712575       0.008
   0.18750000  0.18042196  0.18712575       0.008
   0.25000000  0.21650635  0.18712575       0.008
   0.31250000  0.25259074  0.18712575       0.008
   0.37500000  0.28867513  0.18712575       0.008
   0.43750000  0.32475953  0.18712575       0.008
   0.12500000  0.21650635  0.18712575       0.004
   0.18750000  0.25259074  0.18712575       0.008
   0.25000000  0.28867513  0.18712575       0.008
   0.31250000  0.32475953  0.18712575       0.008
   0.37500000  0.36084392  0.18712575       0.008
   0.43750000  0.39692831  0.18712575       0.004
   0.18750000  0.32475953  0.18712575       0.004
   0.25000000  0.36084392  0.18712575       0.008
   0.31250000  0.39692831  0.18712575       0.008
   0.37500000  0.43301270  0.18712575       0.008
   0.25000000  0.43301270  0.18712575       0.004
   0.31250000  0.46909709  0.18712575       0.008
   0.37500000  0.50518149  0.18712575       0.004
   0.31250000  0.54126588  0.18712575       0.004
 
 k-points in reciprocal lattice and weights: 16X16x6                                 
   0.00000000  0.00000000  0.00000000       0.001
   0.06250000 -0.00000000  0.00000000       0.004
   0.12500000 -0.00000000  0.00000000       0.004
   0.18750000 -0.00000000  0.00000000       0.004
   0.25000000 -0.00000000  0.00000000       0.004
   0.31250000 -0.00000000  0.00000000       0.004
   0.37500000 -0.00000000  0.00000000       0.004
   0.43750000 -0.00000000  0.00000000       0.004
   0.50000000 -0.00000000  0.00000000       0.002
   0.06250000  0.06250000  0.00000000       0.004
   0.12500000  0.06250000  0.00000000       0.008
   0.18750000  0.06250000  0.00000000       0.008
   0.25000000  0.06250000  0.00000000       0.008
   0.31250000  0.06250000  0.00000000       0.008
   0.37500000  0.06250000  0.00000000       0.008
   0.43750000  0.06250000  0.00000000       0.008
   0.12500000  0.12500000  0.00000000       0.004
   0.18750000  0.12500000  0.00000000       0.008
   0.25000000  0.12500000  0.00000000       0.008
   0.31250000  0.12500000  0.00000000       0.008
   0.37500000  0.12500000  0.00000000       0.008
   0.43750000  0.12500000  0.00000000       0.004
   0.18750000  0.18750000  0.00000000       0.004
   0.25000000  0.18750000  0.00000000       0.008
   0.31250000  0.18750000  0.00000000       0.008
   0.37500000  0.18750000  0.00000000       0.008
   0.25000000  0.25000000  0.00000000       0.004
   0.31250000  0.25000000  0.00000000       0.008
   0.37500000  0.25000000  0.00000000       0.004
   0.31250000  0.31250000  0.00000000       0.004
   0.00000000  0.00000000  0.16666667       0.001
   0.06250000 -0.00000000  0.16666667       0.008
   0.12500000 -0.00000000  0.16666667       0.008
   0.18750000 -0.00000000  0.16666667       0.008
   0.25000000 -0.00000000  0.16666667       0.008
   0.31250000 -0.00000000  0.16666667       0.008
   0.37500000 -0.00000000  0.16666667       0.008
   0.43750000 -0.00000000  0.16666667       0.008
   0.50000000 -0.00000000  0.16666667       0.004
   0.06250000  0.06250000  0.16666667       0.008
   0.12500000  0.06250000  0.16666667       0.016
   0.18750000  0.06250000  0.16666667       0.016
   0.25000000  0.06250000  0.16666667       0.016
   0.31250000  0.06250000  0.16666667       0.016
   0.37500000  0.06250000  0.16666667       0.016
   0.43750000  0.06250000  0.16666667       0.016
   0.12500000  0.12500000  0.16666667       0.008
   0.18750000  0.12500000  0.16666667       0.016
   0.25000000  0.12500000  0.16666667       0.016
   0.31250000  0.12500000  0.16666667       0.016
   0.37500000  0.12500000  0.16666667       0.016
   0.43750000  0.12500000  0.16666667       0.008
   0.18750000  0.18750000  0.16666667       0.008
   0.25000000  0.18750000  0.16666667       0.016
   0.31250000  0.18750000  0.16666667       0.016
   0.37500000  0.18750000  0.16666667       0.016
   0.25000000  0.25000000  0.16666667       0.008
   0.31250000  0.25000000  0.16666667       0.016
   0.37500000  0.25000000  0.16666667       0.008
   0.31250000  0.31250000  0.16666667       0.008
   0.00000000  0.00000000  0.33333333       0.001
   0.06250000 -0.00000000  0.33333333       0.008
   0.12500000 -0.00000000  0.33333333       0.008
   0.18750000 -0.00000000  0.33333333       0.008
   0.25000000 -0.00000000  0.33333333       0.008
   0.31250000 -0.00000000  0.33333333       0.008
   0.37500000 -0.00000000  0.33333333       0.008
   0.43750000 -0.00000000  0.33333333       0.008
   0.50000000 -0.00000000  0.33333333       0.004
   0.06250000  0.06250000  0.33333333       0.008
   0.12500000  0.06250000  0.33333333       0.016
   0.18750000  0.06250000  0.33333333       0.016
   0.25000000  0.06250000  0.33333333       0.016
   0.31250000  0.06250000  0.33333333       0.016
   0.37500000  0.06250000  0.33333333       0.016
   0.43750000  0.06250000  0.33333333       0.016
   0.12500000  0.12500000  0.33333333       0.008
   0.18750000  0.12500000  0.33333333       0.016
   0.25000000  0.12500000  0.33333333       0.016
   0.31250000  0.12500000  0.33333333       0.016
   0.37500000  0.12500000  0.33333333       0.016
   0.43750000  0.12500000  0.33333333       0.008
   0.18750000  0.18750000  0.33333333       0.008
   0.25000000  0.18750000  0.33333333       0.016
   0.31250000  0.18750000  0.33333333       0.016
   0.37500000  0.18750000  0.33333333       0.016
   0.25000000  0.25000000  0.33333333       0.008
   0.31250000  0.25000000  0.33333333       0.016
   0.37500000  0.25000000  0.33333333       0.008
   0.31250000  0.31250000  0.33333333       0.008
   0.00000000  0.00000000  0.50000000       0.001
   0.06250000 -0.00000000  0.50000000       0.004
   0.12500000 -0.00000000  0.50000000       0.004
   0.18750000 -0.00000000  0.50000000       0.004
   0.25000000 -0.00000000  0.50000000       0.004
   0.31250000 -0.00000000  0.50000000       0.004
   0.37500000 -0.00000000  0.50000000       0.004
   0.43750000 -0.00000000  0.50000000       0.004
   0.50000000 -0.00000000  0.50000000       0.002
   0.06250000  0.06250000  0.50000000       0.004
   0.12500000  0.06250000  0.50000000       0.008
   0.18750000  0.06250000  0.50000000       0.008
   0.25000000  0.06250000  0.50000000       0.008
   0.31250000  0.06250000  0.50000000       0.008
   0.37500000  0.06250000  0.50000000       0.008
   0.43750000  0.06250000  0.50000000       0.008
   0.12500000  0.12500000  0.50000000       0.004
   0.18750000  0.12500000  0.50000000       0.008
   0.25000000  0.12500000  0.50000000       0.008
   0.31250000  0.12500000  0.50000000       0.008
   0.37500000  0.12500000  0.50000000       0.008
   0.43750000  0.12500000  0.50000000       0.004
   0.18750000  0.18750000  0.50000000       0.004
   0.25000000  0.18750000  0.50000000       0.008
   0.31250000  0.18750000  0.50000000       0.008
   0.37500000  0.18750000  0.50000000       0.008
   0.25000000  0.25000000  0.50000000       0.004
   0.31250000  0.25000000  0.50000000       0.008
   0.37500000  0.25000000  0.50000000       0.004
   0.31250000  0.31250000  0.50000000       0.004
 
 position of ions in fractional coordinates (direct lattice) 
   0.00000000  0.00000000  0.00000000
   0.33333333  0.66666667  0.00000000
   0.00000000  0.00000000  0.50000000
   0.33333333  0.66666667  0.50000000
 
 position of ions in cartesian coordinates  (Angst):
   0.00000000  0.00000000  0.00000000
   0.00000000  1.44337567  0.00000000
   0.00000000  0.00000000  3.34000000
   0.00000000  1.44337567  3.34000000
 


--------------------------------------------------------------------------------------------------------


 k-point  1 :   0.0000 0.0000 0.0000  plane waves:     639
 k-point  2 :   0.0625-0.0000 0.0000  plane waves:     639
 k-point  3 :   0.1250-0.0000 0.0000  plane waves:     645
 k-point  4 :   0.1875-0.0000 0.0000  plane waves:     651
 k-point  5 :   0.2500-0.0000 0.0000  plane waves:     659
 k-point  6 :   0.3125-0.0000 0.0000  plane waves:     651
 k-point  7 :   0.3750-0.0000 0.0000  plane waves:     661
 k-point  8 :   0.4375-0.0000 0.0000  plane waves:     663
 k-point  9 :   0.5000-0.0000 0.0000  plane waves:     672
 k-point 10 :   0.0625 0.0625 0.0000  plane waves:     636
 k-point 11 :   0.1250 0.0625 0.0000  plane waves:     645
 k-point 12 :   0.1875 0.0625 0.0000  plane waves:     652
 k-point 13 :   0.2500 0.0625 0.0000  plane waves:     660
 k-point 14 :   0.3125 0.0625 0.0000  plane waves:     657
 k-point 15 :   0.3750 0.0625 0.0000  plane waves:     661
 k-point 16 :   0.4375 0.0625 0.0000  plane waves:     661
 k-point 17 :   0.1250 0.1250 0.0000  plane waves:     644
 k-point 18 :   0.1875 0.1250 0.0000  plane waves:     655
 k-point 19 :   0.2500 0.1250 0.0000  plane waves:     659
 k-point 20 :   0.3125 0.1250 0.0000  plane waves:     665
 k-point 21 :   0.3750 0.1250 0.0000  plane waves:     657
 k-point 22 :   0.4375 0.1250 0.0000  plane waves:     668
 k-point 23 :   0.1875 0.1875 0.0000  plane waves:     646
 k-point 24 :   0.2500 0.1875 0.0000  plane waves:     665
 k-point 25 :   0.3125 0.1875 0.0000  plane waves:     661
 k-point 26 :   0.3750 0.1875 0.0000  plane waves:     657
 k-point 27 :   0.2500 0.2500 0.0000  plane waves:     664
 k-point 28 :   0.3125 0.2500 0.0000  plane waves:     653
 k-point 29 :   0.3750 0.2500 0.0000  plane waves:     654
 k-point 30 :   0.3125 0.3125 0.0000  plane waves:     654
 k-point 31 :   0.0000 0.0000 0.1667  plane waves:     640
 k-point 32 :   0.0625-0.0000 0.1667  plane waves:     637
 k-point 33 :   0.1250-0.0000 0.1667  plane waves:     643
 k-point 34 :   0.1875-0.0000 0.1667  plane waves:     648
 k-point 35 :   0.2500-0.0000 0.1667  plane waves:     658
 k-point 36 :   0.3125-0.0000 0.1667  plane waves:     660
 k-point 37 :   0.3750-0.0000 0.1667  plane waves:     665
 k-point 38 :   0.4375-0.0000 0.1667  plane waves:     661
 k-point 39 :   0.5000-0.0000 0.1667  plane waves:     662
 k-point 40 :   0.0625 0.0625 0.1667  plane waves:     641
 k-point 41 :   0.1250 0.0625 0.1667  plane waves:     647
 k-point 42 :   0.1875 0.0625 0.1667  plane waves:     654
 k-point 43 :   0.2500 0.0625 0.1667  plane waves:     657
 k-point 44 :   0.3125 0.0625 0.1667  plane waves:     662
 k-point 45 :   0.3750 0.0625 0.1667  plane waves:     659
 k-point 46 :   0.4375 0.0625 0.1667  plane waves:     661
 k-point 47 :   0.1250 0.1250 0.1667  plane waves:     653
 k-point 48 :   0.1875 0.1250 0.1667  plane waves:     658
 k-point 49 :   0.2500 0.1250 0.1667  plane waves:     659
 k-point 50 :   0.3125 0.1250 0.1667  plane waves:     661
 k-point 51 :   0.3750 0.1250 0.1667  plane waves:     662
 k-point 52 :   0.4375 0.1250 0.1667  plane waves:     667
 k-point 53 :   0.1875 0.1875 0.1667  plane waves:     656
 k-point 54 :   0.2500 0.1875 0.1667  plane waves:     656
 k-point 55 :   0.3125 0.1875 0.1667  plane waves:     660
 k-point 56 :   0.3750 0.1875 0.1667  plane waves:     658
 k-point 57 :   0.2500 0.2500 0.1667  plane waves:     655
 k-point 58 :   0.3125 0.2500 0.1667  plane waves:     660
 k-point 59 :   0.3750 0.2500 0.1667  plane waves:     657
 k-point 60 :   0.3125 0.3125 0.1667  plane waves:     657
 k-point 61 :   0.0000 0.0000 0.3333  plane waves:     634
 k-point 62 :   0.0625-0.0000 0.3333  plane waves:     635
 k-point 63 :   0.1250-0.0000 0.3333  plane waves:     643
 k-point 64 :   0.1875-0.0000 0.3333  plane waves:     652
 k-point 65 :   0.2500-0.0000 0.3333  plane waves:     651
 k-point 66 :   0.3125-0.0000 0.3333  plane waves:     657
 k-point 67 :   0.3750-0.0000 0.3333  plane waves:     662
 k-point 68 :   0.4375-0.0000 0.3333  plane waves:     664
 k-point 69 :   0.5000-0.0000 0.3333  plane waves:     666
 k-point 70 :   0.0625 0.0625 0.3333  plane waves:     641
 k-point 71 :   0.1250 0.0625 0.3333  plane waves:     645
 k-point 72 :   0.1875 0.0625 0.3333  plane waves:     656
 k-point 73 :   0.2500 0.0625 0.3333  plane waves:     653
 k-point 74 :   0.3125 0.0625 0.3333  plane waves:     657
 k-point 75 :   0.3750 0.0625 0.3333  plane waves:     660
 k-point 76 :   0.4375 0.0625 0.3333  plane waves:     659
 k-point 77 :   0.1250 0.1250 0.3333  plane waves:     650
 k-point 78 :   0.1875 0.1250 0.3333  plane waves:     657
 k-point 79 :   0.2500 0.1250 0.3333  plane waves:     659
 k-point 80 :   0.3125 0.1250 0.3333  plane waves:     659
 k-point 81 :   0.3750 0.1250 0.3333  plane waves:     661
 k-point 82 :   0.4375 0.1250 0.3333  plane waves:     662
 k-point 83 :   0.1875 0.1875 0.3333  plane waves:     658
 k-point 84 :   0.2500 0.1875 0.3333  plane waves:     662
 k-point 85 :   0.3125 0.1875 0.3333  plane waves:     664
 k-point 86 :   0.3750 0.1875 0.3333  plane waves:     661
 k-point 87 :   0.2500 0.2500 0.3333  plane waves:     660
 k-point 88 :   0.3125 0.2500 0.3333  plane waves:     667
 k-point 89 :   0.3750 0.2500 0.3333  plane waves:     666
 k-point 90 :   0.3125 0.3125 0.3333  plane waves:     665
 k-point 91 :   0.0000 0.0000 0.5000  plane waves:     622
 k-point 92 :   0.0625-0.0000 0.5000  plane waves:     626
 k-point 93 :   0.1250-0.0000 0.5000  plane waves:     638
 k-point 94 :   0.1875-0.0000 0.5000  plane waves:     656
 k-point 95 :   0.2500-0.0000 0.5000  plane waves:     644
 k-point 96 :   0.3125-0.0000 0.5000  plane waves:     658
 k-point 97 :   0.3750-0.0000 0.5000  plane waves:     660
 k-point 98 :   0.4375-0.0000 0.5000  plane waves:     658
 k-point 99 :   0.5000-0.0000 0.5000  plane waves:     664
 k-point ** :   0.0625 0.0625 0.5000  plane waves:     634
 k-point ** :   0.1250 0.0625 0.5000  plane waves:     646
 k-point ** :   0.1875 0.0625 0.5000  plane waves:     650
 k-point ** :   0.2500 0.0625 0.5000  plane waves:     660
 k-point ** :   0.3125 0.0625 0.5000  plane waves:     662
 k-point ** :   0.3750 0.0625 0.5000  plane waves:     662
 k-point ** :   0.4375 0.0625 0.5000  plane waves:     660
 k-point ** :   0.1250 0.1250 0.5000  plane waves:     652
 k-point ** :   0.1875 0.1250 0.5000  plane waves:     654
 k-point ** :   0.2500 0.1250 0.5000  plane waves:     662
 k-point ** :   0.3125 0.1250 0.5000  plane waves:     658
 k-point ** :   0.3750 0.1250 0.5000  plane waves:     664
 k-point ** :   0.4375 0.1250 0.5000  plane waves:     660
 k-point ** :   0.1875 0.1875 0.5000  plane waves:     662
 k-point ** :   0.2500 0.1875 0.5000  plane waves:     660
 k-point ** :   0.3125 0.1875 0.5000  plane waves:     662
 k-point ** :   0.3750 0.1875 0.5000  plane waves:     666
 k-point ** :   0.2500 0.2500 0.5000  plane waves:     668
 k-point ** :   0.3125 0.2500 0.5000  plane waves:     664
 k-point ** :   0.3750 0.2500 0.5000  plane waves:     664
 k-point ** :   0.3125 0.3125 0.5000  plane waves:     662

 maximum number of plane-waves:       672
 maximum index in each direction: 
   IXMAX=    4   IYMAX=    4   IZMAX=   10
   IXMIN=   -4   IYMIN=   -4   IZMIN=  -11

 WARNING: aliasing errors must be expected set NGX to  18 to avoid them
 WARNING: aliasing errors must be expected set NGY to  18 to avoid them
 WARNING: aliasing errors must be expected set NGZ to  44 to avoid them
 aliasing errors are usually negligible using standard VASP settings
 and one can safely disregard these warnings

 total amount of memory used by VASP on root node    60743. kBytes
========================================================================

   base      :      30000. kBytes
   nonl-proj :      10364. kBytes
   grid      :       4147. kBytes
   one-center:         12. kBytes
   wavefun   :      16220. kBytes
 
     INWAV:  cpu time    0.00: real time    0.00
 Broyden mixing: mesh for mixing (old mesh)
   NGX =  9   NGY =  9   NGZ = 21
  (NGX  = 24   NGY  = 24   NGZ  = 72)
  gives a total of   1701 points

 initial charge density was supplied:
 charge density of overlapping atoms calculated
 number of electron      16.0000000 magnetization 
 keeping initial charge density in first step


--------------------------------------------------------------------------------------------------------


 Maximum index for augmentation-charges         2159 (set IRDMAX)


--------------------------------------------------------------------------------------------------------


 First call to EWALD:  gamma=   0.536
 Maximum number of real-space cells 4x 4x 2
 Maximum number of reciprocal cells 2x 2x 5

    FEWALD:  cpu time    0.00: real time    0.00


----------------------------------------- Iteration    1(   1)  ---------------------------------------


    POTLOK:  cpu time    0.01: real time    0.01
    SETDIJ:  cpu time    0.00: real time    0.01
     EDDAV:  cpu time    1.24: real time    1.27
 BZINTS: Fermi energy: 11.829941; 16.000000 electrons
         Band energy: -25.882581;  BLOECHL correction:  0.000000
       DOS:  cpu time    0.04: real time    0.04
    --------------------------------------------
      LOOP:  cpu time    1.29: real time    1.33

 eigenvalue-minimisations  :  2880
 total energy-change (2. order) : 0.4327218E+02  (-0.7212516E+03)
 number of electron      16.0000000 magnetization 
 augmentation part       16.0000000 magnetization 

 Free energy of the ion-electron system (eV)
  ---------------------------------------------------
  alpha Z        PSCENC =        35.96200112
  Ewald energy   TEWEN  =      -419.91750997
  -Hartree energ DENC   =      -269.89537510
  -exchange      EXHF   =         0.00000000
  -V(xc)+E(xc)   XCENC  =        58.14595916
  PAW double counting   =       251.23424383     -255.68995982
  entropy T*S    EENTRO =         0.00000000
  eigenvalues    EBANDS =       -25.88258116
  atomic energy  EATOM  =       669.31540382
  ---------------------------------------------------
  free energy    TOTEN  =        43.27218187 eV

  energy without entropy =       43.27218187  energy(sigma->0) =       43.27218187


--------------------------------------------------------------------------------------------------------




----------------------------------------- Iteration    1(   2)  ---------------------------------------


     EDDAV:  cpu time    1.55: real time    1.59
 BZINTS: Fermi energy:  2.969459; 16.000000 electrons
         Band energy:-102.456247;  BLOECHL correction:  0.000000
       DOS:  cpu time    0.03: real time    0.03
    --------------------------------------------
      LOOP:  cpu time    1.58: real time    1.63

 eigenvalue-minimisations  :  3900
 total energy-change (2. order) :-0.7657367E+02  (-0.7119542E+02)
 number of electron      16.0000000 magnetization 
 augmentation part       16.0000000 magnetization 

 Free energy of the ion-electron system (eV)
  ---------------------------------------------------
  alpha Z        PSCENC =        35.96200112
  Ewald energy   TEWEN  =      -419.91750997
  -Hartree energ DENC   =      -269.89537510
  -exchange      EXHF   =         0.00000000
  -V(xc)+E(xc)   XCENC  =        58.14595916
  PAW double counting   =       251.23424383     -255.68995982
  entropy T*S    EENTRO =         0.00000000
  eigenvalues    EBANDS =      -102.45624693
  atomic energy  EATOM  =       669.31540382
  ---------------------------------------------------
  free energy    TOTEN  =       -33.30148390 eV

  energy without entropy =      -33.30148390  energy(sigma->0) =      -33.30148390


--------------------------------------------------------------------------------------------------------




----------------------------------------- Iteration    1(   3)  ---------------------------------------


     EDDAV:  cpu time    1.55: real time    1.60
 BZINTS: Fermi energy:  2.692899; 16.000000 electrons
         Band energy:-105.390644;  BLOECHL correction:  0.000000
       DOS:  cpu time    0.01: real time    0.01
    --------------------------------------------
      LOOP:  cpu time    1.56: real time    1.61

 eigenvalue-minimisations  :  3716
 total energy-change (2. order) :-0.2934397E+01  (-0.2899461E+01)
 number of electron      16.0000000 magnetization 
 augmentation part       16.0000000 magnetization 

 Free energy of the ion-electron system (eV)
  ---------------------------------------------------
  alpha Z        PSCENC =        35.96200112
  Ewald energy   TEWEN  =      -419.91750997
  -Hartree energ DENC   =      -269.89537510
  -exchange      EXHF   =         0.00000000
  -V(xc)+E(xc)   XCENC  =        58.14595916
  PAW double counting   =       251.23424383     -255.68995982
  entropy T*S    EENTRO =         0.00000000
  eigenvalues    EBANDS =      -105.39064441
  atomic energy  EATOM  =       669.31540382
  ---------------------------------------------------
  free energy    TOTEN  =       -36.23588137 eV

  energy without entropy =      -36.23588137  energy(sigma->0) =      -36.23588137


--------------------------------------------------------------------------------------------------------




----------------------------------------- Iteration    1(   4)  ---------------------------------------


     EDDAV:  cpu time    1.47: real time    1.49
 BZINTS: Fermi energy:  2.696938; 16.000000 electrons
         Band energy:-105.422265;  BLOECHL correction:  0.000000
       DOS:  cpu time    0.01: real time    0.01
    --------------------------------------------
      LOOP:  cpu time    1.48: real time    1.50

 eigenvalue-minimisations  :  3656
 total energy-change (2. order) :-0.3162062E-01  (-0.3153709E-01)
 number of electron      16.0000000 magnetization 
 augmentation part       16.0000000 magnetization 

 Free energy of the ion-electron system (eV)
  ---------------------------------------------------
  alpha Z        PSCENC =        35.96200112
  Ewald energy   TEWEN  =      -419.91750997
  -Hartree energ DENC   =      -269.89537510
  -exchange      EXHF   =         0.00000000
  -V(xc)+E(xc)   XCENC  =        58.14595916
  PAW double counting   =       251.23424383     -255.68995982
  entropy T*S    EENTRO =         0.00000000
  eigenvalues    EBANDS =      -105.42226503
  atomic energy  EATOM  =       669.31540382
  ---------------------------------------------------
  free energy    TOTEN  =       -36.26750199 eV

  energy without entropy =      -36.26750199  energy(sigma->0) =      -36.26750199


--------------------------------------------------------------------------------------------------------




----------------------------------------- Iteration    1(   5)  ---------------------------------------


     EDDAV:  cpu time    1.49: real time    1.49
 BZINTS: Fermi energy:  2.696158; 16.000000 electrons
         Band energy:-105.422914;  BLOECHL correction:  0.000000
       DOS:  cpu time    0.01: real time    0.01
    CHARGE:  cpu time    0.10: real time    0.10
    MIXING:  cpu time    0.00: real time    0.00
    --------------------------------------------
      LOOP:  cpu time    1.61: real time    1.61

 eigenvalue-minimisations  :  3728
 total energy-change (2. order) :-0.6493179E-03  (-0.6488539E-03)
 number of electron      16.0000010 magnetization 
 augmentation part        0.3951985 magnetization 

 Broyden mixing:
  rms(total) = 0.13793E+01    rms(broyden)= 0.13792E+01
  rms(prec ) = 0.43111E+01
  weight for this iteration     100.00

 Free energy of the ion-electron system (eV)
  ---------------------------------------------------
  alpha Z        PSCENC =        35.96200112
  Ewald energy   TEWEN  =      -419.91750997
  -Hartree energ DENC   =      -269.89537510
  -exchange      EXHF   =         0.00000000
  -V(xc)+E(xc)   XCENC  =        58.14595916
  PAW double counting   =       251.23424383     -255.68995982
  entropy T*S    EENTRO =         0.00000000
  eigenvalues    EBANDS =      -105.42291434
  atomic energy  EATOM  =       669.31540382
  ---------------------------------------------------
  free energy    TOTEN  =       -36.26815131 eV

  energy without entropy =      -36.26815131  energy(sigma->0) =      -36.26815131


--------------------------------------------------------------------------------------------------------




----------------------------------------- Iteration    1(   6)  ---------------------------------------


    POTLOK:  cpu time    0.01: real time    0.01
    SETDIJ:  cpu time    0.00: real time    0.00
     EDDAV:  cpu time    1.51: real time    1.51
 BZINTS: Fermi energy:  3.077255; 16.000000 electrons
         Band energy:-129.497880;  BLOECHL correction:  0.000000
       DOS:  cpu time    0.04: real time    0.04
    CHARGE:  cpu time    0.11: real time    0.11
    MIXING:  cpu time    0.00: real time    0.00
    --------------------------------------------
      LOOP:  cpu time    1.67: real time    1.68

 eigenvalue-minimisations  :  3656
 total energy-change (2. order) : 0.7716929E+00  (-0.2642838E+01)
 number of electron      16.0000027 magnetization 
 augmentation part        0.5964495 magnetization 

 Broyden mixing:
  rms(total) = 0.20283E+01    rms(broyden)= 0.20248E+01
  rms(prec ) = 0.59044E+01
  weight for this iteration     100.00

 eigenvalues of (default mixing * dielectric matrix)
  average eigenvalue GAMMA=   0.3832
  0.3832

 Free energy of the ion-electron system (eV)
  ---------------------------------------------------
  alpha Z        PSCENC =        35.96200112
  Ewald energy   TEWEN  =      -419.91750997
  -Hartree energ DENC   =      -244.43834768
  -exchange      EXHF   =         0.00000000
  -V(xc)+E(xc)   XCENC  =        58.19208671
  PAW double counting   =       288.17734364     -293.28955554
  entropy T*S    EENTRO =         0.00000000
  eigenvalues    EBANDS =      -129.49788048
  atomic energy  EATOM  =       669.31540382
  ---------------------------------------------------
  free energy    TOTEN  =       -35.49645839 eV

  energy without entropy =      -35.49645839  energy(sigma->0) =      -35.49645839


--------------------------------------------------------------------------------------------------------




----------------------------------------- Iteration    1(   7)  ---------------------------------------


    POTLOK:  cpu time    0.01: real time    0.01
    SETDIJ:  cpu time    0.00: real time    0.00
     EDDAV:  cpu time    1.56: real time    1.57
 BZINTS: Fermi energy:  3.692178; 16.000000 electrons
         Band energy: -91.413608;  BLOECHL correction:  0.000000
       DOS:  cpu time    0.03: real time    0.04
    CHARGE:  cpu time    0.11: real time    0.11
    MIXING:  cpu time    0.00: real time    0.00
    --------------------------------------------
      LOOP:  cpu time    1.71: real time    1.73

 eigenvalue-minimisations  :  3024
 total energy-change (2. order) : 0.1128162E+02  (-0.3047418E+01)
 number of electron      16.0000013 magnetization 
 augmentation part        0.4561580 magnetization 

 Broyden mixing:
  rms(total) = 0.60570E+00    rms(broyden)= 0.60457E+00
  rms(prec ) = 0.17332E+01
  weight for this iteration     100.00

 eigenvalues of (default mixing * dielectric matrix)
  average eigenvalue GAMMA=   0.7979
  1.2499  0.3459

 Free energy of the ion-electron system (eV)
  ---------------------------------------------------
  alpha Z        PSCENC =        35.96200112
  Ewald energy   TEWEN  =      -419.91750997
  -Hartree energ DENC   =      -271.89401896
  -exchange      EXHF   =         0.00000000
  -V(xc)+E(xc)   XCENC  =        59.12945586
  PAW double counting   =       320.95495870     -326.35151593
  entropy T*S    EENTRO =         0.00000000
  eigenvalues    EBANDS =       -91.41360818
  atomic energy  EATOM  =       669.31540382
  ---------------------------------------------------
  free energy    TOTEN  =       -24.21483354 eV

  energy without entropy =      -24.21483354  energy(sigma->0) =      -24.21483354


--------------------------------------------------------------------------------------------------------




----------------------------------------- Iteration    1(   8)  ---------------------------------------


    POTLOK:  cpu time    0.01: real time    0.01
    SETDIJ:  cpu time    0.00: real time    0.00
     EDDAV:  cpu time    1.63: real time    1.65
 BZINTS: Fermi energy:  3.897960; 16.000000 electrons
         Band energy: -90.216565;  BLOECHL correction:  0.000000
       DOS:  cpu time    0.04: real time    0.04
    CHARGE:  cpu time    0.11: real time    0.11
    MIXING:  cpu time    0.00: real time    0.00
    --------------------------------------------
      LOOP:  cpu time    1.79: real time    1.81

 eigenvalue-minimisations  :  3192
 total energy-change (2. order) : 0.8066908E+00  (-0.3048289E+00)
 number of electron      16.0000014 magnetization 
 augmentation part        0.3791326 magnetization 

 Broyden mixing:
  rms(total) = 0.37982E+00    rms(broyden)= 0.37977E+00
  rms(prec ) = 0.11597E+01
  weight for this iteration     100.00

 eigenvalues of (default mixing * dielectric matrix)
  average eigenvalue GAMMA=   1.0752
  0.3276  1.4489  1.4489

 Free energy of the ion-electron system (eV)
  ---------------------------------------------------
  alpha Z        PSCENC =        35.96200112
  Ewald energy   TEWEN  =      -419.91750997
  -Hartree energ DENC   =      -272.24051293
  -exchange      EXHF   =         0.00000000
  -V(xc)+E(xc)   XCENC  =        59.60745185
  PAW double counting   =       363.94798689     -369.86639892
  entropy T*S    EENTRO =         0.00000000
  eigenvalues    EBANDS =       -90.21656458
  atomic energy  EATOM  =       669.31540382
  ---------------------------------------------------
  free energy    TOTEN  =       -23.40814272 eV

  energy without entropy =      -23.40814272  energy(sigma->0) =      -23.40814272


--------------------------------------------------------------------------------------------------------




----------------------------------------- Iteration    1(   9)  ---------------------------------------


    POTLOK:  cpu time    0.01: real time    0.01
    SETDIJ:  cpu time    0.00: real time    0.00
     EDDAV:  cpu time    1.39: real time    1.40
 BZINTS: Fermi energy:  4.108598; 16.000000 electrons
         Band energy: -84.992499;  BLOECHL correction:  0.000000
       DOS:  cpu time    0.04: real time    0.04
    CHARGE:  cpu time    0.11: real time    0.11
    MIXING:  cpu time    0.00: real time    0.00
    --------------------------------------------
      LOOP:  cpu time    1.55: real time    1.56

 eigenvalue-minimisations  :  3196
 total energy-change (2. order) : 0.4688529E-01  (-0.3979659E+00)
 number of electron      16.0000013 magnetization 
 augmentation part        0.4274269 magnetization 

 Broyden mixing:
  rms(total) = 0.34509E+00    rms(broyden)= 0.34486E+00
  rms(prec ) = 0.10967E+01
  weight for this iteration     100.00

 eigenvalues of (default mixing * dielectric matrix)
  average eigenvalue GAMMA=   1.1356
  1.9281  0.3211  1.3989  0.8943

 Free energy of the ion-electron system (eV)
  ---------------------------------------------------
  alpha Z        PSCENC =        35.96200112
  Ewald energy   TEWEN  =      -419.91750997
  -Hartree energ DENC   =      -277.65039966
  -exchange      EXHF   =         0.00000000
  -V(xc)+E(xc)   XCENC  =        59.74324933
  PAW double counting   =       375.73537789     -381.55688112
  entropy T*S    EENTRO =         0.00000000
  eigenvalues    EBANDS =       -84.99249884
  atomic energy  EATOM  =       669.31540382
  ---------------------------------------------------
  free energy    TOTEN  =       -23.36125742 eV

  energy without entropy =      -23.36125742  energy(sigma->0) =      -23.36125742


--------------------------------------------------------------------------------------------------------




----------------------------------------- Iteration    1(  10)  ---------------------------------------


    POTLOK:  cpu time    0.01: real time    0.01
    SETDIJ:  cpu time    0.00: real time    0.00
     EDDAV:  cpu time    1.54: real time    1.56
 BZINTS: Fermi energy:  4.021365; 16.000000 electrons
         Band energy: -86.354673;  BLOECHL correction:  0.000000
       DOS:  cpu time    0.04: real time    0.04
    CHARGE:  cpu time    0.12: real time    0.12
    MIXING:  cpu time    0.00: real time    0.00
    --------------------------------------------
      LOOP:  cpu time    1.71: real time    1.73

 eigenvalue-minimisations  :  3232
 total energy-change (2. order) : 0.3127690E+00  (-0.9944634E-01)
 number of electron      16.0000013 magnetization 
 augmentation part        0.3960829 magnetization 

 Broyden mixing:
  rms(total) = 0.19104E-01    rms(broyden)= 0.18962E-01
  rms(prec ) = 0.30980E-01
  weight for this iteration     100.00

 eigenvalues of (default mixing * dielectric matrix)
  average eigenvalue GAMMA=   1.1053
  2.1050  1.4575  0.9954  0.3207  0.6477

 Free energy of the ion-electron system (eV)
  ---------------------------------------------------
  alpha Z        PSCENC =        35.96200112
  Ewald energy   TEWEN  =      -419.91750997
  -Hartree energ DENC   =      -275.90271674
  -exchange      EXHF   =         0.00000000
  -V(xc)+E(xc)   XCENC  =        59.78511423
  PAW double counting   =       385.57797071     -391.51407827
  entropy T*S    EENTRO =         0.00000000
  eigenvalues    EBANDS =       -86.35467330
  atomic energy  EATOM  =       669.31540382
  ---------------------------------------------------
  free energy    TOTEN  =       -23.04848840 eV

  energy without entropy =      -23.04848840  energy(sigma->0) =      -23.04848840


--------------------------------------------------------------------------------------------------------




----------------------------------------- Iteration    1(  11)  ---------------------------------------


    POTLOK:  cpu time    0.01: real time    0.01
    SETDIJ:  cpu time    0.00: real time    0.00
     EDDAV:  cpu time    1.63: real time    1.65
 BZINTS: Fermi energy:  4.014181; 16.000000 electrons
         Band energy: -86.484854;  BLOECHL correction:  0.000000
       DOS:  cpu time    0.04: real time    0.04
    CHARGE:  cpu time    0.11: real time    0.11
    MIXING:  cpu time    0.00: real time    0.00
    --------------------------------------------
      LOOP:  cpu time    1.80: real time    1.83

 eigenvalue-minimisations  :  3612
 total energy-change (2. order) :-0.5645821E-02  (-0.3433873E-02)
 number of electron      16.0000014 magnetization 
 augmentation part        0.3910012 magnetization 

 Broyden mixing:
  rms(total) = 0.48210E-01    rms(broyden)= 0.48201E-01
  rms(prec ) = 0.16452E+00
  weight for this iteration     100.00

 eigenvalues of (default mixing * dielectric matrix)
  average eigenvalue GAMMA=   1.2964
  2.2842  2.2842  1.2916  0.3208  0.7988  0.7988

 Free energy of the ion-electron system (eV)
  ---------------------------------------------------
  alpha Z        PSCENC =        35.96200112
  Ewald energy   TEWEN  =      -419.91750997
  -Hartree energ DENC   =      -275.77706781
  -exchange      EXHF   =         0.00000000
  -V(xc)+E(xc)   XCENC  =        59.78843869
  PAW double counting   =       388.14454286     -394.08508900
  entropy T*S    EENTRO =         0.00000000
  eigenvalues    EBANDS =       -86.48485393
  atomic energy  EATOM  =       669.31540382
  ---------------------------------------------------
  free energy    TOTEN  =       -23.05413422 eV

  energy without entropy =      -23.05413422  energy(sigma->0) =      -23.05413422


--------------------------------------------------------------------------------------------------------




----------------------------------------- Iteration    1(  12)  ---------------------------------------


    POTLOK:  cpu time    0.01: real time    0.01
    SETDIJ:  cpu time    0.00: real time    0.00
     EDDAV:  cpu time    1.44: real time    1.44
 BZINTS: Fermi energy:  4.024767; 16.000000 electrons
         Band energy: -86.216995;  BLOECHL correction:  0.000000
       DOS:  cpu time    0.04: real time    0.04
    CHARGE:  cpu time    0.11: real time    0.11
    MIXING:  cpu time    0.00: real time    0.00
    --------------------------------------------
      LOOP:  cpu time    1.60: real time    1.61

 eigenvalue-minimisations  :  3192
 total energy-change (2. order) : 0.1740704E-02  (-0.7358124E-02)
 number of electron      16.0000013 magnetization 
 augmentation part        0.4017738 magnetization 

 Broyden mixing:
  rms(total) = 0.32284E-01    rms(broyden)= 0.32278E-01
  rms(prec ) = 0.10272E+00
  weight for this iteration     100.00

 eigenvalues of (default mixing * dielectric matrix)
  average eigenvalue GAMMA=   1.2112
  2.5438  1.5155  1.5155  0.3209  1.1646  0.7091  0.7091

 Free energy of the ion-electron system (eV)
  ---------------------------------------------------
  alpha Z        PSCENC =        35.96200112
  Ewald energy   TEWEN  =      -419.91750997
  -Hartree energ DENC   =      -276.05847339
  -exchange      EXHF   =         0.00000000
  -V(xc)+E(xc)   XCENC  =        59.77674800
  PAW double counting   =       388.50297101     -394.41653950
  entropy T*S    EENTRO =         0.00000000
  eigenvalues    EBANDS =       -86.21699460
  atomic energy  EATOM  =       669.31540382
  ---------------------------------------------------
  free energy    TOTEN  =       -23.05239352 eV

  energy without entropy =      -23.05239352  energy(sigma->0) =      -23.05239352


--------------------------------------------------------------------------------------------------------




----------------------------------------- Iteration    1(  13)  ---------------------------------------


    POTLOK:  cpu time    0.01: real time    0.01
    SETDIJ:  cpu time    0.00: real time    0.00
     EDDAV:  cpu time    1.40: real time    1.40
 BZINTS: Fermi energy:  4.027700; 16.000000 electrons
         Band energy: -86.197743;  BLOECHL correction:  0.000000
       DOS:  cpu time    0.04: real time    0.04
    CHARGE:  cpu time    0.12: real time    0.12
    MIXING:  cpu time    0.00: real time    0.00
    --------------------------------------------
      LOOP:  cpu time    1.57: real time    1.58

 eigenvalue-minimisations  :  3264
 total energy-change (2. order) : 0.2789832E-02  (-0.1256313E-03)
 number of electron      16.0000013 magnetization 
 augmentation part        0.3993879 magnetization 

 Broyden mixing:
  rms(total) = 0.14954E-01    rms(broyden)= 0.14954E-01
  rms(prec ) = 0.48151E-01
  weight for this iteration     100.00

 eigenvalues of (default mixing * dielectric matrix)
  average eigenvalue GAMMA=   1.2172
  2.5208  1.7126  1.7126  1.2141  0.3209  0.7749  0.7410  0.7410

 Free energy of the ion-electron system (eV)
  ---------------------------------------------------
  alpha Z        PSCENC =        35.96200112
  Ewald energy   TEWEN  =      -419.91750997
  -Hartree energ DENC   =      -276.07415740
  -exchange      EXHF   =         0.00000000
  -V(xc)+E(xc)   XCENC  =        59.78873593
  PAW double counting   =       389.39885400     -395.32518848
  entropy T*S    EENTRO =         0.00000000
  eigenvalues    EBANDS =       -86.19774271
  atomic energy  EATOM  =       669.31540382
  ---------------------------------------------------
  free energy    TOTEN  =       -23.04960368 eV

  energy without entropy =      -23.04960368  energy(sigma->0) =      -23.04960368


--------------------------------------------------------------------------------------------------------




----------------------------------------- Iteration    1(  14)  ---------------------------------------


    POTLOK:  cpu time    0.01: real time    0.01
    SETDIJ:  cpu time    0.00: real time    0.00
     EDDAV:  cpu time    1.54: real time    1.55
 BZINTS: Fermi energy:  4.026758; 16.000000 electrons
         Band energy: -86.221907;  BLOECHL correction:  0.000000
       DOS:  cpu time    0.04: real time    0.04
    CHARGE:  cpu time    0.11: real time    0.11
    MIXING:  cpu time    0.00: real time    0.00
    --------------------------------------------
      LOOP:  cpu time    1.71: real time    1.72

 eigenvalue-minimisations  :  2932
 total energy-change (2. order) : 0.5260953E-03  (-0.9962447E-04)
 number of electron      16.0000013 magnetization 
 augmentation part        0.3978524 magnetization 

 Broyden mixing:
  rms(total) = 0.31778E-02    rms(broyden)= 0.31762E-02
  rms(prec ) = 0.98232E-02
  weight for this iteration     100.00

 eigenvalues of (default mixing * dielectric matrix)
  average eigenvalue GAMMA=   1.3314
  2.6166  2.6166  1.4087  1.4087  0.3209  1.0399  1.0399  0.7657  0.7657

 Free energy of the ion-electron system (eV)
  ---------------------------------------------------
  alpha Z        PSCENC =        35.96200112
  Ewald energy   TEWEN  =      -419.91750997
  -Hartree energ DENC   =      -276.04925254
  -exchange      EXHF   =         0.00000000
  -V(xc)+E(xc)   XCENC  =        59.79116229
  PAW double counting   =       389.35039772     -395.27937338
  entropy T*S    EENTRO =         0.00000000
  eigenvalues    EBANDS =       -86.22190665
  atomic energy  EATOM  =       669.31540382
  ---------------------------------------------------
  free energy    TOTEN  =       -23.04907759 eV

  energy without entropy =      -23.04907759  energy(sigma->0) =      -23.04907759


--------------------------------------------------------------------------------------------------------




----------------------------------------- Iteration    1(  15)  ---------------------------------------


    POTLOK:  cpu time    0.01: real time    0.01
    SETDIJ:  cpu time    0.00: real time    0.00
     EDDAV:  cpu time    0.90: real time    0.91
 BZINTS: Fermi energy:  4.025917; 16.000000 electrons
         Band energy: -86.233438;  BLOECHL correction:  0.000000
       DOS:  cpu time    0.04: real time    0.04
    --------------------------------------------
      LOOP:  cpu time    0.95: real time    0.96

 eigenvalue-minimisations  :  1712
 total energy-change (2. order) :-0.1191151E-05  (-0.1907859E-05)
 number of electron      16.0000013 magnetization 
 augmentation part        0.3978524 magnetization 

 Free energy of the ion-electron system (eV)
  ---------------------------------------------------
  alpha Z        PSCENC =        35.96200112
  Ewald energy   TEWEN  =      -419.91750997
  -Hartree energ DENC   =      -276.03856001
  -exchange      EXHF   =         0.00000000
  -V(xc)+E(xc)   XCENC  =        59.78989117
  PAW double counting   =       389.20426263     -395.13112982
  entropy T*S    EENTRO =         0.00000000
  eigenvalues    EBANDS =       -86.23343771
  atomic energy  EATOM  =       669.31540382
  ---------------------------------------------------
  free energy    TOTEN  =       -23.04907878 eV

  energy without entropy =      -23.04907878  energy(sigma->0) =      -23.04907878


--------------------------------------------------------------------------------------------------------




 average (electrostatic) potential at core
  the test charge radii are     0.7672  0.7536
  (the norm of the test charge is              1.0000)
       1 -31.5190       2 -31.5190       3 -69.3958       4 -69.3958
 
 
 
 E-fermi :   4.0259     XC(G=0): -10.5730     alpha+bet :-11.2044


 k-point     1 :       0.0000    0.0000    0.0000
  band No.  band energies     occupation 
      1     -22.2300      2.00000
      2      -8.0256      2.00000
      3      -6.6400      2.00000
      4      -5.4560      2.00000
      5      -5.4546      2.00000
      6      -0.1615      2.00000
      7       3.2555      2.00000
      8       5.9436      0.00000
      9       5.9457      0.00000
     10       7.2930      0.00000
     11       7.2931      0.00000
     12       7.8482      0.00000

 k-point     2 :       0.0625   -0.0000    0.0000
  band No.  band energies     occupation 
      1     -22.1413      2.00000
      2      -7.9405      2.00000
      3      -6.5450      2.00000
      4      -5.9007      2.00000
      5      -5.6023      2.00000
      6      -0.0487      2.00000
      7       3.5383      2.00000
      8       6.0195      0.00000
      9       6.2429      0.00000
     10       6.9414      0.00000
     11       7.0480      0.00000
     12       7.6551      0.00000

 k-point     3 :       0.1250   -0.0000    0.0000
  band No.  band energies     occupation 
      1     -21.8763      2.00000
      2      -7.6859      2.00000
      3      -7.0338      2.00000
      4      -6.2595      2.00000
[...]
   33.436331    0.874916    0.874916    0.941002   -0.000000   -0.000000    0.000000
   33.479143    0.875312    0.875312    0.941170   -0.000000   -0.000000    0.000000
   33.521955    0.875705    0.875705    0.941336   -0.000000   -0.000000    0.000000
   33.564768    0.876097    0.876097    0.941503   -0.000000   -0.000000    0.000000
   33.607580    0.876486    0.876486    0.941668   -0.000000   -0.000000    0.000000
   33.650392    0.876873    0.876873    0.941833   -0.000000   -0.000000    0.000000
   33.693204    0.877258    0.877258    0.941997   -0.000000   -0.000000    0.000000
   33.736016    0.877642    0.877642    0.942160   -0.000000   -0.000000    0.000000
   33.778829    0.878023    0.878023    0.942322   -0.000000   -0.000000    0.000000
   33.821641    0.878402    0.878402    0.942484   -0.000000   -0.000000    0.000000
   33.864453    0.878780    0.878780    0.942645   -0.000000   -0.000000    0.000000
   33.907265    0.879155    0.879155    0.942806   -0.000000   -0.000000    0.000000
   33.950077    0.879528    0.879528    0.942965   -0.000000   -0.000000    0.000000
   33.992890    0.879900    0.879900    0.943124   -0.000000   -0.000000    0.000000
   34.035702    0.880270    0.880270    0.943282   -0.000000   -0.000000    0.000000
   34.078514    0.880637    0.880637    0.943440   -0.000000   -0.000000    0.000000
   34.121326    0.881003    0.881003    0.943597   -0.000000   -0.000000    0.000000
   34.164138    0.881367    0.881367    0.943753   -0.000000   -0.000000    0.000000
   34.206951    0.881729    0.881729    0.943909   -0.000000   -0.000000    0.000000
   34.249763    0.882090    0.882090    0.944064   -0.000000   -0.000000    0.000000
   34.292575    0.882448    0.882448    0.944218   -0.000000   -0.000000    0.000000
   34.335387    0.882805    0.882805    0.944371   -0.000000   -0.000000    0.000000
   34.378199    0.883160    0.883160    0.944524   -0.000000   -0.000000    0.000000
   34.421012    0.883513    0.883513    0.944677   -0.000000   -0.000000    0.000000
   34.463824    0.883865    0.883865    0.944828   -0.000000   -0.000000    0.000000
   34.506636    0.884214    0.884214    0.944979   -0.000000   -0.000000    0.000000
   34.549448    0.884562    0.884562    0.945129   -0.000000   -0.000000    0.000000
   34.592260    0.884909    0.884909    0.945279   -0.000000   -0.000000    0.000000
   34.635073    0.885253    0.885253    0.945428   -0.000000   -0.000000    0.000000
   34.677885    0.885596    0.885596    0.945577   -0.000000   -0.000000    0.000000
   34.720697    0.885937    0.885937    0.945724   -0.000000   -0.000000    0.000000
   34.763509    0.886277    0.886277    0.945871   -0.000000   -0.000000    0.000000
   34.806321    0.886614    0.886614    0.946018   -0.000000   -0.000000    0.000000
   34.849134    0.886951    0.886951    0.946164   -0.000000   -0.000000    0.000000
   34.891946    0.887285    0.887285    0.946309   -0.000000   -0.000000    0.000000
   34.934758    0.887618    0.887618    0.946454   -0.000000   -0.000000    0.000000
   34.977570    0.887949    0.887949    0.946598   -0.000000   -0.000000    0.000000
   35.020382    0.888279    0.888279    0.946741   -0.000000   -0.000000    0.000000
   35.063195    0.888607    0.888607    0.946884   -0.000000   -0.000000    0.000000
   35.106007    0.888934    0.888934    0.947027   -0.000000   -0.000000    0.000000
   35.148819    0.889259    0.889259    0.947168   -0.000000   -0.000000    0.000000
   35.191631    0.889582    0.889582    0.947309   -0.000000   -0.000000    0.000000
   35.234443    0.889904    0.889904    0.947450   -0.000000   -0.000000    0.000000
   35.277256    0.890225    0.890225    0.947590   -0.000000   -0.000000    0.000000
   35.320068    0.890543    0.890543    0.947729   -0.000000   -0.000000    0.000000
   35.362880    0.890861    0.890861    0.947868   -0.000000   -0.000000    0.000000
   35.405692    0.891177    0.891177    0.948006   -0.000000   -0.000000    0.000000
   35.448504    0.891491    0.891491    0.948144   -0.000000   -0.000000    0.000000
   35.491317    0.891804    0.891804    0.948281   -0.000000   -0.000000    0.000000
   35.534129    0.892115    0.892115    0.948417   -0.000000   -0.000000    0.000000
   35.576941    0.892425    0.892425    0.948553   -0.000000   -0.000000    0.000000
   35.619753    0.892734    0.892734    0.948689   -0.000000   -0.000000    0.000000
   35.662565    0.893041    0.893041    0.948824   -0.000000   -0.000000    0.000000
   35.705378    0.893346    0.893346    0.948958   -0.000000   -0.000000    0.000000
   35.748190    0.893651    0.893651    0.949092   -0.000000   -0.000000    0.000000
   35.791002    0.893953    0.893953    0.949225   -0.000000   -0.000000    0.000000
   35.833814    0.894255    0.894255    0.949358   -0.000000   -0.000000    0.000000
   35.876627    0.894555    0.894555    0.949490   -0.000000   -0.000000    0.000000
   35.919439    0.894854    0.894854    0.949621   -0.000000   -0.000000    0.000000
   35.962251    0.895151    0.895151    0.949752   -0.000000   -0.000000    0.000000
   36.005063    0.895447    0.895447    0.949883   -0.000000   -0.000000    0.000000
   36.047875    0.895741    0.895741    0.950013   -0.000000   -0.000000    0.000000
   36.090688    0.896034    0.896034    0.950142   -0.000000   -0.000000    0.000000
   36.133500    0.896326    0.896326    0.950271   -0.000000   -0.000000    0.000000
   36.176312    0.896617    0.896617    0.950400   -0.000000   -0.000000    0.000000
   36.219124    0.896906    0.896906    0.950528   -0.000000   -0.000000    0.000000
   36.261936    0.897194    0.897194    0.950655   -0.000000   -0.000000    0.000000
   36.304749    0.897481    0.897481    0.950782   -0.000000   -0.000000    0.000000
   36.347561    0.897766    0.897766    0.950908   -0.000000   -0.000000    0.000000
   36.390373    0.898050    0.898050    0.951034   -0.000000   -0.000000    0.000000
   36.433185    0.898333    0.898333    0.951160   -0.000000   -0.000000    0.000000
   36.475997    0.898614    0.898614    0.951285   -0.000000   -0.000000    0.000000
   36.518810    0.898895    0.898895    0.951409   -0.000000   -0.000000    0.000000
   36.561622    0.899174    0.899174    0.951533   -0.000000   -0.000000    0.000000
   36.604434    0.899451    0.899451    0.951656   -0.000000   -0.000000    0.000000
   36.647246    0.899728    0.899728    0.951779   -0.000000   -0.000000    0.000000
   36.690058    0.900003    0.900003    0.951902   -0.000000   -0.000000    0.000000
   36.732871    0.900277    0.900277    0.952024   -0.000000   -0.000000    0.000000
   36.775683    0.900550    0.900550    0.952145   -0.000000   -0.000000    0.000000
   36.818495    0.900822    0.900822    0.952266   -0.000000   -0.000000    0.000000
   36.861307    0.901092    0.901092    0.952387   -0.000000   -0.000000    0.000000
   36.904119    0.901362    0.901362    0.952507   -0.000000   -0.000000    0.000000
   36.946932    0.901630    0.901630    0.952627   -0.000000   -0.000000    0.000000
   36.989744    0.901897    0.901897    0.952746   -0.000000   -0.000000    0.000000
   37.032556    0.902163    0.902163    0.952865   -0.000000   -0.000000    0.000000
   37.075368    0.902427    0.902427    0.952983   -0.000000   -0.000000    0.000000
   37.118180    0.902691    0.902691    0.953101   -0.000000   -0.000000    0.000000
   37.160993    0.902953    0.902953    0.953218   -0.000000   -0.000000    0.000000
   37.203805    0.903214    0.903214    0.953335   -0.000000   -0.000000    0.000000
   37.246617    0.903474    0.903474    0.953451   -0.000000   -0.000000    0.000000
   37.289429    0.903733    0.903733    0.953567   -0.000000   -0.000000    0.000000
   37.332241    0.903991    0.903991    0.953683   -0.000000   -0.000000    0.000000
   37.375054    0.904248    0.904248    0.953798   -0.000000   -0.000000    0.000000
   37.417866    0.904503    0.904503    0.953912   -0.000000   -0.000000    0.000000
   37.460678    0.904758    0.904758    0.954026   -0.000000   -0.000000    0.000000
   37.503490    0.905011    0.905011    0.954140   -0.000000   -0.000000    0.000000
   37.546302    0.905264    0.905264    0.954254   -0.000000   -0.000000    0.000000
   37.589115    0.905515    0.905515    0.954366   -0.000000   -0.000000    0.000000
   37.631927    0.905765    0.905765    0.954479   -0.000000   -0.000000    0.000000
   37.674739    0.906014    0.906014    0.954591   -0.000000   -0.000000    0.000000
   37.717551    0.906262    0.906262    0.954703   -0.000000   -0.000000    0.000000
   37.760363    0.906510    0.906510    0.954814   -0.000000   -0.000000    0.000000
   37.803176    0.906756    0.906756    0.954924   -0.000000   -0.000000    0.000000
   37.845988    0.907001    0.907001    0.955035   -0.000000   -0.000000    0.000000
   37.888800    0.907245    0.907245    0.955145   -0.000000   -0.000000    0.000000
   37.931612    0.907487    0.907487    0.955254   -0.000000   -0.000000    0.000000
   37.974424    0.907729    0.907729    0.955363   -0.000000   -0.000000    0.000000
   38.017237    0.907970    0.907970    0.955472   -0.000000   -0.000000    0.000000
   38.060049    0.908210    0.908210    0.955580   -0.000000   -0.000000    0.000000
   38.102861    0.908449    0.908449    0.955688   -0.000000   -0.000000    0.000000
   38.145673    0.908687    0.908687    0.955796   -0.000000   -0.000000    0.000000
   38.188485    0.908924    0.908924    0.955903   -0.000000   -0.000000    0.000000
   38.231298    0.909160    0.909160    0.956009   -0.000000   -0.000000    0.000000
   38.274110    0.909395    0.909395    0.956116   -0.000000   -0.000000    0.000000
   38.316922    0.909629    0.909629    0.956221   -0.000000   -0.000000    0.000000
   38.359734    0.909862    0.909862    0.956327   -0.000000   -0.000000    0.000000
   38.402547    0.910094    0.910094    0.956432   -0.000000   -0.000000    0.000000
   38.445359    0.910325    0.910325    0.956537   -0.000000   -0.000000    0.000000
   38.488171    0.910555    0.910555    0.956641   -0.000000   -0.000000    0.000000
   38.530983    0.910784    0.910784    0.956745   -0.000000   -0.000000    0.000000
   38.573795    0.911013    0.911013    0.956848   -0.000000   -0.000000    0.000000
   38.616608    0.911240    0.911240    0.956952   -0.000000   -0.000000    0.000000
   38.659420    0.911467    0.911467    0.957054   -0.000000   -0.000000    0.000000
   38.702232    0.911692    0.911692    0.957157   -0.000000   -0.000000    0.000000
   38.745044    0.911917    0.911917    0.957259   -0.000000   -0.000000    0.000000
   38.787856    0.912141    0.912141    0.957360   -0.000000   -0.000000    0.000000
   38.830669    0.912363    0.912363    0.957462   -0.000000   -0.000000    0.000000
   38.873481    0.912585    0.912585    0.957563   -0.000000   -0.000000    0.000000
   38.916293    0.912806    0.912806    0.957663   -0.000000   -0.000000    0.000000
   38.959105    0.913026    0.913026    0.957763   -0.000000   -0.000000    0.000000
   39.001917    0.913246    0.913246    0.957863   -0.000000   -0.000000    0.000000
   39.044730    0.913464    0.913464    0.957963   -0.000000   -0.000000    0.000000
   39.087542    0.913681    0.913681    0.958062   -0.000000   -0.000000    0.000000
   39.130354    0.913898    0.913898    0.958160   -0.000000   -0.000000    0.000000
   39.173166    0.914114    0.914114    0.958259   -0.000000   -0.000000    0.000000
   39.215978    0.914329    0.914329    0.958357   -0.000000   -0.000000    0.000000
   39.258791    0.914543    0.914543    0.958454   -0.000000   -0.000000    0.000000
   39.301603    0.914756    0.914756    0.958552   -0.000000   -0.000000    0.000000
   39.344415    0.914968    0.914968    0.958649   -0.000000   -0.000000    0.000000
   39.387227    0.915180    0.915180    0.958745   -0.000000   -0.000000    0.000000
   39.430039    0.915390    0.915390    0.958842   -0.000000   -0.000000    0.000000
   39.472852    0.915600    0.915600    0.958937   -0.000000   -0.000000    0.000000
   39.515664    0.915809    0.915809    0.959033   -0.000000   -0.000000    0.000000
   39.558476    0.916018    0.916018    0.959128   -0.000000   -0.000000    0.000000
   39.601288    0.916225    0.916225    0.959223   -0.000000   -0.000000    0.000000
   39.644100    0.916432    0.916432    0.959318   -0.000000   -0.000000    0.000000
   39.686913    0.916637    0.916637    0.959412   -0.000000   -0.000000    0.000000
   39.729725    0.916842    0.916842    0.959506   -0.000000   -0.000000    0.000000
   39.772537    0.917046    0.917046    0.959599   -0.000000   -0.000000    0.000000
   39.815349    0.917250    0.917250    0.959692   -0.000000   -0.000000    0.000000
   39.858161    0.917452    0.917452    0.959785   -0.000000   -0.000000    0.000000
   39.900974    0.917654    0.917654    0.959878   -0.000000   -0.000000    0.000000
   39.943786    0.917855    0.917855    0.959970   -0.000000   -0.000000    0.000000
   39.986598    0.918056    0.918056    0.960062   -0.000000   -0.000000    0.000000
   40.029410    0.918255    0.918255    0.960154   -0.000000   -0.000000    0.000000
   40.072222    0.918454    0.918454    0.960245   -0.000000   -0.000000    0.000000
   40.115035    0.918652    0.918652    0.960336   -0.000000   -0.000000    0.000000
   40.157847    0.918849    0.918849    0.960426   -0.000000   -0.000000    0.000000
   40.200659    0.919045    0.919045    0.960517   -0.000000   -0.000000    0.000000
   40.243471    0.919241    0.919241    0.960607   -0.000000   -0.000000    0.000000
   40.286283    0.919436    0.919436    0.960696   -0.000000   -0.000000    0.000000
   40.329096    0.919630    0.919630    0.960786   -0.000000   -0.000000    0.000000
   40.371908    0.919824    0.919824    0.960875   -0.000000   -0.000000    0.000000
   40.414720    0.920016    0.920016    0.960963   -0.000000   -0.000000    0.000000
   40.457532    0.920208    0.920208    0.961052   -0.000000   -0.000000    0.000000
   40.500344    0.920400    0.920400    0.961140   -0.000000   -0.000000    0.000000
   40.543157    0.920590    0.920590    0.961228   -0.000000   -0.000000    0.000000
   40.585969    0.920780    0.920780    0.961315   -0.000000   -0.000000    0.000000
   40.628781    0.920969    0.920969    0.961402   -0.000000   -0.000000    0.000000
   40.671593    0.921157    0.921157    0.961489   -0.000000   -0.000000    0.000000
   40.714406    0.921345    0.921345    0.961576   -0.000000   -0.000000    0.000000
   40.757218    0.921532    0.921532    0.961662   -0.000000   -0.000000    0.000000
   40.800030    0.921718    0.921718    0.961748   -0.000000   -0.000000    0.000000
   40.842842    0.921904    0.921904    0.961834   -0.000000   -0.000000    0.000000
   40.885654    0.922089    0.922089    0.961919   -0.000000   -0.000000    0.000000
   40.928467    0.922273    0.922273    0.962004   -0.000000   -0.000000    0.000000
   40.971279    0.922456    0.922456    0.962089   -0.000000   -0.000000    0.000000
   41.014091    0.922639    0.922639    0.962174   -0.000000   -0.000000    0.000000
   41.056903    0.922821    0.922821    0.962258   -0.000000   -0.000000    0.000000
   41.099715    0.923003    0.923003    0.962342   -0.000000   -0.000000    0.000000
   41.142528    0.923184    0.923184    0.962425   -0.000000   -0.000000    0.000000
   41.185340    0.923364    0.923364    0.962509   -0.000000   -0.000000    0.000000
   41.228152    0.923543    0.923543    0.962592   -0.000000   -0.000000    0.000000
   41.270964    0.923722    0.923722    0.962675   -0.000000   -0.000000    0.000000
   41.313776    0.923900    0.923900    0.962757   -0.000000   -0.000000    0.000000
   41.356589    0.924078    0.924078    0.962839   -0.000000   -0.000000    0.000000
   41.399401    0.924255    0.924255    0.962921   -0.000000   -0.000000    0.000000
   41.442213    0.924431    0.924431    0.963003   -0.000000   -0.000000    0.000000
   41.485025    0.924606    0.924606    0.963084   -0.000000   -0.000000    0.000000
   41.527837    0.924781    0.924781    0.963166   -0.000000   -0.000000    0.000000
   41.570650    0.924956    0.924956    0.963246   -0.000000   -0.000000    0.000000
   41.613462    0.925129    0.925129    0.963327   -0.000000   -0.000000    0.000000
   41.656274    0.925302    0.925302    0.963407   -0.000000   -0.000000    0.000000
   41.699086    0.925475    0.925475    0.963487   -0.000000   -0.000000    0.000000
   41.741898    0.925646    0.925646    0.963567   -0.000000   -0.000000    0.000000
   41.784711    0.925817    0.925817    0.963647   -0.000000   -0.000000    0.000000
   41.827523    0.925988    0.925988    0.963726   -0.000000   -0.000000    0.000000
   41.870335    0.926158    0.926158    0.963805   -0.000000   -0.000000    0.000000
   41.913147    0.926327    0.926327    0.963884   -0.000000   -0.000000    0.000000
   41.955959    0.926496    0.926496    0.963962   -0.000000   -0.000000    0.000000
   41.998772    0.926664    0.926664    0.964040   -0.000000   -0.000000    0.000000
   42.041584    0.926831    0.926831    0.964118   -0.000000   -0.000000    0.000000
   42.084396    0.926998    0.926998    0.964196   -0.000000   -0.000000    0.000000
   42.127208    0.927164    0.927164    0.964273   -0.000000   -0.000000    0.000000
   42.170020    0.927330    0.927330    0.964351   -0.000000   -0.000000    0.000000
   42.212833    0.927495    0.927495    0.964427   -0.000000   -0.000000    0.000000
   42.255645    0.927660    0.927660    0.964504   -0.000000   -0.000000    0.000000
   42.298457    0.927824    0.927824    0.964581   -0.000000   -0.000000    0.000000
   42.341269    0.927987    0.927987    0.964657   -0.000000   -0.000000    0.000000
   42.384081    0.928150    0.928150    0.964733   -0.000000   -0.000000    0.000000
   42.426894    0.928312    0.928312    0.964808   -0.000000   -0.000000    0.000000
   42.469706    0.928473    0.928473    0.964884   -0.000000   -0.000000    0.000000
   42.512518    0.928635    0.928635    0.964959   -0.000000   -0.000000    0.000000
   42.555330    0.928795    0.928795    0.965034   -0.000000   -0.000000    0.000000
   42.598142    0.928955    0.928955    0.965108   -0.000000   -0.000000    0.000000
   42.640955    0.929114    0.929114    0.965183   -0.000000   -0.000000    0.000000
   42.683767    0.929273    0.929273    0.965257   -0.000000   -0.000000    0.000000
   42.726579    0.929431    0.929431    0.965331   -0.000000   -0.000000    0.000000
   42.769391    0.929589    0.929589    0.965405   -0.000000   -0.000000    0.000000
 
 The outermost node in the dielectric function lies at epsilon=  13.2


--------------------------------------------------------------------------------------------------------


    OPTICS:  cpu time    0.95: real time    0.96
    4ORBIT:  cpu time    0.00: real time    0.00
 BZINTS: Fermi energy:  4.025917; 16.000000 electrons
         Band energy: -86.233438;  BLOECHL correction:  0.000000

 total amount of memory used by VASP on root node    60743. kBytes
========================================================================

   base      :      30000. kBytes
   nonl-proj :      10364. kBytes
   grid      :       4147. kBytes
   one-center:         12. kBytes
   wavefun   :      16220. kBytes
 
  
  
 General timing and accounting informations for this job:
 ========================================================
  
                  Total CPU time used (sec):       27.109
                            User time (sec):       26.475
                          System time (sec):        0.634
                         Elapsed time (sec):       27.613
  
                   Maximum memory used (kb):      121100.
                   Average memory used (kb):           0.
  
                          Minor page faults:        45975
                          Major page faults:            0
                 Voluntary context switches:          404
