BN                                      
           1
     2.500000    0.000000    0.000000
    -1.250000    2.165064    0.000000
     0.000000    0.000000    6.680000
   B    N 
   2   2
Direct configuration=     1
   0.00000000  0.00000000  0.00000000
   0.33333333  0.66666667  0.00000000
   0.00000000  0.00000000  0.50000000
   0.33333333  0.66666667  0.50000000
