AuAl2                                   
   6.00000000000000     
     0.000000    0.500000    0.500000
     0.500000    0.000000    0.500000
     0.500000    0.500000    0.000000
   Au   Al
     1     2
Direct
  0.000000  0.000000  0.000000
  0.250000  0.250000  0.250000
  0.750000  0.750000  0.750000
 
   32   32   32
  248.21      237.12      209.28      175.41      142.02      109.59      78.294      51.660      33.545      23.603    
  17.928      14.452      12.411      11.288      10.571      10.014      9.7762      10.014      10.571      11.288    
  12.411      14.452      17.928      23.603      33.545      51.660      78.294      109.59      142.02      175.41    
  209.28      237.12      237.12      217.96      187.65      154.96      123.01      91.588      62.630      40.538    
  27.372      20.307      15.929      13.226      11.758      10.954      10.290      9.8235      9.8632      10.320    
  10.902      11.734      13.294      15.956      20.225      27.337      40.634      62.694      91.534      123.00    
  155.02      187.55      217.64      236.93      209.28      187.65      159.71      130.14      100.23      71.398    
  47.325      31.307      22.605      17.549      14.342      12.356      11.300      10.653      10.082      9.8109    
  10.081      10.653      11.300      12.357      14.342      17.549      22.605      31.307      47.325      71.398    
  100.23      130.14      159.71      187.65      209.28      217.64      175.41      154.96      130.14      103.18    
  76.061      52.159      34.876      24.740      18.956      15.422      13.172      11.767      10.936      10.363    
  9.9667      9.9390      10.342      10.973      11.784      13.123      15.404      19.016      24.762      34.794    
  52.097      76.112      103.24      130.15      155.02      175.57      187.65      187.55      142.02      123.01    
  100.23      76.061      53.823      36.877      26.328      20.160      16.312      13.886      12.318      11.293    
  10.581      10.098      9.9170      10.098      10.581      11.293      12.318      13.886      16.312      20.160    
  26.328      36.877      53.823      76.061      100.23      123.01      142.02      155.02      159.71      155.02    
  109.59      91.588      71.398      52.159      36.877      26.852      20.795      16.949      14.468      12.783    
  11.623      10.797      10.194      9.8547      9.8647      10.200      10.783      11.619      12.803      14.472    
  16.923      20.798      26.909      36.910      52.097      71.293      91.534      109.60      123.01      130.15    
  130.14      123.00      78.294      62.630      47.325      34.876      26.328      20.795      17.138      14.774    
  13.135      11.901      10.950      10.234      9.7652      9.5974      9.7653      10.235      10.950      11.901    
  13.135      14.774      17.138      20.795      26.328      34.876      47.324      62.629      78.295      91.534    
  100.23      103.24      100.23      91.534      51.660      40.538      31.307      24.740      20.160      16.949    
  14.774      13.246      12.066      11.073      10.242      9.6293      9.3053      9.3077      9.6326      10.240    
  11.068      12.066      13.251      14.768      16.923      20.136      24.762      31.390      40.634      51.691    
  62.629      71.293      76.061      76.112      71.398      62.694      33.545      27.372      22.605      18.956    
  16.312      14.468      13.135      12.066      11.112      10.244      9.5190      9.0305      8.8579      9.0305    
  9.5190      10.244      11.112      12.065      13.135      14.468      16.312      18.956      22.605      27.372    
  33.545      40.634      47.324      52.097      53.823      52.097      47.325      40.634      23.603      20.307    
  17.549      15.422      13.886      12.783      11.901      11.073      10.244      9.4713      8.8614      8.5211    
  8.5183      8.8590      9.4748      10.247      11.068      11.903      12.803      13.906      15.404      17.479    
  20.225      23.566      27.372      31.390      34.876      36.910      36.877      34.794      31.307      27.337    
  17.928      15.929      14.342      13.172      12.318      11.623      10.950      10.242      9.5190      8.8614    
  8.3901      8.2176      8.3901      8.8613      9.5190      10.242      10.950      11.623      12.318      13.172    
  14.342      15.929      17.928      20.225      22.605      24.762      26.328      26.909      26.328      24.762    
  22.605      20.225      14.452      13.226      12.356      11.767      11.293      10.797      10.234      9.6293    
  9.0305      8.5211      8.2176      8.2152      8.5182      9.0326      9.6326      10.230      10.783      11.284    
  11.784      12.410      13.294      14.488      15.929      17.479      18.956      20.136      20.795      20.798    
  20.160      19.016      17.549      15.956      12.411      11.758      11.300      10.936      10.581      10.194    
  9.7652      9.3053      8.8579      8.5183      8.3901      8.5182      8.8578      9.3053      9.7652      10.194    
  10.581      10.936      11.300      11.758      12.410      13.294      14.342      15.404      16.312      16.923    
  17.138      16.923      16.312      15.404      14.342      13.294      11.288      10.954      10.653      10.363    
  10.098      9.8547      9.5974      9.3077      9.0305      8.8590      8.8613      9.0326      9.3053      9.5980    
  9.8646      10.104      10.342      10.604      10.902      11.268      11.758      12.410      13.172      13.906    
  14.468      14.768      14.774      14.472      13.886      13.123      12.357      11.734      10.571      10.290    
  10.082      9.9667      9.9170      9.8647      9.7653      9.6326      9.5190      9.4748      9.5190      9.6326    
  9.7652      9.8646      9.9168      9.9665      10.081      10.290      10.571      10.902      11.300      11.784    
  12.318      12.803      13.135      13.251      13.135      12.803      12.318      11.784      11.300      10.902    
  10.014      9.8235      9.8109      9.9390      10.098      10.200      10.235      10.240      10.244      10.247    
  10.242      10.230      10.194      10.104      9.9665      9.8549      9.8631      10.023      10.290      10.604    
  10.936      11.284      11.623      11.903      12.065      12.066      11.901      11.619      11.293      10.973    
  10.653      10.320      9.7762      9.8632      10.081      10.342      10.581      10.783      10.950      11.068    
  11.112      11.068      10.950      10.783      10.581      10.342      10.081      9.8631      9.7760      9.8631    
  10.081      10.342      10.581      10.783      10.950      11.068      11.112      11.068      10.950      10.783    
  10.581      10.342      10.081      9.8632      10.014      10.320      10.653      10.973      11.293      11.619    
  11.901      12.066      12.065      11.903      11.623      11.284      10.936      10.604      10.290      10.023    
  9.8631      9.8549      9.9665      10.104      10.194      10.230      10.242      10.247      10.244      10.240    
  10.235      10.200      10.098      9.9390      9.8109      9.8235      10.571      10.902      11.300      11.784    
  12.318      12.803      13.135      13.251      13.135      12.803      12.318      11.784      11.300      10.902    
  10.571      10.290      10.081      9.9665      9.9168      9.8646      9.7652      9.6326      9.5190      9.4748    
  9.5190      9.6326      9.7653      9.8647      9.9170      9.9667      10.082      10.290      11.288      11.734    
  12.357      13.123      13.886      14.472      14.774      14.768      14.468      13.906      13.172      12.410    
  11.758      11.268      10.902      10.604      10.342      10.104      9.8646      9.5980      9.3053      9.0326    
  8.8613      8.8590      9.0305      9.3077      9.5974      9.8547      10.098      10.363      10.653      10.954    
  12.411      13.294      14.342      15.404      16.312      16.923      17.138      16.923      16.312      15.404    
  14.342      13.294      12.410      11.758      11.300      10.936      10.581      10.194      9.7652      9.3053    
  8.8578      8.5182      8.3901      8.5183      8.8579      9.3053      9.7652      10.194      10.581      10.936    
  11.300      11.758      14.452      15.956      17.549      19.016      20.160      20.798      20.795      20.136    
  18.956      17.479      15.929      14.488      13.294      12.410      11.784      11.284      10.783      10.230    
  9.6326      9.0326      8.5182      8.2152      8.2176      8.5211      9.0305      9.6293      10.234      10.797    
  11.293      11.767      12.356      13.226      17.928      20.225      22.605      24.762      26.328      26.909    
  26.328      24.762      22.605      20.225      17.928      15.929      14.342      13.172      12.318      11.623    
  10.950      10.242      9.5190      8.8613      8.3901      8.2176      8.3901      8.8614      9.5190      10.242    
  10.950      11.623      12.318      13.172      14.342      15.929      23.603      27.337      31.307      34.794    
  36.877      36.910      34.876      31.390      27.372      23.566      20.225      17.479      15.404      13.906    
  12.803      11.903      11.068      10.247      9.4748      8.8590      8.5183      8.5211      8.8614      9.4713    
  10.244      11.073      11.901      12.783      13.886      15.422      17.549      20.307      33.545      40.634    
  47.325      52.097      53.823      52.097      47.324      40.634      33.545      27.372      22.605      18.956    
  16.312      14.468      13.135      12.065      11.112      10.244      9.5190      9.0305      8.8579      9.0305    
  9.5190      10.244      11.112      12.066      13.135      14.468      16.312      18.956      22.605      27.372    
  51.660      62.694      71.398      76.112      76.061      71.293      62.629      51.691      40.634      31.390    
  24.762      20.136      16.923      14.768      13.251      12.066      11.068      10.240      9.6326      9.3077    
  9.3053      9.6293      10.242      11.073      12.066      13.246      14.774      16.949      20.160      24.740    
  31.307      40.538      78.294      91.534      100.23      103.24      100.23      91.534      78.295      62.629    
  47.324      34.876      26.328      20.795      17.138      14.774      13.135      11.901      10.950      10.235    
  9.7653      9.5974      9.7652      10.234      10.950      11.901      13.135      14.774      17.138      20.795    
  26.328      34.876      47.325      62.630      109.59      123.00      130.14      130.15      123.01      109.60    
  91.534      71.293      52.097      36.910      26.909      20.798      16.923      14.472      12.803      11.619    
  10.783      10.200      9.8647      9.8547      10.194      10.797      11.623      12.783      14.468      16.949    
  20.795      26.852      36.877      52.159      71.398      91.588      142.02      155.02      159.71      155.02    
  142.02      123.01      100.23      76.061      53.823      36.877      26.328      20.160      16.312      13.886    
  12.318      11.293      10.581      10.098      9.9170      10.098      10.581      11.293      12.318      13.886    
  16.312      20.160      26.328      36.877      53.823      76.061      100.23      123.01      175.41      187.55    
  187.65      175.57      155.02      130.15      103.24      76.112      52.097      34.794      24.762      19.016    
  15.404      13.123      11.784      10.973      10.342      9.9390      9.9667      10.363      10.936      11.767    
  13.172      15.422      18.956      24.740      34.876      52.159      76.061      103.18      130.14      154.96    
  209.28      217.64      209.28      187.65      159.71      130.14      100.23      71.398      47.325      31.307    
  22.605      17.549      14.342      12.357      11.300      10.653      10.081      9.8109      10.082      10.653    
  11.300      12.356      14.342      17.549      22.605      31.307      47.325      71.398      100.23      130.14    
  159.71      187.65      237.12      236.93      217.64      187.55      155.02      123.00      91.534      62.694    
  40.634      27.337      20.225      15.956      13.294      11.734      10.902      10.320      9.8632      9.8235    
  10.290      10.954      11.758      13.226      15.929      20.307      27.372      40.538      62.630      91.588    
  123.01      154.96      187.65      217.96      237.12      217.96      187.65      154.96      123.01      91.588    
  62.630      40.538      27.372      20.307      15.929      13.226      11.758      10.954      10.290      9.8235    
  9.8632      10.320      10.902      11.734      13.294      15.956      20.225      27.337      40.634      62.694    
  91.534      123.00      155.02      187.55      217.64      236.93      217.96      194.31      164.25      133.35    
  102.82      73.512      48.816      32.187      23.136      17.924      14.617      12.576      11.504      10.854    
  10.267      9.9826      10.263      10.854      11.508      12.578      14.615      17.924      23.138      32.182    
  48.825      73.582      102.94      133.38      164.03      193.87      217.59      227.03      187.65      164.25    
  137.10      108.76      80.610      55.497      36.956      25.957      19.796      16.038      13.655      12.188    
  11.337      10.744      10.318      10.285      10.720      11.381      12.209      13.600      16.016      19.863    
  25.982      36.874      55.470      80.737      108.86      137.00      164.06      187.56      201.90      201.92    
  154.96      133.35      108.76      83.143      59.192      40.361      28.376      21.533      17.312      14.666    
  12.978      11.898      11.151      10.626      10.419      10.621      11.151      11.903      12.977      14.660    
  17.313      21.540      28.368      40.328      59.160      83.158      108.83      133.44      155.02      170.65    
  176.48      170.62      123.01      102.82      80.610      59.192      41.609      29.729      22.714      18.345    
  15.556      13.687      12.427      11.541      10.874      10.485      10.496      10.881      11.523      12.423    
  13.712      15.561      18.314      22.705      29.760      41.617      59.159      80.619      102.89      123.03    
  138.60      147.28      147.33      138.68      91.588      73.512      55.497      40.361      29.729      23.113    
  18.863      16.148      14.280      12.890      11.835      11.034      10.481      10.275      10.482      11.034    
  11.835      12.890      14.280      16.145      18.863      23.129      29.761      40.381      55.468      73.440    
  91.518      106.81      116.98      120.54      116.98      106.84      62.630      48.816      36.956      28.376    
  22.714      18.863      16.332      14.585      13.225      12.074      11.104      10.369      9.9622      9.9608    
  10.369      11.108      12.073      13.219      14.586      16.340      18.863      22.703      28.370      36.964    
  48.823      62.630      76.026      86.528      92.251      92.234      86.499      76.013      40.538      32.187    
  25.957      21.533      18.345      16.148      14.585      13.336      12.205      11.142      10.223      9.5908    
  9.3655      9.5913      10.223      11.141      12.206      13.339      14.585      16.134      18.315      21.510    
  25.981      32.269      40.633      50.094      58.848      65.020      67.264      65.072      58.882      50.054    
  27.372      23.136      19.796      17.312      15.556      14.280      13.225      12.205      11.150      10.124    
  9.2898      8.8190      8.8177      9.2882      10.125      11.151      12.205      13.224      14.280      15.557    
  17.312      19.796      23.137      27.372      32.605      38.241      43.084      45.890      45.888      43.081    
  38.240      32.606      20.307      17.924      16.038      14.666      13.687      12.890      12.074      11.142    
  10.124      9.1722      8.4871      8.2360      8.4853      9.1718      10.125      11.141      12.073      12.900    
  13.713      14.685      16.016      17.853      20.225      23.016      26.025      28.946      31.138      31.940    
  31.087      28.880      25.996      23.053      15.929      14.617      13.655      12.978      12.427      11.835    
  11.104      10.223      9.2898      8.4871      8.0174      8.0167      8.4859      9.2894      10.223      11.104    
  11.836      12.428      12.978      13.655      14.616      15.929      17.548      19.341      21.104      22.558    
  23.395      23.396      22.560      21.105      19.340      17.547      13.226      12.576      12.188      11.898    
  11.541      11.034      10.369      9.5908      8.8190      8.2360      8.0167      8.2346      8.8180      9.5916    
  10.369      11.026      11.524      11.887      12.208      12.636      13.295      14.212      15.304      16.430    
  17.425      18.118      18.372      18.137      17.467      16.482      15.327      14.179      11.758      11.504    
  11.337      11.151      10.874      10.481      9.9622      9.3655      8.8177      8.4853      8.4859      8.8180    
  9.3645      9.9614      10.481      10.875      11.150      11.338      11.507      11.759      12.190      12.817    
  13.561      14.277      14.830      15.129      15.131      14.832      14.276      13.560      12.819      12.192    
  10.954      10.854      10.744      10.626      10.485      10.275      9.9608      9.5913      9.2882      9.1718    
  9.2894      9.5916      9.9614      10.281      10.496      10.629      10.720      10.802      10.902      11.063    
  11.345      11.769      12.272      12.730      13.036      13.143      13.035      12.717      12.240      11.729    
  11.324      11.083      10.290      10.267      10.318      10.419      10.496      10.482      10.369      10.223    
  10.125      10.125      10.223      10.369      10.481      10.496      10.420      10.317      10.265      10.290    
  10.373      10.505      10.708      10.992      11.313      11.588      11.742      11.742      11.587      11.313    
  10.993      10.708      10.504      10.372      9.8235      9.9826      10.285      10.621      10.881      11.034    
  11.108      11.141      11.151      11.141      11.104      11.026      10.875      10.629      10.317      10.031    
  9.8638      9.8400      9.9155      10.037      10.186      10.360      10.539      10.677      10.730      10.678    
  10.540      10.367      10.209      10.073      9.9412      9.8323      9.8632      10.263      10.720      11.151    
  11.523      11.835      12.073      12.206      12.205      12.073      11.836      11.524      11.150      10.720    
  10.265      9.8638      9.6037      9.5169      9.5549      9.6368      9.7144      9.7842      9.8489      9.8913    
  9.8903      9.8480      9.7850      9.7150      9.6355      9.5542      9.5189      9.6059      10.320      10.854    
  11.381      11.903      12.423      12.890      13.219      13.339      13.224      12.900      12.428      11.887    
  11.338      10.802      10.290      9.8400      9.5169      9.3532      9.3074      9.2971      9.2715      9.2355    
  9.2115      9.2043      9.2108      9.2353      9.2723      9.2945      9.2917      9.3212      9.4837      9.8323    
  10.902      11.508      12.209      12.977      13.712      14.280      14.586      14.585      14.280      13.713    
  12.978      12.208      11.507      10.902      10.373      9.9155      9.5549      9.3074      9.1410      8.9998    
  8.8560      8.7270      8.6502      8.6504      8.7273      8.8558      8.9994      9.1413      9.3087      9.5558    
  9.9146      10.372      11.734      12.578      13.600      14.660      15.561      16.145      16.340      16.134    
  15.557      14.685      13.655      12.636      11.759      11.063      10.505      10.037      9.6368      9.2971    
  8.9998      8.7243      8.4757      8.2914      8.2203      8.2888      8.4760      8.7267      8.9970      9.2921    
  9.6470      10.074      10.551      11.083      13.294      14.615      16.016      17.313      18.314      18.863    
  18.863      18.315      17.312      16.016      14.616      13.295      12.190      11.345      10.708      10.186    
  9.7144      9.2715      8.8560      8.4757      8.1643      7.9831      7.9839      8.1650      8.4746      8.8549    
  9.2721      9.7146      10.185      10.707      11.347      12.192      15.956      17.924      19.863      21.540    
  22.705      23.129      22.703      21.510      19.796      17.853      15.929      14.212      12.817      11.769    
  10.992      10.360      9.7842      9.2355      8.7270      8.2914      7.9831      7.8698      7.9839      8.2915    
  8.7254      9.2350      9.7902      10.369      10.984      11.730      12.759      14.179      20.225      23.138    
  25.982      28.368      29.760      29.761      28.370      25.981      23.137      20.225      17.548      15.304    
  13.561      12.272      11.313      10.539      9.8489      9.2115      8.6502      8.2203      7.9839      7.9839    
  8.2199      8.6495      9.2112      9.8491      10.539      11.313      12.273      13.562      15.304      17.547    
  27.337      32.182      36.874      40.328      41.617      40.381      36.964      32.269      27.372      23.016    
  19.341      16.430      14.277      12.730      11.588      10.677      9.8913      9.2043      8.6504      8.2888    
  8.1650      8.2915      8.6495      9.2007      9.8921      10.679      11.579      12.715      14.285      16.483    
  19.415      23.053      40.634      48.825      55.470      59.160      59.159      55.468      48.823      40.633    
  32.605      26.025      21.104      17.425      14.830      13.036      11.742      10.730      9.8903      9.2108    
  8.7273      8.4760      8.4746      8.7254      9.2112      9.8921      10.730      11.741      13.036      14.832    
  17.425      21.104      26.025      32.606      62.694      73.582      80.737      83.158      80.619      73.440    
  62.630      50.094      38.241      28.946      22.558      18.118      15.129      13.143      11.742      10.678    
  9.8480      9.2353      8.8558      8.7267      8.8549      9.2350      9.8491      10.679      11.741      13.145    
  15.142      18.133      22.547      28.885      38.155      50.054      91.534      102.94      108.86      108.83    
  102.89      91.518      76.026      58.848      43.084      31.138      23.395      18.372      15.131      13.035    
  11.587      10.540      9.7850      9.2723      8.9994      8.9970      9.2721      9.7902      10.539      11.579    
  13.036      15.142      18.372      23.380      31.134      43.097      58.849      76.013      123.00      133.38    
  137.00      133.44      123.03      106.81      86.528      65.020      45.890      31.940      23.396      18.137    
  14.832      12.717      11.313      10.367      9.7150      9.2945      9.1413      9.2921      9.7146      10.369    
  11.313      12.715      14.832      18.133      23.380      31.921      45.904      65.085      86.608      106.84    
  155.02      164.03      164.06      155.02      138.60      116.98      92.251      67.264      45.888      31.087    
  22.560      17.467      14.276      12.240      10.993      10.209      9.6355      9.2917      9.3087      9.6470    
  10.185      10.984      12.273      14.285      17.425      22.547      31.134      45.904      67.203      92.218    
  117.05      138.68      187.55      193.87      187.56      170.65      147.28      120.54      92.234      65.072    
  43.081      28.880      21.105      16.482      13.560      11.729      10.708      10.073      9.5542      9.3212    
  9.5558      10.074      10.707      11.730      13.562      16.483      21.104      28.885      43.097      65.085    
  92.218      120.49      147.22      170.62      217.64      217.59      201.90      176.48      147.33      116.98    
  86.499      58.882      38.240      25.996      19.340      15.327      12.819      11.324      10.504      9.9412    
  9.5189      9.4837      9.9146      10.551      11.347      12.759      15.304      19.415      26.025      38.155    
  58.849      86.608      117.05      147.22      176.34      201.92      236.93      227.03      201.92      170.62    
  138.68      106.84      76.013      50.054      32.606      23.053      17.547      14.179      12.192      11.083    
  10.372      9.8323      9.6059      9.8323      10.372      11.083      12.192      14.179      17.547      23.053    
  32.606      50.054      76.013      106.84      138.68      170.62      201.92      227.03      209.28      187.65    
  159.71      130.14      100.23      71.398      47.325      31.307      22.605      17.549      14.342      12.356    
  11.300      10.653      10.082      9.8109      10.081      10.653      11.300      12.357      14.342      17.549    
  22.605      31.307      47.325      71.398      100.23      130.14      159.71      187.65      209.28      217.64    
  187.65      164.25      137.10      108.76      80.610      55.497      36.956      25.957      19.796      16.038    
  13.655      12.188      11.337      10.744      10.318      10.285      10.720      11.381      12.209      13.600    
  16.016      19.863      25.982      36.874      55.470      80.737      108.86      137.00      164.06      187.56    
  201.90      201.92      159.71      137.10      111.78      85.580      61.022      41.567      29.104      22.026    
  17.666      14.936      13.209      12.112      11.349      10.806      10.594      10.806      11.348      12.112    
  13.209      14.936      17.666      22.026      29.104      41.567      61.022      85.581      111.78      137.10    
  159.71      176.34      182.62      176.34      130.14      108.76      85.580      63.079      44.261      31.330    
  23.761      19.116      16.148      14.169      12.857      11.942      11.237      10.815      10.831      11.248    
  11.919      12.849      14.200      16.157      19.079      23.753      31.372      44.250      62.977      85.523    
  108.86      130.32      147.33      156.99      156.96      147.22      100.23      80.610      61.022      44.261    
  32.207      24.736      20.041      17.066      15.038      13.538      12.413      11.551      10.939      10.706    
  10.939      11.551      12.412      13.538      15.038      17.066      20.041      24.736      32.207      44.261    
  61.022      80.610      100.23      117.05      128.48      132.55      128.48      117.05      71.398      55.497    
  41.567      31.330      24.736      20.383      17.536      15.589      14.084      12.811      11.725      10.885    
  10.412      10.411      10.886      11.729      12.808      14.077      15.590      17.542      20.383      24.745    
  31.372      41.611      55.470      71.291      86.499      98.433      104.98      104.98      98.482      86.608    
  47.325      36.956      29.104      23.761      20.041      17.536      15.782      14.369      13.070      11.825    
  10.732      9.9670      9.6911      9.9670      10.732      11.825      13.070      14.369      15.782      17.536    
  20.041      23.761      29.104      36.956      47.324      58.849      69.371      76.722      79.357      76.722    
  69.371      58.849      31.307      25.957      22.026      19.116      17.066      15.589      14.369      13.162    
  11.866      10.579      9.5235      8.9259      8.9239      9.5215      10.581      11.868      13.162      14.371    
  15.590      17.051      19.079      21.998      25.982      31.389      38.240      45.559      51.777      55.365    
  55.383      51.797      45.528      38.155      22.605      19.796      17.666      16.148      15.038      14.084    
  13.070      11.866      10.520      9.2466      8.3286      7.9940      8.3286      9.2466      10.520      11.866    
  13.070      14.084      15.038      16.148      17.666      19.796      22.605      26.025      29.993      33.942    
  36.909      38.014      36.909      33.942      29.993      26.025      17.549      16.038      14.936      14.169    
  13.538      12.811      11.825      10.579      9.2466      8.1055      7.4413      7.4395      8.1035      9.2483    
  10.581      11.822      12.808      13.552      14.200      14.957      16.016      17.482      19.341      21.465    
  23.613      25.459      26.547      26.526      25.416      23.593      21.499      19.415      14.342      13.655    
  13.209      12.857      12.413      11.725      10.732      9.5235      8.3286      7.4413      7.1126      7.4413    
  8.3286      9.5236      10.732      11.725      12.413      12.857      13.209      13.655      14.342      15.304    
  16.477      17.732      18.891      19.729      20.038      19.729      18.891      17.732      16.477      15.304    
  12.356      12.188      12.112      11.942      11.551      10.885      9.9670      8.9259      7.9940      7.4395    
  7.4413      7.9955      8.9239      9.9664      10.886      11.542      11.919      12.096      12.209      12.415    
  12.819      13.429      14.160      14.880      15.456      15.781      15.791      15.484      14.912      14.173    
  13.403      12.759      11.300      11.337      11.349      11.237      10.939      10.412      9.6911      8.9239    
  8.3286      8.1035      8.3286      8.9239      9.6911      10.412      10.939      11.237      11.349      11.337    