AuAl2                                   
   6.00000000000000     
     0.000000    0.500000    0.500000
     0.500000    0.000000    0.500000
     0.500000    0.500000    0.000000
   Au   Al
     1     2
Direct
  0.000000  0.000000  0.000000
  0.250000  0.250000  0.250000
  0.750000  0.750000  0.750000
 
   32   32   32
 0.24820918154E+03 0.23711900943E+03 0.20928158888E+03 0.17540623269E+03 0.14201851026E+03
 0.10959459655E+03 0.78294410917E+02 0.51660337385E+02 0.33545368514E+02 0.23603256512E+02
 0.17928152947E+02 0.14451787037E+02 0.12410568234E+02 0.11288382810E+02 0.10570782250E+02
 0.10013599368E+02 0.97761608408E+01 0.10013599368E+02 0.10570782250E+02 0.11288382810E+02
 0.12410568234E+02 0.14451787037E+02 0.17928152947E+02 0.23603256512E+02 0.33545368514E+02
 0.51660337385E+02 0.78294410917E+02 0.10959459655E+03 0.14201851026E+03 0.17540623269E+03
 0.20928158888E+03 0.23711900943E+03 0.23711900943E+03 0.21796311906E+03 0.18765216936E+03
 0.15495685478E+03 0.12301378153E+03 0.91587989127E+02 0.62629548522E+02 0.40537810937E+02
 0.27371550181E+02 0.20307070554E+02 0.15929000530E+02 0.13225850987E+02 0.11758282382E+02
 0.10954356331E+02 0.10290215454E+02 0.98234534126E+01 0.98631539991E+01 0.10320401885E+02
 0.10901856723E+02 0.11733546653E+02 0.13294384663E+02 0.15956027118E+02 0.20224806193E+02
 0.27337368108E+02 0.40634188324E+02 0.62694282705E+02 0.91534033908E+02 0.12299603975E+03
 0.15501524029E+03 0.18755066975E+03 0.21763915886E+03 0.23692553920E+03 0.20928158888E+03
 0.18765216936E+03 0.15970565484E+03 0.13014083334E+03 0.10023243817E+03 0.71398096541E+02
 0.47324663539E+02 0.31306931472E+02 0.22605193204E+02 0.17548757673E+02 0.14341642877E+02
 0.12356422087E+02 0.11299658463E+02 0.10653472230E+02 0.10081539560E+02 0.98109015928E+01
 0.10081453542E+02 0.10653396016E+02 0.11299688860E+02 0.12356556970E+02 0.14341771994E+02
 0.17548757849E+02 0.22605041981E+02 0.31306733692E+02 0.47324559208E+02 0.71398131069E+02
 0.10023250887E+03 0.13014077365E+03 0.15970538392E+03 0.18765178352E+03 0.20928130694E+03
 0.21763915886E+03 0.17540623269E+03 0.15495685478E+03 0.13014083334E+03 0.10318109893E+03
 0.76061323196E+02 0.52158630448E+02 0.34876477332E+02 0.24740054211E+02 0.18955753675E+02
 0.15422386033E+02 0.13171850903E+02 0.11767302111E+02 0.10936095589E+02 0.10363173247E+02
 0.99666556175E+01 0.99389852967E+01 0.10342264781E+02 0.10972932994E+02 0.11784184737E+02
 0.13122956509E+02 0.15403942251E+02 0.19015975440E+02 0.24762032181E+02 0.34794373955E+02
 0.52097107333E+02 0.76111837469E+02 0.10324433802E+03 0.13014589133E+03 0.15501570084E+03
 0.17557345351E+03 0.18765178352E+03 0.18755066975E+03 0.14201851026E+03 0.12301378153E+03
 0.10023243817E+03 0.76061323196E+02 0.53823383325E+02 0.36876646592E+02 0.26328352253E+02
 0.20159988986E+02 0.16312237462E+02 0.13885841098E+02 0.12318355041E+02 0.11293206202E+02
 0.10581195070E+02 0.10098415350E+02 0.99169831812E+01 0.10098439752E+02 0.10581211339E+02
 0.11293188419E+02 0.12318318737E+02 0.13885832097E+02 0.16312279860E+02 0.20160046006E+02
 0.26328349187E+02 0.36876550855E+02 0.53823271171E+02 0.76061361826E+02 0.10023277255E+03
 0.12301439999E+03 0.14201920428E+03 0.15501570084E+03 0.15970538392E+03 0.15501524029E+03
 0.10959459655E+03 0.91587989127E+02 0.71398096541E+02 0.52158630448E+02 0.36876646592E+02
 0.26851564584E+02 0.20795204222E+02 0.16948905293E+02 0.14467723223E+02 0.12782633415E+02
 0.11622738211E+02 0.10797278718E+02 0.10193754625E+02 0.98547269537E+01 0.98647365526E+01
 0.10200416079E+02 0.10782904356E+02 0.11618627558E+02 0.12803298563E+02 0.14471709947E+02
 0.16922896042E+02 0.20798421026E+02 0.26909398731E+02 0.36909987483E+02 0.52097045294E+02
 0.71292976187E+02 0.91534372903E+02 0.10960278816E+03 0.12301439999E+03 0.13014589133E+03
 0.13014077365E+03 0.12299603975E+03 0.78294410917E+02 0.62629548522E+02 0.47324663539E+02
 0.34876477332E+02 0.26328352253E+02 0.20795204222E+02 0.17137986344E+02 0.14774128507E+02
 0.13134860303E+02 0.11901258501E+02 0.10949645087E+02 0.10234418786E+02 0.97651722765E+01
 0.95974042932E+01 0.97652839116E+01 0.10234538912E+02 0.10949667955E+02 0.11901181867E+02
 0.13134793057E+02 0.14774189752E+02 0.17138184938E+02 0.20795415557E+02 0.26328420157E+02
 0.34876357705E+02 0.47324480531E+02 0.62629498321E+02 0.78294599747E+02 0.91534372903E+02
 0.10023277255E+03 0.10324433802E+03 0.10023250887E+03 0.91534033908E+02 0.51660337385E+02
 0.40537810937E+02 0.31306931472E+02 0.24740054211E+02 0.20159988986E+02 0.16948905293E+02
 0.14774128507E+02 0.13246050586E+02 0.12065505825E+02 0.11072602503E+02 0.10241655287E+02
 0.96292581544E+01 0.93053000200E+01 0.93076823698E+01 0.96325694266E+01 0.10240134972E+02
 0.11068111627E+02 0.12065986041E+02 0.13251051034E+02 0.14768474120E+02 0.16922864203E+02
 0.20135915290E+02 0.24762187586E+02 0.31390427848E+02 0.40634149747E+02 0.51691373640E+02
 0.62629498321E+02 0.71292976187E+02 0.76061361826E+02 0.76111837469E+02 0.71398131069E+02
 0.62694282705E+02 0.33545368514E+02 0.27371550181E+02 0.22605193204E+02 0.18955753675E+02
 0.16312237462E+02 0.14467723223E+02 0.13134860303E+02 0.12065505825E+02 0.11112094833E+02
 0.10244400504E+02 0.95189958934E+01 0.90304763855E+01 0.88578553997E+01 0.90304858666E+01
 0.95190057370E+01 0.10244393647E+02 0.11112052992E+02 0.12065421689E+02 0.13134749296E+02
 0.14467622666E+02 0.16312190961E+02 0.18955779959E+02 0.22605274937E+02 0.27371632279E+02
 0.33545398708E+02 0.40634149747E+02 0.47324480531E+02 0.52097045294E+02 0.53823271171E+02
 0.52097107333E+02 0.47324559208E+02 0.40634188324E+02 0.23603256512E+02 0.20307070554E+02
 0.17548757673E+02 0.15422386033E+02 0.13885841098E+02 0.12782633415E+02 0.11901258501E+02
 0.11072602503E+02 0.10244400504E+02 0.94712803390E+01 0.88613858687E+01 0.85211203591E+01
 0.85182783934E+01 0.88589529993E+01 0.94748389491E+01 0.10246555802E+02 0.11068156783E+02
 0.11903249899E+02 0.12803234160E+02 0.13906248886E+02 0.15403774558E+02 0.17479297328E+02
 0.20225057843E+02 0.23565959862E+02 0.27371632279E+02 0.31390427848E+02 0.34876357705E+02
 0.36909987483E+02 0.36876550855E+02 0.34794373955E+02 0.31306733692E+02 0.27337368108E+02
 0.17928152947E+02 0.15929000530E+02 0.14341642877E+02 0.13171850903E+02 0.12318355041E+02
 0.11622738211E+02 0.10949645087E+02 0.10241655287E+02 0.95189958934E+01 0.88613858687E+01
 0.83901397462E+01 0.82176361524E+01 0.83900860783E+01 0.88613419924E+01 0.95190290066E+01
 0.10241769392E+02 0.10949768421E+02 0.11622777462E+02 0.12318273485E+02 0.13171703379E+02
 0.14341542305E+02 0.15929036185E+02 0.17928330972E+02 0.20225057843E+02 0.22605274937E+02
 0.24762187586E+02 0.26328420157E+02 0.26909398731E+02 0.26328349187E+02 0.24762032181E+02
 0.22605041981E+02 0.20224806193E+02 0.14451787037E+02 0.13225850987E+02 0.12356422087E+02
 0.11767302111E+02 0.11293206202E+02 0.10797278718E+02 0.10234418786E+02 0.96292581544E+01
 0.90304763855E+01 0.85211203591E+01 0.82176361524E+01 0.82152168126E+01 0.85182433460E+01
 0.90326109692E+01 0.96325679545E+01 0.10229588173E+02 0.10783056802E+02 0.11283557982E+02
 0.11784198826E+02 0.12409883466E+02 0.13294155763E+02 0.14487900963E+02 0.15929036185E+02
 0.17479297328E+02 0.18955779959E+02 0.20135915290E+02 0.20795415557E+02 0.20798421026E+02
 0.20160046006E+02 0.19015975440E+02 0.17548757849E+02 0.15956027118E+02 0.12410568234E+02
 0.11758282382E+02 0.11299658463E+02 0.10936095589E+02 0.10581195070E+02 0.10193754625E+02
 0.97651722765E+01 0.93053000200E+01 0.88578553997E+01 0.85182783934E+01 0.83900860783E+01
 0.85182433460E+01 0.88578046629E+01 0.93052691514E+01 0.97652014944E+01 0.10193867606E+02
 0.10581377313E+02 0.10936287607E+02 0.11299780399E+02 0.11758273250E+02 0.12410421940E+02
 0.13294155763E+02 0.14341542305E+02 0.15403774558E+02 0.16312190961E+02 0.16922864203E+02
 0.17138184938E+02 0.16922896042E+02 0.16312279860E+02 0.15403942251E+02 0.14341771994E+02
 0.13294384663E+02 0.11288382810E+02 0.10954356331E+02 0.10653472230E+02 0.10363173247E+02
 0.10098415350E+02 0.98547269537E+01 0.95974042932E+01 0.93076823698E+01 0.90304858666E+01
 0.88589529993E+01 0.88613419924E+01 0.90326109692E+01 0.93052691514E+01 0.95980329367E+01
 0.98645582049E+01 0.10104173338E+02 0.10342377980E+02 0.10603522956E+02 0.10902001603E+02
 0.11267835914E+02 0.11758273250E+02 0.12409883466E+02 0.13171703379E+02 0.13906248886E+02
 0.14467622666E+02 0.14768474120E+02 0.14774189752E+02 0.14471709947E+02 0.13885832097E+02
 0.13122956509E+02 0.12356556970E+02 0.11733546653E+02 0.10570782250E+02 0.10290215454E+02
 0.10081539560E+02 0.99666556175E+01 0.99169831812E+01 0.98647365526E+01 0.97652839116E+01
 0.96325694266E+01 0.95190057370E+01 0.94748389491E+01 0.95190290066E+01 0.96325679545E+01
 0.97652014944E+01 0.98645582049E+01 0.99167563409E+01 0.99664655616E+01 0.10081460185E+02
 0.10290264837E+02 0.10570916691E+02 0.10902001603E+02 0.11299780399E+02 0.11784198826E+02
 0.12318273485E+02 0.12803234160E+02 0.13134749296E+02 0.13251051034E+02 0.13134793057E+02
 0.12803298563E+02 0.12318318737E+02 0.11784184737E+02 0.11299688860E+02 0.10901856723E+02
 0.10013599368E+02 0.98234534126E+01 0.98109015928E+01 0.99389852967E+01 0.10098439752E+02
 0.10200416079E+02 0.10234538912E+02 0.10240134972E+02 0.10244393647E+02 0.10246555802E+02
 0.10241769392E+02 0.10229588173E+02 0.10193867606E+02 0.10104173338E+02 0.99664655616E+01
 0.98548797358E+01 0.98630532804E+01 0.10023080884E+02 0.10290264837E+02 0.10603522956E+02
 0.10936287607E+02 0.11283557982E+02 0.11622777462E+02 0.11903249899E+02 0.12065421689E+02
 0.12065986041E+02 0.11901181867E+02 0.11618627558E+02 0.11293188419E+02 0.10972932994E+02
 0.10653396016E+02 0.10320401885E+02 0.97761608408E+01 0.98631539991E+01 0.10081453542E+02
 0.10342264781E+02 0.10581211339E+02 0.10782904356E+02 0.10949667955E+02 0.11068111627E+02
 0.11112052992E+02 0.11068156783E+02 0.10949768421E+02 0.10783056802E+02 0.10581377313E+02
 0.10342377980E+02 0.10081460185E+02 0.98630532804E+01 0.97760148854E+01 0.98630532804E+01
 0.10081460185E+02 0.10342377980E+02 0.10581377313E+02 0.10783056802E+02 0.10949768421E+02
 0.11068156783E+02 0.11112052992E+02 0.11068111627E+02 0.10949667955E+02 0.10782904356E+02
 0.10581211339E+02 0.10342264781E+02 0.10081453542E+02 0.98631539991E+01 0.10013599368E+02
 0.10320401885E+02 0.10653396016E+02 0.10972932994E+02 0.11293188419E+02 0.11618627558E+02
 0.11901181867E+02 0.12065986041E+02 0.12065421689E+02 0.11903249899E+02 0.11622777462E+02
 0.11283557982E+02 0.10936287607E+02 0.10603522956E+02 0.10290264837E+02 0.10023080884E+02
 0.98630532804E+01 0.98548797358E+01 0.99664655616E+01 0.10104173338E+02 0.10193867606E+02
 0.10229588173E+02 0.10241769392E+02 0.10246555802E+02 0.10244393647E+02 0.10240134972E+02
 0.10234538912E+02 0.10200416079E+02 0.10098439752E+02 0.99389852967E+01 0.98109015928E+01
 0.98234534126E+01 0.10570782250E+02 0.10901856723E+02 0.11299688860E+02 0.11784184737E+02
 0.12318318737E+02 0.12803298563E+02 0.13134793057E+02 0.13251051034E+02 0.13134749296E+02
 0.12803234160E+02 0.12318273485E+02 0.11784198826E+02 0.11299780399E+02 0.10902001603E+02
 0.10570916691E+02 0.10290264837E+02 0.10081460185E+02 0.99664655616E+01 0.99167563409E+01
 0.98645582049E+01 0.97652014944E+01 0.96325679545E+01 0.95190290066E+01 0.94748389491E+01
 0.95190057370E+01 0.96325694266E+01 0.97652839116E+01 0.98647365526E+01 0.99169831812E+01
 0.99666556175E+01 0.10081539560E+02 0.10290215454E+02 0.11288382810E+02 0.11733546653E+02
 0.12356556970E+02 0.13122956509E+02 0.13885832097E+02 0.14471709947E+02 0.14774189752E+02
 0.14768474120E+02 0.14467622666E+02 0.13906248886E+02 0.13171703379E+02 0.12409883466E+02
 0.11758273250E+02 0.11267835914E+02 0.10902001603E+02 0.10603522956E+02 0.10342377980E+02
 0.10104173338E+02 0.98645582049E+01 0.95980329367E+01 0.93052691514E+01 0.90326109692E+01
 0.88613419924E+01 0.88589529993E+01 0.90304858666E+01 0.93076823698E+01 0.95974042932E+01
 0.98547269537E+01 0.10098415350E+02 0.10363173247E+02 0.10653472230E+02 0.10954356331E+02
 0.12410568234E+02 0.13294384663E+02 0.14341771994E+02 0.15403942251E+02 0.16312279860E+02
 0.16922896042E+02 0.17138184938E+02 0.16922864203E+02 0.16312190961E+02 0.15403774558E+02
 0.14341542305E+02 0.13294155763E+02 0.12410421940E+02 0.11758273250E+02 0.11299780399E+02
 0.10936287607E+02 0.10581377313E+02 0.10193867606E+02 0.97652014944E+01 0.93052691514E+01
 0.88578046629E+01 0.85182433460E+01 0.83900860783E+01 0.85182783934E+01 0.88578553997E+01
 0.93053000200E+01 0.97651722765E+01 0.10193754625E+02 0.10581195070E+02 0.10936095589E+02
 0.11299658463E+02 0.11758282382E+02 0.14451787037E+02 0.15956027118E+02 0.17548757849E+02
 0.19015975440E+02 0.20160046006E+02 0.20798421026E+02 0.20795415557E+02 0.20135915290E+02
 0.18955779959E+02 0.17479297328E+02 0.15929036185E+02 0.14487900963E+02 0.13294155763E+02
 0.12409883466E+02 0.11784198826E+02 0.11283557982E+02 0.10783056802E+02 0.10229588173E+02
 0.96325679545E+01 0.90326109692E+01 0.85182433460E+01 0.82152168126E+01 0.82176361524E+01
 0.85211203591E+01 0.90304763855E+01 0.96292581544E+01 0.10234418786E+02 0.10797278718E+02
 0.11293206202E+02 0.11767302111E+02 0.12356422087E+02 0.13225850987E+02 0.17928152947E+02
 0.20224806193E+02 0.22605041981E+02 0.24762032181E+02 0.26328349187E+02 0.26909398731E+02
 0.26328420157E+02 0.24762187586E+02 0.22605274937E+02 0.20225057843E+02 0.17928330972E+02
 0.15929036185E+02 0.14341542305E+02 0.13171703379E+02 0.12318273485E+02 0.11622777462E+02
 0.10949768421E+02 0.10241769392E+02 0.95190290066E+01 0.88613419924E+01 0.83900860783E+01
 0.82176361524E+01 0.83901397462E+01 0.88613858687E+01 0.95189958934E+01 0.10241655287E+02
 0.10949645087E+02 0.11622738211E+02 0.12318355041E+02 0.13171850903E+02 0.14341642877E+02
 0.15929000530E+02 0.23603256512E+02 0.27337368108E+02 0.31306733692E+02 0.34794373955E+02
 0.36876550855E+02 0.36909987483E+02 0.34876357705E+02 0.31390427848E+02 0.27371632279E+02
 0.23565959862E+02 0.20225057843E+02 0.17479297328E+02 0.15403774558E+02 0.13906248886E+02
 0.12803234160E+02 0.11903249899E+02 0.11068156783E+02 0.10246555802E+02 0.94748389491E+01
 0.88589529993E+01 0.85182783934E+01 0.85211203591E+01 0.88613858687E+01 0.94712803390E+01
 0.10244400504E+02 0.11072602503E+02 0.11901258501E+02 0.12782633415E+02 0.13885841098E+02
 0.15422386033E+02 0.17548757673E+02 0.20307070554E+02 0.33545368514E+02 0.40634188324E+02
 0.47324559208E+02 0.52097107333E+02 0.53823271171E+02 0.52097045294E+02 0.47324480531E+02
 0.40634149747E+02 0.33545398708E+02 0.27371632279E+02 0.22605274937E+02 0.18955779959E+02
 0.16312190961E+02 0.14467622666E+02 0.13134749296E+02 0.12065421689E+02 0.11112052992E+02
 0.10244393647E+02 0.95190057370E+01 0.90304858666E+01 0.88578553997E+01 0.90304763855E+01
 0.95189958934E+01 0.10244400504E+02 0.11112094833E+02 0.12065505825E+02 0.13134860303E+02
 0.14467723223E+02 0.16312237462E+02 0.18955753675E+02 0.22605193204E+02 0.27371550181E+02
 0.51660337385E+02 0.62694282705E+02 0.71398131069E+02 0.76111837469E+02 0.76061361826E+02
 0.71292976187E+02 0.62629498321E+02 0.51691373640E+02 0.40634149747E+02 0.31390427848E+02
 0.24762187586E+02 0.20135915290E+02 0.16922864203E+02 0.14768474120E+02 0.13251051034E+02
 0.12065986041E+02 0.11068111627E+02 0.10240134972E+02 0.96325694266E+01 0.93076823698E+01
 0.93053000200E+01 0.96292581544E+01 0.10241655287E+02 0.11072602503E+02 0.12065505825E+02
 0.13246050586E+02 0.14774128507E+02 0.16948905293E+02 0.20159988986E+02 0.24740054211E+02
 0.31306931472E+02 0.40537810937E+02 0.78294410917E+02 0.91534033908E+02 0.10023250887E+03
 0.10324433802E+03 0.10023277255E+03 0.91534372903E+02 0.78294599747E+02 0.62629498321E+02
 0.47324480531E+02 0.34876357705E+02 0.26328420157E+02 0.20795415557E+02 0.17138184938E+02
 0.14774189752E+02 0.13134793057E+02 0.11901181867E+02 0.10949667955E+02 0.10234538912E+02
 0.97652839116E+01 0.95974042932E+01 0.97651722765E+01 0.10234418786E+02 0.10949645087E+02
 0.11901258501E+02 0.13134860303E+02 0.14774128507E+02 0.17137986344E+02 0.20795204222E+02
 0.26328352253E+02 0.34876477332E+02 0.47324663539E+02 0.62629548522E+02 0.10959459655E+03
 0.12299603975E+03 0.13014077365E+03 0.13014589133E+03 0.12301439999E+03 0.10960278816E+03
 0.91534372903E+02 0.71292976187E+02 0.52097045294E+02 0.36909987483E+02 0.26909398731E+02
 0.20798421026E+02 0.16922896042E+02 0.14471709947E+02 0.12803298563E+02 0.11618627558E+02
 0.10782904356E+02 0.10200416079E+02 0.98647365526E+01 0.98547269537E+01 0.10193754625E+02
 0.10797278718E+02 0.11622738211E+02 0.12782633415E+02 0.14467723223E+02 0.16948905293E+02
 0.20795204222E+02 0.26851564584E+02 0.36876646592E+02 0.52158630448E+02 0.71398096541E+02
 0.91587989127E+02 0.14201851026E+03 0.15501524029E+03 0.15970538392E+03 0.15501570084E+03
 0.14201920428E+03 0.12301439999E+03 0.10023277255E+03 0.76061361826E+02 0.53823271171E+02
 0.36876550855E+02 0.26328349187E+02 0.20160046006E+02 0.16312279860E+02 0.13885832097E+02
 0.12318318737E+02 0.11293188419E+02 0.10581211339E+02 0.10098439752E+02 0.99169831812E+01
 0.10098415350E+02 0.10581195070E+02 0.11293206202E+02 0.12318355041E+02 0.13885841098E+02
 0.16312237462E+02 0.20159988986E+02 0.26328352253E+02 0.36876646592E+02 0.53823383325E+02
 0.76061323196E+02 0.10023243817E+03 0.12301378153E+03 0.17540623269E+03 0.18755066975E+03
 0.18765178352E+03 0.17557345351E+03 0.15501570084E+03 0.13014589133E+03 0.10324433802E+03
 0.76111837469E+02 0.52097107333E+02 0.34794373955E+02 0.24762032181E+02 0.19015975440E+02
 0.15403942251E+02 0.13122956509E+02 0.11784184737E+02 0.10972932994E+02 0.10342264781E+02
 0.99389852967E+01 0.99666556175E+01 0.10363173247E+02 0.10936095589E+02 0.11767302111E+02
 0.13171850903E+02 0.15422386033E+02 0.18955753675E+02 0.24740054211E+02 0.34876477332E+02
 0.52158630448E+02 0.76061323196E+02 0.10318109893E+03 0.13014083334E+03 0.15495685478E+03
 0.20928158888E+03 0.21763915886E+03 0.20928130694E+03 0.18765178352E+03 0.15970538392E+03
 0.13014077365E+03 0.10023250887E+03 0.71398131069E+02 0.47324559208E+02 0.31306733692E+02
 0.22605041981E+02 0.17548757849E+02 0.14341771994E+02 0.12356556970E+02 0.11299688860E+02
 0.10653396016E+02 0.10081453542E+02 0.98109015928E+01 0.10081539560E+02 0.10653472230E+02
 0.11299658463E+02 0.12356422087E+02 0.14341642877E+02 0.17548757673E+02 0.22605193204E+02
 0.31306931472E+02 0.47324663539E+02 0.71398096541E+02 0.10023243817E+03 0.13014083334E+03
 0.15970565484E+03 0.18765216936E+03 0.23711900943E+03 0.23692553920E+03 0.21763915886E+03
 0.18755066975E+03 0.15501524029E+03 0.12299603975E+03 0.91534033908E+02 0.62694282705E+02
 0.40634188324E+02 0.27337368108E+02 0.20224806193E+02 0.15956027118E+02 0.13294384663E+02
 0.11733546653E+02 0.10901856723E+02 0.10320401885E+02 0.98631539991E+01 0.98234534126E+01
 0.10290215454E+02 0.10954356331E+02 0.11758282382E+02 0.13225850987E+02 0.15929000530E+02
 0.20307070554E+02 0.27371550181E+02 0.40537810937E+02 0.62629548522E+02 0.91587989127E+02
 0.12301378153E+03 0.15495685478E+03 0.18765216936E+03 0.21796311906E+03 0.23711900943E+03
 0.21796311906E+03 0.18765216936E+03 0.15495685478E+03 0.12301378153E+03 0.91587989127E+02
 0.62629548522E+02 0.40537810937E+02 0.27371550181E+02 0.20307070554E+02 0.15929000530E+02
 0.13225850987E+02 0.11758282382E+02 0.10954356331E+02 0.10290215454E+02 0.98234534126E+01
 0.98631539991E+01 0.10320401885E+02 0.10901856723E+02 0.11733546653E+02 0.13294384663E+02
 0.15956027118E+02 0.20224806193E+02 0.27337368108E+02 0.40634188324E+02 0.62694282705E+02
 0.91534033908E+02 0.12299603975E+03 0.15501524029E+03 0.18755066975E+03 0.21763915886E+03
 0.23692553920E+03 0.21796311906E+03 0.19430744648E+03 0.16424559436E+03 0.13334840941E+03
 0.10281922094E+03 0.73511999664E+02 0.48815885202E+02 0.32186640732E+02 0.23136283872E+02
 0.17923694606E+02 0.14616786976E+02 0.12576171878E+02 0.11504054186E+02 0.10854389198E+02
 0.10266567710E+02 0.99826085038E+01 0.10263238126E+02 0.10854344226E+02 0.11508240637E+02
 0.12577875467E+02 0.14614567376E+02 0.17924054949E+02 0.23137940616E+02 0.32182083442E+02
 0.48824891448E+02 0.73582128762E+02 0.10294113975E+03 0.13338426250E+03 0.16402982729E+03
 0.19387066459E+03 0.21759492433E+03 0.22702589196E+03 0.18765216936E+03 0.16424559436E+03
 0.13709761406E+03 0.10876228582E+03 0.80610225586E+02 0.55496604277E+02 0.36955919921E+02
 0.25957035537E+02 0.19795815632E+02 0.16037956692E+02 0.13655081849E+02 0.12187721419E+02
 0.11337280370E+02 0.10744394082E+02 0.10317931393E+02 0.10285390496E+02 0.10719559523E+02
 0.11380580840E+02 0.12209115642E+02 0.13600014945E+02 0.16016476084E+02 0.19863382829E+02
 0.25981516003E+02 0.36873786075E+02 0.55469932517E+02 0.80737256811E+02 0.10886351822E+03
 0.13699878095E+03 0.16405616898E+03 0.18755682739E+03 0.20190440509E+03 0.20191511771E+03
 0.15495685478E+03 0.13334840941E+03 0.10876228582E+03 0.83143035518E+02 0.59191521212E+02
 0.40361483041E+02 0.28375603449E+02 0.21532580917E+02 0.17311845596E+02 0.14665922853E+02
 0.12977577476E+02 0.11897771026E+02 0.11150884083E+02 0.10625911195E+02 0.10419049096E+02
 0.10620773224E+02 0.11150751428E+02 0.11902846239E+02 0.12977136459E+02 0.14659823954E+02
 0.17312834608E+02 0.21540102073E+02 0.28367635046E+02 0.40327571640E+02 0.59160288481E+02
 0.83157563348E+02 0.10883140579E+03 0.13343695292E+03 0.15502346055E+03 0.17064771196E+03
 0.17647574412E+03 0.17061717419E+03 0.12301378153E+03 0.10281922094E+03 0.80610225586E+02
 0.59191521212E+02 0.41609374482E+02 0.29728866157E+02 0.22714365310E+02 0.18345496367E+02
 0.15556261204E+02 0.13687428771E+02 0.12427018253E+02 0.11540524879E+02 0.10874379269E+02
 0.10484573056E+02 0.10495770037E+02 0.10881094217E+02 0.11523324283E+02 0.12422743217E+02
 0.13711514456E+02 0.15560580512E+02 0.18314201204E+02 0.22705136211E+02 0.29759953792E+02
 0.41616621823E+02 0.59159463119E+02 0.80618791160E+02 0.10288700828E+03 0.12303420750E+03
 0.13860252343E+03 0.14727689843E+03 0.14733216996E+03 0.13867762974E+03 0.91587989127E+02
 0.73511999664E+02 0.55496604277E+02 0.40361483041E+02 0.29728866157E+02 0.23113154143E+02
 0.18862732602E+02 0.16148419313E+02 0.14280304713E+02 0.12889640323E+02 0.11835340885E+02
 0.11033732656E+02 0.10480513627E+02 0.10274578731E+02 0.10481611979E+02 0.11034002014E+02
 0.11834875262E+02 0.12890182311E+02 0.14280449610E+02 0.16145478606E+02 0.18862576588E+02
 0.23129379432E+02 0.29761273883E+02 0.40380751619E+02 0.55468140055E+02 0.73439590632E+02
 0.91517524039E+02 0.10681010230E+03 0.11697948625E+03 0.12053515977E+03 0.11697942349E+03
 0.10684064943E+03 0.62629548522E+02 0.48815885202E+02 0.36955919921E+02 0.28375603449E+02
 0.22714365310E+02 0.18862732602E+02 0.16331671866E+02 0.14585251095E+02 0.13225253673E+02
 0.12073724054E+02 0.11103959149E+02 0.10369211937E+02 0.99622075902E+01 0.99607612583E+01
 0.10369386593E+02 0.11107805255E+02 0.12073219816E+02 0.13219281600E+02 0.14585603875E+02
 0.16339936872E+02 0.18863205121E+02 0.22702684829E+02 0.28369539340E+02 0.36964008767E+02
 0.48823228736E+02 0.62630311164E+02 0.76025806669E+02 0.86528361305E+02 0.92250978987E+02
 0.92234079837E+02 0.86498970371E+02 0.76013226314E+02 0.40537810937E+02 0.32186640732E+02
 0.25957035537E+02 0.21532580917E+02 0.18345496367E+02 0.16148419313E+02 0.14585251095E+02
 0.13335782898E+02 0.12204948914E+02 0.11141642809E+02 0.10222861173E+02 0.95908230449E+01
 0.93655222178E+01 0.95912863708E+01 0.10222762763E+02 0.11140898428E+02 0.12205583346E+02
 0.13338873898E+02 0.14585140039E+02 0.16133804627E+02 0.18314700356E+02 0.21509845957E+02
 0.25981344717E+02 0.32269128889E+02 0.40633097963E+02 0.50093856751E+02 0.58848239971E+02
 0.65019977425E+02 0.67264119026E+02 0.65071564649E+02 0.58882440704E+02 0.50054035303E+02
 0.27371550181E+02 0.23136283872E+02 0.19795815632E+02 0.17311845596E+02 0.15556261204E+02
 0.14280304713E+02 0.13225253673E+02 0.12204948914E+02 0.11149817711E+02 0.10123975160E+02
 0.92898011200E+01 0.88189517811E+01 0.88177221364E+01 0.92882366109E+01 0.10124679627E+02
 0.11151462304E+02 0.12204968046E+02 0.13224207223E+02 0.14280209038E+02 0.15556960815E+02
 0.17312127850E+02 0.19795944915E+02 0.23136736813E+02 0.27371534294E+02 0.32605223983E+02
 0.38241070145E+02 0.43084485285E+02 0.45890005508E+02 0.45888103235E+02 0.43081144520E+02
 0.38239686610E+02 0.32605565776E+02 0.20307070554E+02 0.17923694606E+02 0.16037956692E+02
 0.14665922853E+02 0.13687428771E+02 0.12889640323E+02 0.12073724054E+02 0.11141642809E+02
 0.10123975160E+02 0.91721886363E+01 0.84871380701E+01 0.82359786187E+01 0.84853462001E+01
 0.91718330066E+01 0.10125146521E+02 0.11140735625E+02 0.12072698262E+02 0.12899603122E+02
 0.13712680933E+02 0.14685288616E+02 0.16016430020E+02 0.17852546567E+02 0.20225042973E+02
 0.23015823701E+02 0.26024959590E+02 0.28946241038E+02 0.31137832628E+02 0.31940192503E+02
 0.31086773203E+02 0.28880132910E+02 0.25995718571E+02 0.23052952503E+02 0.15929000530E+02
 0.14616786976E+02 0.13655081849E+02 0.12977577476E+02 0.12427018253E+02 0.11835340885E+02
 0.11103959149E+02 0.10222861173E+02 0.92898011200E+01 0.84871380701E+01 0.80174050526E+01
 0.80166635039E+01 0.84858888861E+01 0.92894414304E+01 0.10223258599E+02 0.11104244946E+02
 0.11835609413E+02 0.12427790662E+02 0.12978334757E+02 0.13654913999E+02 0.14616131506E+02
 0.15929215394E+02 0.17548282690E+02 0.19341157726E+02 0.21104231827E+02 0.22558456799E+02
 0.23395467817E+02 0.23396474680E+02 0.22560476589E+02 0.21105309197E+02 0.19340496584E+02
 0.17547071704E+02 0.13225850987E+02 0.12576171878E+02 0.12187721419E+02 0.11897771026E+02
 0.11540524879E+02 0.11033732656E+02 0.10369211937E+02 0.95908230449E+01 0.88189517811E+01
 0.82359786187E+01 0.80166635039E+01 0.82346479062E+01 0.88180178757E+01 0.95915804804E+01
 0.10368939501E+02 0.11025869026E+02 0.11523854124E+02 0.11887303464E+02 0.12208450222E+02
 0.12635701937E+02 0.13294866088E+02 0.14211721153E+02 0.15304104887E+02 0.16429861434E+02
 0.17424739157E+02 0.18118409058E+02 0.18372263585E+02 0.18136895622E+02 0.17467483051E+02
 0.16482139255E+02 0.15327114590E+02 0.14179466633E+02 0.11758282382E+02 0.11504054186E+02
 0.11337280370E+02 0.11150884083E+02 0.10874379269E+02 0.10480513627E+02 0.99622075902E+01
 0.93655222178E+01 0.88177221364E+01 0.84853462001E+01 0.84858888861E+01 0.88180178757E+01
 0.93644528941E+01 0.99614161990E+01 0.10481118066E+02 0.10874705143E+02 0.11150249230E+02
 0.11337962634E+02 0.11506578327E+02 0.11759221768E+02 0.12189599613E+02 0.12817267081E+02
 0.13560734050E+02 0.14277278586E+02 0.14830446503E+02 0.15129351207E+02 0.15130507172E+02
 0.14831618695E+02 0.14276215304E+02 0.13559950407E+02 0.12819332288E+02 0.12191884174E+02
 0.10954356331E+02 0.10854389198E+02 0.10744394082E+02 0.10625911195E+02 0.10484573056E+02
 0.10274578731E+02 0.99607612583E+01 0.95912863708E+01 0.92882366109E+01 0.91718330066E+01
 0.92894414304E+01 0.95915804804E+01 0.99614161990E+01 0.10280928176E+02 0.10496391300E+02
 0.10628972998E+02 0.10719967064E+02 0.10802242681E+02 0.10901601603E+02 0.11062534873E+02
 0.11344826081E+02 0.11769490710E+02 0.12272238441E+02 0.12729911920E+02 0.13036396825E+02
 0.13142679467E+02 0.13034995944E+02 0.12716812979E+02 0.12240138807E+02 0.11729273296E+02
 0.11324261751E+02 0.11082887336E+02 0.10290215454E+02 0.10266567710E+02 0.10317931393E+02
 0.10419049096E+02 0.10495770037E+02 0.10481611979E+02 0.10369386593E+02 0.10222762763E+02
 0.10124679627E+02 0.10125146521E+02 0.10223258599E+02 0.10368939501E+02 0.10481118066E+02
 0.10496391300E+02 0.10419914273E+02 0.10317444375E+02 0.10265212881E+02 0.10289993069E+02
 0.10373234766E+02 0.10505402506E+02 0.10707926389E+02 0.10991606419E+02 0.11312749406E+02
 0.11587524262E+02 0.11742385228E+02 0.11742096403E+02 0.11587213943E+02 0.11313290554E+02
 0.10992752141E+02 0.10708253640E+02 0.10504211317E+02 0.10371880014E+02 0.98234534126E+01
 0.99826085038E+01 0.10285390496E+02 0.10620773224E+02 0.10881094217E+02 0.11034002014E+02
 0.11107805255E+02 0.11140898428E+02 0.11151462304E+02 0.11140735625E+02 0.11104244946E+02
 0.11025869026E+02 0.10874705143E+02 0.10628972998E+02 0.10317444375E+02 0.10031272384E+02
 0.98637958055E+01 0.98400195556E+01 0.99154612892E+01 0.10037169088E+02 0.10186187695E+02
 0.10360290207E+02 0.10538508546E+02 0.10676597489E+02 0.10729898755E+02 0.10677953123E+02
 0.10539600442E+02 0.10367122142E+02 0.10209194362E+02 0.10073147069E+02 0.99411818545E+01
 0.98322651720E+01 0.98631539991E+01 0.10263238126E+02 0.10719559523E+02 0.11150751428E+02
 0.11523324283E+02 0.11834875262E+02 0.12073219816E+02 0.12205583346E+02 0.12204968046E+02
 0.12072698262E+02 0.11835609413E+02 0.11523854124E+02 0.11150249230E+02 0.10719967064E+02
 0.10265212881E+02 0.98637958055E+01 0.96036821587E+01 0.95169019354E+01 0.95549298867E+01
 0.96367901940E+01 0.97144044955E+01 0.97842231151E+01 0.98489404381E+01 0.98912576708E+01
 0.98903235012E+01 0.98479908483E+01 0.97850359328E+01 0.97150133189E+01 0.96355262365E+01
 0.95542190586E+01 0.95189074671E+01 0.96058877488E+01 0.10320401885E+02 0.10854344226E+02
 0.11380580840E+02 0.11902846239E+02 0.12422743217E+02 0.12890182311E+02 0.13219281600E+02
 0.13338873898E+02 0.13224207223E+02 0.12899603122E+02 0.12427790662E+02 0.11887303464E+02
 0.11337962634E+02 0.10802242681E+02 0.10289993069E+02 0.98400195556E+01 0.95169019354E+01
 0.93532284457E+01 0.93074010225E+01 0.92971417168E+01 0.92715057014E+01 0.92354976270E+01
 0.92115069682E+01 0.92043089938E+01 0.92107970201E+01 0.92352686021E+01 0.92723142886E+01
 0.92944988803E+01 0.92917356074E+01 0.93212279596E+01 0.94837292211E+01 0.98322651720E+01
 0.10901856723E+02 0.11508240637E+02 0.12209115642E+02 0.12977136459E+02 0.13711514456E+02
 0.14280449610E+02 0.14585603875E+02 0.14585140039E+02 0.14280209038E+02 0.13712680933E+02
 0.12978334757E+02 0.12208450222E+02 0.11506578327E+02 0.10901601603E+02 0.10373234766E+02
 0.99154612892E+01 0.95549298867E+01 0.93074010225E+01 0.91410037674E+01 0.89998318474E+01
 0.88559552514E+01 0.87270342359E+01 0.86501860181E+01 0.86504012611E+01 0.87273225599E+01
 0.88557668107E+01 0.89994013694E+01 0.91413223578E+01 0.93086901693E+01 0.95557752516E+01