   3   3   1   0
  0.1800000E+02  0.4242641E-09  0.4242641E-09  0.4242641E-09  0.5000000E-15
  1.000000000000000E-004
  CAR 
 AuAl2                                   
     34.78777690     -4.91603155  301      7.64760835      1.00000000
     -4.916  0.0000E+00  0.0000E+00
     -4.784  0.0000E+00  0.0000E+00
     -4.651  0.0000E+00  0.0000E+00
     -4.519 -0.8666E-29 -0.1147E-29
     -4.387 -0.2078E-24 -0.2750E-25
     -4.254 -0.2062E-20 -0.2729E-21
     -4.122 -0.8461E-17 -0.1120E-17
     -3.990 -0.1386E-13 -0.1836E-14
     -3.857 -0.9625E-11 -0.1276E-11
     -3.725 -0.2753E-08 -0.3656E-09
     -3.593 -0.3239E-06 -0.4323E-07
     -3.460 -0.1562E-04 -0.2110E-05
     -3.328 -0.3028E-03 -0.4219E-04
     -3.196 -0.2172E-02 -0.3297E-03
     -3.063 -0.2994E-02 -0.7260E-03
     -2.931  0.2129E-01  0.2092E-02
     -2.798  0.8671E-01  0.1357E-01
     -2.666  0.1586E+00  0.3456E-01
     -2.534  0.2070E+00  0.6195E-01
     -2.401  0.2470E+00  0.9464E-01
     -2.269  0.2899E+00  0.1330E+00
     -2.137  0.3070E+00  0.1736E+00
     -2.004  0.3543E+00  0.2205E+00
     -1.872  0.4032E+00  0.2739E+00
     -1.740  0.3969E+00  0.3264E+00
     -1.607  0.4440E+00  0.3852E+00
     -1.475  0.5380E+00  0.4564E+00
     -1.343  0.5298E+00  0.5265E+00
     -1.210  0.5549E+00  0.6000E+00
     -1.078  0.6672E+00  0.6883E+00
     -0.946  0.8482E+00  0.8005E+00
     -0.813  0.9367E+00  0.9245E+00
     -0.681  0.8899E+00  0.1042E+01
     -0.549  0.8795E+00  0.1159E+01
     -0.416  0.9783E+00  0.1288E+01
     -0.284  0.9185E+00  0.1410E+01
     -0.152  0.6652E+00  0.1498E+01
     -0.019  0.7195E+00  0.1593E+01
      0.113  0.9061E+00  0.1713E+01
      0.245  0.9726E+00  0.1842E+01
      0.378  0.1430E+01  0.2031E+01
      0.510  0.2853E+01  0.2408E+01
      0.643  0.4752E+01  0.3037E+01
      0.775  0.4477E+01  0.3630E+01
      0.907  0.2142E+01  0.3913E+01
      1.040  0.1546E+01  0.4118E+01
      1.172  0.4890E+01  0.4765E+01
      1.304  0.9085E+01  0.5967E+01
      1.437  0.7575E+01  0.6970E+01
      1.569  0.3874E+01  0.7483E+01
      1.701  0.3480E+01  0.7943E+01
      1.834  0.5271E+01  0.8641E+01
      1.966  0.8005E+01  0.9700E+01
      2.098  0.9638E+01  0.1098E+02
      2.231  0.6425E+01  0.1183E+02
      2.363  0.1803E+01  0.1206E+02
      2.495  0.3029E+00  0.1210E+02
      2.628  0.5468E+00  0.1218E+02
      2.760  0.7070E+00  0.1227E+02
      2.892  0.7757E+00  0.1237E+02
      3.025  0.1157E+01  0.1253E+02
      3.157  0.1238E+01  0.1269E+02
      3.289  0.1023E+01  0.1283E+02
      3.422  0.9309E+00  0.1295E+02
      3.554  0.8215E+00  0.1306E+02
      3.686  0.6057E+00  0.1314E+02
      3.819  0.6434E+00  0.1322E+02
      3.951  0.8397E+00  0.1333E+02
      4.083  0.8033E+00  0.1344E+02
      4.216  0.6726E+00  0.1353E+02
      4.348  0.7644E+00  0.1363E+02
      4.481  0.9558E+00  0.1376E+02
      4.613  0.7617E+00  0.1386E+02
      4.745  0.7290E+00  0.1395E+02
      4.878  0.9055E+00  0.1407E+02
      5.010  0.9406E+00  0.1420E+02
      5.142  0.8809E+00  0.1432E+02
      5.275  0.6413E+00  0.1440E+02
      5.407  0.6355E+00  0.1448E+02
      5.539  0.1238E+01  0.1465E+02
      5.672  0.1548E+01  0.1485E+02
      5.804  0.1231E+01  0.1502E+02
      5.936  0.1034E+01  0.1515E+02
      6.069  0.1170E+01  0.1531E+02
      6.201  0.1367E+01  0.1549E+02
      6.333  0.1371E+01  0.1567E+02
      6.466  0.1134E+01  0.1582E+02
      6.598  0.1020E+01  0.1596E+02
      6.730  0.1060E+01  0.1610E+02
      6.863  0.1054E+01  0.1623E+02
      6.995  0.1132E+01  0.1638E+02
      7.127  0.1204E+01  0.1654E+02
      7.260  0.1081E+01  0.1669E+02
      7.392  0.7810E+00  0.1679E+02
      7.524  0.6912E+00  0.1688E+02
      7.657  0.9714E+00  0.1701E+02
      7.789  0.1237E+01  0.1717E+02
      7.922  0.9865E+00  0.1730E+02
      8.054  0.4902E+00  0.1737E+02
      8.186  0.3765E+00  0.1742E+02
      8.319  0.5992E+00  0.1750E+02
      8.451  0.7411E+00  0.1760E+02
      8.583  0.5213E+00  0.1767E+02
      8.716  0.2500E+00  0.1770E+02
      8.848  0.2161E+00  0.1773E+02
      8.980  0.4583E+00  0.1779E+02
      9.113  0.6372E+00  0.1787E+02
      9.245  0.6993E+00  0.1797E+02
      9.377  0.8037E+00  0.1807E+02
      9.510  0.8115E+00  0.1818E+02
      9.642  0.9184E+00  0.1830E+02
      9.774  0.1241E+01  0.1846E+02
      9.907  0.1314E+01  0.1864E+02
     10.039  0.1318E+01  0.1881E+02
     10.171  0.1493E+01  0.1901E+02
     10.304  0.1706E+01  0.1924E+02
     10.436  0.1964E+01  0.1950E+02
     10.568  0.1862E+01  0.1974E+02
     10.701  0.1584E+01  0.1995E+02
     10.833  0.1271E+01  0.2012E+02
     10.965  0.7290E+00  0.2022E+02
     11.098  0.4991E+00  0.2028E+02
     11.230  0.7420E+00  0.2038E+02
     11.363  0.1367E+01  0.2056E+02
     11.495  0.2077E+01  0.2084E+02
     11.627  0.2276E+01  0.2114E+02
     11.760  0.1930E+01  0.2139E+02
     11.892  0.1754E+01  0.2163E+02
     12.024  0.1731E+01  0.2185E+02
     12.157  0.1754E+01  0.2209E+02
     12.289  0.1574E+01  0.2230E+02
     12.421  0.1726E+01  0.2252E+02
     12.554  0.2056E+01  0.2280E+02
     12.686  0.2042E+01  0.2307E+02
     12.818  0.1999E+01  0.2333E+02
     12.951  0.2130E+01  0.2361E+02
     13.083  0.2057E+01  0.2388E+02
     13.215  0.1981E+01  0.2415E+02
     13.348  0.1971E+01  0.2441E+02
     13.480  0.1854E+01  0.2465E+02
     13.612  0.1858E+01  0.2490E+02
     13.745  0.1815E+01  0.2514E+02
     13.877  0.1667E+01  0.2536E+02
     14.009  0.1738E+01  0.2559E+02
     14.142  0.1879E+01  0.2584E+02
     14.274  0.1559E+01  0.2604E+02
     14.406  0.1365E+01  0.2623E+02
     14.539  0.1525E+01  0.2643E+02
     14.671  0.1877E+01  0.2668E+02
     14.804  0.1933E+01  0.2693E+02
     14.936  0.1716E+01  0.2716E+02
     15.068  0.1631E+01  0.2737E+02
     15.201  0.1624E+01  0.2759E+02
     15.333  0.1462E+01  0.2778E+02
     15.465  0.1347E+01  0.2796E+02
     15.598  0.1509E+01  0.2816E+02
     15.730  0.1597E+01  0.2837E+02
     15.862  0.1558E+01  0.2858E+02
     15.995  0.1737E+01  0.2881E+02
     16.127  0.1855E+01  0.2905E+02
     16.259  0.1853E+01  0.2930E+02
     16.392  0.1976E+01  0.2956E+02
     16.524  0.2084E+01  0.2984E+02
     16.656  0.2365E+01  0.3015E+02
     16.789  0.2239E+01  0.3045E+02
     16.921  0.1607E+01  0.3066E+02
     17.053  0.1615E+01  0.3087E+02
     17.186  0.1928E+01  0.3113E+02
     17.318  0.1763E+01  0.3136E+02
     17.450  0.1495E+01  0.3156E+02
     17.583  0.1461E+01  0.3175E+02
     17.715  0.1432E+01  0.3194E+02
     17.847  0.1213E+01  0.3210E+02
     17.980  0.1116E+01  0.3225E+02
     18.112  0.1289E+01  0.3242E+02
     18.245  0.1263E+01  0.3259E+02
     18.377  0.1262E+01  0.3275E+02
     18.509  0.1509E+01  0.3295E+02
     18.642  0.1633E+01  0.3317E+02
     18.774  0.1690E+01  0.3339E+02
     18.906  0.1819E+01  0.3363E+02
     19.039  0.1577E+01  0.3384E+02
     19.171  0.1467E+01  0.3404E+02
     19.303  0.1931E+01  0.3429E+02
     19.436  0.2246E+01  0.3459E+02
     19.568  0.1868E+01  0.3484E+02
     19.700  0.1482E+01  0.3503E+02
     19.833  0.1808E+01  0.3527E+02
     19.965  0.2430E+01  0.3559E+02
     20.097  0.2629E+01  0.3594E+02
     20.230  0.1946E+01  0.3620E+02
     20.362  0.1265E+01  0.3637E+02
     20.494  0.1429E+01  0.3656E+02
     20.627  0.2199E+01  0.3685E+02
     20.759  0.2379E+01  0.3716E+02
     20.891  0.1871E+01  0.3741E+02
     21.024  0.1863E+01  0.3766E+02
     21.156  0.1848E+01  0.3790E+02
     21.288  0.1601E+01  0.3811E+02
     21.421  0.1487E+01  0.3831E+02
     21.553  0.1525E+01  0.3851E+02
     21.686  0.1936E+01  0.3877E+02
     21.818  0.2050E+01  0.3904E+02
     21.950  0.1907E+01  0.3929E+02
     22.083  0.2073E+01  0.3957E+02
     22.215  0.2343E+01  0.3988E+02
     22.347  0.2664E+01  0.4023E+02
     22.480  0.2547E+01  0.4057E+02
     22.612  0.2240E+01  0.4086E+02
     22.744  0.2244E+01  0.4116E+02
     22.877  0.2195E+01  0.4145E+02
     23.009  0.1957E+01  0.4171E+02
     23.141  0.1590E+01  0.4192E+02
     23.274  0.1619E+01  0.4213E+02
     23.406  0.1823E+01  0.4237E+02
     23.538  0.1806E+01  0.4261E+02
     23.671  0.1902E+01  0.4287E+02
     23.803  0.2234E+01  0.4316E+02
     23.935  0.2087E+01  0.4344E+02
     24.068  0.1991E+01  0.4370E+02
     24.200  0.2256E+01  0.4400E+02
     24.332  0.2236E+01  0.4430E+02
     24.465  0.2292E+01  0.4460E+02
     24.597  0.2390E+01  0.4492E+02
     24.729  0.2399E+01  0.4523E+02
     24.862  0.2426E+01  0.4555E+02
     24.994  0.2432E+01  0.4588E+02
     25.127  0.2313E+01  0.4618E+02
     25.259  0.2356E+01  0.4649E+02
     25.391  0.2469E+01  0.4682E+02
     25.524  0.2185E+01  0.4711E+02
     25.656  0.2151E+01  0.4739E+02
     25.788  0.2285E+01  0.4770E+02
     25.921  0.1891E+01  0.4795E+02
     26.053  0.2005E+01  0.4821E+02
     26.185  0.2818E+01  0.4859E+02
     26.318  0.2871E+01  0.4897E+02
     26.450  0.2481E+01  0.4929E+02
     26.582  0.1982E+01  0.4956E+02
     26.715  0.1682E+01  0.4978E+02
     26.847  0.1730E+01  0.5001E+02
     26.979  0.1814E+01  0.5025E+02
     27.112  0.1919E+01  0.5050E+02
     27.244  0.2023E+01  0.5077E+02
     27.376  0.1677E+01  0.5099E+02
     27.509  0.1573E+01  0.5120E+02
     27.641  0.1868E+01  0.5145E+02
     27.773  0.1992E+01  0.5171E+02
     27.906  0.1676E+01  0.5193E+02
     28.038  0.1697E+01  0.5216E+02
     28.170  0.2178E+01  0.5244E+02
     28.303  0.2103E+01  0.5272E+02
     28.435  0.1800E+01  0.5296E+02
     28.568  0.2024E+01  0.5323E+02
     28.700  0.2148E+01  0.5351E+02
     28.832  0.2053E+01  0.5379E+02
     28.965  0.2207E+01  0.5408E+02
     29.097  0.2606E+01  0.5442E+02
     29.229  0.2975E+01  0.5482E+02
     29.362  0.2616E+01  0.5516E+02
     29.494  0.2265E+01  0.5546E+02
     29.626  0.2319E+01  0.5577E+02
     29.759  0.2270E+01  0.5607E+02
     29.891  0.2105E+01  0.5635E+02
     30.023  0.2137E+01  0.5663E+02
     30.156  0.2532E+01  0.5697E+02
     30.288  0.3226E+01  0.5739E+02
     30.420  0.2906E+01  0.5778E+02
     30.553  0.1904E+01  0.5803E+02
     30.685  0.1733E+01  0.5826E+02
     30.817  0.1739E+01  0.5849E+02
     30.950  0.1625E+01  0.5870E+02
     31.082  0.1387E+01  0.5889E+02
     31.214  0.1061E+01  0.5903E+02
     31.347  0.1270E+01  0.5920E+02
     31.479  0.1442E+01  0.5939E+02
     31.611  0.1072E+01  0.5953E+02
     31.744  0.5706E+00  0.5960E+02
     31.876  0.3399E+00  0.5965E+02
     32.009  0.6065E+00  0.5973E+02
     32.141  0.8039E+00  0.5984E+02
     32.273  0.5273E+00  0.5991E+02
     32.406  0.2839E+00  0.5994E+02
     32.538  0.2361E+00  0.5997E+02
     32.670  0.1177E+00  0.5999E+02
     32.803  0.4452E-01  0.6000E+02
     32.935  0.2893E-01  0.6000E+02
     33.067  0.4005E-02  0.6000E+02
     33.200 -0.2377E-02  0.6000E+02
     33.332 -0.5607E-03  0.6000E+02
     33.464 -0.3615E-04  0.6000E+02
     33.597 -0.8427E-06  0.6000E+02
     33.729 -0.7632E-08  0.6000E+02
     33.861 -0.2764E-10  0.6000E+02
     33.994 -0.4061E-13  0.6000E+02
     34.126 -0.2013E-16  0.6000E+02
     34.258  0.0000E+00  0.6000E+02
     34.391  0.0000E+00  0.6000E+02
     34.523  0.0000E+00  0.6000E+02
     34.655  0.0000E+00  0.6000E+02
     34.788  0.0000E+00  0.6000E+02
     34.78777690     -4.91603155  301      7.64760835      1.00000000
     -4.916  0.0000E+00  0.0000E+00  0.0000E+00
     -4.784  0.0000E+00  0.0000E+00  0.0000E+00
     -4.651  0.0000E+00  0.0000E+00  0.0000E+00
     -4.519 -0.2240E-29 -0.5035E-32 -0.8953E-34
     -4.387 -0.5371E-25 -0.1214E-27 -0.2174E-29
     -4.254 -0.5329E-21 -0.1215E-23 -0.2206E-25
     -4.122 -0.2187E-17 -0.5068E-20 -0.9414E-22
     -3.990 -0.3583E-14 -0.8543E-17 -0.1651E-18
     -3.857 -0.2487E-11 -0.6226E-14 -0.1283E-15
     -3.725 -0.7111E-09 -0.1931E-11 -0.4389E-13
     -3.593 -0.8365E-07 -0.2585E-09 -0.6762E-11
     -3.460 -0.4031E-05 -0.1511E-07 -0.4767E-09
     -3.328 -0.7809E-04 -0.3850E-06 -0.1543E-07
     -3.196 -0.5590E-03 -0.4115E-05 -0.2271E-06
     -3.063 -0.7621E-03 -0.1573E-04 -0.1472E-05
     -2.931  0.5511E-02  0.4658E-05 -0.3531E-05
     -2.798  0.2230E-01  0.1890E-03  0.4807E-05
     -2.666  0.4053E-01  0.6412E-03  0.5588E-04
     -2.534  0.5251E-01  0.1259E-02  0.1858E-03
     -2.401  0.6211E-01  0.2092E-02  0.4515E-03
     -2.269  0.7233E-01  0.3026E-02  0.8974E-03
     -2.137  0.7594E-01  0.3806E-02  0.1555E-02
     -2.004  0.8675E-01  0.5178E-02  0.2576E-02
     -1.872  0.9786E-01  0.6519E-02  0.4173E-02
     -1.740  0.9540E-01  0.6921E-02  0.5946E-02
     -1.607  0.1053E+00  0.8642E-02  0.8940E-02
     -1.475  0.1262E+00  0.1113E-01  0.1350E-01
     -1.343  0.1227E+00  0.1113E-01  0.1861E-01
     -1.210  0.1261E+00  0.1181E-01  0.2718E-01
     -1.078  0.1488E+00  0.1446E-01  0.4155E-01
     -0.946  0.1843E+00  0.1740E-01  0.7240E-01
     -0.813  0.1973E+00  0.1694E-01  0.1073E+00
     -0.681  0.1809E+00  0.1506E-01  0.1255E+00
     -0.549  0.1741E+00  0.1771E-01  0.1279E+00
     -0.416  0.1872E+00  0.2264E-01  0.1500E+00
     -0.284  0.1676E+00  0.2082E-01  0.1640E+00
     -0.152  0.1117E+00  0.1412E-01  0.1476E+00
     -0.019  0.1136E+00  0.1640E-01  0.1760E+00
      0.113  0.1361E+00  0.2209E-01  0.2336E+00
      0.245  0.9447E-01  0.1651E-01  0.3912E+00
      0.378  0.4354E-01  0.1267E-01  0.8313E+00
      0.510  0.4265E-01  0.4232E-01  0.1708E+01
      0.643  0.5657E-01  0.1034E+00  0.2769E+01
      0.775  0.3617E-01  0.1161E+00  0.2587E+01
      0.907  0.1208E-01  0.6535E-01  0.1215E+01
      1.040  0.2014E-01  0.3176E-01  0.9919E+00
      1.172  0.4017E-01  0.4228E-01  0.3595E+01
      1.304  0.4471E-01  0.7334E-01  0.6813E+01
      1.437  0.3150E-01  0.5995E-01  0.5774E+01
      1.569  0.4110E-01  0.1677E-01  0.3109E+01
      1.701  0.8875E-01  0.5220E-02  0.2851E+01
      1.834  0.1661E+00  0.1346E-01  0.4230E+01
      1.966  0.2558E+00  0.2103E-01  0.6499E+01
      2.098  0.3234E+00  0.2254E-01  0.7952E+01
      2.231  0.2564E+00  0.1803E-01  0.5275E+01
      2.363  0.1189E+00  0.1267E-01  0.1375E+01
      2.495  0.5795E-01  0.1732E-01  0.8957E-01
      2.628  0.6741E-01  0.3621E-01  0.1922E+00
      2.760  0.5957E-01  0.4874E-01  0.2841E+00
      2.892  0.4649E-01  0.6553E-01  0.2807E+00
      3.025  0.7509E-01  0.1056E+00  0.3718E+00
      3.157  0.1078E+00  0.1133E+00  0.3566E+00
      3.289  0.1029E+00  0.9540E-01  0.2695E+00
      3.422  0.7818E-01  0.9328E-01  0.2414E+00
      3.554  0.6944E-01  0.8534E-01  0.1995E+00
      3.686  0.6857E-01  0.6332E-01  0.1203E+00
      3.819  0.8373E-01  0.6948E-01  0.1045E+00
      3.951  0.1031E+00  0.9323E-01  0.1387E+00
      4.083  0.8426E-01  0.9169E-01  0.1476E+00
      4.216  0.4867E-01  0.7991E-01  0.1453E+00
      4.348  0.5452E-01  0.9495E-01  0.1498E+00
      4.481  0.7859E-01  0.1207E+00  0.1648E+00
      4.613  0.5917E-01  0.9800E-01  0.1302E+00
      4.745  0.3895E-01  0.9790E-01  0.1352E+00
      4.878  0.4682E-01  0.1239E+00  0.1631E+00
      5.010  0.7428E-01  0.1293E+00  0.1378E+00
      5.142  0.6249E-01  0.1242E+00  0.1245E+00
      5.275  0.2007E-01  0.9455E-01  0.1032E+00
      5.407  0.1909E-01  0.9657E-01  0.9489E-01
      5.539  0.5406E-01  0.1893E+00  0.1646E+00
      5.672  0.6184E-01  0.2406E+00  0.1957E+00
      5.804  0.3313E-01  0.1968E+00  0.1514E+00
      5.936  0.1883E-01  0.1712E+00  0.1183E+00
      6.069  0.2227E-01  0.1955E+00  0.1335E+00
      6.201  0.4167E-01  0.2252E+00  0.1620E+00
      6.333  0.5023E-01  0.2283E+00  0.1533E+00
      6.466  0.2120E-01  0.1964E+00  0.1190E+00
      6.598  0.9228E-02  0.1806E+00  0.1061E+00
      6.730  0.2100E-01  0.1873E+00  0.1093E+00
      6.863  0.3059E-01  0.1885E+00  0.1008E+00
      6.995  0.3238E-01  0.2064E+00  0.1031E+00
      7.127  0.2168E-01  0.2239E+00  0.1091E+00
      7.260  0.1436E-01  0.2037E+00  0.9620E-01
      7.392  0.1231E-01  0.1509E+00  0.6187E-01
      7.524  0.1408E-01  0.1375E+00  0.4913E-01
      7.657  0.2052E-01  0.1955E+00  0.6928E-01
      7.789  0.1913E-01  0.2524E+00  0.8600E-01
      7.922  0.1224E-01  0.2042E+00  0.6508E-01
      8.054  0.8751E-02  0.1045E+00  0.2829E-01
      8.186  0.7546E-02  0.8311E-01  0.2053E-01
      8.319  0.9386E-02  0.1313E+00  0.3757E-01
      8.451  0.1301E-01  0.1600E+00  0.5075E-01
      8.583  0.1099E-01  0.1137E+00  0.3564E-01
      8.716  0.6188E-02  0.5740E-01  0.1407E-01
      8.848  0.3526E-02  0.4045E-01  0.2462E-01
      8.980  0.5306E-02  0.7286E-01  0.6782E-01
      9.113  0.8025E-02  0.9217E-01  0.9707E-01
      9.245  0.8642E-02  0.6337E-01  0.1355E+00
      9.377  0.1191E-01  0.5454E-01  0.1631E+00
      9.510  0.1330E-01  0.4325E-01  0.1603E+00
      9.642  0.1571E-01  0.4020E-01  0.1740E+00
      9.774  0.2635E-01  0.5975E-01  0.2166E+00
      9.907  0.3087E-01  0.6011E-01  0.2177E+00
     10.039  0.3307E-01  0.4399E-01  0.2088E+00
     10.171  0.4292E-01  0.4257E-01  0.2176E+00
     10.304  0.4103E-01  0.7769E-01  0.2091E+00
     10.436  0.3452E-01  0.9773E-01  0.2191E+00
     10.568  0.3395E-01  0.6495E-01  0.2033E+00
     10.701  0.3995E-01  0.4767E-01  0.1675E+00
     10.833  0.4152E-01  0.4407E-01  0.1376E+00
     10.965  0.2569E-01  0.2775E-01  0.7625E-01
     11.098  0.1692E-01  0.1944E-01  0.4745E-01
     11.230  0.3473E-01  0.2486E-01  0.8360E-01
     11.363  0.7853E-01  0.4080E-01  0.1732E+00
     11.495  0.1074E+00  0.6150E-01  0.2692E+00
     11.627  0.8753E-01  0.6965E-01  0.2965E+00
     11.760  0.4978E-01  0.5194E-01  0.2648E+00
     11.892  0.3978E-01  0.4278E-01  0.2346E+00
     12.024  0.4755E-01  0.5053E-01  0.2044E+00
     12.157  0.5098E-01  0.5273E-01  0.1922E+00
     12.289  0.5735E-01  0.3747E-01  0.1752E+00
     12.421  0.8949E-01  0.3507E-01  0.1895E+00
     12.554  0.1120E+00  0.5098E-01  0.2104E+00
     12.686  0.1080E+00  0.5844E-01  0.1898E+00
     12.818  0.1086E+00  0.5411E-01  0.1677E+00
     12.951  0.1135E+00  0.5016E-01  0.1667E+00
     13.083  0.1052E+00  0.5036E-01  0.1512E+00
     13.215  0.9748E-01  0.6047E-01  0.1338E+00
     13.348  0.1018E+00  0.6236E-01  0.1194E+00
     13.480  0.9629E-01  0.5972E-01  0.1021E+00
     13.612  0.7376E-01  0.7022E-01  0.1029E+00
     13.745  0.5393E-01  0.7707E-01  0.9982E-01
     13.877  0.4146E-01  0.7452E-01  0.8757E-01
     14.009  0.3917E-01  0.8739E-01  0.8843E-01
     14.142  0.3958E-01  0.1016E+00  0.9699E-01
     14.274  0.2714E-01  0.8572E-01  0.8194E-01
     14.406  0.2607E-01  0.7968E-01  0.7248E-01
     14.539  0.3510E-01  0.1031E+00  0.8166E-01
     14.671  0.4544E-01  0.1358E+00  0.9324E-01
     14.804  0.4379E-01  0.1399E+00  0.9155E-01
     14.936  0.4380E-01  0.1243E+00  0.7874E-01
     15.068  0.4488E-01  0.1195E+00  0.7255E-01
     15.201  0.3579E-01  0.1217E+00  0.7154E-01
     15.333  0.3140E-01  0.1123E+00  0.6243E-01
     15.465  0.2820E-01  0.1047E+00  0.5775E-01
     15.598  0.3289E-01  0.1251E+00  0.6713E-01
     15.730  0.4184E-01  0.1441E+00  0.6831E-01
     15.862  0.4228E-01  0.1337E+00  0.6360E-01
     15.995  0.3111E-01  0.1407E+00  0.8435E-01
     16.127  0.2437E-01  0.1517E+00  0.9122E-01
     16.259  0.3296E-01  0.1594E+00  0.8048E-01
     16.392  0.3211E-01  0.1691E+00  0.9107E-01
     16.524  0.2249E-01  0.1680E+00  0.1041E+00
     16.656  0.2991E-01  0.1854E+00  0.1134E+00
     16.789  0.3759E-01  0.1793E+00  0.9927E-01
     16.921  0.2865E-01  0.1459E+00  0.6735E-01
     17.053  0.1595E-01  0.1527E+00  0.6726E-01
     17.186  0.1513E-01  0.1779E+00  0.8245E-01
     17.318  0.1365E-01  0.1671E+00  0.8214E-01
     17.450  0.1544E-01  0.1355E+00  0.7678E-01
     17.583  0.3500E-01  0.1265E+00  0.7047E-01
     17.715  0.3567E-01  0.1226E+00  0.6159E-01
     17.847  0.1243E-01  0.9111E-01  0.5396E-01
     17.980  0.6391E-02  0.7871E-01  0.5533E-01
     18.112  0.1995E-01  0.1061E+00  0.5579E-01
     18.245  0.2839E-01  0.1119E+00  0.4518E-01
     18.377  0.3093E-01  0.1069E+00  0.4662E-01
     18.509  0.3410E-01  0.1222E+00  0.5477E-01
     18.642  0.2590E-01  0.1350E+00  0.5972E-01
     18.774  0.2734E-01  0.1329E+00  0.6764E-01
     18.906  0.4631E-01  0.1294E+00  0.6972E-01
     19.039  0.4743E-01  0.1059E+00  0.6047E-01
     19.171  0.3171E-01  0.9216E-01  0.6018E-01
     19.303  0.3046E-01  0.1245E+00  0.8224E-01
     19.436  0.4253E-01  0.1598E+00  0.9839E-01
     19.568  0.3978E-01  0.1192E+00  0.8035E-01
     19.700  0.2741E-01  0.8080E-01  0.6390E-01
     19.833  0.2492E-01  0.1132E+00  0.8346E-01
     19.965  0.3889E-01  0.1625E+00  0.1047E+00
     20.097  0.4591E-01  0.1857E+00  0.1014E+00
     20.230  0.3325E-01  0.1502E+00  0.7087E-01
     20.362  0.2464E-01  0.9385E-01  0.4306E-01
     20.494  0.2609E-01  0.7689E-01  0.6068E-01
     20.627  0.2933E-01  0.8164E-01  0.1202E+00
     20.759  0.2647E-01  0.8807E-01  0.1253E+00
     20.891  0.2093E-01  0.8961E-01  0.9896E-01
     21.024  0.2004E-01  0.8874E-01  0.1264E+00
     21.156  0.2216E-01  0.9087E-01  0.1220E+00
     21.288  0.2801E-01  0.8381E-01  0.8888E-01
     21.421  0.3741E-01  0.7165E-01  0.7169E-01
     21.553  0.5455E-01  0.5876E-01  0.7682E-01
     21.686  0.7276E-01  0.5951E-01  0.1327E+00
     21.818  0.5956E-01  0.7245E-01  0.1407E+00
     21.950  0.3742E-01  0.7963E-01  0.9934E-01
     22.083  0.3394E-01  0.8732E-01  0.9670E-01
     22.215  0.3395E-01  0.1061E+00  0.1132E+00
     22.347  0.3563E-01  0.1207E+00  0.1261E+00
     22.480  0.3413E-01  0.1117E+00  0.1210E+00
     22.612  0.3213E-01  0.9694E-01  0.1080E+00
     22.744  0.3872E-01  0.9326E-01  0.1003E+00
     22.877  0.4560E-01  0.1047E+00  0.8845E-01
     23.009  0.3891E-01  0.1112E+00  0.8370E-01
     23.141  0.2663E-01  0.9147E-01  0.7978E-01
     23.274  0.2573E-01  0.9175E-01  0.8235E-01
     23.406  0.2830E-01  0.9631E-01  0.9450E-01
     23.538  0.3036E-01  0.8255E-01  0.1006E+00
     23.671  0.4157E-01  0.8700E-01  0.9956E-01
     23.803  0.4545E-01  0.1195E+00  0.9986E-01
     23.935  0.3747E-01  0.1227E+00  0.8514E-01
     24.068  0.3616E-01  0.1168E+00  0.7673E-01
     24.200  0.3605E-01  0.1400E+00  0.8730E-01
     24.332  0.2904E-01  0.1241E+00  0.9446E-01
     24.465  0.2691E-01  0.1100E+00  0.1037E+00
     24.597  0.2943E-01  0.1088E+00  0.1234E+00
     24.729  0.3093E-01  0.1062E+00  0.1281E+00
     24.862  0.2758E-01  0.1269E+00  0.1141E+00
     24.994  0.2846E-01  0.1330E+00  0.1043E+00
     25.127  0.3245E-01  0.1061E+00  0.9438E-01
     25.259  0.2778E-01  0.1021E+00  0.1072E+00
     25.391  0.2367E-01  0.1095E+00  0.1380E+00
     25.524  0.2120E-01  0.1063E+00  0.1320E+00
     25.656  0.1884E-01  0.1129E+00  0.1145E+00
     25.788  0.2155E-01  0.1110E+00  0.9685E-01
     25.921  0.2590E-01  0.1005E+00  0.7395E-01
     26.053  0.2951E-01  0.9603E-01  0.9852E-01
     26.185  0.2646E-01  0.9294E-01  0.1505E+00
     26.318  0.2444E-01  0.1001E+00  0.1487E+00
     26.450  0.2826E-01  0.1277E+00  0.1141E+00
     26.582  0.2199E-01  0.1228E+00  0.7745E-01
     26.715  0.2301E-01  0.8541E-01  0.6721E-01
     26.847  0.2826E-01  0.5524E-01  0.6983E-01
     26.979  0.2369E-01  0.6404E-01  0.6565E-01
     27.112  0.2047E-01  0.1023E+00  0.7013E-01
     27.244  0.1935E-01  0.1368E+00  0.7305E-01
     27.376  0.1589E-01  0.1194E+00  0.6021E-01
     27.509  0.2038E-01  0.1025E+00  0.6024E-01
     27.641  0.2620E-01  0.9730E-01  0.6852E-01
     27.773  0.2298E-01  0.7192E-01  0.7662E-01
     27.906  0.1376E-01  0.4871E-01  0.6708E-01
     28.038  0.1410E-01  0.6228E-01  0.6671E-01
     28.170  0.1765E-01  0.9078E-01  0.8873E-01
     28.303  0.1528E-01  0.8359E-01  0.8009E-01
     28.435  0.1704E-01  0.7554E-01  0.5978E-01
     28.568  0.2701E-01  0.9508E-01  0.7657E-01
     28.700  0.3078E-01  0.9582E-01  0.9210E-01
     28.832  0.2905E-01  0.7957E-01  0.9080E-01
     28.965  0.3846E-01  0.7136E-01  0.9950E-01
     29.097  0.5045E-01  0.7992E-01  0.1143E+00
     29.229  0.4875E-01  0.9802E-01  0.1212E+00
     29.362  0.3612E-01  0.9062E-01  0.1006E+00
     29.494  0.3458E-01  0.9570E-01  0.8087E-01
     29.626  0.4308E-01  0.1210E+00  0.8137E-01
     29.759  0.4133E-01  0.1075E+00  0.8209E-01
     29.891  0.3336E-01  0.8097E-01  0.6995E-01
     30.023  0.2951E-01  0.7713E-01  0.6989E-01
     30.156  0.3210E-01  0.7410E-01  0.8783E-01
     30.288  0.3586E-01  0.7451E-01  0.9945E-01
     30.420  0.3364E-01  0.7649E-01  0.8347E-01
     30.553  0.2678E-01  0.7324E-01  0.5208E-01
     30.685  0.2427E-01  0.7648E-01  0.4115E-01
     30.817  0.2392E-01  0.8156E-01  0.3868E-01
     30.950  0.2329E-01  0.8707E-01  0.3193E-01
     31.082  0.1820E-01  0.7877E-01  0.2848E-01
     31.214  0.1259E-01  0.5910E-01  0.2479E-01
     31.347  0.1031E-01  0.7227E-01  0.2489E-01
     31.479  0.8883E-02  0.8104E-01  0.2286E-01
     31.611  0.7442E-02  0.6031E-01  0.1464E-01
     31.744  0.4910E-02  0.3674E-01  0.6098E-02
     31.876  0.2462E-02  0.2487E-01  0.4017E-02
     32.009  0.5649E-02  0.4295E-01  0.1177E-01
     32.141  0.8906E-02  0.5887E-01  0.1509E-01
     32.273  0.4304E-02  0.3952E-01  0.6884E-02
     32.406  0.5806E-03  0.2303E-01  0.1990E-02
     32.538  0.2688E-03  0.1989E-01  0.1505E-02
     32.670  0.1090E-03  0.9956E-02  0.6185E-03
     32.803 -0.1692E-04  0.6046E-02  0.4874E-03
     32.935 -0.1183E-04  0.4641E-02  0.4315E-03
     33.067 -0.1630E-05  0.6723E-03  0.6417E-04
     33.200 -0.1377E-06 -0.3330E-03 -0.2971E-04
     33.332 -0.1366E-07 -0.7987E-04 -0.7177E-05
     33.464 -0.7814E-09 -0.5158E-05 -0.4638E-06
     33.597 -0.1793E-10 -0.1203E-06 -0.1081E-07
     33.729 -0.1620E-12 -0.1089E-08 -0.9794E-10
     33.861 -0.5865E-15 -0.3945E-11 -0.3547E-12
     33.994 -0.8616E-18 -0.5796E-14 -0.5212E-15
     34.126 -0.4272E-21 -0.2873E-17 -0.2584E-18
     34.258  0.0000E+00  0.0000E+00  0.0000E+00
     34.391  0.0000E+00  0.0000E+00  0.0000E+00
     34.523  0.0000E+00  0.0000E+00  0.0000E+00
     34.655  0.0000E+00  0.0000E+00  0.0000E+00
     34.788  0.0000E+00  0.0000E+00  0.0000E+00
     34.78777690     -4.91603155  301      7.64760835      1.00000000
     -4.916  0.0000E+00  0.0000E+00  0.0000E+00
     -4.784  0.0000E+00  0.0000E+00  0.0000E+00
     -4.651  0.0000E+00  0.0000E+00  0.0000E+00
     -4.519 -0.1753E-29 -0.5657E-32 -0.2189E-33
     -4.387 -0.4205E-25 -0.1364E-27 -0.5277E-29
     -4.254 -0.4172E-21 -0.1365E-23 -0.5284E-25
     -4.122 -0.1712E-17 -0.5692E-20 -0.2203E-21
     -3.990 -0.2805E-14 -0.9594E-17 -0.3713E-18
     -3.857 -0.1947E-11 -0.6990E-14 -0.2706E-15
     -3.725 -0.5566E-09 -0.2167E-11 -0.8391E-13
     -3.593 -0.6546E-07 -0.2899E-09 -0.1123E-10
     -3.460 -0.3153E-05 -0.1694E-07 -0.6577E-09
     -3.328 -0.6105E-04 -0.4316E-06 -0.1682E-07
     -3.196 -0.4364E-03 -0.4619E-05 -0.1819E-06
     -3.063 -0.5907E-03 -0.1775E-04 -0.7208E-06
     -2.931  0.4318E-02  0.4573E-05  0.3205E-07
     -2.798  0.1740E-01  0.2110E-03  0.8104E-05
     -2.666  0.3150E-01  0.7232E-03  0.2937E-04
     -2.534  0.4062E-01  0.1434E-02  0.6097E-04
     -2.401  0.4777E-01  0.2408E-02  0.1076E-03
     -2.269  0.5535E-01  0.3525E-02  0.1646E-03
     -2.137  0.5779E-01  0.4503E-02  0.2206E-03
     -2.004  0.6560E-01  0.6201E-02  0.3151E-03
     -1.872  0.7363E-01  0.7937E-02  0.4226E-03
     -1.740  0.7140E-01  0.8660E-02  0.4822E-03
     -1.607  0.7820E-01  0.1104E-01  0.6349E-03
     -1.475  0.9326E-01  0.1447E-01  0.8563E-03
     -1.343  0.9026E-01  0.1513E-01  0.9481E-03
     -1.210  0.9224E-01  0.1706E-01  0.1117E-02
     -1.078  0.1078E+00  0.2218E-01  0.1421E-02
     -0.946  0.1329E+00  0.2952E-01  0.1942E-02
     -0.813  0.1426E+00  0.3296E-01  0.2311E-02
     -0.681  0.1314E+00  0.3190E-01  0.2456E-02
     -0.549  0.1264E+00  0.3363E-01  0.2768E-02
     -0.416  0.1372E+00  0.3900E-01  0.3514E-02
     -0.284  0.1270E+00  0.3523E-01  0.3777E-02
     -0.152  0.8919E-01  0.2407E-01  0.3190E-02
     -0.019  0.8918E-01  0.2900E-01  0.3575E-02
      0.113  0.1084E+00  0.3747E-01  0.4744E-02
      0.245  0.1116E+00  0.2531E-01  0.6993E-02
      0.378  0.1464E+00  0.1645E-01  0.1246E-01
      0.510  0.2734E+00  0.4267E-01  0.2254E-01
      0.643  0.4493E+00  0.9198E-01  0.3315E-01
      0.775  0.4126E+00  0.1038E+00  0.2780E-01
      0.907  0.1859E+00  0.6584E-01  0.1112E-01
      1.040  0.6127E-01  0.7595E-01  0.8135E-02
      1.172  0.4979E-01  0.2343E+00  0.3172E-01
      1.304  0.5707E-01  0.4131E+00  0.6257E-01
      1.437  0.3966E-01  0.3251E+00  0.5681E-01
      1.569  0.1022E-01  0.1421E+00  0.3651E-01
      1.701  0.4289E-02  0.9694E-01  0.3993E-01
      1.834  0.1228E-01  0.1117E+00  0.6051E-01
      1.966  0.1842E-01  0.1168E+00  0.8686E-01
      2.098  0.1993E-01  0.1040E+00  0.9786E-01
      2.231  0.1693E-01  0.6536E-01  0.6116E-01
      2.363  0.1230E-01  0.2644E-01  0.1710E-01
      2.495  0.1646E-01  0.1657E-01  0.5242E-02
      2.628  0.3454E-01  0.2735E-01  0.8837E-02
      2.760  0.4540E-01  0.3328E-01  0.9532E-02
      2.892  0.5745E-01  0.4208E-01  0.9214E-02
      3.025  0.9045E-01  0.6865E-01  0.1404E-01
      3.157  0.9572E-01  0.7723E-01  0.1691E-01
      3.289  0.7769E-01  0.6602E-01  0.1568E-01
      3.422  0.7126E-01  0.6319E-01  0.1368E-01
      3.554  0.6041E-01  0.6079E-01  0.1150E-01
      3.686  0.4117E-01  0.4921E-01  0.9485E-02
      3.819  0.4290E-01  0.5400E-01  0.1211E-01
      3.951  0.5709E-01  0.6975E-01  0.1625E-01
      4.083  0.5502E-01  0.6749E-01  0.1396E-01
      4.216  0.4552E-01  0.5828E-01  0.9196E-02
      4.348  0.5226E-01  0.6784E-01  0.1194E-01
      4.481  0.6453E-01  0.8620E-01  0.1722E-01
      4.613  0.5012E-01  0.7141E-01  0.1311E-01
      4.745  0.5077E-01  0.7046E-01  0.1060E-01
      4.878  0.6190E-01  0.8899E-01  0.1373E-01
      5.010  0.5817E-01  0.9320E-01  0.1888E-01
      5.142  0.5448E-01  0.9029E-01  0.1749E-01
      5.275  0.4244E-01  0.7078E-01  0.9204E-02
      5.407  0.3419E-01  0.7836E-01  0.8289E-02
      5.539  0.5321E-01  0.1583E+00  0.1902E-01
      5.672  0.6119E-01  0.2040E+00  0.2409E-01
      5.804  0.3853E-01  0.1770E+00  0.1620E-01
      5.936  0.2473E-01  0.1611E+00  0.1202E-01
      6.069  0.3576E-01  0.1746E+00  0.1671E-01
      6.201  0.5258E-01  0.1840E+00  0.2603E-01
      6.333  0.4830E-01  0.1848E+00  0.2910E-01
      6.466  0.2470E-01  0.1748E+00  0.2012E-01
      6.598  0.2443E-01  0.1594E+00  0.1826E-01
      6.730  0.3714E-01  0.1511E+00  0.2383E-01
      6.863  0.3196E-01  0.1490E+00  0.2680E-01