    3    3    1    1
  0.1800000E+02  0.4242641E-09  0.4242641E-09  0.4242641E-09  0.5000000E-15
  1.000000000000000E-004
  CAR 
 AuAl2                                   
     17    110     30
 
  0.5000000E-01  0.5000000E-01  0.5000000E-01  0.2000000E-02
    1       -2.916032
    2        0.967576
    3        0.987332
    4        0.987332
    5        1.944675
    6        1.944675
    7        9.566819
    8       10.044189
    9       10.391743
   10       10.391743
   11       11.702833
   12       11.702833
   13       12.052416
   14       13.202897
   15       13.202897
   16       13.224492
   17       14.397235
   18       16.088184
   19       16.088184
   20       18.906147
   21       27.182961
   22       27.182961
   23       27.363987
   24       28.501805
   25       28.826413
   26       28.826413
   27       31.347380
   28       31.347380
   29       31.696042
   30       32.547936
 
  0.1500000E+00  0.5000000E-01  0.5000000E-01  0.6000000E-02
    1       -2.741875
    2        0.908300
    3        1.027498
    4        1.036262
    5        1.916191
    6        1.954899
    7        8.334928
    8        9.074308
    9       10.208104
   10       10.329621
   11       11.705961
   12       12.369135
   13       12.709241
   14       12.741713
   15       13.191002
   16       13.454735
   17       15.594755
   18       16.380747
   19       17.094592
   20       19.588430
   21       25.473315
   22       26.262815
   23       26.433031
   24       28.283743
   25       29.116437
   26       29.978674
   27       30.610160
   28       31.411918
   29       31.421087
   30       31.970235
 
  0.2500000E+00  0.5000000E-01  0.5000000E-01  0.6000000E-02
    1       -2.321255
    2        0.805119
    3        1.113094
    4        1.119058
    5        1.899014
    6        1.968839
    7        6.241370
    8        8.489892
    9        9.531141
   10       10.435574
   11       11.799271
   12       11.889372
   13       12.930319
   14       13.172786
   15       13.275274
   16       14.468733
   17       17.418796
   18       18.101228
   19       18.479038
   20       20.904559
   21       23.529097
   22       24.532150
   23       24.605087
   24       28.362922
   25       29.473308
   26       29.537463
   27       30.276210
   28       30.287239
   29       31.443327
   30       31.592178
 
  0.3500000E+00  0.5000000E-01  0.5000000E-01  0.6000000E-02
    1       -1.711370
    2        0.745511
    3        1.189894
    4        1.192379
    5        1.932007
    6        2.011935
    7        4.355277
    8        7.997736
    9        8.738621
   10       10.634416
   11       11.400956
   12       11.576686
   13       12.420776
   14       14.346746
   15       14.349759
   16       15.681347
   17       18.723135
   18       19.940281
   19       20.723063
   20       21.375804
   21       22.182493
   22       22.802107
   23       23.846520
   24       27.162169
   25       27.948372
   26       28.864111
   27       30.101623
   28       30.327866
   29       31.208578
   30       32.372583
 
  0.4500000E+00  0.5000000E-01  0.5000000E-01  0.6000000E-02
    1       -1.099694
    2        0.875767
    3        1.229203
    4        1.231883
    5        2.010396
    6        2.061187
    7        2.809986
    8        7.714929
    9        8.146779
   10       10.668690
   11       11.232526
   12       11.478707
   13       12.014935
   14       15.627460
   15       15.682567
   16       16.783864
   17       18.971500
   18       19.901061
   19       20.329217
   20       21.714596
   21       22.343022
   22       23.829281
   23       25.167617
   24       25.648904
   25       25.950081
   26       29.093484
   27       29.321281
   28       30.196004
   29       30.235575
   30       30.485082
 
 -0.4500000E+00  0.5000000E-01  0.5000000E-01  0.6000000E-02
    1       -0.893193
    2        1.053030
    3        1.234423
    4        1.278671
    5        2.064013
    6        2.079029
    7        2.161372
    8        7.745538
    9        7.873907
   10       10.586021
   11       11.331713
   12       11.532677
   13       11.786213
   14       16.049582
   15       16.480846
   16       17.241971
   17       18.391599
   18       19.493603
   19       19.806672
   20       22.511294
   21       22.676419
   22       24.332598
   23       24.766826
   24       25.264522
   25       27.198059
   26       27.763360
   27       29.086349
   28       29.724899
   29       29.919717
   30       30.246036
 
 -0.3500000E+00  0.5000000E-01  0.5000000E-01  0.6000000E-02
    1       -1.281303
    2        0.798446
    3        1.219517
    4        1.222144
    5        1.986478
    6        2.047523
    7        3.270537
    8        7.962088
    9        8.110286
   10       10.538761
   11       11.411423
   12       11.748757
   13       11.878694
   14       14.769386
   15       15.988082
   16       16.164238
   17       19.400260
   18       19.657011
   19       20.808525
   20       21.689074
   21       22.058243
   22       22.952053
   23       24.996348
   24       25.784900
   25       26.578227
   26       29.296689
   27       29.837288
   28       30.071515
   29       30.267659
   30       31.089230
 
 -0.2500000E+00  0.5000000E-01  0.5000000E-01  0.6000000E-02
    1       -1.928178
    2        0.750920
    3        1.170657
    4        1.171666
    5        1.911043
    6        1.996866
    7        4.951851
    8        8.356599
    9        8.719026
   10       10.492936
   11       11.501538
   12       12.132924
   13       12.275358
   14       13.474646
   15       14.820199
   16       14.854831
   17       18.409676
   18       19.323727
   19       19.941288
   20       21.521255
   21       22.662901
   22       23.005474
   23       23.919790
   24       27.875672
   25       28.388416
   26       29.152555
   27       29.856128
   28       30.312832
   29       31.390340
   30       32.447658
 
 -0.1500000E+00  0.5000000E-01  0.5000000E-01  0.6000000E-02
    1       -2.486388
    2        0.837433
    3        1.086361
    4        1.090076
    5        1.894712
    6        1.967002
    7        6.922626
    8        8.955394
    9        9.366708
   10       10.400849
   11       11.756375
   12       12.453282
   13       12.653944
   14       12.869289
   15       13.668874
   16       13.761462
   17       17.071492
   18       17.166187
   19       17.915571
   20       20.475651
   21       24.433599
   22       24.554744
   23       25.563261
   24       28.314539
   25       29.622816
   26       29.879709
   27       30.163546
   28       30.798641
   29       30.949434
   30       32.001329
 
 -0.5000000E-01  0.5000000E-01  0.5000000E-01  0.6000000E-02
    1       -2.828451
    2        0.932185
    3        1.012018
    4        1.013502
    5        1.919247
    6        1.958678
    7        9.033025
    8        9.673140
    9        9.736642
   10       10.298821
   11       11.725409
   12       12.502881
   13       12.571848
   14       12.661704
   15       13.301569
   16       13.322513
   17       14.976495
   18       16.067128
   19       16.715995
   20       19.282283
   21       26.283706
   22       26.348835
   23       27.251461
   24       28.127912
   25       29.260789
   26       29.365162
   27       30.407395
   28       31.789630
   29       31.903707
   30       32.195390
 
  0.1500000E+00  0.1500000E+00  0.5000000E-01  0.6000000E-02
    1       -2.654006
    2        0.862918
    3        1.064431
    4        1.065538
    5        1.871937
    6        1.985884
    7        8.339823
    8        8.912870
    9        9.292536
   10        9.797790
   11       11.847753
   12       12.187903
   13       13.348692
   14       13.393410
   15       13.582408
   16       13.614445
   17       15.852404
   18       16.027500
   19       17.388428
   20       20.098648
   21       25.230426
   22       25.274668
   23       27.186502
   24       27.446998
   25       29.177663
   26       29.713117
   27       29.913682
   28       30.684723
   29       32.247879
   30       32.787777
 
  0.2500000E+00  0.1500000E+00  0.5000000E-01  0.1200000E-01
    1       -2.312769
    2        0.763465
    3        1.146238
    4        1.148644
    5        1.823028
    6        2.017677
    7        6.924055
    8        7.775717
    9        8.992015
   10       10.005432
   11       11.501531
   12       12.478869
   13       12.905898
   14       13.831143
   15       14.087024
   16       15.006950
   17       16.369592
   18       17.565949
   19       18.384013
   20       21.370870
   21       23.443329
   22       24.206102
   23       26.325351
   24       27.009450
   25       28.494188
   26       29.122975
   27       29.974499
   28       30.922172
   29       31.371699
   30       32.185623
 
  0.3500000E+00  0.1500000E+00  0.5000000E-01  0.1200000E-01
    1       -1.754895
    2        0.674699
    3        1.223156
    4        1.240021
    5        1.836115
    6        2.056553
    7        5.000647
    8        7.275536
    9        8.264230
   10       10.222538
   11       12.004007
   12       12.456130
   13       12.568903
   14       13.472683
   15       15.096530
   16       16.296207
   17       17.505551
   18       19.664064
   19       20.056193
   20       21.684299
   21       22.372348
   22       23.238185
   23       24.759245
   24       26.856509
   25       27.238577
   26       28.713417
   27       29.605181
   28       30.285674
   29       30.945695
   30       31.446374
 
  0.4500000E+00  0.1500000E+00  0.5000000E-01  0.1200000E-01
    1       -1.105570
    2        0.696247
    3        1.264011
    4        1.294885
    5        1.951027
    6        2.084248
    7        3.353129
    8        6.951549
    9        7.653810
   10       10.204665
   11       11.783355
   12       12.592058
   13       13.013178
   14       13.633780
   15       16.257905
   16       17.280439
   17       18.524090
   18       19.569863
   19       21.090206
   20       21.916903
   21       22.379887
   22       23.397695
   23       24.729885
   24       25.545863
   25       26.777706
   26       28.236798
   27       29.410827
   28       29.447391
   29       30.017698
   30       30.395900
 
 -0.4500000E+00  0.1500000E+00  0.5000000E-01  0.1200000E-01
    1       -0.717788
    2        0.870721
    3        1.311392
    4        1.347097
    5        2.028542
    6        2.102476
    7        2.320227
    8        6.727544
    9        7.470904
   10       10.251769
   11       11.525241
   12       12.527653
   13       12.902824
   14       15.132567
   15       16.164292
   16       17.235874
   17       18.924740
   18       19.944758
   19       20.704464
   20       22.022015
   21       22.270381
   22       24.058428
   23       25.014554
   24       25.753073
   25       27.265629
   26       28.062237
   27       28.588380
   28       28.771604
   29       28.950420
   30       30.117700
 
 -0.3500000E+00  0.1500000E+00  0.5000000E-01  0.1200000E-01
    1       -0.926820
    2        0.761350
    3        1.280448
    4        1.304570
    5        1.972596
    6        2.069112
    7        2.945130
    8        6.627567
    9        7.814742
   10       10.427939
   11       11.399128
   12       12.295129
   13       13.216009
   14       14.595882
   15       15.845657
   16       17.000427
   17       18.964111
   18       20.015769
   19       20.985798
   20       21.529749
   21       22.716396
   22       24.099181
   23       24.528558
   24       25.869557
   25       26.122520
   26       27.855666
   27       29.210873
   28       29.545772
   29       30.049085
   30       30.452501
 
 -0.2500000E+00  0.1500000E+00  0.5000000E-01  0.1200000E-01
    1       -1.541849
    2        0.677920
    3        1.225987
    4        1.258430
    5        1.866860
    6        2.064041
    7        4.434703
    8        6.785560
    9        8.500631
   10       10.694656
   11       11.401009
   12       12.153887
   13       13.183202
   14       13.701943
   15       14.633250
   16       17.067371
   17       17.630848
   18       20.157104
   19       20.680811
   20       21.771335
   21       22.311382
   22       23.346118
   23       24.193701
   24       26.247136
   25       27.195136
   26       28.282927
   27       29.557751
   28       30.303370
   29       30.923415
   30       31.576921
 
 -0.1500000E+00  0.1500000E+00  0.5000000E-01  0.1200000E-01
    1       -2.151106
    2        0.745130
    3        1.164205
    4        1.164991
    5        1.841358
    6        2.017055
    7        6.255595
    8        7.197452
    9        9.342501
   10       10.674880
   11       11.629045
   12       12.079915
   13       12.402066
   14       13.579232
   15       14.033667
   16       15.742665
   17       16.607003
   18       18.524066
   19       19.160773
   20       21.593411
   21       22.585779
   22       24.241927
   23       25.388339
   24       26.928494
   25       28.533004
   26       28.974361
   27       30.161938
   28       30.389035
   29       31.637185
   30       32.138753
 
 -0.5000000E-01  0.1500000E+00  0.5000000E-01  0.1200000E-01
    1       -2.569438
    2        0.849209
    3        1.073235
    4        1.081966
    5        1.879882
    6        1.978313
    7        7.628529
    8        8.417773
    9        9.796938
   10       10.305788
   11       11.843495
   12       12.068616
   13       12.636953
   14       13.219932
   15       13.547927
   16       14.104048
   17       16.282253
   18       16.660503
   19       17.771779
   20       20.292220
   21       24.457729
   22       25.282418
   23       26.353192
   24       27.740273
   25       29.188268
   26       29.936255
   27       30.326416
   28       30.688336
   29       31.623859
   30       32.079178
 
  0.2500000E+00  0.2500000E+00  0.5000000E-01  0.6000000E-02
    1       -2.051196
    2        0.663014
    3        1.239552
    4        1.240982
    5        1.730100
    6        2.068323
    7        6.803551
    8        7.529388
    9        7.652592
   10        9.272717
   11       10.748380
   12       13.609550
   13       14.053590
   14       14.136894
   15       15.498889
   16       15.520725
   17       15.926508
   18       17.650912
   19       18.810366
   20       22.520654
   21       23.133832
   22       23.173047
   23       26.064059
   24       26.801785
   25       27.109829
   26       28.206751
   27       30.300707
   28       30.419353
   29       31.316932
   30       31.332887
 
  0.3500000E+00  0.2500000E+00  0.5000000E-01  0.1200000E-01
    1       -1.558596
    2        0.561194
    3        1.314214
    4        1.356897
    5        1.711154
    6        2.110826
    7        5.481324
    8        6.588873
    9        7.236776
   10        9.536747
   11       10.724475
   12       13.550588
   13       14.149243
   14       14.638664
   15       16.118008
   16       16.439345
   17       17.015625
   18       18.953322
   19       20.106702
   20       21.670115
   21       22.158171
   22       23.830383
   23       25.681752
   24       25.860459
   25       26.676478
   26       27.114329
   27       29.208100
   28       29.592229
   29       30.812016
   30       31.049510
 
  0.4500000E+00  0.2500000E+00  0.5000000E-01  0.1200000E-01
    1       -0.913075
    2        0.520041
    3        1.291059
    4        1.436564
    5        1.883154
    6        2.123257
    7        3.907043
    8        6.026830
    9        6.775413
   10        9.734203
   11       11.637058
   12       12.945219
   13       14.236662
   14       14.465457
   15       16.924809
   16       17.708881
   17       18.313766
   18       19.296761
   19       20.605158
   20       21.242061
   21       22.894181
   22       24.279992
   23       24.679453
   24       25.094644
   25       26.146084
   26       27.616909
   27       28.023764
   28       28.606928
   29       29.309444
   30       31.272353
 
 -0.4500000E+00  0.2500000E+00  0.5000000E-01  0.1200000E-01
    1       -0.393476
    2        0.641915
    3        1.279430
    4        1.467515
    5        2.032180
    6        2.114686
    7        2.771503
    8        5.503034
    9        6.738726
   10        9.844209
   11       12.464134
   12       12.920824
   13       13.815858
   14       14.868099
   15       16.382060
   16       17.693815
   17       19.191400
   18       19.984026
   19       21.068641
   20       21.825988
   21       22.471006
   22       23.482836
   23       25.520428
   24       26.045985
   25       26.257828
   26       26.846317
   27       27.593435
   28       28.153649
   29       29.223984
   30       29.655632
 
 -0.3500000E+00  0.2500000E+00  0.5000000E-01  0.1200000E-01
    1       -0.422508
    2        0.684479
    3        1.337595
    4        1.462154
    5        1.888178
    6        1.987828
    7        3.039472
    8        5.138146
    9        7.128559
   10       10.064294
   11       12.129831
   12       13.291210
   13       14.033608
   14       15.039622
   15       15.683081
   16       16.342178
   17       19.816082
   18       20.587588
   19       21.009567
   20       22.048369
   21       22.614013
   22       24.338038
   23       25.159301
   24       25.400846
   25       26.127942
   26       26.368332
   27       27.644601
   28       28.830281
   29       29.707296
   30       30.202214
 
 -0.2500000E+00  0.2500000E+00  0.5000000E-01  0.1200000E-01
    1       -0.961977
    2        0.605434
    3        1.268736
    4        1.401640
    5        1.849802
    6        2.062152
    7        4.128662
    8        5.144754
    9        7.805616
   10       10.452747
   11       11.818070
   12       13.008980
   13       13.282606
   14       14.650883
   15       15.491609
   16       16.432263
   17       18.795824
   18       19.375930
   19       22.104374
   20       22.521000
   21       23.583935
   22       23.920670
   23       24.301782
   24       24.553043
   25       25.282749
   26       27.305865
   27       28.812720
   28       29.363873
   29       30.480327
   30       31.220277
 
 -0.1500000E+00  0.2500000E+00  0.5000000E-01  0.1200000E-01
    1       -1.598351
    2        0.653912
    3        1.227356
    4        1.278498
    5        1.825952
    6        2.069160
    7        5.045605
    8        6.104349
    9        8.592292
   10       10.941934
   11       11.310686
   12       12.456273
   13       12.715747
   14       14.065353
   15       14.690301
   16       16.728229
   17       17.486139
   18       19.680747
   19       20.714167
   20       21.676405
   21       22.922232
   22       23.455689
   23       24.576867
   24       25.937077
   25       26.610330
   26       28.723308
   27       29.139515
   28       30.321072
   29       30.848715
   30       31.929810
 
 -0.5000000E-01  0.2500000E+00  0.5000000E-01  0.1200000E-01
    1       -2.076162
    2        0.748497
    3        1.164013
    4        1.166064
    5        1.868991
    6        2.007809
    7        5.600455
    8        7.876672
    9        9.053752
   10       10.548995
   11       11.649948
   12       12.040181
   13       12.766284
   14       13.176069
   15       14.104219
   16       15.343954
   17       17.494584
   18       19.064164
   19       19.209269
   20       21.594730
   21       22.666327
   22       23.606091
   23       24.660039
   24       27.743184
   25       28.357630
   26       29.335365
   27       29.936061
   28       30.255784
   29       31.357209
   30       32.400388
 
  0.3500000E+00  0.3500000E+00  0.5000000E-01  0.6000000E-02
    1       -1.135509
    2        0.454110
    3        1.438138
    4        1.484482
    5        1.612747
    6        2.160347
    7        4.963637
    8        6.336309
    9        6.421683
   10        9.040293
   11       10.126833
   12       14.803334
   13       15.105109
   14       15.365577
   15       15.970362
   16       17.617503
   17       17.658647
   18       18.786536
   19       20.860236
   20       21.265943
   21       21.622045
   22       23.651247
   23       24.969968
   24       25.011573
   25       27.053484
   26       27.161824
   27       27.724048
   28       27.865169
   29       31.392412
   30       31.959441
 
  0.4500000E+00  0.3500000E+00  0.5000000E-01  0.1200000E-01
    1       -0.532712
    2        0.387471
    3        1.335470
    4        1.603338
    5        1.798065
    6        2.176781
    7        3.905772
    8        5.626532
    9        6.063345
   10        9.294785
   11       10.289532
   12       14.255036
   13       15.594170
   14       16.081800
   15       16.601922
   16       18.187917
   17       18.876429
   18       19.758719
   19       19.994788
   20       20.652251
   21       23.111525
   22       23.459486
   23       23.752625
   24       24.995970
   25       26.080713
   26       26.213446
   27       27.086609
   28       28.391511
   29       30.488112
   30       32.063664
 
 -0.4500000E+00  0.3500000E+00  0.5000000E-01  0.1200000E-01
    1        0.040977
    2        0.464734
    3        1.171360
    4        1.648671
    5        2.080652
    6        2.139467
    7        2.983099
    8        4.814554
    9        6.047637
   10        9.519462
   11       11.329726
   12       13.619847
   13       15.171061
   14       16.222039
   15       16.984193
   16       18.068953
   17       19.197754
   18       19.936178
   19       20.926048
   20       21.823476
   21       21.908353
   22       23.705737
   23       24.569576
   24       25.041276
   25       25.577579
   26       25.814565
   27       26.779210
   28       28.923019
   29       29.518478
   30       30.974077
 
 -0.3500000E+00  0.3500000E+00  0.5000000E-01  0.1200000E-01
    1        0.074139
    2        0.689087
    3        1.208506
    4        1.630077
    5        1.797433
    6        2.053985
    7        3.242019
    8        4.122157
    9        6.425327
   10        9.718954
   11       12.742036
   12       13.057044
   13       14.704053
   14       15.140735
   15       16.649549
   16       17.301694
   17       19.405113
   18       20.713483
   19       21.086604
   20       22.355892
   21       23.020317
   22       23.783626
   23       24.670669
   24       24.790776
   25       25.299049
   26       25.855999
   27       27.828654
   28       28.552414
   29       29.663140
   30       30.287946
 
 -0.2500000E+00  0.3500000E+00  0.5000000E-01  0.1200000E-01
    1       -0.348710
    2        0.619368
    3        1.321610
    4        1.522482
    5        1.853272
    6        1.935836
    7        3.635398
    8        4.374006
    9        7.069232
   10       10.032637
   11       12.398401
   12       13.535072
   13       13.988127
   14       14.771135
   15       15.957319
   16       16.464452
   17       18.879579
   18       20.743069
   19       21.788460
   20       22.640250
   21       23.289688
   22       24.006977
   23       24.301144
   24       25.265348
   25       25.794638
   26       26.068454
   27       27.241880
   28       28.646423
   29       30.230740
   30       30.567670
 
 -0.1500000E+00  0.3500000E+00  0.5000000E-01  0.1200000E-01
    1       -0.948331
    2        0.657194
    3        1.273632
    4        1.359324
    5        1.901590
    6        2.064996
    7        3.526308
    8        5.853895
    9        7.808671
   10       10.445051
   11       11.587656
   12       12.678600
   13       13.703271
   14       14.382217
   15       15.322039
   16       16.843474
   17       18.867322
   18       19.841093
   19       21.264325
   20       22.410092
   21       22.928650
   22       23.868440
   23       24.433792
   24       25.083644
   25       26.392301
   26       26.909785
   27       29.129675
   28       29.679481
   29       30.157665
   30       31.060357
 
 -0.5000000E-01  0.3500000E+00  0.5000000E-01  0.1200000E-01
    1       -1.433191
    2        0.726706
    3        1.223187
    4        1.234412
    5        1.929197
    6        2.054433
    7        3.819748
    8        7.492292
    9        8.316680
   10       10.515165
   11       11.488446
   12       11.844140
   13       12.685556
   14       13.928450
   15       15.308005
   16       16.558039
   17       18.612529
   18       20.167795
   19       20.963248
   20       21.665699
   21       22.151326
   22       22.647041
   23       24.504230
   24       26.081130
   25       27.358655
   26       28.536423
   27       29.877281
   28       30.266584
   29       30.641742
   30       31.352890
 
  0.4500000E+00  0.4500000E+00  0.5000000E-01  0.6000000E-02
    1       -0.015527
    2        0.311837
    3        1.369497
    4        1.710375
    5        1.779350
    6        2.222745
    7        3.212717
    8        5.577558
    9        5.709597
   10        8.934390
   11        9.837344
   12       15.143316
   13       16.350234
   14       16.726765
   15       17.128267
   16       18.563860
   17       18.651724
   18       19.901131
   19       20.711624
   20       20.912376
   21       22.042935
   22       22.733321
   23       24.369920
   24       24.384648
   25       24.780834
   26       24.950307
   27       27.013396
   28       29.632305
   29       30.632554
   30       31.182631
 
 -0.4500000E+00  0.4500000E+00  0.5000000E-01  0.1200000E-01
    1        0.293611
    2        0.508533
    3        1.145881
    4        1.765822
    5        2.089297
    6        2.184381
    7        2.576796
    8        5.136264
    9        5.575348
   10        9.204788
   11       10.122078
   12       14.650230
   13       16.678133
   14       17.017716
   15       17.793085
   16       17.818323
   17       18.335788
   18       20.909774
   19       21.081980
   20       21.614017
   21       22.007759
   22       22.511317
   23       23.137995
   24       23.771998
   25       24.622618
   26       26.409209
   27       26.893082
   28       28.967493
   29       30.328725
   30       30.636430
 
 -0.3500000E+00  0.4500000E+00  0.5000000E-01  0.1200000E-01
    1        0.256031
    2        0.689812
    3        0.996205
    4        1.714361
    5        2.030958
    6        2.236273
    7        2.716187
    8        4.500024
    9        5.910992
   10        9.480843
   11       11.269698
   12       13.819906
   13       15.652640
   14       16.093915
   15       17.416305
   16       17.863452
   17       19.251909
   18       20.084716
   19       21.304763
   20       22.182403
   21       22.342578
   22       23.281555
   23       23.447417
   24       24.433431
   25       25.323531
   26       25.680588
   27       27.976297
   28       28.867430
   29       29.553780
   30       30.239059
 
 -0.2500000E+00  0.4500000E+00  0.5000000E-01  0.1200000E-01
    1       -0.095071
    2        0.650126
    3        1.246754
    4        1.561961
    5        1.914810
    6        2.101145
    7        2.900101
    8        4.743079
    9        6.526683
   10        9.759005
   11       12.802476
   12       12.817038
   13       14.258054
   14       15.489112
   15       16.275530
   16       17.237426
   17       20.033030
   18       20.434335
   19       20.796782
   20       21.622730
   21       22.656265
   22       24.090949
   23       24.855261
   24       25.342831
   25       26.019082
   26       26.384990
   27       27.467480
   28       28.156529
   29       29.358010
   30       29.891494
 
 -0.1500000E+00  0.4500000E+00  0.5000000E-01  0.1200000E-01
    1       -0.551673
    2        0.782538
    3        1.357503
    4        1.383162
    5        1.952716
    6        2.056815
    7        2.567657
    8        5.947588
    9        7.254717
   10       10.133672
   11       11.800781
   12       12.927306
   13       13.688206
   14       15.146044
   15       15.577824
   16       16.864358
   17       19.669535
   18       20.689534
   19       20.807924
   20       21.347989
   21       22.295826
   22       24.547413
   23       24.704604
   24       26.127205
   25       26.601136
   26       27.548121
   27       28.010275
   28       28.595385
   29       29.156003
   30       30.018861
 
 -0.5000000E-01  0.4500000E+00  0.5000000E-01  0.1200000E-01
    1       -0.905861
    2        0.909937
    3        1.258790
    4        1.284853
    5        2.034550
    6        2.072351
    7        2.464976
    8        7.330134
    9        7.824947
   10       10.444298
   11       11.350869
   12       11.920514
   13       12.315163
   14       15.337680
   15       16.348559
   16       17.101586
   17       18.797713
   18       19.514513
   19       20.556060
   20       21.815640
   21       22.688477
   22       24.202762
   23       24.858336
   24       25.439424
   25       26.647644
   26       28.433979
   27       29.037121
   28       29.549289
   29       29.787961
   30       30.220197
 
 -0.4500000E+00 -0.4500000E+00  0.5000000E-01  0.6000000E-02
    1        0.279748
    2        0.445866
    3        1.303459
    4        1.769548
    5        1.866599
    6        2.235338
    7        2.629735
    8        5.414336
    9        5.553652
   10        8.914864
   11        9.784593
   12       15.166958
   13       16.977450
   14       17.320056
   15       17.714362
   16       18.019810
   17       18.111676
   18       20.535099
   19       21.225304
   20       21.516094
   21       21.903950
   22       22.357115
   23       23.357313
   24       23.405813
   25       24.309695
   26       25.957321
   27       26.966278
   28       28.784454
   29       31.036330
   30       31.134058
 
 -0.3500000E+00 -0.4500000E+00  0.5000000E-01  0.1200000E-01
    1        0.025829
    2        0.333653
    3        1.263472
    4        1.705679