 vasp.5.3.5 31Mar14 (build Dec 14 2018 19:18:10) complex                        
  
 executed on             LinuxIFC date 2022.11.17  20:42:24
 serial version


--------------------------------------------------------------------------------------------------------


 INCAR:
 POTCAR:    PAW Au 04Oct2007                      
 POTCAR:   PAW Al 17Apr2000                       
 POTCAR:    PAW Au 04Oct2007                      
   VRHFIN =Au: s1d10                                                            
   LEXCH  = CA                                                                  
   EATOM  =   929.4200 eV,   68.3104 Ry                                         
                                                                                
   TITEL  = PAW Au 04Oct2007                                                    
   LULTRA =        F    use ultrasoft PP ?                                      
   IUNSCR =        1    unscreen: 0-lin 1-nonlin 2-no                           
   RPACOR =    2.330    partial core radius                                     
   POMASS =  196.966; ZVAL   =   11.000    mass and valenz                      
   RCORE  =    2.500    outmost cutoff radius                                   
   RWIGS  =    2.840; RWIGS  =    1.503    wigner-seitz radius (au A)           
   ENMAX  =  229.869; ENMIN  =  172.402 eV                                      
   ICORE  =        3    local potential                                         
   LCOR   =        T    correct aug charges                                     
   LPAW   =        T    paw PP                                                  
   EAUG   =  356.670                                                            
   DEXC   =    0.000                                                            
   RMAX   =    2.562    core radius for proj-oper                               
   RAUG   =    1.300    factor for augmentation sphere                          
   RDEP   =    2.598    radius for radial grids                                 
   RDEPT  =    2.193    core radius for aug-charge                              
                                                                                
   Atomic configuration                                                         
   16 entries                                                                   
     n  l   j            E        occ.                                          
     1  0  0.50    -80176.1758   2.0000                                         
     2  0  0.50    -14159.9516   2.0000                                         
     2  1  1.50    -12259.9125   6.0000                                         
     3  0  0.50     -3343.9134   2.0000                                         
     3  1  1.50     -2791.8065   6.0000                                         
     3  2  2.50     -2200.4375  10.0000                                         
     4  0  0.50      -725.0688   2.0000                                         
     4  1  1.50      -543.6481   6.0000                                         
     4  2  2.50      -325.3551  10.0000                                         
     4  3  3.50       -81.9692  14.0000                                         
     5  0  0.50      -108.1495   2.0000                                         
     5  1  1.50       -59.8256   6.0000                                         
     5  2  2.50        -7.1403  10.0000                                         
     6  0  0.50        -6.0462   1.0000                                         
     6  1  1.50        -6.8029   0.0000                                         
     5  3  2.50        -1.3606   0.0000                                         
   Description                                                                  
     l       E           TYP  RCUT    TYP  RCUT                                 
     2     -7.1402894     23  2.500                                             
     2     -8.5008720     23  2.500                                             
     0     -6.0461544     23  2.500                                             
     0     -1.0927833     23  2.500                                             
     1     -2.7211652     23  2.500                                             
     1     27.2116520     23  2.500                                             
     3     -1.3605826     23  2.500                                             
  local pseudopotential read in
  partial core-charges read in
  partial kinetic energy density read in
  atomic valenz-charges read in
  non local Contribution for L=           2  read in
    real space projection operators read in
  non local Contribution for L=           2  read in
    real space projection operators read in
  non local Contribution for L=           0  read in
    real space projection operators read in
  non local Contribution for L=           0  read in
    real space projection operators read in
  non local Contribution for L=           1  read in
    real space projection operators read in
  non local Contribution for L=           1  read in
    real space projection operators read in
    PAW grid and wavefunctions read in
 
   number of l-projection  operators is LMAX  =           6
   number of lm-projection operators is LMMAX =          18
 
 POTCAR:   PAW Al 17Apr2000                       
   VRHFIN =Al: s2p1                                                             
   LEXCH  = CA                                                                  
   EATOM  =    53.7936 eV,    3.9537 Ry                                         
                                                                                
   TITEL  = PAW Al 17Apr2000                                                    
   LULTRA =        F    use ultrasoft PP ?                                      
   IUNSCR =        1    unscreen: 0-lin 1-nonlin 2-no                           
   RPACOR =    1.500    partial core radius                                     
   POMASS =   26.982; ZVAL   =    3.000    mass and valenz                      
   RCORE  =    1.900    outmost cutoff radius                                   
   RWIGS  =    2.650; RWIGS  =    1.402    wigner-seitz radius (au A)           
   ENMAX  =  240.957; ENMIN  =  180.718 eV                                      
   ICORE  =        2    local potential                                         
   LCOR   =        T    correct aug charges                                     
   LPAW   =        T    paw PP                                                  
   EAUG   =  291.052                                                            
   DEXC   =    -.032                                                            
   RMAX   =    2.970    core radius for proj-oper                               
   RAUG   =    1.300    factor for augmentation sphere                          
   RDEP   =    1.966    core radius for depl-charge                             
   QCUT   =   -4.208; QGAM   =    8.417    optimization parameters              
                                                                                
   Description                                                                  
     l     E      TYP  RCUT    TYP  RCUT                                        
     0   .000     23  1.900                                                     
     0   .000     23  1.900                                                     
     1   .000     23  1.900                                                     
     1  1.000     23  1.900                                                     
     2   .000      7  1.900                                                     
  local pseudopotential read in
  partial core-charges read in
  atomic valenz-charges read in
  non local Contribution for L=           0  read in
    real space projection operators read in
  non local Contribution for L=           0  read in
    real space projection operators read in
  non local Contribution for L=           1  read in
    real space projection operators read in
  non local Contribution for L=           1  read in
    real space projection operators read in
    PAW grid and wavefunctions read in
 
   number of l-projection  operators is LMAX  =           4
   number of lm-projection operators is LMMAX =           8
 
  PAW Au 04Oct2007                      :
 energy of atom  1       EATOM= -929.4200
 kinetic energy error for atom=    0.0617 (will be added to EATOM!!)
 PAW Al 17Apr2000                       :
 energy of atom  2       EATOM=  -53.7936
 kinetic energy error for atom=    0.0031 (will be added to EATOM!!)
 
 
 POSCAR: AuAl2                                   
  positions in direct lattice
  velocities in cartesian coordinates
 exchange correlation table for  LEXCH =        2
   RHO(1)=    0.500       N(1)  =     2000
   RHO(2)=  100.500       N(2)  =     4000
 


--------------------------------------------------------------------------------------------------------


 ion  position               nearest neighbor table
   1  0.000  0.000  0.000-   3 2.60   3 2.60   3 2.60   2 2.60   3 2.60   2 2.60   2 2.60   2 2.60

   2  0.250  0.250  0.250-   1 2.60   1 2.60   1 2.60   1 2.60   3 3.00   3 3.00   3 3.00   3 3.00
                             3 3.00   3 3.00
   3  0.750  0.750  0.750-   1 2.60   1 2.60   1 2.60   1 2.60   2 3.00   2 3.00   2 3.00   2 3.00
                             2 3.00   2 3.00
 
  LATTYP: Found a face centered cubic cell.
 ALAT       =     6.0000000000
  
  Lattice vectors:
  
 A1 = (   0.0000000000,   3.0000000000,   3.0000000000)
 A2 = (   3.0000000000,   0.0000000000,   3.0000000000)
 A3 = (   3.0000000000,   3.0000000000,   0.0000000000)


Analysis of symmetry for initial positions (statically):
=====================================================================
 Subroutine PRICEL returns:
 Original cell was already a primitive cell.
 

 Routine SETGRP: Setting up the symmetry group for a 
 face centered cubic supercell.


 Subroutine GETGRP returns: Found 48 space group operations
 (whereof 48 operations were pure point group operations)
 out of a pool of 48 trial point group operations.


The static configuration has the point symmetry O_h .


Analysis of symmetry for dynamics (positions and initial velocities):
=====================================================================
 Subroutine PRICEL returns:
 Original cell was already a primitive cell.
 

 Routine SETGRP: Setting up the symmetry group for a 
 face centered cubic supercell.


 Subroutine GETGRP returns: Found 48 space group operations
 (whereof 48 operations were pure point group operations)
 out of a pool of 48 trial point group operations.


The dynamic configuration has the point symmetry O_h .
 
 
 KPOINTS: 10X10x10                                

Automatic generation of k-mesh.
Space group operators:
 irot       det(A)        alpha          n_x          n_y          n_z        tau_x        tau_y        tau_z
    1     1.000000     0.000000     1.000000     0.000000     0.000000     0.000000     0.000000     0.000000
    2    -1.000000     0.000000     1.000000     0.000000     0.000000     0.000000     0.000000     0.000000
    3     1.000000   120.000000    -0.577350    -0.577350    -0.577350     0.000000     0.000000     0.000000
    4    -1.000000   120.000000    -0.577350    -0.577350    -0.577350     0.000000     0.000000     0.000000
    5     1.000000   120.000000     0.577350     0.577350     0.577350     0.000000     0.000000     0.000000
    6    -1.000000   120.000000     0.577350     0.577350     0.577350     0.000000     0.000000     0.000000
    7     1.000000    90.000000     0.000000     0.000000    -1.000000     0.000000     0.000000     0.000000
    8    -1.000000    90.000000     0.000000     0.000000    -1.000000     0.000000     0.000000     0.000000
    9     1.000000   180.000000     0.000000     0.707107     0.707107     0.000000     0.000000     0.000000
   10    -1.000000   180.000000     0.000000     0.707107     0.707107     0.000000     0.000000     0.000000
   11     1.000000    90.000000     0.000000     1.000000     0.000000     0.000000     0.000000     0.000000
   12    -1.000000    90.000000     0.000000     1.000000     0.000000     0.000000     0.000000     0.000000
   13     1.000000   180.000000     0.000000     0.000000     1.000000     0.000000     0.000000     0.000000
   14    -1.000000   180.000000     0.000000     0.000000     1.000000     0.000000     0.000000     0.000000
   15     1.000000   120.000000    -0.577350     0.577350     0.577350     0.000000     0.000000     0.000000
   16    -1.000000   120.000000    -0.577350     0.577350     0.577350     0.000000     0.000000     0.000000
   17     1.000000   120.000000    -0.577350     0.577350    -0.577350     0.000000     0.000000     0.000000
   18    -1.000000   120.000000    -0.577350     0.577350    -0.577350     0.000000     0.000000     0.000000
   19     1.000000    90.000000     0.000000     0.000000     1.000000     0.000000     0.000000     0.000000
   20    -1.000000    90.000000     0.000000     0.000000     1.000000     0.000000     0.000000     0.000000
   21     1.000000    90.000000    -1.000000     0.000000     0.000000     0.000000     0.000000     0.000000
   22    -1.000000    90.000000    -1.000000     0.000000     0.000000     0.000000     0.000000     0.000000
   23     1.000000   180.000000     0.707107     0.000000     0.707107     0.000000     0.000000     0.000000
   24    -1.000000   180.000000     0.707107     0.000000     0.707107     0.000000     0.000000     0.000000
   25     1.000000   120.000000     0.577350    -0.577350     0.577350     0.000000     0.000000     0.000000
   26    -1.000000   120.000000     0.577350    -0.577350     0.577350     0.000000     0.000000     0.000000
   27     1.000000   120.000000    -0.577350    -0.577350     0.577350     0.000000     0.000000     0.000000
   28    -1.000000   120.000000    -0.577350    -0.577350     0.577350     0.000000     0.000000     0.000000
   29     1.000000   180.000000     1.000000     0.000000     0.000000     0.000000     0.000000     0.000000
   30    -1.000000   180.000000     1.000000     0.000000     0.000000     0.000000     0.000000     0.000000
   31     1.000000    90.000000     0.000000    -1.000000     0.000000     0.000000     0.000000     0.000000
   32    -1.000000    90.000000     0.000000    -1.000000     0.000000     0.000000     0.000000     0.000000
   33     1.000000   180.000000     0.707107     0.707107     0.000000     0.000000     0.000000     0.000000
   34    -1.000000   180.000000     0.707107     0.707107     0.000000     0.000000     0.000000     0.000000
   35     1.000000    90.000000     1.000000     0.000000     0.000000     0.000000     0.000000     0.000000
   36    -1.000000    90.000000     1.000000     0.000000     0.000000     0.000000     0.000000     0.000000
   37     1.000000   120.000000     0.577350    -0.577350    -0.577350     0.000000     0.000000     0.000000
   38    -1.000000   120.000000     0.577350    -0.577350    -0.577350     0.000000     0.000000     0.000000
   39     1.000000   180.000000     0.000000     1.000000     0.000000     0.000000     0.000000     0.000000
   40    -1.000000   180.000000     0.000000     1.000000     0.000000     0.000000     0.000000     0.000000
   41     1.000000   120.000000     0.577350     0.577350    -0.577350     0.000000     0.000000     0.000000
   42    -1.000000   120.000000     0.577350     0.577350    -0.577350     0.000000     0.000000     0.000000
   43     1.000000   180.000000     0.000000    -0.707107     0.707107     0.000000     0.000000     0.000000
   44    -1.000000   180.000000     0.000000    -0.707107     0.707107     0.000000     0.000000     0.000000
   45     1.000000   180.000000     0.707107    -0.707107     0.000000     0.000000     0.000000     0.000000
   46    -1.000000   180.000000     0.707107    -0.707107     0.000000     0.000000     0.000000     0.000000
   47     1.000000   180.000000     0.707107     0.000000    -0.707107     0.000000     0.000000     0.000000
   48    -1.000000   180.000000     0.707107     0.000000    -0.707107     0.000000     0.000000     0.000000
 
 Subroutine IBZKPT returns following result:
 ===========================================
 
 Found    110 irreducible k-points:
 
 Following reciprocal coordinates:
            Coordinates               Weight
  0.050000  0.050000  0.050000     96.000000
  0.150000  0.050000  0.050000    288.000000
  0.250000  0.050000  0.050000    288.000000
  0.350000  0.050000  0.050000    288.000000
  0.450000  0.050000  0.050000    288.000000
 -0.450000  0.050000  0.050000    288.000000
 -0.350000  0.050000  0.050000    288.000000
 -0.250000  0.050000  0.050000    288.000000
 -0.150000  0.050000  0.050000    288.000000
 -0.050000  0.050000  0.050000    288.000000
  0.150000  0.150000  0.050000    288.000000
  0.250000  0.150000  0.050000    576.000000
  0.350000  0.150000  0.050000    576.000000
  0.450000  0.150000  0.050000    576.000000
 -0.450000  0.150000  0.050000    576.000000
 -0.350000  0.150000  0.050000    576.000000
 -0.250000  0.150000  0.050000    576.000000
 -0.150000  0.150000  0.050000    576.000000
 -0.050000  0.150000  0.050000    576.000000
  0.250000  0.250000  0.050000    288.000000
  0.350000  0.250000  0.050000    576.000000
  0.450000  0.250000  0.050000    576.000000
 -0.450000  0.250000  0.050000    576.000000
 -0.350000  0.250000  0.050000    576.000000
 -0.250000  0.250000  0.050000    576.000000
 -0.150000  0.250000  0.050000    576.000000
 -0.050000  0.250000  0.050000    576.000000
  0.350000  0.350000  0.050000    288.000000
  0.450000  0.350000  0.050000    576.000000
 -0.450000  0.350000  0.050000    576.000000
 -0.350000  0.350000  0.050000    576.000000
 -0.250000  0.350000  0.050000    576.000000
 -0.150000  0.350000  0.050000    576.000000
 -0.050000  0.350000  0.050000    576.000000
  0.450000  0.450000  0.050000    288.000000
 -0.450000  0.450000  0.050000    576.000000
 -0.350000  0.450000  0.050000    576.000000
 -0.250000  0.450000  0.050000    576.000000
 -0.150000  0.450000  0.050000    576.000000
 -0.050000  0.450000  0.050000    576.000000
 -0.450000 -0.450000  0.050000    288.000000
 -0.350000 -0.450000  0.050000    576.000000
 -0.250000 -0.450000  0.050000    576.000000
 -0.150000 -0.450000  0.050000    576.000000
 -0.350000 -0.350000  0.050000    288.000000
 -0.250000 -0.350000  0.050000    576.000000
 -0.150000 -0.350000  0.050000    576.000000
 -0.250000 -0.250000  0.050000    288.000000
 -0.150000 -0.250000  0.050000    576.000000
 -0.150000 -0.150000  0.050000    288.000000
  0.150000  0.150000  0.150000     96.000000
  0.250000  0.150000  0.150000    288.000000
  0.350000  0.150000  0.150000    288.000000
  0.450000  0.150000  0.150000    288.000000
 -0.450000  0.150000  0.150000    288.000000
 -0.350000  0.150000  0.150000    288.000000
 -0.250000  0.150000  0.150000    288.000000
 -0.150000  0.150000  0.150000    288.000000
  0.250000  0.250000  0.150000    288.000000
  0.350000  0.250000  0.150000    576.000000
  0.450000  0.250000  0.150000    576.000000
 -0.450000  0.250000  0.150000    576.000000
 -0.350000  0.250000  0.150000    576.000000
 -0.250000  0.250000  0.150000    576.000000
 -0.150000  0.250000  0.150000    576.000000
  0.350000  0.350000  0.150000    288.000000
  0.450000  0.350000  0.150000    576.000000
 -0.450000  0.350000  0.150000    576.000000
 -0.350000  0.350000  0.150000    576.000000
 -0.250000  0.350000  0.150000    576.000000
 -0.150000  0.350000  0.150000    576.000000
  0.450000  0.450000  0.150000    288.000000
 -0.450000  0.450000  0.150000    576.000000
 -0.350000  0.450000  0.150000    576.000000
 -0.250000  0.450000  0.150000    576.000000
 -0.150000  0.450000  0.150000    576.000000
 -0.450000 -0.450000  0.150000    288.000000
 -0.350000 -0.450000  0.150000    576.000000
 -0.250000 -0.450000  0.150000    576.000000
 -0.350000 -0.350000  0.150000    288.000000
 -0.250000 -0.350000  0.150000    576.000000
 -0.250000 -0.250000  0.150000    288.000000
  0.250000  0.250000  0.250000     96.000000
  0.350000  0.250000  0.250000    288.000000
  0.450000  0.250000  0.250000    288.000000
 -0.450000  0.250000  0.250000    288.000000
 -0.350000  0.250000  0.250000    288.000000
 -0.250000  0.250000  0.250000    288.000000
  0.350000  0.350000  0.250000    288.000000
  0.450000  0.350000  0.250000    576.000000
 -0.450000  0.350000  0.250000    576.000000
 -0.350000  0.350000  0.250000    576.000000
 -0.250000  0.350000  0.250000    576.000000
  0.450000  0.450000  0.250000    288.000000
 -0.450000  0.450000  0.250000    576.000000
 -0.350000  0.450000  0.250000    576.000000
 -0.250000  0.450000  0.250000    576.000000
 -0.450000 -0.450000  0.250000    288.000000
 -0.350000 -0.450000  0.250000    576.000000
 -0.350000 -0.350000  0.250000    288.000000
  0.350000  0.350000  0.350000     96.000000
  0.450000  0.350000  0.350000    288.000000
 -0.450000  0.350000  0.350000    288.000000
 -0.350000  0.350000  0.350000    288.000000
  0.450000  0.450000  0.350000    288.000000
 -0.450000  0.450000  0.350000    576.000000
 -0.350000  0.450000  0.350000    576.000000
 -0.450000 -0.450000  0.350000    288.000000
  0.450000  0.450000  0.450000     96.000000
 -0.450000  0.450000  0.450000    288.000000
 
 Following cartesian coordinates:
            Coordinates               Weight
  0.050000  0.050000  0.050000     96.000000
 -0.050000  0.150000  0.150000    288.000000
 -0.150000  0.250000  0.250000    288.000000
 -0.250000  0.350000  0.350000    288.000000
 -0.350000  0.450000  0.450000    288.000000
  0.550000 -0.450000 -0.450000    288.000000
  0.450000 -0.350000 -0.350000    288.000000
  0.350000 -0.250000 -0.250000    288.000000
  0.250000 -0.150000 -0.150000    288.000000
  0.150000 -0.050000 -0.050000    288.000000
  0.050000  0.050000  0.250000    288.000000
 -0.050000  0.150000  0.350000    576.000000
 -0.150000  0.250000  0.450000    576.000000
 -0.250000  0.350000  0.550000    576.000000
  0.650000 -0.550000 -0.350000    576.000000
  0.550000 -0.450000 -0.250000    576.000000
  0.450000 -0.350000 -0.150000    576.000000
  0.350000 -0.250000 -0.050000    576.000000
  0.250000 -0.150000  0.050000    576.000000
  0.050000  0.050000  0.450000    288.000000
 -0.050000  0.150000  0.550000    576.000000
 -0.150000  0.250000  0.650000    576.000000
  0.750000 -0.650000 -0.250000    576.000000
  0.650000 -0.550000 -0.150000    576.000000
  0.550000 -0.450000 -0.050000    576.000000
  0.450000 -0.350000  0.050000    576.000000
  0.350000 -0.250000  0.150000    576.000000
  0.050000  0.050000  0.650000    288.000000
 -0.050000  0.150000  0.750000    576.000000
  0.850000 -0.750000 -0.150000    576.000000
  0.750000 -0.650000 -0.050000    576.000000
  0.650000 -0.550000  0.050000    576.000000
  0.550000 -0.450000  0.150000    576.000000
  0.450000 -0.350000  0.250000    576.000000
  0.050000  0.050000  0.850000    288.000000
  0.950000 -0.850000 -0.050000    576.000000
  0.850000 -0.750000  0.050000    576.000000
  0.750000 -0.650000  0.150000    576.000000
  0.650000 -0.550000  0.250000    576.000000
  0.550000 -0.450000  0.350000    576.000000
  0.050000  0.050000 -0.950000    288.000000
 -0.050000  0.150000 -0.850000    576.000000
 -0.150000  0.250000 -0.750000    576.000000
 -0.250000  0.350000 -0.650000    576.000000
  0.050000  0.050000 -0.750000    288.000000
 -0.050000  0.150000 -0.650000    576.000000
 -0.150000  0.250000 -0.550000    576.000000
  0.050000  0.050000 -0.550000    288.000000
 -0.050000  0.150000 -0.450000    576.000000
  0.050000  0.050000 -0.350000    288.000000
  0.150000  0.150000  0.150000     96.000000
  0.050000  0.250000  0.250000    288.000000
 -0.050000  0.350000  0.350000    288.000000
 -0.150000  0.450000  0.450000    288.000000
  0.750000 -0.450000 -0.450000    288.000000
  0.650000 -0.350000 -0.350000    288.000000
  0.550000 -0.250000 -0.250000    288.000000
  0.450000 -0.150000 -0.150000    288.000000
  0.150000  0.150000  0.350000    288.000000
  0.050000  0.250000  0.450000    576.000000
 -0.050000  0.350000  0.550000    576.000000
  0.850000 -0.550000 -0.350000    576.000000
  0.750000 -0.450000 -0.250000    576.000000
  0.650000 -0.350000 -0.150000    576.000000
  0.550000 -0.250000 -0.050000    576.000000
  0.150000  0.150000  0.550000    288.000000
  0.050000  0.250000  0.650000    576.000000
  0.950000 -0.650000 -0.250000    576.000000
  0.850000 -0.550000 -0.150000    576.000000
  0.750000 -0.450000 -0.050000    576.000000
  0.650000 -0.350000  0.050000    576.000000
  0.150000  0.150000  0.750000    288.000000
  1.050000 -0.750000 -0.150000    576.000000
  0.950000 -0.650000 -0.050000    576.000000
  0.850000 -0.550000  0.050000    576.000000
  0.750000 -0.450000  0.150000    576.000000
  0.150000  0.150000 -1.050000    288.000000
  0.050000  0.250000 -0.950000    576.000000
 -0.050000  0.350000 -0.850000    576.000000
  0.150000  0.150000 -0.850000    288.000000
  0.050000  0.250000 -0.750000    576.000000
  0.150000  0.150000 -0.650000    288.000000
  0.250000  0.250000  0.250000     96.000000
  0.150000  0.350000  0.350000    288.000000
  0.050000  0.450000  0.450000    288.000000
  0.950000 -0.450000 -0.450000    288.000000
  0.850000 -0.350000 -0.350000    288.000000
  0.750000 -0.250000 -0.250000    288.000000
  0.250000  0.250000  0.450000    288.000000
  0.150000  0.350000  0.550000    576.000000
  1.050000 -0.550000 -0.350000    576.000000
  0.950000 -0.450000 -0.250000    576.000000
  0.850000 -0.350000 -0.150000    576.000000
  0.250000  0.250000  0.650000    288.000000
  1.150000 -0.650000 -0.250000    576.000000
  1.050000 -0.550000 -0.150000    576.000000
  0.950000 -0.450000 -0.050000    576.000000
  0.250000  0.250000 -1.150000    288.000000
  0.150000  0.350000 -1.050000    576.000000
  0.250000  0.250000 -0.950000    288.000000
  0.350000  0.350000  0.350000     96.000000
  0.250000  0.450000  0.450000    288.000000
  1.150000 -0.450000 -0.450000    288.000000
  1.050000 -0.350000 -0.350000    288.000000
  0.350000  0.350000  0.550000    288.000000
  1.250000 -0.550000 -0.350000    576.000000
  1.150000 -0.450000 -0.250000    576.000000
  0.350000  0.350000 -1.250000    288.000000
  0.450000  0.450000  0.450000     96.000000
  1.350000 -0.450000 -0.450000    288.000000
 


--------------------------------------------------------------------------------------------------------




 Dimension of arrays:
   k-points           NKPTS =    110   k-points in BZ     NKDIM =    110   number of bands    NBANDS=     30
   number of dos      NEDOS =    301   number of ions     NIONS =      3
   non local maximal  LDIM  =      6   non local SUM 2l+1 LMDIM =     18
   total plane-waves  NPLWV =   4096
   max r-space proj   IRMAX =      1   max aug-charges    IRDMAX=   4838
   dimension x,y,z NGX =    16 NGY =   16 NGZ =   16
   dimension x,y,z NGXF=    32 NGYF=   32 NGZF=   32
   support grid    NGXF=    32 NGYF=   32 NGZF=   32
   ions per type =               1   2
 NGX,Y,Z   is equivalent  to a cutoff of   6.27,  6.27,  6.27 a.u.
 NGXF,Y,Z  is equivalent  to a cutoff of  12.54, 12.54, 12.54 a.u.


 I would recommend the setting:
   dimension x,y,z NGX =    16 NGY =   16 NGZ =   16
 SYSTEM =  AuAl2                                   
 POSCAR =  AuAl2                                   

 Startparameter for this run:
   NWRITE =      2    write-flag & timer
   PREC   = normal    normal or accurate (medium, high low for compatibility)
   ISTART =      0    job   : 0-new  1-cont  2-samecut
   ICHARG =      2    charge: 1-file 2-atom 10-const
   ISPIN  =      1    spin polarized calculation?
   LNONCOLLINEAR =      F non collinear calculations
   LSORBIT =      F    spin-orbit coupling
   INIWAV =      1    electr: 0-lowe 1-rand  2-diag
   LASPH  =      F    aspherical Exc in radial PAW
   METAGGA=      F    non-selfconsistent MetaGGA calc.

 Electronic Relaxation 1
   ENCUT  =  241.0 eV  17.71 Ry    4.21 a.u.   5.37  5.37  5.37*2*pi/ulx,y,z
   ENINI  =  241.0     initial cutoff
   ENAUG  =  356.7 eV  augmentation charge cutoff
   NELM   =     60;   NELMIN=  2; NELMDL= -5     # of ELM steps 
   EDIFF  = 0.1E-03   stopping-criterion for ELM
   LREAL  =      F    real-space projection
   NLSPLINE    = F    spline interpolate recip. space projectors
   LCOMPAT=      F    compatible to vasp.4.4
   GGA_COMPAT  = T    GGA compatible to vasp.4.4-vasp.4.6
   LMAXPAW     = -100 max onsite density
   LMAXMIX     =    2 max onsite mixed and CHGCAR
   VOSKOWN=      0    Vosko Wilk Nusair interpolation
   ROPT   =    0.00000   0.00000
 Ionic relaxation
   EDIFFG = 0.1E-02   stopping-criterion for IOM
   NSW    =      0    number of steps for IOM
   NBLOCK =      1;   KBLOCK =      1    inner block; outer block 
   IBRION =     -1    ionic relax: 0-MD 1-quasi-New 2-CG
   NFREE  =      0    steps in history (QN), initial steepest desc. (CG)
   ISIF   =      2    stress and relaxation
   IWAVPR =      0    prediction:  0-non 1-charg 2-wave 3-comb
   ISYM   =      2    0-nonsym 1-usesym 2-fastsym
   LCORR  =      T    Harris-Foulkes like correction to forces

   POTIM  = 0.5000    time-step for ionic-motion
   TEIN   =    0.0    initial temperature
   TEBEG  =    0.0;   TEEND  =   0.0 temperature during run
   SMASS  =  -3.00    Nose mass-parameter (am)
   estimated Nose-frequenzy (Omega)   =  0.10E-29 period in steps =****** mass=  -0.411E-27a.u.
   SCALEE = 1.0000    scale energy and forces
   NPACO  =    256;   APACO  = 16.0  distance and # of slots for P.C.
   PSTRESS=    0.0 pullay stress

  Mass of Ions in am
   POMASS = 196.97 26.98
  Ionic Valenz
   ZVAL   =  11.00  3.00
  Atomic Wigner-Seitz radii
   RWIGS  =   1.50  1.40
  virtual crystal weights 
   VCA    =   1.00  1.00
   NELECT =      17.0000    total number of electrons
   NUPDOWN=      -1.0000    fix difference up-down

 DOS related values:
   EMIN   =  10.00;   EMAX   =-10.00  energy-range for DOS
   EFERMI =   0.00
   ISMEAR =     1;   SIGMA  =   0.20  broadening in eV -4-tet -1-fermi 0-gaus

 Electronic relaxation 2 (details)
   IALGO  =     38    algorithm
   LDIAG  =      T    sub-space diagonalisation (order eigenvalues)
   LSUBROT=      F    optimize rotation matrix (better conditioning)
   TURBO    =      0    0=normal 1=particle mesh
   IRESTART =      0    0=no restart 2=restart with 2 vectors
   NREBOOT  =      0    no. of reboots
   NMIN     =      0    reboot dimension
   EREF     =   0.00    reference energy to select bands
   IMIX   =      4    mixing-type and parameters
     AMIX     =   0.40;   BMIX     =  1.00
     AMIX_MAG =   1.60;   BMIX_MAG =  1.00
     AMIN     =   0.10
     WC   =   100.;   INIMIX=   1;  MIXPRE=   1;  MAXMIX= -45

 Intra band minimization:
   WEIMIN = 0.0000     energy-eigenvalue tresh-hold
   EBREAK =  0.83E-06  absolut break condition
   DEPER  =   0.30     relativ break condition  

   TIME   =   0.40     timestep for ELM

  volume/ion in A,a.u.               =      18.00       121.47
  Fermi-wavevector in a.u.,A,eV,Ry     =   1.113679  2.104547 16.875035  1.240280
  Thomas-Fermi vector in A             =   2.250266
 
 Write flags
   LWAVE  =      T    write WAVECAR
   LCHARG =      T    write CHGCAR
   LVTOT  =      F    write LOCPOT, total local potential
   LVHAR  =      F    write LOCPOT, Hartree potential only
   LELF   =      F    write electronic localiz. function (ELF)
   LORBIT =      0    0 simple, 1 ext, 2 COOP (PROOUT)


 Dipole corrections
   LMONO  =      F    monopole corrections only (constant potential shift)
   LDIPOL =      F    correct potential (dipole corrections)
   IDIPOL =      0    1-x, 2-y, 3-z, 4-all directions 
   EPSILON=  1.0000000 bulk dielectric constant

 Exchange correlation treatment:
   GGA     =    --    GGA type
   LEXCH   =     2    internal setting for exchange type
   VOSKOWN=      0    Vosko Wilk Nusair interpolation
   LHFCALC =     F    Hartree Fock is set to
   LHFONE  =     F    Hartree Fock one center treatment
   AEXX    =    0.0000 exact exchange contribution

 Linear response parameters
   LEPSILON=     F    determine dielectric tensor
   LRPA    =     F    only Hartree local field effects (RPA)
   LNABLA  =     F    use nabla operator in PAW spheres
   LVEL    =     F    velocity operator in full k-point grid
   LINTERFAST=   F  fast interpolation
   KINTER  =     0    interpolate to denser k-point grid
   CSHIFT  =0.1000    complex shift for real part using Kramers Kronig
   OMEGAMAX=  -1.0    maximum frequency
   DEG_THRESHOLD= 0.2000000E-02 threshold for treating states as degnerate
   RTIME   =    0.100 relaxation time in fs

 Orbital magnetization related:
   ORBITALMAG=     F  switch on orbital magnetization
   LCHIMAG   =     F  perturbation theory with respect to B field
   DQ        =  0.001000  dq finite difference perturbation B field



--------------------------------------------------------------------------------------------------------


 Static calculation
 charge density and potential will be updated during run
 non-spin polarized calculation
 Variant of blocked Davidson
 Davidson routine will perform the subspace rotation
 perform sub-space diagonalisation
    after iterative eigenvector-optimisation
 modified Broyden-mixing scheme, WC =      100.0
 initial mixing is a Kerker type mixing with AMIX =  0.4000 and BMIX =      1.0000
 Hartree-type preconditioning will be used
 using additional bands           21
 reciprocal scheme for non local part
 use partial core corrections
 calculate Harris-corrections to forces 
   (improved forces if not selfconsistent)
 use of overlap-Matrix (Vanderbilt PP)
 Methfessel and Paxton  Order N= 1 SIGMA  =   0.20


--------------------------------------------------------------------------------------------------------


  energy-cutoff  :      240.96
  volume of cell :       54.00
      direct lattice vectors                 reciprocal lattice vectors
     0.000000000  3.000000000  3.000000000    -0.166666667  0.166666667  0.166666667
     3.000000000  0.000000000  3.000000000     0.166666667 -0.166666667  0.166666667
     3.000000000  3.000000000  0.000000000     0.166666667  0.166666667 -0.166666667

  length of vectors
     4.242640687  4.242640687  4.242640687     0.288675135  0.288675135  0.288675135


 
 k-points in units of 2pi/SCALE and weight: 10X10x10                                
   0.05000000  0.05000000  0.05000000       0.002
  -0.05000000  0.15000000  0.15000000       0.006
  -0.15000000  0.25000000  0.25000000       0.006
  -0.25000000  0.35000000  0.35000000       0.006
  -0.35000000  0.45000000  0.45000000       0.006
   0.55000000 -0.45000000 -0.45000000       0.006
   0.45000000 -0.35000000 -0.35000000       0.006
   0.35000000 -0.25000000 -0.25000000       0.006
   0.25000000 -0.15000000 -0.15000000       0.006
   0.15000000 -0.05000000 -0.05000000       0.006
   0.05000000  0.05000000  0.25000000       0.006
  -0.05000000  0.15000000  0.35000000       0.012
  -0.15000000  0.25000000  0.45000000       0.012
  -0.25000000  0.35000000  0.55000000       0.012
   0.65000000 -0.55000000 -0.35000000       0.012
   0.55000000 -0.45000000 -0.25000000       0.012
   0.45000000 -0.35000000 -0.15000000       0.012
   0.35000000 -0.25000000 -0.05000000       0.012
   0.25000000 -0.15000000  0.05000000       0.012
   0.05000000  0.05000000  0.45000000       0.006
  -0.05000000  0.15000000  0.55000000       0.012
  -0.15000000  0.25000000  0.65000000       0.012
   0.75000000 -0.65000000 -0.25000000       0.012
   0.65000000 -0.55000000 -0.15000000       0.012
   0.55000000 -0.45000000 -0.05000000       0.012
   0.45000000 -0.35000000  0.05000000       0.012
   0.35000000 -0.25000000  0.15000000       0.012
   0.05000000  0.05000000  0.65000000       0.006
  -0.05000000  0.15000000  0.75000000       0.012
   0.85000000 -0.75000000 -0.15000000       0.012
   0.75000000 -0.65000000 -0.05000000       0.012
   0.65000000 -0.55000000  0.05000000       0.012
   0.55000000 -0.45000000  0.15000000       0.012
   0.45000000 -0.35000000  0.25000000       0.012
   0.05000000  0.05000000  0.85000000       0.006
   0.95000000 -0.85000000 -0.05000000       0.012
   0.85000000 -0.75000000  0.05000000       0.012
   0.75000000 -0.65000000  0.15000000       0.012
   0.65000000 -0.55000000  0.25000000       0.012
   0.55000000 -0.45000000  0.35000000       0.012
   0.05000000  0.05000000 -0.95000000       0.006
  -0.05000000  0.15000000 -0.85000000       0.012
  -0.15000000  0.25000000 -0.75000000       0.012
  -0.25000000  0.35000000 -0.65000000       0.012
   0.05000000  0.05000000 -0.75000000       0.006
  -0.05000000  0.15000000 -0.65000000       0.012
  -0.15000000  0.25000000 -0.55000000       0.012
   0.05000000  0.05000000 -0.55000000       0.006
  -0.05000000  0.15000000 -0.45000000       0.012
   0.05000000  0.05000000 -0.35000000       0.006
   0.15000000  0.15000000  0.15000000       0.002
   0.05000000  0.25000000  0.25000000       0.006
  -0.05000000  0.35000000  0.35000000       0.006
  -0.15000000  0.45000000  0.45000000       0.006
   0.75000000 -0.45000000 -0.45000000       0.006
   0.65000000 -0.35000000 -0.35000000       0.006
   0.55000000 -0.25000000 -0.25000000       0.006
   0.45000000 -0.15000000 -0.15000000       0.006
   0.15000000  0.15000000  0.35000000       0.006
   0.05000000  0.25000000  0.45000000       0.012
  -0.05000000  0.35000000  0.55000000       0.012
   0.85000000 -0.55000000 -0.35000000       0.012
   0.75000000 -0.45000000 -0.25000000       0.012
   0.65000000 -0.35000000 -0.15000000       0.012
   0.55000000 -0.25000000 -0.05000000       0.012
   0.15000000  0.15000000  0.55000000       0.006
   0.05000000  0.25000000  0.65000000       0.012
   0.95000000 -0.65000000 -0.25000000       0.012
   0.85000000 -0.55000000 -0.15000000       0.012
   0.75000000 -0.45000000 -0.05000000       0.012
   0.65000000 -0.35000000  0.05000000       0.012
   0.15000000  0.15000000  0.75000000       0.006
   1.05000000 -0.75000000 -0.15000000       0.012
   0.95000000 -0.65000000 -0.05000000       0.012
   0.85000000 -0.55000000  0.05000000       0.012
   0.75000000 -0.45000000  0.15000000       0.012
   0.15000000  0.15000000 -1.05000000       0.006
   0.05000000  0.25000000 -0.95000000       0.012
  -0.05000000  0.35000000 -0.85000000       0.012
   0.15000000  0.15000000 -0.85000000       0.006
   0.05000000  0.25000000 -0.75000000       0.012
   0.15000000  0.15000000 -0.65000000       0.006
   0.25000000  0.25000000  0.25000000       0.002
   0.15000000  0.35000000  0.35000000       0.006
   0.05000000  0.45000000  0.45000000       0.006
   0.95000000 -0.45000000 -0.45000000       0.006
   0.85000000 -0.35000000 -0.35000000       0.006
   0.75000000 -0.25000000 -0.25000000       0.006
   0.25000000  0.25000000  0.45000000       0.006
   0.15000000  0.35000000  0.55000000       0.012
   1.05000000 -0.55000000 -0.35000000       0.012
   0.95000000 -0.45000000 -0.25000000       0.012
   0.85000000 -0.35000000 -0.15000000       0.012
   0.25000000  0.25000000  0.65000000       0.006
   1.15000000 -0.65000000 -0.25000000       0.012
   1.05000000 -0.55000000 -0.15000000       0.012
   0.95000000 -0.45000000 -0.05000000       0.012
   0.25000000  0.25000000 -1.15000000       0.006
   0.15000000  0.35000000 -1.05000000       0.012
   0.25000000  0.25000000 -0.95000000       0.006
   0.35000000  0.35000000  0.35000000       0.002
   0.25000000  0.45000000  0.45000000       0.006
   1.15000000 -0.45000000 -0.45000000       0.006
   1.05000000 -0.35000000 -0.35000000       0.006
   0.35000000  0.35000000  0.55000000       0.006
   1.25000000 -0.55000000 -0.35000000       0.012
   1.15000000 -0.45000000 -0.25000000       0.012
   0.35000000  0.35000000 -1.25000000       0.006
   0.45000000  0.45000000  0.45000000       0.002
   1.35000000 -0.45000000 -0.45000000       0.006
 
 k-points in reciprocal lattice and weights: 10X10x10                                
   0.05000000  0.05000000  0.05000000       0.002
   0.15000000  0.05000000  0.05000000       0.006
   0.25000000  0.05000000  0.05000000       0.006
   0.35000000  0.05000000  0.05000000       0.006
   0.45000000  0.05000000  0.05000000       0.006
  -0.45000000  0.05000000  0.05000000       0.006
  -0.35000000  0.05000000  0.05000000       0.006
  -0.25000000  0.05000000  0.05000000       0.006
  -0.15000000  0.05000000  0.05000000       0.006
  -0.05000000  0.05000000  0.05000000       0.006
   0.15000000  0.15000000  0.05000000       0.006
   0.25000000  0.15000000  0.05000000       0.012
   0.35000000  0.15000000  0.05000000       0.012
   0.45000000  0.15000000  0.05000000       0.012
  -0.45000000  0.15000000  0.05000000       0.012
  -0.35000000  0.15000000  0.05000000       0.012
  -0.25000000  0.15000000  0.05000000       0.012
  -0.15000000  0.15000000  0.05000000       0.012
  -0.05000000  0.15000000  0.05000000       0.012
   0.25000000  0.25000000  0.05000000       0.006
   0.35000000  0.25000000  0.05000000       0.012
   0.45000000  0.25000000  0.05000000       0.012
  -0.45000000  0.25000000  0.05000000       0.012
  -0.35000000  0.25000000  0.05000000       0.012
  -0.25000000  0.25000000  0.05000000       0.012
  -0.15000000  0.25000000  0.05000000       0.012
  -0.05000000  0.25000000  0.05000000       0.012
   0.35000000  0.35000000  0.05000000       0.006
   0.45000000  0.35000000  0.05000000       0.012
  -0.45000000  0.35000000  0.05000000       0.012
  -0.35000000  0.35000000  0.05000000       0.012
  -0.25000000  0.35000000  0.05000000       0.012
  -0.15000000  0.35000000  0.05000000       0.012
  -0.05000000  0.35000000  0.05000000       0.012
   0.45000000  0.45000000  0.05000000       0.006
  -0.45000000  0.45000000  0.05000000       0.012
  -0.35000000  0.45000000  0.05000000       0.012
  -0.25000000  0.45000000  0.05000000       0.012
  -0.15000000  0.45000000  0.05000000       0.012
  -0.05000000  0.45000000  0.05000000       0.012
  -0.45000000 -0.45000000  0.05000000       0.006
  -0.35000000 -0.45000000  0.05000000       0.012
  -0.25000000 -0.45000000  0.05000000       0.012
  -0.15000000 -0.45000000  0.05000000       0.012
  -0.35000000 -0.35000000  0.05000000       0.006
  -0.25000000 -0.35000000  0.05000000       0.012
  -0.15000000 -0.35000000  0.05000000       0.012
  -0.25000000 -0.25000000  0.05000000       0.006
  -0.15000000 -0.25000000  0.05000000       0.012
  -0.15000000 -0.15000000  0.05000000       0.006
   0.15000000  0.15000000  0.15000000       0.002
   0.25000000  0.15000000  0.15000000       0.006
   0.35000000  0.15000000  0.15000000       0.006
   0.45000000  0.15000000  0.15000000       0.006
  -0.45000000  0.15000000  0.15000000       0.006
  -0.35000000  0.15000000  0.15000000       0.006
  -0.25000000  0.15000000  0.15000000       0.006
  -0.15000000  0.15000000  0.15000000       0.006
   0.25000000  0.25000000  0.15000000       0.006
   0.35000000  0.25000000  0.15000000       0.012
   0.45000000  0.25000000  0.15000000       0.012
  -0.45000000  0.25000000  0.15000000       0.012
  -0.35000000  0.25000000  0.15000000       0.012
  -0.25000000  0.25000000  0.15000000       0.012
  -0.15000000  0.25000000  0.15000000       0.012
   0.35000000  0.35000000  0.15000000       0.006
   0.45000000  0.35000000  0.15000000       0.012
  -0.45000000  0.35000000  0.15000000       0.012
  -0.35000000  0.35000000  0.15000000       0.012
  -0.25000000  0.35000000  0.15000000       0.012
  -0.15000000  0.35000000  0.15000000       0.012
   0.45000000  0.45000000  0.15000000       0.006
  -0.45000000  0.45000000  0.15000000       0.012
  -0.35000000  0.45000000  0.15000000       0.012
  -0.25000000  0.45000000  0.15000000       0.012
  -0.15000000  0.45000000  0.15000000       0.012
  -0.45000000 -0.45000000  0.15000000       0.006
  -0.35000000 -0.45000000  0.15000000       0.012
  -0.25000000 -0.45000000  0.15000000       0.012
  -0.35000000 -0.35000000  0.15000000       0.006
  -0.25000000 -0.35000000  0.15000000       0.012
  -0.25000000 -0.25000000  0.15000000       0.006
   0.25000000  0.25000000  0.25000000       0.002
   0.35000000  0.25000000  0.25000000       0.006
   0.45000000  0.25000000  0.25000000       0.006
  -0.45000000  0.25000000  0.25000000       0.006
  -0.35000000  0.25000000  0.25000000       0.006
  -0.25000000  0.25000000  0.25000000       0.006
   0.35000000  0.35000000  0.25000000       0.006
   0.45000000  0.35000000  0.25000000       0.012
  -0.45000000  0.35000000  0.25000000       0.012
  -0.35000000  0.35000000  0.25000000       0.012
  -0.25000000  0.35000000  0.25000000       0.012
   0.45000000  0.45000000  0.25000000       0.006
  -0.45000000  0.45000000  0.25000000       0.012
  -0.35000000  0.45000000  0.25000000       0.012
  -0.25000000  0.45000000  0.25000000       0.012
  -0.45000000 -0.45000000  0.25000000       0.006
  -0.35000000 -0.45000000  0.25000000       0.012
  -0.35000000 -0.35000000  0.25000000       0.006
   0.35000000  0.35000000  0.35000000       0.002
   0.45000000  0.35000000  0.35000000       0.006
  -0.45000000  0.35000000  0.35000000       0.006
  -0.35000000  0.35000000  0.35000000       0.006
   0.45000000  0.45000000  0.35000000       0.006
  -0.45000000  0.45000000  0.35000000       0.012
  -0.35000000  0.45000000  0.35000000       0.012
  -0.45000000 -0.45000000  0.35000000       0.006
   0.45000000  0.45000000  0.45000000       0.002
  -0.45000000  0.45000000  0.45000000       0.006
 
 position of ions in fractional coordinates (direct lattice) 
   0.00000000  0.00000000  0.00000000
   0.25000000  0.25000000  0.25000000
   0.75000000  0.75000000  0.75000000
 
 position of ions in cartesian coordinates  (Angst):
   0.00000000  0.00000000  0.00000000
   1.50000000  1.50000000  1.50000000
   4.50000000  4.50000000  4.50000000
 


--------------------------------------------------------------------------------------------------------


 k-point  1 :   0.0500 0.0500 0.0500  plane waves:     459
 k-point  2 :   0.1500 0.0500 0.0500  plane waves:     469
 k-point  3 :   0.2500 0.0500 0.0500  plane waves:     471
 k-point  4 :   0.3500 0.0500 0.0500  plane waves:     461
 k-point  5 :   0.4500 0.0500 0.0500  plane waves:     461
 k-point  6 :  -0.4500 0.0500 0.0500  plane waves:     460
 k-point  7 :  -0.3500 0.0500 0.0500  plane waves:     460
 k-point  8 :  -0.2500 0.0500 0.0500  plane waves:     467
 k-point  9 :  -0.1500 0.0500 0.0500  plane waves:     471
 k-point 10 :  -0.0500 0.0500 0.0500  plane waves:     470
 k-point 11 :   0.1500 0.1500 0.0500  plane waves:     470
 k-point 12 :   0.2500 0.1500 0.0500  plane waves:     468
 k-point 13 :   0.3500 0.1500 0.0500  plane waves:     458
 k-point 14 :   0.4500 0.1500 0.0500  plane waves:     454
 k-point 15 :  -0.4500 0.1500 0.0500  plane waves:     456
 k-point 16 :  -0.3500 0.1500 0.0500  plane waves:     456
 k-point 17 :  -0.2500 0.1500 0.0500  plane waves:     460
 k-point 18 :  -0.1500 0.1500 0.0500  plane waves:     464
 k-point 19 :  -0.0500 0.1500 0.0500  plane waves:     465
 k-point 20 :   0.2500 0.2500 0.0500  plane waves:     465
 k-point 21 :   0.3500 0.2500 0.0500  plane waves:     456
 k-point 22 :   0.4500 0.2500 0.0500  plane waves:     457
 k-point 23 :  -0.4500 0.2500 0.0500  plane waves:     457
 k-point 24 :  -0.3500 0.2500 0.0500  plane waves:     455
 k-point 25 :  -0.2500 0.2500 0.0500  plane waves:     458
 k-point 26 :  -0.1500 0.2500 0.0500  plane waves:     462
 k-point 27 :  -0.0500 0.2500 0.0500  plane waves:     466
 k-point 28 :   0.3500 0.3500 0.0500  plane waves:     452
 k-point 29 :   0.4500 0.3500 0.0500  plane waves:     456
 k-point 30 :  -0.4500 0.3500 0.0500  plane waves:     458
 k-point 31 :  -0.3500 0.3500 0.0500  plane waves:     456
 k-point 32 :  -0.2500 0.3500 0.0500  plane waves:     455
 k-point 33 :  -0.1500 0.3500 0.0500  plane waves:     456
 k-point 34 :  -0.0500 0.3500 0.0500  plane waves:     455
 k-point 35 :   0.4500 0.4500 0.0500  plane waves:     456
 k-point 36 :  -0.4500 0.4500 0.0500  plane waves:     458
 k-point 37 :  -0.3500 0.4500 0.0500  plane waves:     460
 k-point 38 :  -0.2500 0.4500 0.0500  plane waves:     457
 k-point 39 :  -0.1500 0.4500 0.0500  plane waves:     455
 k-point 40 :  -0.0500 0.4500 0.0500  plane waves:     457
 k-point 41 :  -0.4500-0.4500 0.0500  plane waves:     460
 k-point 42 :  -0.3500-0.4500 0.0500  plane waves:     456
 k-point 43 :  -0.2500-0.4500 0.0500  plane waves:     458
 k-point 44 :  -0.1500-0.4500 0.0500  plane waves:     457
 k-point 45 :  -0.3500-0.3500 0.0500  plane waves:     456
 k-point 46 :  -0.2500-0.3500 0.0500  plane waves:     456
 k-point 47 :  -0.1500-0.3500 0.0500  plane waves:     454
 k-point 48 :  -0.2500-0.2500 0.0500  plane waves:     460
 k-point 49 :  -0.1500-0.2500 0.0500  plane waves:     464
 k-point 50 :  -0.1500-0.1500 0.0500  plane waves:     466
 k-point 51 :   0.1500 0.1500 0.1500  plane waves:     471
 k-point 52 :   0.2500 0.1500 0.1500  plane waves:     469
 k-point 53 :   0.3500 0.1500 0.1500  plane waves:     465
 k-point 54 :   0.4500 0.1500 0.1500  plane waves:     457
 k-point 55 :  -0.4500 0.1500 0.1500  plane waves:     454
 k-point 56 :  -0.3500 0.1500 0.1500  plane waves:     456
 k-point 57 :  -0.2500 0.1500 0.1500  plane waves:     456
 k-point 58 :  -0.1500 0.1500 0.1500  plane waves:     468
 k-point 59 :   0.2500 0.2500 0.1500  plane waves:     466
 k-point 60 :   0.3500 0.2500 0.1500  plane waves:     463
 k-point 61 :   0.4500 0.2500 0.1500  plane waves:     459
 k-point 62 :  -0.4500 0.2500 0.1500  plane waves:     459
 k-point 63 :  -0.3500 0.2500 0.1500  plane waves:     457
 k-point 64 :  -0.2500 0.2500 0.1500  plane waves:     456
 k-point 65 :  -0.1500 0.2500 0.1500  plane waves:     460
 k-point 66 :   0.3500 0.3500 0.1500  plane waves:     453
 k-point 67 :   0.4500 0.3500 0.1500  plane waves:     458
 k-point 68 :  -0.4500 0.3500 0.1500  plane waves:     456
 k-point 69 :  -0.3500 0.3500 0.1500  plane waves:     456
 k-point 70 :  -0.2500 0.3500 0.1500  plane waves:     456
 k-point 71 :  -0.1500 0.3500 0.1500  plane waves:     458
 k-point 72 :   0.4500 0.4500 0.1500  plane waves:     461
 k-point 73 :  -0.4500 0.4500 0.1500  plane waves:     457
 k-point 74 :  -0.3500 0.4500 0.1500  plane waves:     460
 k-point 75 :  -0.2500 0.4500 0.1500  plane waves:     461
 k-point 76 :  -0.1500 0.4500 0.1500  plane waves:     455
 k-point 77 :  -0.4500-0.4500 0.1500  plane waves:     459
 k-point 78 :  -0.3500-0.4500 0.1500  plane waves:     459
 k-point 79 :  -0.2500-0.4500 0.1500  plane waves:     458
 k-point 80 :  -0.3500-0.3500 0.1500  plane waves:     458
 k-point 81 :  -0.2500-0.3500 0.1500  plane waves:     459
 k-point 82 :  -0.2500-0.2500 0.1500  plane waves:     456
 k-point 83 :   0.2500 0.2500 0.2500  plane waves:     465
 k-point 84 :   0.3500 0.2500 0.2500  plane waves:     463
 k-point 85 :   0.4500 0.2500 0.2500  plane waves:     459
 k-point 86 :  -0.4500 0.2500 0.2500  plane waves:     454
 k-point 87 :  -0.3500 0.2500 0.2500  plane waves:     455
 k-point 88 :  -0.2500 0.2500 0.2500  plane waves:     453
 k-point 89 :   0.3500 0.3500 0.2500  plane waves:     459
 k-point 90 :   0.4500 0.3500 0.2500  plane waves:     456
 k-point 91 :  -0.4500 0.3500 0.2500  plane waves:     460
 k-point 92 :  -0.3500 0.3500 0.2500  plane waves:     458
 k-point 93 :  -0.2500 0.3500 0.2500  plane waves:     459
 k-point 94 :   0.4500 0.4500 0.2500  plane waves:     453
 k-point 95 :  -0.4500 0.4500 0.2500  plane waves:     455
 k-point 96 :  -0.3500 0.4500 0.2500  plane waves:     457
 k-point 97 :  -0.2500 0.4500 0.2500  plane waves:     457
 k-point 98 :  -0.4500-0.4500 0.2500  plane waves:     456
 k-point 99 :  -0.3500-0.4500 0.2500  plane waves:     454
 k-point ** :  -0.3500-0.3500 0.2500  plane waves:     457
 k-point ** :   0.3500 0.3500 0.3500  plane waves:     468
 k-point ** :   0.4500 0.3500 0.3500  plane waves:     459
 k-point ** :  -0.4500 0.3500 0.3500  plane waves:     456
 k-point ** :  -0.3500 0.3500 0.3500  plane waves:     454
 k-point ** :   0.4500 0.4500 0.3500  plane waves:     456
 k-point ** :  -0.4500 0.4500 0.3500  plane waves:     459
 k-point ** :  -0.3500 0.4500 0.3500  plane waves:     461
 k-point ** :  -0.4500-0.4500 0.3500  plane waves:     456
 k-point ** :   0.4500 0.4500 0.4500  plane waves:     464
 k-point ** :  -0.4500 0.4500 0.4500  plane waves:     457

 maximum number of plane-waves:       471
 maximum index in each direction: 
   IXMAX=    5   IYMAX=    5   IZMAX=    5
   IXMIN=   -5   IYMIN=   -5   IZMIN=   -5

 WARNING: aliasing errors must be expected set NGX to  22 to avoid them
 WARNING: aliasing errors must be expected set NGY to  22 to avoid them
 WARNING: aliasing errors must be expected set NGZ to  22 to avoid them
 aliasing errors are usually negligible using standard VASP settings
 and one can safely disregard these warnings

 total amount of memory used by VASP on root node    74929. kBytes
========================================================================

   base      :      30000. kBytes
   nonl-proj :      14943. kBytes
   grid      :       3276. kBytes
   one-center:         46. kBytes
   wavefun   :      26664. kBytes
 
     INWAV:  cpu time    0.00: real time    0.01
 Broyden mixing: mesh for mixing (old mesh)
   NGX = 11   NGY = 11   NGZ = 11
  (NGX  = 32   NGY  = 32   NGZ  = 32)
  gives a total of   1331 points

 initial charge density was supplied:
 charge density of overlapping atoms calculated
 number of electron      17.0000000 magnetization 
 keeping initial charge density in first step


--------------------------------------------------------------------------------------------------------


 Maximum index for augmentation-charges         4537 (set IRDMAX)


--------------------------------------------------------------------------------------------------------


 First call to EWALD:  gamma=   0.469
 Maximum number of real-space cells 3x 3x 3
 Maximum number of reciprocal cells 3x 3x 3

    FEWALD:  cpu time    0.00: real time    0.00


----------------------------------------- Iteration    1(   1)  ---------------------------------------


    POTLOK:  cpu time    0.01: real time    0.01
    SETDIJ:  cpu time    0.00: real time    0.00
     EDDAV:  cpu time    2.32: real time    4.70
       DOS:  cpu time    0.01: real time    0.02
    --------------------------------------------
      LOOP:  cpu time    2.34: real time    4.74

 eigenvalue-minimisations  :  7128
 total energy-change (2. order) : 0.3539188E+02  (-0.3686236E+03)
 number of electron      17.0000000 magnetization 
 augmentation part       17.0000000 magnetization 

 Free energy of the ion-electron system (eV)
  ---------------------------------------------------
  alpha Z        PSCENC =        31.73895171
  Ewald energy   TEWEN  =      -915.30636464
  -Hartree energ DENC   =      -270.05090378
  -exchange      EXHF   =         0.00000000
  -V(xc)+E(xc)   XCENC  =       -34.31231386
  PAW double counting   =       942.29508067     -859.54935620
  entropy T*S    EENTRO =        -0.00137929
  eigenvalues    EBANDS =       103.63892444
  atomic energy  EATOM  =      1036.93924466
  ---------------------------------------------------
  free energy    TOTEN  =        35.39188371 eV

  energy without entropy =       35.39326300  energy(sigma->0) =       35.39234348


--------------------------------------------------------------------------------------------------------




----------------------------------------- Iteration    1(   2)  ---------------------------------------


     EDDAV:  cpu time    2.62: real time    6.40
       DOS:  cpu time    0.01: real time    0.03
    --------------------------------------------
      LOOP:  cpu time    2.64: real time    6.45

 eigenvalue-minimisations  :  8228
 total energy-change (2. order) :-0.4988994E+02  (-0.4573315E+02)
 number of electron      17.0000000 magnetization 
 augmentation part       17.0000000 magnetization 

 Free energy of the ion-electron system (eV)
  ---------------------------------------------------
  alpha Z        PSCENC =        31.73895171
  Ewald energy   TEWEN  =      -915.30636464
  -Hartree energ DENC   =      -270.05090378
  -exchange      EXHF   =         0.00000000
  -V(xc)+E(xc)   XCENC  =       -34.31231386
  PAW double counting   =       942.29508067     -859.54935620
  entropy T*S    EENTRO =        -0.00160272
  eigenvalues    EBANDS =        53.74920978
  atomic energy  EATOM  =      1036.93924466
  ---------------------------------------------------
  free energy    TOTEN  =       -14.49805438 eV

  energy without entropy =      -14.49645166  energy(sigma->0) =      -14.49752014


--------------------------------------------------------------------------------------------------------




----------------------------------------- Iteration    1(   3)  ---------------------------------------


     EDDAV:  cpu time    2.49: real time    5.03
       DOS:  cpu time    0.01: real time    0.03
    --------------------------------------------
      LOOP:  cpu time    2.50: real time    5.08

 eigenvalue-minimisations  :  7976
 total energy-change (2. order) :-0.1103237E+01  (-0.1095926E+01)
 number of electron      17.0000000 magnetization 
 augmentation part       17.0000000 magnetization 

 Free energy of the ion-electron system (eV)
  ---------------------------------------------------
  alpha Z        PSCENC =        31.73895171
  Ewald energy   TEWEN  =      -915.30636464
  -Hartree energ DENC   =      -270.05090378
  -exchange      EXHF   =         0.00000000
  -V(xc)+E(xc)   XCENC  =       -34.31231386
  PAW double counting   =       942.29508067     -859.54935620
  entropy T*S    EENTRO =        -0.00206040
  eigenvalues    EBANDS =        52.64643014
  atomic energy  EATOM  =      1036.93924466
  ---------------------------------------------------
  free energy    TOTEN  =       -15.60129170 eV

  energy without entropy =      -15.59923130  energy(sigma->0) =      -15.60060490


--------------------------------------------------------------------------------------------------------




----------------------------------------- Iteration    1(   4)  ---------------------------------------


     EDDAV:  cpu time    2.41: real time    5.37
       DOS:  cpu time    0.01: real time    0.04
    --------------------------------------------
      LOOP:  cpu time    2.42: real time    5.42

 eigenvalue-minimisations  :  7530
 total energy-change (2. order) :-0.5186054E-02  (-0.5185657E-02)
 number of electron      17.0000000 magnetization 
 augmentation part       17.0000000 magnetization 

 Free energy of the ion-electron system (eV)
  ---------------------------------------------------
  alpha Z        PSCENC =        31.73895171
  Ewald energy   TEWEN  =      -915.30636464
  -Hartree energ DENC   =      -270.05090378
  -exchange      EXHF   =         0.00000000
  -V(xc)+E(xc)   XCENC  =       -34.31231386
  PAW double counting   =       942.29508067     -859.54935620
  entropy T*S    EENTRO =        -0.00206269
  eigenvalues    EBANDS =        52.64124638
  atomic energy  EATOM  =      1036.93924466
  ---------------------------------------------------
  free energy    TOTEN  =       -15.60647775 eV

  energy without entropy =      -15.60441507  energy(sigma->0) =      -15.60579019


--------------------------------------------------------------------------------------------------------




----------------------------------------- Iteration    1(   5)  ---------------------------------------


     EDDAV:  cpu time    2.62: real time    5.51
       DOS:  cpu time    0.01: real time    0.03
    CHARGE:  cpu time    0.11: real time    0.24
    MIXING:  cpu time    0.00: real time    0.02
    --------------------------------------------
      LOOP:  cpu time    2.75: real time    5.82

 eigenvalue-minimisations  :  8000
 total energy-change (2. order) :-0.4977295E-04  (-0.4977101E-04)
 number of electron      17.0000050 magnetization 
 augmentation part        3.2612357 magnetization 

 Broyden mixing:
  rms(total) = 0.88211E+00    rms(broyden)= 0.88188E+00
  rms(prec ) = 0.22147E+01
  weight for this iteration     100.00

 Free energy of the ion-electron system (eV)
  ---------------------------------------------------
  alpha Z        PSCENC =        31.73895171
  Ewald energy   TEWEN  =      -915.30636464
  -Hartree energ DENC   =      -270.05090378
  -exchange      EXHF   =         0.00000000
  -V(xc)+E(xc)   XCENC  =       -34.31231386
  PAW double counting   =       942.29508067     -859.54935620
  entropy T*S    EENTRO =        -0.00206272
  eigenvalues    EBANDS =        52.64119664
  atomic energy  EATOM  =      1036.93924466
  ---------------------------------------------------
  free energy    TOTEN  =       -15.60652753 eV

  energy without entropy =      -15.60446481  energy(sigma->0) =      -15.60583995


--------------------------------------------------------------------------------------------------------




----------------------------------------- Iteration    1(   6)  ---------------------------------------


    POTLOK:  cpu time    0.01: real time    0.01
    SETDIJ:  cpu time    0.00: real time    0.02
     EDDAV:  cpu time    2.54: real time    7.63
       DOS:  cpu time    0.01: real time    0.05
    CHARGE:  cpu time    0.11: real time    0.36
    MIXING:  cpu time    0.00: real time    0.00
    --------------------------------------------
      LOOP:  cpu time    2.68: real time    8.08

 eigenvalue-minimisations  :  7446
 total energy-change (2. order) : 0.1182265E+01  (-0.2098306E+00)
 number of electron      17.0000059 magnetization 
 augmentation part        3.7004158 magnetization 

 Broyden mixing:
  rms(total) = 0.36440E+00    rms(broyden)= 0.36436E+00
  rms(prec ) = 0.54422E+00
  weight for this iteration     100.00

 eigenvalues of (default mixing * dielectric matrix)
  average eigenvalue GAMMA=   0.9965
  0.9965

 Free energy of the ion-electron system (eV)
  ---------------------------------------------------
  alpha Z        PSCENC =        31.73895171
  Ewald energy   TEWEN  =      -915.30636464
  -Hartree energ DENC   =      -247.28976892
  -exchange      EXHF   =         0.00000000
  -V(xc)+E(xc)   XCENC  =       -35.07185753
  PAW double counting   =      1002.97271046     -922.75582453
  entropy T*S    EENTRO =        -0.00170228
  eigenvalues    EBANDS =        34.35034875
  atomic energy  EATOM  =      1036.93924466
  ---------------------------------------------------
  free energy    TOTEN  =       -14.42426232 eV

  energy without entropy =      -14.42256004  energy(sigma->0) =      -14.42369489


--------------------------------------------------------------------------------------------------------




----------------------------------------- Iteration    1(   7)  ---------------------------------------


    POTLOK:  cpu time    0.01: real time    0.01
    SETDIJ:  cpu time    0.00: real time    0.02
     EDDAV:  cpu time    2.51: real time    6.36
       DOS:  cpu time    0.01: real time    0.04
    CHARGE:  cpu time    0.11: real time    0.23
    MIXING:  cpu time    0.00: real time    0.00
    --------------------------------------------
      LOOP:  cpu time    2.65: real time    6.66

 eigenvalue-minimisations  :  7290
 total energy-change (2. order) : 0.1001293E+00  (-0.9533681E-02)
 number of electron      17.0000058 magnetization 
 augmentation part        3.6421185 magnetization 

 Broyden mixing:
  rms(total) = 0.18015E+00    rms(broyden)= 0.18015E+00
  rms(prec ) = 0.30401E+00
  weight for this iteration     100.00

 eigenvalues of (default mixing * dielectric matrix)
  average eigenvalue GAMMA=   1.4327
  0.8590  2.0063

 Free energy of the ion-electron system (eV)
  ---------------------------------------------------
  alpha Z        PSCENC =        31.73895171
  Ewald energy   TEWEN  =      -915.30636464
  -Hartree energ DENC   =      -249.75074996
  -exchange      EXHF   =         0.00000000
  -V(xc)+E(xc)   XCENC  =       -34.93330681
  PAW double counting   =      1062.25619148     -983.38975296
  entropy T*S    EENTRO =        -0.00194682
  eigenvalues    EBANDS =        38.12360033
  atomic energy  EATOM  =      1036.93924466
  ---------------------------------------------------
  free energy    TOTEN  =       -14.32413302 eV

  energy without entropy =      -14.32218620  energy(sigma->0) =      -14.32348408


--------------------------------------------------------------------------------------------------------




----------------------------------------- Iteration    1(   8)  ---------------------------------------


    POTLOK:  cpu time    0.01: real time    0.01
    SETDIJ:  cpu time    0.00: real time    0.00
     EDDAV:  cpu time    2.62: real time    5.32
       DOS:  cpu time    0.01: real time    0.02
    CHARGE:  cpu time    0.11: real time    0.23
    MIXING:  cpu time    0.00: real time    0.00
    --------------------------------------------
      LOOP:  cpu time    2.76: real time    5.59

 eigenvalue-minimisations  :  7620
 total energy-change (2. order) : 0.3923825E-01  (-0.1737255E-02)
 number of electron      17.0000058 magnetization 
 augmentation part        3.6471785 magnetization 

 Broyden mixing:
  rms(total) = 0.33393E-01    rms(broyden)= 0.33392E-01
  rms(prec ) = 0.55516E-01
  weight for this iteration     100.00

 eigenvalues of (default mixing * dielectric matrix)
  average eigenvalue GAMMA=   1.4948
  2.6146  1.0146  0.8553

 Free energy of the ion-electron system (eV)
  ---------------------------------------------------
  alpha Z        PSCENC =        31.73895171
  Ewald energy   TEWEN  =      -915.30636464
  -Hartree energ DENC   =      -248.69155399
  -exchange      EXHF   =         0.00000000
  -V(xc)+E(xc)   XCENC  =       -34.87905888
  PAW double counting   =      1127.87704754    -1050.87366175
  entropy T*S    EENTRO =        -0.00204387
  eigenvalues    EBANDS =        38.91254446
  atomic energy  EATOM  =      1036.93924466
  ---------------------------------------------------
  free energy    TOTEN  =       -14.28489477 eV

  energy without entropy =      -14.28285090  energy(sigma->0) =      -14.28421348


--------------------------------------------------------------------------------------------------------




----------------------------------------- Iteration    1(   9)  ---------------------------------------


    POTLOK:  cpu time    0.01: real time    0.01
    SETDIJ:  cpu time    0.00: real time    0.00
     EDDAV:  cpu time    2.72: real time    5.52
       DOS:  cpu time    0.01: real time    0.03
    CHARGE:  cpu time    0.11: real time    0.23
    MIXING:  cpu time    0.00: real time    0.00
    --------------------------------------------
      LOOP:  cpu time    2.86: real time    5.79

 eigenvalue-minimisations  :  8024
 total energy-change (2. order) : 0.7537380E-03  (-0.9965697E-04)
 number of electron      17.0000058 magnetization 
 augmentation part        3.6535386 magnetization 

 Broyden mixing:
  rms(total) = 0.16876E-01    rms(broyden)= 0.16875E-01
  rms(prec ) = 0.20790E-01
  weight for this iteration     100.00

 eigenvalues of (default mixing * dielectric matrix)
  average eigenvalue GAMMA=   1.6836
  0.9347  0.9765  2.6060  2.2172

 Free energy of the ion-electron system (eV)
  ---------------------------------------------------
  alpha Z        PSCENC =        31.73895171
  Ewald energy   TEWEN  =      -915.30636464
  -Hartree energ DENC   =      -248.31868647
  -exchange      EXHF   =         0.00000000
  -V(xc)+E(xc)   XCENC  =       -34.87765637
  PAW double counting   =      1129.91028680    -1053.09596124
  entropy T*S    EENTRO =        -0.00203931
  eigenvalues    EBANDS =        38.72808384
  atomic energy  EATOM  =      1036.93924466
  ---------------------------------------------------
  free energy    TOTEN  =       -14.28414103 eV

  energy without entropy =      -14.28210172  energy(sigma->0) =      -14.28346126


--------------------------------------------------------------------------------------------------------




----------------------------------------- Iteration    1(  10)  ---------------------------------------


    POTLOK:  cpu time    0.01: real time    0.01
    SETDIJ:  cpu time    0.00: real time    0.00
     EDDAV:  cpu time    2.23: real time    4.54
       DOS:  cpu time    0.01: real time    0.03
    --------------------------------------------
      LOOP:  cpu time    2.25: real time    4.58

 eigenvalue-minimisations  :  6052
 total energy-change (2. order) :-0.6903569E-05  (-0.6458323E-05)
 number of electron      17.0000058 magnetization 
 augmentation part        3.6535386 magnetization 

 Free energy of the ion-electron system (eV)
  ---------------------------------------------------
  alpha Z        PSCENC =        31.73895171
  Ewald energy   TEWEN  =      -915.30636464
  -Hartree energ DENC   =      -248.34816944
  -exchange      EXHF   =         0.00000000
  -V(xc)+E(xc)   XCENC  =       -34.87167541
  PAW double counting   =      1121.87711855    -1045.01982304
  entropy T*S    EENTRO =        -0.00203418
  eigenvalues    EBANDS =        38.70860385
  atomic energy  EATOM  =      1036.93924466
  ---------------------------------------------------
  free energy    TOTEN  =       -14.28414793 eV

  energy without entropy =      -14.28211376  energy(sigma->0) =      -14.28346988


--------------------------------------------------------------------------------------------------------




 average (electrostatic) potential at core
  the test charge radii are     1.2098  1.0406
  (the norm of the test charge is              1.0000)
       1 -67.6566       2 -71.1747       3 -71.1747
 
 
 
 E-fermi :   7.6476     XC(G=0): -10.7161     alpha+bet :-13.4787


 k-point     1 :       0.0500    0.0500    0.0500
  band No.  band energies     occupation 
      1      -2.9160      2.00000
      2       0.9676      2.00000
      3       0.9873      2.00000
      4       0.9873      2.00000
      5       1.9447      2.00000
      6       1.9447      2.00000
      7       9.5668     -0.00000
      8      10.0442     -0.00000
      9      10.3917     -0.00000
     10      10.3917     -0.00000
     11      11.7028     -0.00000
     12      11.7028     -0.00000
     13      12.0524     -0.00000
     14      13.2029      0.00000
     15      13.2029      0.00000
     16      13.2245      0.00000
     17      14.3972      0.00000
     18      16.0882      0.00000
     19      16.0882      0.00000
     20      18.9061      0.00000
     21      27.1830      0.00000
     22      27.1830      0.00000
     23      27.3640      0.00000
     24      28.5018      0.00000
     25      28.8264      0.00000
     26      28.8264      0.00000
     27      31.3474      0.00000
     28      31.3474      0.00000
     29      31.6960      0.00000
     30      32.5479      0.00000

 k-point     2 :       0.1500    0.0500    0.0500
  band No.  band energies     occupation 
      1      -2.7419      2.00000
      2       0.9083      2.00000
      3       1.0275      2.00000
      4       1.0363      2.00000
      5       1.9162      2.00000
      6       1.9549      2.00000
      7       8.3349     -0.00001
      8       9.0743     -0.00000
      9      10.2081     -0.00000
     10      10.3296     -0.00000
     11      11.7060     -0.00000
     12      12.3691     -0.00000
     13      12.7092     -0.00000
     14      12.7417     -0.00000
     15      13.1910      0.00000
     16      13.4547      0.00000
     17      15.5948      0.00000
     18      16.3807      0.00000
     19      17.0946      0.00000
     20      19.5884      0.00000
     21      25.4733      0.00000
     22      26.2628      0.00000
     23      26.4330      0.00000
     24      28.2837      0.00000
     25      29.1164      0.00000
     26      29.9787      0.00000
     27      30.6102      0.00000
     28      31.4119      0.00000
     29      31.4211      0.00000
     30      31.9702      0.00000

 k-point     3 :       0.2500    0.0500    0.0500
  band No.  band energies     occupation 
      1      -2.3213      2.00000
      2       0.8051      2.00000
      3       1.1131      2.00000
      4       1.1191      2.00000
      5       1.8990      2.00000
      6       1.9688      2.00000
      7       6.2414      2.00000
      8       8.4899     -0.00000
      9       9.5311     -0.00000
     10      10.4356     -0.00000
     11      11.7993     -0.00000
     12      11.8894     -0.00000
     13      12.9303     -0.00000
     14      13.1728      0.00000
     15      13.2753      0.00000
     16      14.4687      0.00000
     17      17.4188      0.00000
     18      18.1012      0.00000
     19      18.4790      0.00000
     20      20.9046      0.00000
     21      23.5291      0.00000
     22      24.5322      0.00000
     23      24.6051      0.00000
     24      28.3629      0.00000
     25      29.4733      0.00000
     26      29.5375      0.00000
     27      30.2762      0.00000
     28      30.2872      0.00000
     29      31.4433      0.00000
     30      31.5922      0.00000

 k-point     4 :       0.3500    0.0500    0.0500
  band No.  band energies     occupation 
      1      -1.7114      2.00000
      2       0.7455      2.00000
      3       1.1899      2.00000
      4       1.1924      2.00000
      5       1.9320      2.00000
      6       2.0119      2.00000
      7       4.3553      2.00000
      8       7.9977     -0.03280
      9       8.7386     -0.00000
     10      10.6344     -0.00000
     11      11.4010     -0.00000
     12      11.5767     -0.00000
     13      12.4208     -0.00000
     14      14.3467      0.00000
     15      14.3498      0.00000
     16      15.6813      0.00000
     17      18.7231      0.00000
     18      19.9403      0.00000
     19      20.7231      0.00000
     20      21.3758      0.00000
     21      22.1825      0.00000
     22      22.8021      0.00000
     23      23.8465      0.00000
     24      27.1622      0.00000
     25      27.9484      0.00000
     26      28.8641      0.00000
     27      30.1016      0.00000
     28      30.3279      0.00000
     29      31.2086      0.00000
     30      32.3726      0.00000

 k-point     5 :       0.4500    0.0500    0.0500
  band No.  band energies     occupation 
      1      -1.0997      2.00000
      2       0.8758      2.00000
      3       1.2292      2.00000
      4       1.2319      2.00000
      5       2.0104      2.00000
      6       2.0612      2.00000
      7       2.8100      2.00000
      8       7.7149      0.46449
      9       8.1468     -0.00236
     10      10.6687     -0.00000
     11      11.2325     -0.00000
     12      11.4787     -0.00000
     13      12.0149     -0.00000
     14      15.6275      0.00000
     15      15.6826      0.00000
     16      16.7839      0.00000
     17      18.9715      0.00000
     18      19.9011      0.00000
     19      20.3292      0.00000
     20      21.7146      0.00000
     21      22.3430      0.00000
     22      23.8293      0.00000
     23      25.1676      0.00000
     24      25.6489      0.00000
     25      25.9501      0.00000
     26      29.0935      0.00000
     27      29.3213      0.00000
     28      30.1960      0.00000
     29      30.2356      0.00000
     30      30.4851      0.00000

 k-point     6 :      -0.4500    0.0500    0.0500
  band No.  band energies     occupation 
      1      -0.8932      2.00000
      2       1.0530      2.00000
      3       1.2344      2.00000
      4       1.2787      2.00000
      5       2.0640      2.00000
      6       2.0790      2.00000
      7       2.1614      2.00000
      8       7.7455      0.27128
      9       7.8739     -0.06788
     10      10.5860     -0.00000
     11      11.3317     -0.00000
     12      11.5327     -0.00000
     13      11.7862     -0.00000
     14      16.0496      0.00000
     15      16.4808      0.00000
     16      17.2420      0.00000
     17      18.3916      0.00000
     18      19.4936      0.00000
     19      19.8067      0.00000
     20      22.5113      0.00000
     21      22.6764      0.00000
     22      24.3326      0.00000
     23      24.7668      0.00000
     24      25.2645      0.00000
     25      27.1981      0.00000
     26      27.7634      0.00000
     27      29.0863      0.00000
     28      29.7249      0.00000
     29      29.9197      0.00000
     30      30.2460      0.00000

 k-point     7 :      -0.3500    0.0500    0.0500
  band No.  band energies     occupation 
      1      -1.2813      2.00000
      2       0.7984      2.00000
      3       1.2195      2.00000
      4       1.2221      2.00000
      5       1.9865      2.00000
      6       2.0475      2.00000
      7       3.2705      2.00000
      8       7.9621     -0.04869
      9       8.1103     -0.00512
     10      10.5388     -0.00000
     11      11.4114     -0.00000
     12      11.7488     -0.00000
     13      11.8787     -0.00000
     14      14.7694      0.00000
     15      15.9881      0.00000
     16      16.1642      0.00000
     17      19.4003      0.00000
     18      19.6570      0.00000
     19      20.8085      0.00000
     20      21.6891      0.00000
     21      22.0582      0.00000
     22      22.9521      0.00000
     23      24.9963      0.00000
     24      25.7849      0.00000
     25      26.5782      0.00000
     26      29.2967      0.00000
     27      29.8373      0.00000
     28      30.0715      0.00000
     29      30.2677      0.00000
     30      31.0892      0.00000

 k-point     8 :      -0.2500    0.0500    0.0500
  band No.  band energies     occupation 
      1      -1.9282      2.00000
      2       0.7509      2.00000
      3       1.1707      2.00000
      4       1.1717      2.00000
      5       1.9110      2.00000
      6       1.9969      2.00000
      7       4.9519      2.00000
      8       8.3566     -0.00001
      9       8.7190     -0.00000
     10      10.4929     -0.00000
     11      11.5015     -0.00000
     12      12.1329     -0.00000
     13      12.2754     -0.00000
     14      13.4746      0.00000
     15      14.8202      0.00000
     16      14.8548      0.00000
     17      18.4097      0.00000
     18      19.3237      0.00000
     19      19.9413      0.00000
     20      21.5213      0.00000
     21      22.6629      0.00000
     22      23.0055      0.00000
     23      23.9198      0.00000
     24      27.8757      0.00000
     25      28.3884      0.00000
     26      29.1526      0.00000
     27      29.8561      0.00000
     28      30.3128      0.00000
     29      31.3903      0.00000
     30      32.4477      0.00000

 k-point     9 :      -0.1500    0.0500    0.0500
  band No.  band energies     occupation 
      1      -2.4864      2.00000
      2       0.8374      2.00000
      3       1.0864      2.00000
      4       1.0901      2.00000
      5       1.8947      2.00000
      6       1.9670      2.00000
      7       6.9226      2.00000
      8       8.9554     -0.00000
      9       9.3667     -0.00000
     10      10.4008     -0.00000
     11      11.7564     -0.00000
     12      12.4533     -0.00000
     13      12.6539     -0.00000
     14      12.8693     -0.00000
     15      13.6689      0.00000
     16      13.7615      0.00000
     17      17.0715      0.00000
     18      17.1662      0.00000
     19      17.9156      0.00000
     20      20.4757      0.00000
     21      24.4336      0.00000
     22      24.5547      0.00000
     23      25.5633      0.00000
     24      28.3145      0.00000
     25      29.6228      0.00000
     26      29.8797      0.00000
     27      30.1635      0.00000
     28      30.7986      0.00000
[...]
    1.715498    3.873955    3.873955    3.873955   -0.000000   -0.000000    0.000000
    2.144373    6.141095    6.141095    6.141095   -0.000000   -0.000000    0.000000
    2.573248   14.687315   14.687315   14.687315   -0.000000   -0.000000   -0.000000
    3.002122   20.570244   20.570244   20.570244   -0.000000   -0.000000    0.000000
    3.430997   15.878285   15.878285   15.878285   -0.000000   -0.000000    0.000000
    3.859871    9.822163    9.822163    9.822163   -0.000000   -0.000000    0.000000
    4.288746    8.874140    8.874140    8.874140    0.000000    0.000000    0.000000
    4.717621    6.206724    6.206724    6.206724    0.000000    0.000000   -0.000000
    5.146495    5.215940    5.215940    5.215940   -0.000000   -0.000000    0.000000
    5.575370    4.132334    4.132334    4.132334    0.000000    0.000000    0.000000
    6.004244    4.048463    4.048463    4.048463    0.000000    0.000000    0.000000
    6.433119    2.880394    2.880394    2.880394    0.000000    0.000000   -0.000000
    6.861993    2.780728    2.780728    2.780728   -0.000000   -0.000000   -0.000000
    7.290868    1.947726    1.947726    1.947726    0.000000   -0.000000    0.000000
    7.719743    1.954723    1.954723    1.954723   -0.000000   -0.000000    0.000000
    8.148617    2.092714    2.092714    2.092714    0.000000    0.000000    0.000000
    8.577492    2.482579    2.482579    2.482579    0.000000   -0.000000    0.000000
    9.006366    2.668855    2.668855    2.668855    0.000000   -0.000000   -0.000000
    9.435241    2.566312    2.566312    2.566312   -0.000000    0.000000    0.000000
    9.864116    1.818523    1.818523    1.818523   -0.000000   -0.000000    0.000000
   10.292990    1.733412    1.733412    1.733412    0.000000    0.000000   -0.000000
   10.721865    1.747226    1.747226    1.747226    0.000000    0.000000   -0.000000
   11.150739    1.696029    1.696029    1.696029   -0.000000    0.000000   -0.000000
   11.579614    1.695009    1.695009    1.695009    0.000000    0.000000   -0.000000
   12.008489    1.502033    1.502033    1.502033    0.000000    0.000000   -0.000000
   12.437363    1.427150    1.427150    1.427150   -0.000000   -0.000000    0.000000
   12.866238    1.293763    1.293763    1.293763    0.000000   -0.000000    0.000000
   13.295112    1.125073    1.125073    1.125073   -0.000000   -0.000000   -0.000000
   13.723987    0.951175    0.951175    0.951175    0.000000   -0.000000   -0.000000
   14.152862    0.953698    0.953698    0.953698    0.000000   -0.000000   -0.000000
   14.581736    0.929620    0.929620    0.929620   -0.000000   -0.000000    0.000000
   15.010611    0.868027    0.868027    0.868027   -0.000000   -0.000000    0.000000
   15.439485    0.767249    0.767249    0.767249    0.000000   -0.000000    0.000000
   15.868360    0.681219    0.681219    0.681219   -0.000000   -0.000000   -0.000000
   16.297235    0.645506    0.645506    0.645506    0.000000    0.000000    0.000000
   16.726109    0.647629    0.647629    0.647629    0.000000   -0.000000   -0.000000
   17.154984    0.617075    0.617075    0.617075    0.000000    0.000000   -0.000000
   17.583858    0.607268    0.607268    0.607268   -0.000000    0.000000   -0.000000
   18.012733    0.669345    0.669345    0.669345   -0.000000    0.000000   -0.000000
   18.441608    0.595093    0.595093    0.595093    0.000000    0.000000   -0.000000
   18.870482    0.615988    0.615988    0.615988   -0.000000   -0.000000   -0.000000
   19.299357    0.517545    0.517545    0.517545    0.000000   -0.000000   -0.000000
   19.728231    0.510171    0.510171    0.510171    0.000000    0.000000   -0.000000
   20.157106    0.574893    0.574893    0.574893   -0.000000   -0.000000    0.000000
   20.585980    0.568238    0.568238    0.568238   -0.000000   -0.000000    0.000000
   21.014855    0.460349    0.460349    0.460349    0.000000    0.000000    0.000000
   21.443730    0.439793    0.439793    0.439793   -0.000000   -0.000000    0.000000
   21.872604    0.455366    0.455366    0.455366   -0.000000   -0.000000    0.000000
   22.301479    0.436445    0.436445    0.436445   -0.000000    0.000000   -0.000000
   22.730353    0.472404    0.472404    0.472404    0.000000   -0.000000    0.000000
   23.159228    0.430702    0.430702    0.430702   -0.000000   -0.000000    0.000000
   23.588103    0.402774    0.402774    0.402774    0.000000   -0.000000    0.000000
   24.016977    0.358487    0.358487    0.358487   -0.000000   -0.000000    0.000000
   24.445852    0.365591    0.365591    0.365591    0.000000    0.000000   -0.000000
   24.874726    0.344259    0.344259    0.344259   -0.000000   -0.000000   -0.000000
   25.303601    0.302824    0.302824    0.302824    0.000000    0.000000   -0.000000
   25.732476    0.288326    0.288326    0.288326    0.000000    0.000000   -0.000000
   26.161350    0.245856    0.245856    0.245856    0.000000    0.000000    0.000000
   26.590225    0.270495    0.270495    0.270495    0.000000    0.000000   -0.000000
   27.019099    0.251123    0.251123    0.251123    0.000000    0.000000   -0.000000
   27.447974    0.274659    0.274659    0.274659    0.000000    0.000000   -0.000000
   27.876849    0.307807    0.307807    0.307807    0.000000    0.000000   -0.000000
   28.305723    0.332400    0.332400    0.332400    0.000000    0.000000   -0.000000
   28.734598    0.276856    0.276856    0.276856   -0.000000   -0.000000   -0.000000
   29.163472    0.295990    0.295990    0.295990   -0.000000   -0.000000   -0.000000
   29.592347    0.169898    0.169898    0.169898    0.000000   -0.000000   -0.000000
   30.021222    0.108232    0.108232    0.108232   -0.000000   -0.000000   -0.000000
   30.450096    0.088868    0.088868    0.088868   -0.000000   -0.000000   -0.000000
   30.878971    0.050177    0.050177    0.050177   -0.000000   -0.000000   -0.000000
   31.307845    0.024448    0.024448    0.024448    0.000000    0.000000   -0.000000
   31.736720    0.013324    0.013324    0.013324   -0.000000    0.000000   -0.000000
   32.165594    0.007382    0.007382    0.007382   -0.000000   -0.000000   -0.000000
   32.594469    0.006237    0.006237    0.006237   -0.000000   -0.000000    0.000000
   33.023344    0.004848    0.004848    0.004848   -0.000000   -0.000000   -0.000000
   33.452218    0.004199    0.004199    0.004199   -0.000000   -0.000000    0.000000
   33.881093    0.003779    0.003779    0.003779    0.000000    0.000000    0.000000
   34.309967    0.003401    0.003401    0.003401    0.000000   -0.000000    0.000000
   34.738842    0.003080    0.003080    0.003080   -0.000000   -0.000000    0.000000
   35.167717    0.002733    0.002733    0.002733   -0.000000   -0.000000   -0.000000
   35.596591    0.002509    0.002509    0.002509   -0.000000   -0.000000    0.000000
   36.025466    0.002320    0.002320    0.002320   -0.000000   -0.000000    0.000000
   36.454340    0.002169    0.002169    0.002169   -0.000000   -0.000000    0.000000
   36.883215    0.002036    0.002036    0.002036   -0.000000   -0.000000    0.000000
   37.312090    0.001917    0.001917    0.001917   -0.000000   -0.000000    0.000000
   37.740964    0.001810    0.001810    0.001810   -0.000000   -0.000000    0.000000
   38.169839    0.001713    0.001713    0.001713   -0.000000   -0.000000    0.000000
   38.598713    0.001625    0.001625    0.001625   -0.000000   -0.000000    0.000000
   39.027588    0.001544    0.001544    0.001544   -0.000000   -0.000000    0.000000
   39.456463    0.001470    0.001470    0.001470   -0.000000   -0.000000    0.000000
   39.885337    0.001401    0.001401    0.001401   -0.000000   -0.000000    0.000000
   40.314212    0.001337    0.001337    0.001337   -0.000000   -0.000000    0.000000
   40.743086    0.001278    0.001278    0.001278   -0.000000   -0.000000    0.000000
   41.171961    0.001223    0.001223    0.001223   -0.000000   -0.000000    0.000000
   41.600836    0.001172    0.001172    0.001172   -0.000000   -0.000000    0.000000
   42.029710    0.001124    0.001124    0.001124   -0.000000   -0.000000    0.000000
   42.458585    0.001078    0.001078    0.001078   -0.000000   -0.000000    0.000000

  frequency dependent      REAL DIELECTRIC FUNCTION (independent particle, no local field effects)
     E(ev)      X         Y         Z        XY        YZ        ZX
  --------------------------------------------------------------------------------------
    0.000000  158.399888  158.399888  158.399888    0.000000    0.000000    0.000000
    0.428875  -15.031993  -15.031993  -15.031993    0.000000   -0.000000   -0.000000
    0.857749    0.409796    0.409796    0.409796   -0.000000   -0.000000   -0.000000
    1.286624    5.594732    5.594732    5.594732   -0.000000   -0.000000   -0.000000
    1.715498   10.683490   10.683490   10.683490   -0.000000   -0.000000   -0.000000
    2.144373   15.186271   15.186271   15.186271   -0.000000   -0.000000   -0.000000
    2.573248   15.871647   15.871647   15.871647   -0.000000   -0.000000    0.000000
    3.002122    5.425608    5.425608    5.425608    0.000000   -0.000000   -0.000000
    3.430997   -2.738008   -2.738008   -2.738008   -0.000000    0.000000   -0.000000
    3.859871   -2.497163   -2.497163   -2.497163    0.000000    0.000000    0.000000
    4.288746   -3.320655   -3.320655   -3.320655   -0.000000   -0.000000   -0.000000
    4.717621   -2.402923   -2.402923   -2.402923   -0.000000    0.000000   -0.000000
    5.146495   -3.081094   -3.081094   -3.081094    0.000000    0.000000    0.000000
    5.575370   -1.257003   -1.257003   -1.257003    0.000000    0.000000   -0.000000
    6.004244   -1.933914   -1.933914   -1.933914    0.000000   -0.000000   -0.000000
    6.433119   -1.640025   -1.640025   -1.640025    0.000000   -0.000000   -0.000000
    6.861993   -1.095780   -1.095780   -1.095780    0.000000   -0.000000   -0.000000
    7.290868   -0.994370   -0.994370   -0.994370   -0.000000    0.000000   -0.000000
    7.719743   -0.036209   -0.036209   -0.036209    0.000000    0.000000   -0.000000
    8.148617    0.107076    0.107076    0.107076    0.000000    0.000000   -0.000000
    8.577492    0.395557    0.395557    0.395557    0.000000    0.000000   -0.000000
    9.006366    0.154126    0.154126    0.154126    0.000000    0.000000   -0.000000
    9.435241   -0.601580   -0.601580   -0.601580   -0.000000   -0.000000   -0.000000
    9.864116   -0.420233   -0.420233   -0.420233   -0.000000   -0.000000   -0.000000
   10.292990   -0.269211   -0.269211   -0.269211    0.000000   -0.000000   -0.000000
   10.721865   -0.074629   -0.074629   -0.074629    0.000000   -0.000000   -0.000000
   11.150739   -0.115050   -0.115050   -0.115050    0.000000   -0.000000   -0.000000
   11.579614   -0.157582   -0.157582   -0.157582    0.000000   -0.000000   -0.000000
   12.008489   -0.224855   -0.224855   -0.224855   -0.000000   -0.000000   -0.000000
   12.437363   -0.173619   -0.173619   -0.173619   -0.000000   -0.000000   -0.000000
   12.866238   -0.323540   -0.323540   -0.323540    0.000000   -0.000000   -0.000000
   13.295112   -0.159562   -0.159562   -0.159562   -0.000000   -0.000000   -0.000000
   13.723987   -0.106473   -0.106473   -0.106473    0.000000    0.000000   -0.000000
   14.152862   -0.022292   -0.022292   -0.022292   -0.000000   -0.000000   -0.000000
   14.581736   -0.025390   -0.025390   -0.025390    0.000000    0.000000   -0.000000
   15.010611   -0.024193   -0.024193   -0.024193    0.000000    0.000000   -0.000000
   15.439485    0.030207    0.030207    0.030207    0.000000    0.000000   -0.000000
   15.868360    0.117726    0.117726    0.117726    0.000000    0.000000   -0.000000
   16.297235    0.139331    0.139331    0.139331    0.000000    0.000000   -0.000000
   16.726109    0.232746    0.232746    0.232746    0.000000    0.000000   -0.000000
   17.154984    0.277053    0.277053    0.277053   -0.000000    0.000000   -0.000000
   17.583858    0.306464    0.306464    0.306464   -0.000000   -0.000000   -0.000000
   18.012733    0.311909    0.311909    0.311909    0.000000    0.000000    0.000000
   18.441608    0.339080    0.339080    0.339080   -0.000000   -0.000000    0.000000
   18.870482    0.265719    0.265719    0.265719   -0.000000   -0.000000   -0.000000
   19.299357    0.328142    0.328142    0.328142    0.000000    0.000000   -0.000000
   19.728231    0.394088    0.394088    0.394088   -0.000000   -0.000000   -0.000000
   20.157106    0.383839    0.383839    0.383839   -0.000000   -0.000000    0.000000
   20.585980    0.362504    0.362504    0.362504    0.000000    0.000000    0.000000
   21.014855    0.328268    0.328268    0.328268    0.000000    0.000000    0.000000
   21.443730    0.402385    0.402385    0.402385   -0.000000    0.000000   -0.000000
   21.872604    0.416500    0.416500    0.416500   -0.000000    0.000000   -0.000000
   22.301479    0.438834    0.438834    0.438834    0.000000    0.000000   -0.000000
   22.730353    0.402491    0.402491    0.402491    0.000000   -0.000000   -0.000000
   23.159228    0.412747    0.412747    0.412747    0.000000    0.000000   -0.000000
   23.588103    0.374387    0.374387    0.374387    0.000000    0.000000   -0.000000
   24.016977    0.411633    0.411633    0.411633    0.000000    0.000000   -0.000000
   24.445852    0.432239    0.432239    0.432239    0.000000   -0.000000   -0.000000
   24.874726    0.412911    0.412911    0.412911    0.000000    0.000000   -0.000000
   25.303601    0.419210    0.419210    0.419210   -0.000000    0.000000   -0.000000
   25.732476    0.439370    0.439370    0.439370    0.000000    0.000000   -0.000000
   26.161350    0.478370    0.478370    0.478370    0.000000    0.000000   -0.000000
   26.590225    0.490108    0.490108    0.490108    0.000000    0.000000   -0.000000
   27.019099    0.531743    0.531743    0.531743    0.000000    0.000000   -0.000000
   27.447974    0.515650    0.515650    0.515650   -0.000000   -0.000000   -0.000000
   27.876849    0.540502    0.540502    0.540502   -0.000000   -0.000000   -0.000000
   28.305723    0.465133    0.465133    0.465133    0.000000    0.000000   -0.000000
   28.734598    0.480802    0.480802    0.480802   -0.000000   -0.000000   -0.000000
   29.163472    0.344436    0.344436    0.344436    0.000000   -0.000000   -0.000000
   29.592347    0.376638    0.376638    0.376638    0.000000   -0.000000   -0.000000
   30.021222    0.421632    0.421632    0.421632   -0.000000    0.000000   -0.000000
   30.450096    0.430402    0.430402    0.430402    0.000000    0.000000   -0.000000
   30.878971    0.465107    0.465107    0.465107    0.000000    0.000000   -0.000000
   31.307845    0.503421    0.503421    0.503421   -0.000000    0.000000   -0.000000
   31.736720    0.538201    0.538201    0.538201    0.000000    0.000000   -0.000000
   32.165594    0.569280    0.569280    0.569280    0.000000    0.000000   -0.000000
   32.594469    0.593381    0.593381    0.593381    0.000000    0.000000   -0.000000
   33.023344    0.613823    0.613823    0.613823    0.000000    0.000000   -0.000000
   33.452218    0.631565    0.631565    0.631565    0.000000    0.000000   -0.000000
   33.881093    0.647551    0.647551    0.647551    0.000000    0.000000   -0.000000
   34.309967    0.661719    0.661719    0.661719    0.000000    0.000000   -0.000000
   34.738842    0.674607    0.674607    0.674607    0.000000    0.000000   -0.000000
   35.167717    0.686592    0.686592    0.686592    0.000000    0.000000   -0.000000
   35.596591    0.697678    0.697678    0.697678    0.000000    0.000000   -0.000000
   36.025466    0.707992    0.707992    0.707992    0.000000    0.000000   -0.000000
   36.454340    0.717609    0.717609    0.717609    0.000000    0.000000   -0.000000
   36.883215    0.726619    0.726619    0.726619    0.000000    0.000000   -0.000000
   37.312090    0.735090    0.735090    0.735090    0.000000    0.000000   -0.000000
   37.740964    0.743079    0.743079    0.743079    0.000000    0.000000   -0.000000
   38.169839    0.750631    0.750631    0.750631    0.000000    0.000000   -0.000000
   38.598713    0.757786    0.757786    0.757786    0.000000    0.000000   -0.000000
   39.027588    0.764579    0.764579    0.764579    0.000000    0.000000   -0.000000
   39.456463    0.771039    0.771039    0.771039    0.000000    0.000000   -0.000000
   39.885337    0.777193    0.777193    0.777193    0.000000    0.000000   -0.000000
   40.314212    0.783062    0.783062    0.783062    0.000000    0.000000   -0.000000
   40.743086    0.788669    0.788669    0.788669    0.000000    0.000000   -0.000000
   41.171961    0.794031    0.794031    0.794031    0.000000    0.000000   -0.000000
   41.600836    0.799165    0.799165    0.799165    0.000000    0.000000   -0.000000
   42.029710    0.804085    0.804085    0.804085    0.000000    0.000000   -0.000000
   42.458585    0.808806    0.808806    0.808806    0.000000    0.000000   -0.000000
 
 The outermost node in the dielectric function lies at epsilon=  15.3


--------------------------------------------------------------------------------------------------------


    OPTICS:  cpu time    3.94: real time    8.03
    4ORBIT:  cpu time    0.00: real time    0.00

volume of typ            1:    26.3 %

volume of typ            2:    42.8 %
 
total charge     
 
# of ion     s       p       d       tot
----------------------------------------
  1        0.840   0.829   8.674  10.343
  2        0.757   0.884   0.184   1.825
  3        0.757   0.884   0.184   1.825
------------------------------------------------
tot         2.35    2.60    9.04   13.99
 
orbital moment (x)
 
# of ion   s             p             d             tot
---------------------------------------------------------------
   1     0.000000E+00 -0.737667E-08  0.618526E-08 -0.119141E-08
   2     0.000000E+00 -0.459772E-03 -0.836578E-02 -0.882555E-02
   3     0.000000E+00  0.459760E-03  0.836578E-02  0.882554E-02
----------------------------------------------------------------------------
tot      0.000000E+00 -0.197341E-07  0.104784E-07 -0.925564E-08
 
orbital moment (y)
 
# of ion   s             p             d             tot
---------------------------------------------------------------
   1     0.000000E+00  0.113398E-07 -0.131533E-08  0.100244E-07
   2     0.000000E+00  0.497991E-01 -0.168660E-01  0.329331E-01
   3     0.000000E+00 -0.497991E-01  0.168660E-01 -0.329330E-01
----------------------------------------------------------------------------
tot      0.000000E+00  0.194232E-07  0.106222E-07  0.300454E-07
 
orbital moment (z)
 
# of ion   s             p             d             tot
---------------------------------------------------------------
   1     0.000000E+00  0.156558E-07 -0.302182E-08  0.126340E-07
   2     0.000000E+00  0.154327E-02  0.884147E-02  0.103847E-01
   3     0.000000E+00 -0.154326E-02 -0.884148E-02 -0.103847E-01
----------------------------------------------------------------------------
tot      0.000000E+00  0.165512E-07 -0.103303E-07  0.622091E-08
 

 total amount of memory used by VASP on root node    74929. kBytes
========================================================================

   base      :      30000. kBytes
   nonl-proj :      14943. kBytes
   grid      :       3276. kBytes
   one-center:         46. kBytes
   wavefun   :      26664. kBytes
 
  
  
 General timing and accounting informations for this job:
 ========================================================
  
                  Total CPU time used (sec):       34.193
                            User time (sec):       32.566
                          System time (sec):        1.626
                         Elapsed time (sec):       75.829
  
                   Maximum memory used (kb):      140016.
                   Average memory used (kb):           0.
  
                          Minor page faults:        23836
                          Major page faults:            0
                 Voluntary context switches:          390
