<?xml version="1.0" encoding="ISO-8859-1"?>
<modeling>
 <generator>
  <i name="program" type="string">vasp </i>
  <i name="version" type="string">5.3.5  </i>
  <i name="subversion" type="string">31Mar14 (build Dec 14 2018 19:18:10) complex                          serial </i>
  <i name="platform" type="string">LinuxIFC </i>
  <i name="date" type="string">2022 11 17 </i>
  <i name="time" type="string">20:42:24 </i>
 </generator>
 <incar>
  <i type="string" name="SYSTEM">AuAl2</i>
  <i type="string" name="PREC">normal</i>
  <i type="int" name="NBANDS">    30</i>
  <v name="RWIGS">      1.50300000      1.40200000</v>
  <i type="logical" name="LOPTICS"> T  </i>
  <i type="logical" name="LSCALAPACK"> F  </i>
 </incar>
 <kpoints>
  <generation param="Monkhorst-Pack">
   <v type="int" name="divisions">      10       10       10 </v>
   <v name="usershift">      0.00000000       0.00000000       0.00000000 </v>
   <v name="genvec1">      0.10000000       0.00000000       0.00000000 </v>
   <v name="genvec2">      0.00000000       0.10000000       0.00000000 </v>
   <v name="genvec3">      0.00000000       0.00000000       0.10000000 </v>
   <v name="shift">      0.50000000       0.50000000       0.50000000 </v>
  </generation>
  <varray name="kpointlist" >
   <v>       0.05000000       0.05000000       0.05000000 </v>
   <v>       0.15000000       0.05000000       0.05000000 </v>
   <v>       0.25000000       0.05000000       0.05000000 </v>
   <v>       0.35000000       0.05000000       0.05000000 </v>
   <v>       0.45000000       0.05000000       0.05000000 </v>
   <v>      -0.45000000       0.05000000       0.05000000 </v>
   <v>      -0.35000000       0.05000000       0.05000000 </v>
   <v>      -0.25000000       0.05000000       0.05000000 </v>
   <v>      -0.15000000       0.05000000       0.05000000 </v>
   <v>      -0.05000000       0.05000000       0.05000000 </v>
   <v>       0.15000000       0.15000000       0.05000000 </v>
   <v>       0.25000000       0.15000000       0.05000000 </v>
   <v>       0.35000000       0.15000000       0.05000000 </v>
   <v>       0.45000000       0.15000000       0.05000000 </v>
   <v>      -0.45000000       0.15000000       0.05000000 </v>
   <v>      -0.35000000       0.15000000       0.05000000 </v>
   <v>      -0.25000000       0.15000000       0.05000000 </v>
   <v>      -0.15000000       0.15000000       0.05000000 </v>
   <v>      -0.05000000       0.15000000       0.05000000 </v>
   <v>       0.25000000       0.25000000       0.05000000 </v>
   <v>       0.35000000       0.25000000       0.05000000 </v>
   <v>       0.45000000       0.25000000       0.05000000 </v>
   <v>      -0.45000000       0.25000000       0.05000000 </v>
   <v>      -0.35000000       0.25000000       0.05000000 </v>
   <v>      -0.25000000       0.25000000       0.05000000 </v>
   <v>      -0.15000000       0.25000000       0.05000000 </v>
   <v>      -0.05000000       0.25000000       0.05000000 </v>
   <v>       0.35000000       0.35000000       0.05000000 </v>
   <v>       0.45000000       0.35000000       0.05000000 </v>
   <v>      -0.45000000       0.35000000       0.05000000 </v>
   <v>      -0.35000000       0.35000000       0.05000000 </v>
   <v>      -0.25000000       0.35000000       0.05000000 </v>
   <v>      -0.15000000       0.35000000       0.05000000 </v>
   <v>      -0.05000000       0.35000000       0.05000000 </v>
   <v>       0.45000000       0.45000000       0.05000000 </v>
   <v>      -0.45000000       0.45000000       0.05000000 </v>
   <v>      -0.35000000       0.45000000       0.05000000 </v>
   <v>      -0.25000000       0.45000000       0.05000000 </v>
   <v>      -0.15000000       0.45000000       0.05000000 </v>
   <v>      -0.05000000       0.45000000       0.05000000 </v>
   <v>      -0.45000000      -0.45000000       0.05000000 </v>
   <v>      -0.35000000      -0.45000000       0.05000000 </v>
   <v>      -0.25000000      -0.45000000       0.05000000 </v>
   <v>      -0.15000000      -0.45000000       0.05000000 </v>
   <v>      -0.35000000      -0.35000000       0.05000000 </v>
   <v>      -0.25000000      -0.35000000       0.05000000 </v>
   <v>      -0.15000000      -0.35000000       0.05000000 </v>
   <v>      -0.25000000      -0.25000000       0.05000000 </v>
   <v>      -0.15000000      -0.25000000       0.05000000 </v>
   <v>      -0.15000000      -0.15000000       0.05000000 </v>
   <v>       0.15000000       0.15000000       0.15000000 </v>
   <v>       0.25000000       0.15000000       0.15000000 </v>
   <v>       0.35000000       0.15000000       0.15000000 </v>
   <v>       0.45000000       0.15000000       0.15000000 </v>
   <v>      -0.45000000       0.15000000       0.15000000 </v>
   <v>      -0.35000000       0.15000000       0.15000000 </v>
   <v>      -0.25000000       0.15000000       0.15000000 </v>
   <v>      -0.15000000       0.15000000       0.15000000 </v>
   <v>       0.25000000       0.25000000       0.15000000 </v>
   <v>       0.35000000       0.25000000       0.15000000 </v>
   <v>       0.45000000       0.25000000       0.15000000 </v>
   <v>      -0.45000000       0.25000000       0.15000000 </v>
   <v>      -0.35000000       0.25000000       0.15000000 </v>
   <v>      -0.25000000       0.25000000       0.15000000 </v>
   <v>      -0.15000000       0.25000000       0.15000000 </v>
   <v>       0.35000000       0.35000000       0.15000000 </v>
   <v>       0.45000000       0.35000000       0.15000000 </v>
   <v>      -0.45000000       0.35000000       0.15000000 </v>
   <v>      -0.35000000       0.35000000       0.15000000 </v>
   <v>      -0.25000000       0.35000000       0.15000000 </v>
   <v>      -0.15000000       0.35000000       0.15000000 </v>
   <v>       0.45000000       0.45000000       0.15000000 </v>
   <v>      -0.45000000       0.45000000       0.15000000 </v>
   <v>      -0.35000000       0.45000000       0.15000000 </v>
   <v>      -0.25000000       0.45000000       0.15000000 </v>
   <v>      -0.15000000       0.45000000       0.15000000 </v>
   <v>      -0.45000000      -0.45000000       0.15000000 </v>
   <v>      -0.35000000      -0.45000000       0.15000000 </v>
   <v>      -0.25000000      -0.45000000       0.15000000 </v>
   <v>      -0.35000000      -0.35000000       0.15000000 </v>
   <v>      -0.25000000      -0.35000000       0.15000000 </v>
   <v>      -0.25000000      -0.25000000       0.15000000 </v>
   <v>       0.25000000       0.25000000       0.25000000 </v>
   <v>       0.35000000       0.25000000       0.25000000 </v>
   <v>       0.45000000       0.25000000       0.25000000 </v>
   <v>      -0.45000000       0.25000000       0.25000000 </v>
   <v>      -0.35000000       0.25000000       0.25000000 </v>
   <v>      -0.25000000       0.25000000       0.25000000 </v>
   <v>       0.35000000       0.35000000       0.25000000 </v>
   <v>       0.45000000       0.35000000       0.25000000 </v>
   <v>      -0.45000000       0.35000000       0.25000000 </v>
   <v>      -0.35000000       0.35000000       0.25000000 </v>
   <v>      -0.25000000       0.35000000       0.25000000 </v>
   <v>       0.45000000       0.45000000       0.25000000 </v>
   <v>      -0.45000000       0.45000000       0.25000000 </v>
   <v>      -0.35000000       0.45000000       0.25000000 </v>
   <v>      -0.25000000       0.45000000       0.25000000 </v>
   <v>      -0.45000000      -0.45000000       0.25000000 </v>
   <v>      -0.35000000      -0.45000000       0.25000000 </v>
   <v>      -0.35000000      -0.35000000       0.25000000 </v>
   <v>       0.35000000       0.35000000       0.35000000 </v>
   <v>       0.45000000       0.35000000       0.35000000 </v>
   <v>      -0.45000000       0.35000000       0.35000000 </v>
   <v>      -0.35000000       0.35000000       0.35000000 </v>
   <v>       0.45000000       0.45000000       0.35000000 </v>
   <v>      -0.45000000       0.45000000       0.35000000 </v>
   <v>      -0.35000000       0.45000000       0.35000000 </v>
   <v>      -0.45000000      -0.45000000       0.35000000 </v>
   <v>       0.45000000       0.45000000       0.45000000 </v>
   <v>      -0.45000000       0.45000000       0.45000000 </v>
  </varray>
  <varray name="weights" >
   <v>       0.00200000 </v>
   <v>       0.00600000 </v>
   <v>       0.00600000 </v>
   <v>       0.00600000 </v>
   <v>       0.00600000 </v>
   <v>       0.00600000 </v>
   <v>       0.00600000 </v>
   <v>       0.00600000 </v>
   <v>       0.00600000 </v>
   <v>       0.00600000 </v>
   <v>       0.00600000 </v>
   <v>       0.01200000 </v>
   <v>       0.01200000 </v>
   <v>       0.01200000 </v>
   <v>       0.01200000 </v>
   <v>       0.01200000 </v>
   <v>       0.01200000 </v>
   <v>       0.01200000 </v>
   <v>       0.01200000 </v>
   <v>       0.00600000 </v>
   <v>       0.01200000 </v>
   <v>       0.01200000 </v>
   <v>       0.01200000 </v>
   <v>       0.01200000 </v>
   <v>       0.01200000 </v>
   <v>       0.01200000 </v>
   <v>       0.01200000 </v>
   <v>       0.00600000 </v>
   <v>       0.01200000 </v>
   <v>       0.01200000 </v>
   <v>       0.01200000 </v>
   <v>       0.01200000 </v>
   <v>       0.01200000 </v>
   <v>       0.01200000 </v>
   <v>       0.00600000 </v>
   <v>       0.01200000 </v>
   <v>       0.01200000 </v>
   <v>       0.01200000 </v>
   <v>       0.01200000 </v>
   <v>       0.01200000 </v>
   <v>       0.00600000 </v>
   <v>       0.01200000 </v>
   <v>       0.01200000 </v>
   <v>       0.01200000 </v>
   <v>       0.00600000 </v>
   <v>       0.01200000 </v>
   <v>       0.01200000 </v>
   <v>       0.00600000 </v>
   <v>       0.01200000 </v>
   <v>       0.00600000 </v>
   <v>       0.00200000 </v>
   <v>       0.00600000 </v>
   <v>       0.00600000 </v>
   <v>       0.00600000 </v>
   <v>       0.00600000 </v>
   <v>       0.00600000 </v>
   <v>       0.00600000 </v>
   <v>       0.00600000 </v>
   <v>       0.00600000 </v>
   <v>       0.01200000 </v>
   <v>       0.01200000 </v>
   <v>       0.01200000 </v>
   <v>       0.01200000 </v>
   <v>       0.01200000 </v>
   <v>       0.01200000 </v>
   <v>       0.00600000 </v>
   <v>       0.01200000 </v>
   <v>       0.01200000 </v>
   <v>       0.01200000 </v>
   <v>       0.01200000 </v>
   <v>       0.01200000 </v>
   <v>       0.00600000 </v>
   <v>       0.01200000 </v>
   <v>       0.01200000 </v>
   <v>       0.01200000 </v>
   <v>       0.01200000 </v>
   <v>       0.00600000 </v>
   <v>       0.01200000 </v>
   <v>       0.01200000 </v>
   <v>       0.00600000 </v>
   <v>       0.01200000 </v>
   <v>       0.00600000 </v>
   <v>       0.00200000 </v>
   <v>       0.00600000 </v>
   <v>       0.00600000 </v>
   <v>       0.00600000 </v>
   <v>       0.00600000 </v>
   <v>       0.00600000 </v>
   <v>       0.00600000 </v>
   <v>       0.01200000 </v>
   <v>       0.01200000 </v>
   <v>       0.01200000 </v>
   <v>       0.01200000 </v>
   <v>       0.00600000 </v>
   <v>       0.01200000 </v>
   <v>       0.01200000 </v>
   <v>       0.01200000 </v>
   <v>       0.00600000 </v>
   <v>       0.01200000 </v>
   <v>       0.00600000 </v>
   <v>       0.00200000 </v>
   <v>       0.00600000 </v>
   <v>       0.00600000 </v>
   <v>       0.00600000 </v>
   <v>       0.00600000 </v>
   <v>       0.01200000 </v>
   <v>       0.01200000 </v>
   <v>       0.00600000 </v>
   <v>       0.00200000 </v>
   <v>       0.00600000 </v>
  </varray>
 </kpoints>
 <parameters>
  <separator name="general" >
   <i type="string" name="SYSTEM">AuAl2</i>
   <i type="logical" name="LCOMPAT"> F  </i>
  </separator>
  <separator name="electronic" >
   <i type="string" name="PREC">normal</i>
   <i name="ENMAX">    240.95700000</i>
   <i name="ENAUG">    356.67000000</i>
   <i name="EDIFF">      0.00010000</i>
   <i type="int" name="IALGO">    38</i>
   <i type="int" name="IWAVPR">     0</i>
   <i type="int" name="NBANDS">    30</i>
   <i name="NELECT">     17.00000000</i>
   <i type="int" name="TURBO">     0</i>
   <i type="int" name="IRESTART">     0</i>
   <i type="int" name="NREBOOT">     0</i>
   <i type="int" name="NMIN">     0</i>
   <i name="EREF">      0.00000000</i>
   <separator name="electronic smearing" >
    <i type="int" name="ISMEAR">     1</i>
    <i name="SIGMA">      0.20000000</i>
    <i name="KSPACING">      0.50000000</i>
    <i type="logical" name="KGAMMA"> T  </i>
   </separator>
   <separator name="electronic projectors" >
    <i type="logical" name="LREAL"> F  </i>
    <v name="ROPT">      0.00000000      0.00000000</v>
    <i type="int" name="LMAXPAW">  -100</i>
    <i type="int" name="LMAXMIX">     2</i>
    <i type="logical" name="NLSPLINE"> F  </i>
   </separator>
   <separator name="electronic startup" >
    <i type="int" name="ISTART">     0</i>
    <i type="int" name="ICHARG">     2</i>
    <i type="int" name="INIWAV">     1</i>
   </separator>
   <separator name="electronic spin" >
    <i type="int" name="ISPIN">     1</i>
    <i type="logical" name="LNONCOLLINEAR"> F  </i>
    <v name="MAGMOM">      1.00000000      1.00000000      1.00000000</v>
    <i name="NUPDOWN">     -1.00000000</i>
    <i type="logical" name="LSORBIT"> F  </i>
    <v name="SAXIS">      0.00000000      0.00000000      1.00000000</v>
    <i type="logical" name="LSPIRAL"> F  </i>
    <v name="QSPIRAL">      0.00000000      0.00000000      0.00000000</v>
    <i type="logical" name="LZEROZ"> F  </i>
   </separator>
   <separator name="electronic exchange-correlation" >
    <i type="logical" name="LASPH"> F  </i>
    <i type="logical" name="LMETAGGA"> F  </i>
   </separator>
   <separator name="electronic convergence" >
    <i type="int" name="NELM">    60</i>
    <i type="int" name="NELMDL">    -5</i>
    <i type="int" name="NELMIN">     2</i>
    <i name="ENINI">    240.95700000</i>
    <separator name="electronic convergence detail" >
     <i type="logical" name="LDIAG"> T  </i>
     <i type="logical" name="LSUBROT"> F  </i>
     <i name="WEIMIN">      0.00000000</i>
     <i name="EBREAK">      0.00000083</i>
     <i name="DEPER">      0.30000000</i>
     <i type="int" name="NRMM">     4</i>
     <i name="TIME">      0.40000000</i>
    </separator>
   </separator>
   <separator name="electronic mixer" >
    <i name="AMIX">      0.40000000</i>
    <i name="BMIX">      1.00000000</i>
    <i name="AMIN">      0.10000000</i>
    <i name="AMIX_MAG">      1.60000000</i>
    <i name="BMIX_MAG">      1.00000000</i>
    <separator name="electronic mixer details" >
     <i type="int" name="IMIX">     4</i>
     <i type="int" name="MAXMIX">   -45</i>
     <i name="WC">    100.00000000</i>
     <i type="int" name="INIMIX">     1</i>
     <i type="int" name="MIXPRE">     1</i>
     <i type="int" name="MREMOVE">     5</i>
    </separator>
   </separator>
   <separator name="electronic dipolcorrection" >
    <i type="logical" name="LDIPOL"> F  </i>
    <i type="logical" name="LMONO"> F  </i>
    <i type="int" name="IDIPOL">     0</i>
    <i name="EPSILON">      1.00000000</i>
    <v name="DIPOL">   -100.00000000   -100.00000000   -100.00000000</v>
    <i name="EFIELD">      0.00000000</i>
   </separator>
  </separator>
  <separator name="grids" >
   <i type="int" name="NGX">    16</i>
   <i type="int" name="NGY">    16</i>
   <i type="int" name="NGZ">    16</i>
   <i type="int" name="NGXF">    32</i>
   <i type="int" name="NGYF">    32</i>
   <i type="int" name="NGZF">    32</i>
   <i type="logical" name="ADDGRID"> F  </i>
  </separator>
  <separator name="ionic" >
   <i type="int" name="NSW">     0</i>
   <i type="int" name="IBRION">    -1</i>
   <i type="int" name="ISIF">     2</i>
   <i name="PSTRESS">      0.00000000</i>
   <i name="EDIFFG">      0.00100000</i>
   <i type="int" name="NFREE">     0</i>
   <i name="POTIM">      0.50000000</i>
   <i name="SMASS">     -3.00000000</i>
   <i name="SCALEE">      1.00000000</i>
  </separator>
  <separator name="ionic md" >
   <i name="TEBEG">      0.00010000</i>
   <i name="TEEND">      0.00010000</i>
   <i type="int" name="NBLOCK">     1</i>
   <i type="int" name="KBLOCK">     1</i>
   <i type="int" name="NPACO">   256</i>
   <i name="APACO">     16.00000000</i>
  </separator>
  <separator name="symmetry" >
   <i type="int" name="ISYM">     2</i>
   <i name="SYMPREC">      0.00001000</i>
  </separator>
  <separator name="dos" >
   <i type="logical" name="LORBIT"> F  </i>
   <v name="RWIGS">      1.50300000      1.40200000</v>
   <i type="int" name="NEDOS">   301</i>
   <i name="EMIN">     10.00000000</i>
   <i name="EMAX">    -10.00000000</i>
   <i name="EFERMI">      0.00000000</i>
  </separator>
  <separator name="writing" >
   <i type="int" name="NWRITE">     2</i>
   <i type="logical" name="LWAVE"> T  </i>
   <i type="logical" name="LCHARG"> T  </i>
   <i type="logical" name="LPARD"> F  </i>
   <i type="logical" name="LVTOT"> F  </i>
   <i type="logical" name="LVHAR"> F  </i>
   <i type="logical" name="LELF"> F  </i>
   <i type="logical" name="LOPTICS"> T  </i>
   <v name="STM">      0.00000000      0.00000000      0.00000000      0.00000000      0.00000000      0.00000000      0.00000000</v>
  </separator>
  <separator name="performance" >
   <i type="int" name="NPAR">     1</i>
   <i type="int" name="NSIM">     4</i>
   <i type="int" name="NBLK">    -1</i>
   <i type="logical" name="LPLANE"> T  </i>
   <i type="logical" name="LSCALAPACK"> F  </i>
   <i type="logical" name="LSCAAWARE"> F  </i>
   <i type="logical" name="LSCALU"> F  </i>
   <i type="logical" name="LASYNC"> F  </i>
   <i type="logical" name="LORBITALREAL"> F  </i>
  </separator>
  <separator name="miscellaneous" >
   <i type="int" name="IDIOT">     3</i>
   <i type="logical" name="LMUSIC"> F  </i>
   <v name="POMASS">    196.96600000     26.98200000</v>
   <v name="DARWINR">      0.00000000      0.00000000</v>
   <v name="DARWINV">      1.00000000      1.00000000</v>
   <i type="logical" name="LCORR"> T  </i>
  </separator>
  <i type="logical" name="GGA_COMPAT"> T  </i>
  <i type="logical" name="LBERRY"> F  </i>
  <i type="int" name="ICORELEVEL">     0</i>
  <i type="logical" name="LDAU"> F  </i>
  <i type="int" name="I_CONSTRAINED_M">     0</i>
  <separator name="electronic exchange-correlation" >
   <i type="string" name="GGA">--</i>
   <i type="int" name="VOSKOWN">     0</i>
   <i type="logical" name="LHFCALC"> F  </i>
   <i type="string" name="PRECFOCK"></i>
   <i type="logical" name="LSYMGRAD"> F  </i>
   <i type="logical" name="LHFONE"> F  </i>
   <i type="logical" name="LRHFCALC"> F  </i>
   <i type="logical" name="LTHOMAS"> F  </i>
   <i type="logical" name="LMODELHF"> F  </i>
   <i name="ENCUT4O">     -1.00000000</i>
   <i type="int" name="EXXOEP">     0</i>
   <i type="int" name="FOURORBIT">     0</i>
   <i name="AEXX">      0.00000000</i>
   <i name="HFALPHA">      0.00000000</i>
   <i name="MCALPHA">      0.00000000</i>
   <i name="ALDAX">      1.00000000</i>
   <i name="AGGAX">      1.00000000</i>
   <i name="ALDAC">      1.00000000</i>
   <i name="AGGAC">      1.00000000</i>
   <i type="int" name="NKREDX">     1</i>
   <i type="int" name="NKREDY">     1</i>
   <i type="int" name="NKREDZ">     1</i>
   <i type="logical" name="SHIFTRED"> F  </i>
   <i type="logical" name="ODDONLY"> F  </i>
   <i type="logical" name="EVENONLY"> F  </i>
   <i type="int" name="LMAXFOCK">     0</i>
   <i type="int" name="NMAXFOCKAE">     0</i>
   <i type="logical" name="LFOCKAEDFT"> F  </i>
   <i name="HFSCREEN">      0.00000000</i>
   <i name="HFSCREENC">      0.00000000</i>
   <i type="int" name="NBANDSGWLOW">     0</i>
  </separator>
  <separator name="vdW DFT" >
   <i type="logical" name="LUSE_VDW"> F  </i>
   <i name="Zab_VDW">     -0.84910000</i>
   <i name="PARAM1">      0.12340000</i>
   <i name="PARAM2">      1.00000000</i>
   <i name="PARAM3">      0.00000000</i>
  </separator>
  <separator name="model GW" >
   <i type="int" name="MODEL_GW">     0</i>
   <i name="MODEL_EPS0">     10.80000000</i>
   <i name="MODEL_ALPHA">      1.00000000</i>
  </separator>
  <separator name="linear response parameters" >
   <i type="logical" name="LEPSILON"> F  </i>
   <i type="logical" name="LRPA"> F  </i>
   <i type="logical" name="LNABLA"> F  </i>
   <i type="logical" name="LVEL"> F  </i>
   <i type="int" name="KINTER">     0</i>
   <i name="CSHIFT">      0.10000000</i>
   <i name="OMEGAMAX">     -1.00000000</i>
   <i name="DEG_THRESHOLD">      0.00200000</i>
  </separator>
  <separator name="orbital magnetization" >
   <i type="logical" name="NUCIND"> F  </i>
   <v name="MAGPOS">      0.00000000      0.00000000      0.00000000</v>
   <i type="logical" name="LNICSALL"> T  </i>
   <i type="logical" name="ORBITALMAG"> F  </i>
   <i type="logical" name="LMAGBLOCH"> F  </i>
   <i type="logical" name="LCHIMAG"> F  </i>
   <i type="logical" name="LGAUGE"> T  </i>
   <i type="int" name="MAGATOM">     0</i>
   <v name="MAGDIPOL">      0.00000000      0.00000000      0.00000000</v>
   <v name="AVECCONST">      0.00000000      0.00000000      0.00000000</v>
  </separator>
  <separator name="response functions" >
   <i type="logical" name="LADDER"> F  </i>
   <i type="logical" name="LFXC"> F  </i>
   <i type="logical" name="LHARTREE"> T  </i>
   <i type="int" name="IBSE">     0</i>
   <i type="logical" name="LTCTE"> F  </i>
   <i type="logical" name="LTETE"> F  </i>
   <i type="logical" name="LTRIPLET"> F  </i>
   <i type="logical" name="LFXCEPS"> F  </i>
   <i type="logical" name="LFXHEG"> F  </i>
   <i type="logical" name="L2ORDER"> F  </i>
   <i type="logical" name="LUSEW"> F  </i>
   <i name="ENCUTGW">     -2.00000000</i>
   <i name="ENCUTGWSOFT">     -2.00000000</i>
   <i name="ENCUTLF">     -1.00000000</i>
   <i type="int" name="LMAXMP2">    -1</i>
   <i name="SCISSOR">      0.00000000</i>
   <i type="int" name="NOMEGA">     0</i>
   <i type="int" name="NOMEGAR">     0</i>
   <i type="int" name="NBANDSGW">    -1</i>
   <i type="int" name="NBANDSO">    -1</i>
   <i type="int" name="NBANDSV">    -1</i>
   <i type="int" name="NELM">     1</i>
   <i type="int" name="DIM">     3</i>
   <i type="int" name="ANTIRES">     0</i>
   <i name="OMEGAMAX">    -30.00000000</i>
   <i name="OMEGAMIN">    -30.00000000</i>
   <i name="OMEGATL">   -200.00000000</i>
   <i type="int" name="OMEGAGRID">     0</i>
   <i name="CSHIFT">     -0.10000000</i>
   <i type="logical" name="SELFENERGY"> F  </i>
   <i type="logical" name="LSPECTRAL"> F  </i>
   <i type="logical" name="ODDONLYGW"> F  </i>
   <i type="logical" name="EVENONLYGW"> F  </i>
   <i type="int" name="NKREDLFX">     1</i>
   <i type="int" name="NKREDLFY">     1</i>
   <i type="int" name="NKREDLFZ">     1</i>
   <i type="int" name="MAXMEM">  1800</i>
   <i type="int" name="TELESCOPE">     0</i>
   <i type="int" name="TAUPAR">     1</i>
  </separator>
  <separator name="External order field" >
   <i name="OFIELD_KAPPA">      0.00000000</i>
   <v name="OFIELD_K">      0.00000000      0.00000000      0.00000000</v>
   <i name="OFIELD_Q6_NEAR">      0.00000000</i>
   <i name="OFIELD_Q6_FAR">      0.00000000</i>
   <i name="OFIELD_A">      0.00000000</i>
  </separator>
 </parameters>
 <atominfo>
  <atoms>       3 </atoms>
  <types>       2 </types>
  <array name="atoms" >
   <dimension dim="1">ion</dimension>
   <field type="string">element</field>
   <field type="int">atomtype</field>
   <set>
    <rc><c>Au</c><c>   1</c></rc>
    <rc><c>Al</c><c>   2</c></rc>
    <rc><c>Al</c><c>   2</c></rc>
   </set>
  </array>
  <array name="atomtypes" >
   <dimension dim="1">type</dimension>
   <field type="int">atomspertype</field>
   <field type="string">element</field>
   <field>mass</field>
   <field>valence</field>
   <field type="string">pseudopotential</field>
   <set>
    <rc><c>   1</c><c>Au</c><c>    196.96600000</c><c>     11.00000000</c><c>  PAW Au 04Oct2007                      </c></rc>
    <rc><c>   2</c><c>Al</c><c>     26.98200000</c><c>      3.00000000</c><c> PAW Al 17Apr2000                       </c></rc>
   </set>
  </array>
 </atominfo>
 <structure name="initialpos" >
  <crystal>
   <varray name="basis" >
    <v>       0.00000000       3.00000000       3.00000000 </v>
    <v>       3.00000000       0.00000000       3.00000000 </v>
    <v>       3.00000000       3.00000000       0.00000000 </v>
   </varray>
   <i name="volume">     54.00000000 </i>
   <varray name="rec_basis" >
    <v>      -0.16666667       0.16666667       0.16666667 </v>
    <v>       0.16666667      -0.16666667       0.16666667 </v>
    <v>       0.16666667       0.16666667      -0.16666667 </v>
   </varray>
  </crystal>
  <varray name="positions" >
   <v>       0.00000000       0.00000000       0.00000000 </v>
   <v>       0.25000000       0.25000000       0.25000000 </v>
   <v>       0.75000000       0.75000000       0.75000000 </v>
  </varray>
 </structure>
 <calculation>
  <scstep>
   <time name="dav">    2.32    4.70</time>
   <time name="total">    2.34    4.74</time>
   <energy>
    <i name="alphaZ">     31.73895171 </i>
    <i name="ewald">   -915.30636464 </i>
    <i name="hartreedc">   -270.05090378 </i>
    <i name="XCdc">    -34.31231386 </i>
    <i name="pawpsdc">    942.29508067 </i>
    <i name="pawaedc">   -859.54935620 </i>
    <i name="eentropy">     -0.00137929 </i>
    <i name="bandstr">    103.63892444 </i>
    <i name="atom">   1036.93924466 </i>
    <i name="e_fr_energy">     35.39188371 </i>
    <i name="e_wo_entrp">     35.39326300 </i>
    <i name="e_0_energy">     35.39234348 </i>
   </energy>
  </scstep>
  <scstep>
   <time name="dav">    2.62    6.40</time>
   <time name="total">    2.64    6.45</time>
   <energy>
    <i name="e_fr_energy">    -14.49805438 </i>
    <i name="e_wo_entrp">    -14.49645166 </i>
    <i name="e_0_energy">    -14.49752014 </i>
   </energy>
  </scstep>
  <scstep>
   <time name="dav">    2.49    5.03</time>
   <time name="total">    2.50    5.08</time>
   <energy>
    <i name="e_fr_energy">    -15.60129170 </i>
    <i name="e_wo_entrp">    -15.59923130 </i>
    <i name="e_0_energy">    -15.60060490 </i>
   </energy>
  </scstep>
  <scstep>
   <time name="dav">    2.41    5.37</time>
   <time name="total">    2.42    5.42</time>
   <energy>
    <i name="e_fr_energy">    -15.60647775 </i>
    <i name="e_wo_entrp">    -15.60441507 </i>
    <i name="e_0_energy">    -15.60579019 </i>
   </energy>
  </scstep>
  <scstep>
   <time name="dav">    2.62    5.51</time>
   <time name="total">    2.75    5.82</time>
   <energy>
    <i name="e_fr_energy">    -15.60652753 </i>
    <i name="e_wo_entrp">    -15.60446481 </i>
    <i name="e_0_energy">    -15.60583995 </i>
   </energy>
  </scstep>
  <scstep>
   <time name="dav">    2.54    7.63</time>
   <time name="total">    2.68    8.08</time>
   <energy>
    <i name="e_fr_energy">    -14.42426232 </i>
    <i name="e_wo_entrp">    -14.42256004 </i>
    <i name="e_0_energy">    -14.42369489 </i>
   </energy>
  </scstep>
  <scstep>
   <time name="dav">    2.51    6.36</time>
   <time name="total">    2.65    6.66</time>
   <energy>
    <i name="e_fr_energy">    -14.32413302 </i>
    <i name="e_wo_entrp">    -14.32218620 </i>
    <i name="e_0_energy">    -14.32348408 </i>
   </energy>
  </scstep>
  <scstep>
   <time name="dav">    2.62    5.32</time>
   <time name="total">    2.76    5.59</time>
   <energy>
    <i name="e_fr_energy">    -14.28489477 </i>
    <i name="e_wo_entrp">    -14.28285090 </i>
    <i name="e_0_energy">    -14.28421348 </i>
   </energy>
  </scstep>
  <scstep>
   <time name="dav">    2.72    5.52</time>
   <time name="total">    2.86    5.79</time>
   <energy>
    <i name="e_fr_energy">    -14.28414103 </i>
    <i name="e_wo_entrp">    -14.28210172 </i>
    <i name="e_0_energy">    -14.28346126 </i>
   </energy>
  </scstep>
  <scstep>
   <time name="dav">    2.23    4.54</time>
   <time name="total">    2.25    4.58</time>
   <energy>
    <i name="alphaZ">     31.73895171 </i>
    <i name="ewald">   -915.30636464 </i>
    <i name="hartreedc">   -248.34816944 </i>
    <i name="XCdc">    -34.87167541 </i>
    <i name="pawpsdc">   1121.87711855 </i>
    <i name="pawaedc">  -1045.01982304 </i>
    <i name="eentropy">     -0.00203418 </i>
    <i name="bandstr">     38.70860385 </i>
    <i name="atom">   1036.93924466 </i>
    <i name="e_fr_energy">    -14.28414793 </i>
    <i name="e_wo_entrp">    -14.28211376 </i>
    <i name="e_0_energy">    -14.28346988 </i>
   </energy>
  </scstep>
  <structure>
   <crystal>
    <varray name="basis" >
     <v>       0.00000000       3.00000000       3.00000000 </v>
     <v>       3.00000000       0.00000000       3.00000000 </v>
     <v>       3.00000000       3.00000000       0.00000000 </v>
    </varray>
    <i name="volume">     54.00000000 </i>
    <varray name="rec_basis" >
     <v>      -0.16666667       0.16666667       0.16666667 </v>
     <v>       0.16666667      -0.16666667       0.16666667 </v>
     <v>       0.16666667       0.16666667      -0.16666667 </v>
    </varray>
   </crystal>
   <varray name="positions" >
    <v>       0.00000000       0.00000000       0.00000000 </v>
    <v>       0.25000000       0.25000000       0.25000000 </v>
    <v>       0.75000000       0.75000000       0.75000000 </v>
   </varray>
  </structure>
  <varray name="forces" >
   <v>      -0.00000000       0.00000000      -0.00000000 </v>
   <v>       0.00000000       0.00000000       0.00000000 </v>
   <v>      -0.00000000      -0.00000000      -0.00000000 </v>
  </varray>
  <varray name="stress" >
   <v>     -28.50498483       0.00000000       0.00000000 </v>
   <v>      -0.00000000     -28.50498483       0.00000000 </v>
   <v>       0.00000000      -0.00000000     -28.50498483 </v>
  </varray>
  <energy>
   <i name="e_fr_energy">    -14.28414793 </i>
   <i name="e_wo_entrp">    -14.28346988 </i>
   <i name="e_0_energy">     -0.00203418 </i>
  </energy>
  <time name="totalsc">   27.41   61.55</time>
  <eigenvalues>
   <array>
    <dimension dim="1">band</dimension>
    <dimension dim="2">kpoint</dimension>
    <dimension dim="3">spin</dimension>
    <field>eigene</field>
    <field>occ</field>
    <set>
     <set comment="spin 1">
      <set comment="kpoint 1">
       <r>   -2.9160    1.0000 </r>
       <r>    0.9676    1.0000 </r>
       <r>    0.9873    1.0000 </r>
       <r>    0.9873    1.0000 </r>
       <r>    1.9447    1.0000 </r>
       <r>    1.9447    1.0000 </r>
       <r>    9.5668   -0.0000 </r>
       <r>   10.0442   -0.0000 </r>
       <r>   10.3917   -0.0000 </r>
       <r>   10.3917   -0.0000 </r>
       <r>   11.7028   -0.0000 </r>
       <r>   11.7028   -0.0000 </r>
       <r>   12.0524   -0.0000 </r>
       <r>   13.2029    0.0000 </r>
       <r>   13.2029    0.0000 </r>
       <r>   13.2245    0.0000 </r>
       <r>   14.3972    0.0000 </r>
       <r>   16.0882    0.0000 </r>
       <r>   16.0882    0.0000 </r>
       <r>   18.9061    0.0000 </r>
       <r>   27.1830    0.0000 </r>
       <r>   27.1830    0.0000 </r>
       <r>   27.3640    0.0000 </r>
       <r>   28.5018    0.0000 </r>
       <r>   28.8264    0.0000 </r>
       <r>   28.8264    0.0000 </r>
       <r>   31.3474    0.0000 </r>
       <r>   31.3474    0.0000 </r>
       <r>   31.6960    0.0000 </r>
       <r>   32.5479    0.0000 </r>
      </set>
      <set comment="kpoint 2">
       <r>   -2.7419    1.0000 </r>
       <r>    0.9083    1.0000 </r>
       <r>    1.0275    1.0000 </r>
       <r>    1.0363    1.0000 </r>
       <r>    1.9162    1.0000 </r>
       <r>    1.9549    1.0000 </r>
       <r>    8.3349   -0.0000 </r>
       <r>    9.0743   -0.0000 </r>
       <r>   10.2081   -0.0000 </r>
       <r>   10.3296   -0.0000 </r>
       <r>   11.7060   -0.0000 </r>
       <r>   12.3691   -0.0000 </r>
       <r>   12.7092   -0.0000 </r>
       <r>   12.7417   -0.0000 </r>
       <r>   13.1910    0.0000 </r>
       <r>   13.4547    0.0000 </r>
       <r>   15.5948    0.0000 </r>
       <r>   16.3807    0.0000 </r>
       <r>   17.0946    0.0000 </r>
       <r>   19.5884    0.0000 </r>
       <r>   25.4733    0.0000 </r>
       <r>   26.2628    0.0000 </r>
       <r>   26.4330    0.0000 </r>
       <r>   28.2837    0.0000 </r>
       <r>   29.1164    0.0000 </r>
       <r>   29.9787    0.0000 </r>
       <r>   30.6102    0.0000 </r>
       <r>   31.4119    0.0000 </r>
       <r>   31.4211    0.0000 </r>
       <r>   31.9702    0.0000 </r>
      </set>
      <set comment="kpoint 3">
       <r>   -2.3213    1.0000 </r>
       <r>    0.8051    1.0000 </r>
       <r>    1.1131    1.0000 </r>
       <r>    1.1191    1.0000 </r>
       <r>    1.8990    1.0000 </r>
       <r>    1.9688    1.0000 </r>
       <r>    6.2414    1.0000 </r>
       <r>    8.4899   -0.0000 </r>
       <r>    9.5311   -0.0000 </r>
       <r>   10.4356   -0.0000 </r>
       <r>   11.7993   -0.0000 </r>
       <r>   11.8894   -0.0000 </r>
       <r>   12.9303   -0.0000 </r>
       <r>   13.1728    0.0000 </r>
       <r>   13.2753    0.0000 </r>
       <r>   14.4687    0.0000 </r>
       <r>   17.4188    0.0000 </r>
       <r>   18.1012    0.0000 </r>
       <r>   18.4790    0.0000 </r>
       <r>   20.9046    0.0000 </r>
       <r>   23.5291    0.0000 </r>
       <r>   24.5322    0.0000 </r>
       <r>   24.6051    0.0000 </r>
       <r>   28.3629    0.0000 </r>
       <r>   29.4733    0.0000 </r>
       <r>   29.5375    0.0000 </r>
       <r>   30.2762    0.0000 </r>
       <r>   30.2872    0.0000 </r>
       <r>   31.4433    0.0000 </r>
       <r>   31.5922    0.0000 </r>
      </set>
      <set comment="kpoint 4">
       <r>   -1.7114    1.0000 </r>
       <r>    0.7455    1.0000 </r>
       <r>    1.1899    1.0000 </r>
       <r>    1.1924    1.0000 </r>
       <r>    1.9320    1.0000 </r>
       <r>    2.0119    1.0000 </r>
       <r>    4.3553    1.0000 </r>
       <r>    7.9977   -0.0164 </r>
       <r>    8.7386   -0.0000 </r>
       <r>   10.6344   -0.0000 </r>
       <r>   11.4010   -0.0000 </r>
       <r>   11.5767   -0.0000 </r>
       <r>   12.4208   -0.0000 </r>
       <r>   14.3467    0.0000 </r>
       <r>   14.3498    0.0000 </r>
       <r>   15.6813    0.0000 </r>
       <r>   18.7231    0.0000 </r>
       <r>   19.9403    0.0000 </r>
       <r>   20.7231    0.0000 </r>
       <r>   21.3758    0.0000 </r>
       <r>   22.1825    0.0000 </r>
       <r>   22.8021    0.0000 </r>
       <r>   23.8465    0.0000 </r>
       <r>   27.1622    0.0000 </r>
       <r>   27.9484    0.0000 </r>
       <r>   28.8641    0.0000 </r>
       <r>   30.1016    0.0000 </r>
       <r>   30.3279    0.0000 </r>
       <r>   31.2086    0.0000 </r>
       <r>   32.3726    0.0000 </r>
      </set>
      <set comment="kpoint 5">
       <r>   -1.0997    1.0000 </r>
       <r>    0.8758    1.0000 </r>
       <r>    1.2292    1.0000 </r>
       <r>    1.2319    1.0000 </r>
       <r>    2.0104    1.0000 </r>
       <r>    2.0612    1.0000 </r>
       <r>    2.8100    1.0000 </r>
       <r>    7.7149    0.2322 </r>
       <r>    8.1468   -0.0012 </r>
       <r>   10.6687   -0.0000 </r>
       <r>   11.2325   -0.0000 </r>
       <r>   11.4787   -0.0000 </r>
       <r>   12.0149   -0.0000 </r>
       <r>   15.6275    0.0000 </r>
       <r>   15.6826    0.0000 </r>
       <r>   16.7839    0.0000 </r>
       <r>   18.9715    0.0000 </r>
       <r>   19.9011    0.0000 </r>
       <r>   20.3292    0.0000 </r>
       <r>   21.7146    0.0000 </r>
       <r>   22.3430    0.0000 </r>
       <r>   23.8293    0.0000 </r>
       <r>   25.1676    0.0000 </r>
       <r>   25.6489    0.0000 </r>
       <r>   25.9501    0.0000 </r>
       <r>   29.0935    0.0000 </r>
       <r>   29.3213    0.0000 </r>
       <r>   30.1960    0.0000 </r>
       <r>   30.2356    0.0000 </r>
       <r>   30.4851    0.0000 </r>
      </set>
      <set comment="kpoint 6">
       <r>   -0.8932    1.0000 </r>
       <r>    1.0530    1.0000 </r>
       <r>    1.2344    1.0000 </r>
       <r>    1.2787    1.0000 </r>
       <r>    2.0640    1.0000 </r>
       <r>    2.0790    1.0000 </r>
       <r>    2.1614    1.0000 </r>
       <r>    7.7455    0.1356 </r>
       <r>    7.8739   -0.0339 </r>
       <r>   10.5860   -0.0000 </r>
       <r>   11.3317   -0.0000 </r>
       <r>   11.5327   -0.0000 </r>
       <r>   11.7862   -0.0000 </r>
       <r>   16.0496    0.0000 </r>
       <r>   16.4808    0.0000 </r>
       <r>   17.2420    0.0000 </r>
       <r>   18.3916    0.0000 </r>
       <r>   19.4936    0.0000 </r>
       <r>   19.8067    0.0000 </r>
       <r>   22.5113    0.0000 </r>
       <r>   22.6764    0.0000 </r>
       <r>   24.3326    0.0000 </r>
       <r>   24.7668    0.0000 </r>
       <r>   25.2645    0.0000 </r>
       <r>   27.1981    0.0000 </r>
       <r>   27.7634    0.0000 </r>
       <r>   29.0863    0.0000 </r>
       <r>   29.7249    0.0000 </r>
       <r>   29.9197    0.0000 </r>
       <r>   30.2460    0.0000 </r>
      </set>
      <set comment="kpoint 7">
       <r>   -1.2813    1.0000 </r>
       <r>    0.7984    1.0000 </r>
       <r>    1.2195    1.0000 </r>
       <r>    1.2221    1.0000 </r>
       <r>    1.9865    1.0000 </r>
       <r>    2.0475    1.0000 </r>
       <r>    3.2705    1.0000 </r>
       <r>    7.9621   -0.0243 </r>
       <r>    8.1103   -0.0026 </r>
       <r>   10.5388   -0.0000 </r>
       <r>   11.4114   -0.0000 </r>
       <r>   11.7488   -0.0000 </r>
       <r>   11.8787   -0.0000 </r>
       <r>   14.7694    0.0000 </r>
       <r>   15.9881    0.0000 </r>
       <r>   16.1642    0.0000 </r>
       <r>   19.4003    0.0000 </r>
       <r>   19.6570    0.0000 </r>
       <r>   20.8085    0.0000 </r>
       <r>   21.6891    0.0000 </r>
       <r>   22.0582    0.0000 </r>
       <r>   22.9521    0.0000 </r>
       <r>   24.9963    0.0000 </r>
       <r>   25.7849    0.0000 </r>
       <r>   26.5782    0.0000 </r>
       <r>   29.2967    0.0000 </r>
       <r>   29.8373    0.0000 </r>
       <r>   30.0715    0.0000 </r>
       <r>   30.2677    0.0000 </r>
       <r>   31.0892    0.0000 </r>
      </set>
      <set comment="kpoint 8">
       <r>   -1.9282    1.0000 </r>
       <r>    0.7509    1.0000 </r>
       <r>    1.1707    1.0000 </r>
       <r>    1.1717    1.0000 </r>
       <r>    1.9110    1.0000 </r>
       <r>    1.9969    1.0000 </r>
       <r>    4.9519    1.0000 </r>
       <r>    8.3566   -0.0000 </r>
       <r>    8.7190   -0.0000 </r>
       <r>   10.4929   -0.0000 </r>
       <r>   11.5015   -0.0000 </r>
       <r>   12.1329   -0.0000 </r>
       <r>   12.2754   -0.0000 </r>
       <r>   13.4746    0.0000 </r>
       <r>   14.8202    0.0000 </r>
       <r>   14.8548    0.0000 </r>
       <r>   18.4097    0.0000 </r>
       <r>   19.3237    0.0000 </r>
       <r>   19.9413    0.0000 </r>
       <r>   21.5213    0.0000 </r>
       <r>   22.6629    0.0000 </r>
       <r>   23.0055    0.0000 </r>
       <r>   23.9198    0.0000 </r>
       <r>   27.8757    0.0000 </r>
       <r>   28.3884    0.0000 </r>
       <r>   29.1526    0.0000 </r>
       <r>   29.8561    0.0000 </r>
       <r>   30.3128    0.0000 </r>
       <r>   31.3903    0.0000 </r>
       <r>   32.4477    0.0000 </r>
      </set>
      <set comment="kpoint 9">
       <r>   -2.4864    1.0000 </r>
       <r>    0.8374    1.0000 </r>
       <r>    1.0864    1.0000 </r>
       <r>    1.0901    1.0000 </r>
       <r>    1.8947    1.0000 </r>
       <r>    1.9670    1.0000 </r>
       <r>    6.9226    1.0000 </r>
       <r>    8.9554   -0.0000 </r>
       <r>    9.3667   -0.0000 </r>
       <r>   10.4008   -0.0000 </r>
       <r>   11.7564   -0.0000 </r>
       <r>   12.4533   -0.0000 </r>
       <r>   12.6539   -0.0000 </r>
       <r>   12.8693   -0.0000 </r>
       <r>   13.6689    0.0000 </r>
       <r>   13.7615    0.0000 </r>
       <r>   17.0715    0.0000 </r>
       <r>   17.1662    0.0000 </r>
       <r>   17.9156    0.0000 </r>
       <r>   20.4757    0.0000 </r>
       <r>   24.4336    0.0000 </r>
       <r>   24.5547    0.0000 </r>
       <r>   25.5633    0.0000 </r>
       <r>   28.3145    0.0000 </r>
       <r>   29.6228    0.0000 </r>
       <r>   29.8797    0.0000 </r>
       <r>   30.1635    0.0000 </r>
       <r>   30.7986    0.0000 </r>
       <r>   30.9494    0.0000 </r>
       <r>   32.0013    0.0000 </r>
      </set>
      <set comment="kpoint 10">
       <r>   -2.8285    1.0000 </r>
       <r>    0.9322    1.0000 </r>
       <r>    1.0120    1.0000 </r>
       <r>    1.0135    1.0000 </r>
       <r>    1.9192    1.0000 </r>
       <r>    1.9587    1.0000 </r>
       <r>    9.0330   -0.0000 </r>
       <r>    9.6731   -0.0000 </r>
       <r>    9.7366   -0.0000 </r>
       <r>   10.2988   -0.0000 </r>
       <r>   11.7254   -0.0000 </r>
       <r>   12.5029   -0.0000 </r>
       <r>   12.5718   -0.0000 </r>
       <r>   12.6617   -0.0000 </r>
       <r>   13.3016    0.0000 </r>
       <r>   13.3225    0.0000 </r>
       <r>   14.9765    0.0000 </r>
       <r>   16.0671    0.0000 </r>
       <r>   16.7160    0.0000 </r>
       <r>   19.2823    0.0000 </r>
       <r>   26.2837    0.0000 </r>
       <r>   26.3488    0.0000 </r>
       <r>   27.2515    0.0000 </r>
       <r>   28.1279    0.0000 </r>
       <r>   29.2608    0.0000 </r>
       <r>   29.3652    0.0000 </r>
       <r>   30.4074    0.0000 </r>
       <r>   31.7896    0.0000 </r>
       <r>   31.9037    0.0000 </r>
       <r>   32.1954    0.0000 </r>
      </set>
      <set comment="kpoint 11">
       <r>   -2.6540    1.0000 </r>
       <r>    0.8629    1.0000 </r>
       <r>    1.0644    1.0000 </r>
       <r>    1.0655    1.0000 </r>
       <r>    1.8719    1.0000 </r>
       <r>    1.9859    1.0000 </r>
       <r>    8.3398   -0.0000 </r>
       <r>    8.9129   -0.0000 </r>
       <r>    9.2925   -0.0000 </r>
       <r>    9.7978   -0.0000 </r>
       <r>   11.8478   -0.0000 </r>
       <r>   12.1879   -0.0000 </r>
       <r>   13.3487    0.0000 </r>
       <r>   13.3934    0.0000 </r>
       <r>   13.5824    0.0000 </r>
       <r>   13.6144    0.0000 </r>
       <r>   15.8524    0.0000 </r>
       <r>   16.0275    0.0000 </r>
       <r>   17.3884    0.0000 </r>
       <r>   20.0986    0.0000 </r>
       <r>   25.2304    0.0000 </r>
       <r>   25.2747    0.0000 </r>
       <r>   27.1865    0.0000 </r>
       <r>   27.4470    0.0000 </r>
       <r>   29.1777    0.0000 </r>
       <r>   29.7131    0.0000 </r>
       <r>   29.9137    0.0000 </r>
       <r>   30.6847    0.0000 </r>
       <r>   32.2479    0.0000 </r>
       <r>   32.7878    0.0000 </r>
      </set>
      <set comment="kpoint 12">
       <r>   -2.3128    1.0000 </r>
       <r>    0.7635    1.0000 </r>
       <r>    1.1462    1.0000 </r>
       <r>    1.1486    1.0000 </r>
       <r>    1.8230    1.0000 </r>
       <r>    2.0177    1.0000 </r>
       <r>    6.9241    1.0000 </r>
       <r>    7.7757    0.0626 </r>
       <r>    8.9920   -0.0000 </r>
       <r>   10.0054   -0.0000 </r>
       <r>   11.5015   -0.0000 </r>
       <r>   12.4789   -0.0000 </r>
       <r>   12.9059   -0.0000 </r>
       <r>   13.8311    0.0000 </r>
       <r>   14.0870    0.0000 </r>
       <r>   15.0070    0.0000 </r>
       <r>   16.3696    0.0000 </r>
       <r>   17.5659    0.0000 </r>
       <r>   18.3840    0.0000 </r>
       <r>   21.3709    0.0000 </r>
       <r>   23.4433    0.0000 </r>
       <r>   24.2061    0.0000 </r>
       <r>   26.3254    0.0000 </r>
       <r>   27.0095    0.0000 </r>
       <r>   28.4942    0.0000 </r>
       <r>   29.1230    0.0000 </r>
       <r>   29.9745    0.0000 </r>
       <r>   30.9222    0.0000 </r>
       <r>   31.3717    0.0000 </r>
       <r>   32.1856    0.0000 </r>
      </set>
      <set comment="kpoint 13">
       <r>   -1.7549    1.0000 </r>
       <r>    0.6747    1.0000 </r>
       <r>    1.2232    1.0000 </r>
       <r>    1.2400    1.0000 </r>
       <r>    1.8361    1.0000 </r>
       <r>    2.0566    1.0000 </r>
       <r>    5.0006    1.0000 </r>
       <r>    7.2755    1.0122 </r>
       <r>    8.2642   -0.0001 </r>
       <r>   10.2225   -0.0000 </r>
       <r>   12.0040   -0.0000 </r>
       <r>   12.4561   -0.0000 </r>
       <r>   12.5689   -0.0000 </r>
       <r>   13.4727    0.0000 </r>
       <r>   15.0965    0.0000 </r>
       <r>   16.2962    0.0000 </r>
       <r>   17.5056    0.0000 </r>
       <r>   19.6641    0.0000 </r>
       <r>   20.0562    0.0000 </r>
       <r>   21.6843    0.0000 </r>
       <r>   22.3723    0.0000 </r>
       <r>   23.2382    0.0000 </r>
       <r>   24.7592    0.0000 </r>
       <r>   26.8565    0.0000 </r>
       <r>   27.2386    0.0000 </r>
       <r>   28.7134    0.0000 </r>
       <r>   29.6052    0.0000 </r>
       <r>   30.2857    0.0000 </r>
       <r>   30.9457    0.0000 </r>
       <r>   31.4464    0.0000 </r>
      </set>
      <set comment="kpoint 14">
       <r>   -1.1056    1.0000 </r>
       <r>    0.6962    1.0000 </r>
       <r>    1.2640    1.0000 </r>
       <r>    1.2949    1.0000 </r>
       <r>    1.9510    1.0000 </r>
       <r>    2.0842    1.0000 </r>
       <r>    3.3531    1.0000 </r>
       <r>    6.9515    1.0000 </r>
       <r>    7.6538    0.4738 </r>
       <r>   10.2047   -0.0000 </r>
       <r>   11.7834   -0.0000 </r>
       <r>   12.5921   -0.0000 </r>
       <r>   13.0132   -0.0000 </r>
       <r>   13.6338    0.0000 </r>
       <r>   16.2579    0.0000 </r>
       <r>   17.2804    0.0000 </r>
       <r>   18.5241    0.0000 </r>
       <r>   19.5699    0.0000 </r>
       <r>   21.0902    0.0000 </r>
       <r>   21.9169    0.0000 </r>
       <r>   22.3799    0.0000 </r>
       <r>   23.3977    0.0000 </r>
       <r>   24.7299    0.0000 </r>
       <r>   25.5459    0.0000 </r>
       <r>   26.7777    0.0000 </r>
       <r>   28.2368    0.0000 </r>
       <r>   29.4108    0.0000 </r>
       <r>   29.4474    0.0000 </r>
       <r>   30.0177    0.0000 </r>
       <r>   30.3959    0.0000 </r>
      </set>
      <set comment="kpoint 15">
       <r>   -0.7178    1.0000 </r>
       <r>    0.8707    1.0000 </r>
       <r>    1.3114    1.0000 </r>
       <r>    1.3471    1.0000 </r>
       <r>    2.0285    1.0000 </r>
       <r>    2.1025    1.0000 </r>
       <r>    2.3202    1.0000 </r>
       <r>    6.7275    1.0000 </r>
       <r>    7.4709    1.0084 </r>
       <r>   10.2518   -0.0000 </r>
       <r>   11.5252   -0.0000 </r>
       <r>   12.5277   -0.0000 </r>
       <r>   12.9028   -0.0000 </r>
       <r>   15.1326    0.0000 </r>
       <r>   16.1643    0.0000 </r>
       <r>   17.2359    0.0000 </r>
       <r>   18.9247    0.0000 </r>
       <r>   19.9448    0.0000 </r>
       <r>   20.7045    0.0000 </r>
       <r>   22.0220    0.0000 </r>
       <r>   22.2704    0.0000 </r>
       <r>   24.0584    0.0000 </r>
       <r>   25.0146    0.0000 </r>
       <r>   25.7531    0.0000 </r>
       <r>   27.2656    0.0000 </r>
       <r>   28.0622    0.0000 </r>
       <r>   28.5884    0.0000 </r>
       <r>   28.7716    0.0000 </r>
       <r>   28.9504    0.0000 </r>
       <r>   30.1177    0.0000 </r>
      </set>
      <set comment="kpoint 16">
       <r>   -0.9268    1.0000 </r>
       <r>    0.7614    1.0000 </r>
       <r>    1.2804    1.0000 </r>
       <r>    1.3046    1.0000 </r>
       <r>    1.9726    1.0000 </r>
       <r>    2.0691    1.0000 </r>
       <r>    2.9451    1.0000 </r>
       <r>    6.6276    1.0000 </r>
       <r>    7.8147    0.0014 </r>
       <r>   10.4279   -0.0000 </r>
       <r>   11.3991   -0.0000 </r>
       <r>   12.2951   -0.0000 </r>
       <r>   13.2160    0.0000 </r>
       <r>   14.5959    0.0000 </r>
       <r>   15.8457    0.0000 </r>
       <r>   17.0004    0.0000 </r>
       <r>   18.9641    0.0000 </r>
       <r>   20.0158    0.0000 </r>
       <r>   20.9858    0.0000 </r>
       <r>   21.5297    0.0000 </r>
       <r>   22.7164    0.0000 </r>
       <r>   24.0992    0.0000 </r>
       <r>   24.5286    0.0000 </r>
       <r>   25.8696    0.0000 </r>
       <r>   26.1225    0.0000 </r>
       <r>   27.8557    0.0000 </r>
       <r>   29.2109    0.0000 </r>
       <r>   29.5458    0.0000 </r>
       <r>   30.0491    0.0000 </r>
       <r>   30.4525    0.0000 </r>
      </set>
      <set comment="kpoint 17">
       <r>   -1.5418    1.0000 </r>
       <r>    0.6779    1.0000 </r>
       <r>    1.2260    1.0000 </r>
       <r>    1.2584    1.0000 </r>
       <r>    1.8669    1.0000 </r>
       <r>    2.0640    1.0000 </r>
       <r>    4.4347    1.0000 </r>
       <r>    6.7856    1.0000 </r>
       <r>    8.5006   -0.0000 </r>
       <r>   10.6947   -0.0000 </r>
       <r>   11.4010   -0.0000 </r>
       <r>   12.1539   -0.0000 </r>
       <r>   13.1832    0.0000 </r>
       <r>   13.7019    0.0000 </r>
       <r>   14.6333    0.0000 </r>
       <r>   17.0674    0.0000 </r>
       <r>   17.6308    0.0000 </r>
       <r>   20.1571    0.0000 </r>
       <r>   20.6808    0.0000 </r>
       <r>   21.7713    0.0000 </r>
       <r>   22.3114    0.0000 </r>
       <r>   23.3461    0.0000 </r>
       <r>   24.1937    0.0000 </r>
       <r>   26.2471    0.0000 </r>
       <r>   27.1951    0.0000 </r>
       <r>   28.2829    0.0000 </r>
       <r>   29.5578    0.0000 </r>
       <r>   30.3034    0.0000 </r>
       <r>   30.9234    0.0000 </r>
       <r>   31.5769    0.0000 </r>
      </set>
      <set comment="kpoint 18">
       <r>   -2.1511    1.0000 </r>
       <r>    0.7451    1.0000 </r>
       <r>    1.1642    1.0000 </r>
       <r>    1.1650    1.0000 </r>
       <r>    1.8414    1.0000 </r>
       <r>    2.0171    1.0000 </r>
       <r>    6.2556    1.0000 </r>
       <r>    7.1975    1.0033 </r>
       <r>    9.3425   -0.0000 </r>
       <r>   10.6749   -0.0000 </r>
       <r>   11.6290   -0.0000 </r>
       <r>   12.0799   -0.0000 </r>
       <r>   12.4021   -0.0000 </r>
       <r>   13.5792    0.0000 </r>
       <r>   14.0337    0.0000 </r>
       <r>   15.7427    0.0000 </r>
       <r>   16.6070    0.0000 </r>
       <r>   18.5241    0.0000 </r>
       <r>   19.1608    0.0000 </r>
       <r>   21.5934    0.0000 </r>
       <r>   22.5858    0.0000 </r>
       <r>   24.2419    0.0000 </r>
       <r>   25.3883    0.0000 </r>
       <r>   26.9285    0.0000 </r>
       <r>   28.5330    0.0000 </r>
       <r>   28.9744    0.0000 </r>
       <r>   30.1619    0.0000 </r>
       <r>   30.3890    0.0000 </r>
       <r>   31.6372    0.0000 </r>
       <r>   32.1388    0.0000 </r>
      </set>
      <set comment="kpoint 19">
       <r>   -2.5694    1.0000 </r>
       <r>    0.8492    1.0000 </r>
       <r>    1.0732    1.0000 </r>
       <r>    1.0820    1.0000 </r>
       <r>    1.8799    1.0000 </r>
       <r>    1.9783    1.0000 </r>
       <r>    7.6285    0.5803 </r>
       <r>    8.4178   -0.0000 </r>
       <r>    9.7969   -0.0000 </r>
       <r>   10.3058   -0.0000 </r>
       <r>   11.8435   -0.0000 </r>
       <r>   12.0686   -0.0000 </r>
       <r>   12.6370   -0.0000 </r>
       <r>   13.2199    0.0000 </r>
       <r>   13.5479    0.0000 </r>
       <r>   14.1040    0.0000 </r>
       <r>   16.2823    0.0000 </r>
       <r>   16.6605    0.0000 </r>
       <r>   17.7718    0.0000 </r>
       <r>   20.2922    0.0000 </r>
       <r>   24.4577    0.0000 </r>
       <r>   25.2824    0.0000 </r>
       <r>   26.3532    0.0000 </r>
       <r>   27.7403    0.0000 </r>
       <r>   29.1883    0.0000 </r>
       <r>   29.9363    0.0000 </r>
       <r>   30.3264    0.0000 </r>
       <r>   30.6883    0.0000 </r>
       <r>   31.6239    0.0000 </r>
       <r>   32.0792    0.0000 </r>
      </set>
      <set comment="kpoint 20">
       <r>   -2.0512    1.0000 </r>
       <r>    0.6630    1.0000 </r>
       <r>    1.2396    1.0000 </r>
       <r>    1.2410    1.0000 </r>
       <r>    1.7301    1.0000 </r>
       <r>    2.0683    1.0000 </r>
       <r>    6.8036    1.0000 </r>
       <r>    7.5294    0.9160 </r>
       <r>    7.6526    0.4789 </r>
       <r>    9.2727   -0.0000 </r>
       <r>   10.7484   -0.0000 </r>
       <r>   13.6095    0.0000 </r>
       <r>   14.0536    0.0000 </r>
       <r>   14.1369    0.0000 </r>
       <r>   15.4989    0.0000 </r>
       <r>   15.5207    0.0000 </r>
       <r>   15.9265    0.0000 </r>
       <r>   17.6509    0.0000 </r>
       <r>   18.8104    0.0000 </r>
       <r>   22.5207    0.0000 </r>
       <r>   23.1338    0.0000 </r>
       <r>   23.1730    0.0000 </r>
       <r>   26.0641    0.0000 </r>
       <r>   26.8018    0.0000 </r>
       <r>   27.1098    0.0000 </r>
       <r>   28.2068    0.0000 </r>
       <r>   30.3007    0.0000 </r>
       <r>   30.4194    0.0000 </r>
       <r>   31.3169    0.0000 </r>
       <r>   31.3329    0.0000 </r>
      </set>
      <set comment="kpoint 21">
       <r>   -1.5586    1.0000 </r>
       <r>    0.5612    1.0000 </r>
       <r>    1.3142    1.0000 </r>
       <r>    1.3569    1.0000 </r>
       <r>    1.7112    1.0000 </r>
       <r>    2.1108    1.0000 </r>
       <r>    5.4813    1.0000 </r>
       <r>    6.5889    1.0000 </r>
       <r>    7.2368    1.0067 </r>
       <r>    9.5367   -0.0000 </r>
       <r>   10.7245   -0.0000 </r>
       <r>   13.5506    0.0000 </r>
       <r>   14.1492    0.0000 </r>
       <r>   14.6387    0.0000 </r>
       <r>   16.1180    0.0000 </r>
       <r>   16.4393    0.0000 </r>
       <r>   17.0156    0.0000 </r>
       <r>   18.9533    0.0000 </r>
       <r>   20.1067    0.0000 </r>
       <r>   21.6701    0.0000 </r>
       <r>   22.1582    0.0000 </r>
       <r>   23.8304    0.0000 </r>
       <r>   25.6818    0.0000 </r>
       <r>   25.8605    0.0000 </r>
       <r>   26.6765    0.0000 </r>
       <r>   27.1143    0.0000 </r>
       <r>   29.2081    0.0000 </r>
       <r>   29.5922    0.0000 </r>
       <r>   30.8120    0.0000 </r>
       <r>   31.0495    0.0000 </r>
      </set>
      <set comment="kpoint 22">
       <r>   -0.9131    1.0000 </r>
       <r>    0.5200    1.0000 </r>
       <r>    1.2911    1.0000 </r>
       <r>    1.4366    1.0000 </r>
       <r>    1.8832    1.0000 </r>
       <r>    2.1233    1.0000 </r>
       <r>    3.9070    1.0000 </r>
       <r>    6.0268    1.0000 </r>
       <r>    6.7754    1.0000 </r>
       <r>    9.7342   -0.0000 </r>
       <r>   11.6371   -0.0000 </r>
       <r>   12.9452   -0.0000 </r>
       <r>   14.2367    0.0000 </r>
       <r>   14.4655    0.0000 </r>
       <r>   16.9248    0.0000 </r>
       <r>   17.7089    0.0000 </r>
       <r>   18.3138    0.0000 </r>
       <r>   19.2968    0.0000 </r>
       <r>   20.6052    0.0000 </r>
       <r>   21.2421    0.0000 </r>
       <r>   22.8942    0.0000 </r>
       <r>   24.2800    0.0000 </r>
       <r>   24.6795    0.0000 </r>
       <r>   25.0946    0.0000 </r>
       <r>   26.1461    0.0000 </r>
       <r>   27.6169    0.0000 </r>
       <r>   28.0238    0.0000 </r>
       <r>   28.6069    0.0000 </r>
       <r>   29.3094    0.0000 </r>
       <r>   31.2724    0.0000 </r>
      </set>
      <set comment="kpoint 23">
       <r>   -0.3935    1.0000 </r>
       <r>    0.6419    1.0000 </r>
       <r>    1.2794    1.0000 </r>
       <r>    1.4675    1.0000 </r>
       <r>    2.0322    1.0000 </r>
       <r>    2.1147    1.0000 </r>
       <r>    2.7715    1.0000 </r>
       <r>    5.5030    1.0000 </r>
       <r>    6.7387    1.0000 </r>
       <r>    9.8442   -0.0000 </r>
       <r>   12.4641   -0.0000 </r>
       <r>   12.9208   -0.0000 </r>
       <r>   13.8159    0.0000 </r>
       <r>   14.8681    0.0000 </r>
       <r>   16.3821    0.0000 </r>
       <r>   17.6938    0.0000 </r>
       <r>   19.1914    0.0000 </r>
       <r>   19.9840    0.0000 </r>
       <r>   21.0686    0.0000 </r>
       <r>   21.8260    0.0000 </r>
       <r>   22.4710    0.0000 </r>
       <r>   23.4828    0.0000 </r>
       <r>   25.5204    0.0000 </r>
       <r>   26.0460    0.0000 </r>
       <r>   26.2578    0.0000 </r>
       <r>   26.8463    0.0000 </r>
       <r>   27.5934    0.0000 </r>
       <r>   28.1536    0.0000 </r>
       <r>   29.2240    0.0000 </r>
       <r>   29.6556    0.0000 </r>
      </set>
      <set comment="kpoint 24">
       <r>   -0.4225    1.0000 </r>
       <r>    0.6845    1.0000 </r>
       <r>    1.3376    1.0000 </r>
       <r>    1.4622    1.0000 </r>
       <r>    1.8882    1.0000 </r>
       <r>    1.9878    1.0000 </r>
       <r>    3.0395    1.0000 </r>
       <r>    5.1381    1.0000 </r>
       <r>    7.1286    1.0007 </r>
       <r>   10.0643   -0.0000 </r>
       <r>   12.1298   -0.0000 </r>
       <r>   13.2912    0.0000 </r>
       <r>   14.0336    0.0000 </r>
       <r>   15.0396    0.0000 </r>
       <r>   15.6831    0.0000 </r>
       <r>   16.3422    0.0000 </r>
       <r>   19.8161    0.0000 </r>
       <r>   20.5876    0.0000 </r>
       <r>   21.0096    0.0000 </r>
       <r>   22.0484    0.0000 </r>
       <r>   22.6140    0.0000 </r>
       <r>   24.3380    0.0000 </r>
       <r>   25.1593    0.0000 </r>
       <r>   25.4008    0.0000 </r>
       <r>   26.1279    0.0000 </r>
       <r>   26.3683    0.0000 </r>
       <r>   27.6446    0.0000 </r>
       <r>   28.8303    0.0000 </r>
       <r>   29.7073    0.0000 </r>
       <r>   30.2022    0.0000 </r>
      </set>
      <set comment="kpoint 25">
       <r>   -0.9620    1.0000 </r>
       <r>    0.6054    1.0000 </r>
       <r>    1.2687    1.0000 </r>
       <r>    1.4016    1.0000 </r>
       <r>    1.8498    1.0000 </r>
       <r>    2.0622    1.0000 </r>
       <r>    4.1287    1.0000 </r>
       <r>    5.1448    1.0000 </r>
       <r>    7.8056    0.0125 </r>
       <r>   10.4527   -0.0000 </r>
       <r>   11.8181   -0.0000 </r>
       <r>   13.0090   -0.0000 </r>
       <r>   13.2826    0.0000 </r>
       <r>   14.6509    0.0000 </r>
       <r>   15.4916    0.0000 </r>
       <r>   16.4323    0.0000 </r>
       <r>   18.7958    0.0000 </r>
       <r>   19.3759    0.0000 </r>
       <r>   22.1044    0.0000 </r>
       <r>   22.5210    0.0000 </r>
       <r>   23.5839    0.0000 </r>
       <r>   23.9207    0.0000 </r>
       <r>   24.3018    0.0000 </r>
       <r>   24.5530    0.0000 </r>
       <r>   25.2827    0.0000 </r>
       <r>   27.3059    0.0000 </r>
       <r>   28.8127    0.0000 </r>
       <r>   29.3639    0.0000 </r>
       <r>   30.4803    0.0000 </r>
       <r>   31.2203    0.0000 </r>
      </set>
      <set comment="kpoint 26">
       <r>   -1.5984    1.0000 </r>
       <r>    0.6539    1.0000 </r>
       <r>    1.2274    1.0000 </r>
       <r>    1.2785    1.0000 </r>
       <r>    1.8260    1.0000 </r>
       <r>    2.0692    1.0000 </r>
       <r>    5.0456    1.0000 </r>
       <r>    6.1043    1.0000 </r>
       <r>    8.5923   -0.0000 </r>
       <r>   10.9419   -0.0000 </r>
       <r>   11.3107   -0.0000 </r>
       <r>   12.4563   -0.0000 </r>
       <r>   12.7157   -0.0000 </r>
       <r>   14.0654    0.0000 </r>
       <r>   14.6903    0.0000 </r>
       <r>   16.7282    0.0000 </r>
       <r>   17.4861    0.0000 </r>
       <r>   19.6807    0.0000 </r>
       <r>   20.7142    0.0000 </r>
       <r>   21.6764    0.0000 </r>
       <r>   22.9222    0.0000 </r>
       <r>   23.4557    0.0000 </r>
       <r>   24.5769    0.0000 </r>
       <r>   25.9371    0.0000 </r>
       <r>   26.6103    0.0000 </r>
       <r>   28.7233    0.0000 </r>
       <r>   29.1395    0.0000 </r>
       <r>   30.3211    0.0000 </r>
       <r>   30.8487    0.0000 </r>
       <r>   31.9298    0.0000 </r>
      </set>
      <set comment="kpoint 27">
       <r>   -2.0762    1.0000 </r>
       <r>    0.7485    1.0000 </r>
       <r>    1.1640    1.0000 </r>
       <r>    1.1661    1.0000 </r>
       <r>    1.8690    1.0000 </r>
       <r>    2.0078    1.0000 </r>
       <r>    5.6005    1.0000 </r>
       <r>    7.8767   -0.0344 </r>
       <r>    9.0538   -0.0000 </r>
       <r>   10.5490   -0.0000 </r>
       <r>   11.6499   -0.0000 </r>
       <r>   12.0402   -0.0000 </r>
       <r>   12.7663   -0.0000 </r>
       <r>   13.1761    0.0000 </r>
       <r>   14.1042    0.0000 </r>
       <r>   15.3440    0.0000 </r>
       <r>   17.4946    0.0000 </r>
       <r>   19.0642    0.0000 </r>
       <r>   19.2093    0.0000 </r>
       <r>   21.5947    0.0000 </r>
       <r>   22.6663    0.0000 </r>
       <r>   23.6061    0.0000 </r>
       <r>   24.6600    0.0000 </r>
       <r>   27.7432    0.0000 </r>
       <r>   28.3576    0.0000 </r>
       <r>   29.3354    0.0000 </r>
       <r>   29.9361    0.0000 </r>
       <r>   30.2558    0.0000 </r>
       <r>   31.3572    0.0000 </r>
       <r>   32.4004    0.0000 </r>
      </set>
      <set comment="kpoint 28">
       <r>   -1.1355    1.0000 </r>
       <r>    0.4541    1.0000 </r>
       <r>    1.4381    1.0000 </r>
       <r>    1.4845    1.0000 </r>
       <r>    1.6127    1.0000 </r>
       <r>    2.1603    1.0000 </r>
       <r>    4.9636    1.0000 </r>
       <r>    6.3363    1.0000 </r>
       <r>    6.4217    1.0000 </r>
       <r>    9.0403   -0.0000 </r>
       <r>   10.1268   -0.0000 </r>
       <r>   14.8033    0.0000 </r>
       <r>   15.1051    0.0000 </r>
       <r>   15.3656    0.0000 </r>
       <r>   15.9704    0.0000 </r>
       <r>   17.6175    0.0000 </r>
       <r>   17.6586    0.0000 </r>
       <r>   18.7865    0.0000 </r>
       <r>   20.8602    0.0000 </r>
       <r>   21.2659    0.0000 </r>
       <r>   21.6220    0.0000 </r>
       <r>   23.6512    0.0000 </r>
       <r>   24.9700    0.0000 </r>
       <r>   25.0116    0.0000 </r>
       <r>   27.0535    0.0000 </r>
       <r>   27.1618    0.0000 </r>
       <r>   27.7240    0.0000 </r>
       <r>   27.8652    0.0000 </r>
       <r>   31.3924    0.0000 </r>
       <r>   31.9594    0.0000 </r>
      </set>
      <set comment="kpoint 29">
       <r>   -0.5327    1.0000 </r>
       <r>    0.3875    1.0000 </r>
       <r>    1.3355    1.0000 </r>
       <r>    1.6033    1.0000 </r>
       <r>    1.7981    1.0000 </r>
       <r>    2.1768    1.0000 </r>
       <r>    3.9058    1.0000 </r>
       <r>    5.6265    1.0000 </r>
       <r>    6.0633    1.0000 </r>
       <r>    9.2948   -0.0000 </r>
       <r>   10.2895   -0.0000 </r>
       <r>   14.2550    0.0000 </r>
       <r>   15.5942    0.0000 </r>
       <r>   16.0818    0.0000 </r>
       <r>   16.6019    0.0000 </r>
       <r>   18.1879    0.0000 </r>
       <r>   18.8764    0.0000 </r>
       <r>   19.7587    0.0000 </r>
       <r>   19.9948    0.0000 </r>
       <r>   20.6523    0.0000 </r>
       <r>   23.1115    0.0000 </r>
       <r>   23.4595    0.0000 </r>
       <r>   23.7526    0.0000 </r>
       <r>   24.9960    0.0000 </r>
       <r>   26.0807    0.0000 </r>
       <r>   26.2134    0.0000 </r>
       <r>   27.0866    0.0000 </r>
       <r>   28.3915    0.0000 </r>
       <r>   30.4881    0.0000 </r>
       <r>   32.0637    0.0000 </r>
      </set>
      <set comment="kpoint 30">
       <r>    0.0410    1.0000 </r>
       <r>    0.4647    1.0000 </r>
       <r>    1.1714    1.0000 </r>
       <r>    1.6487    1.0000 </r>
       <r>    2.0807    1.0000 </r>
       <r>    2.1395    1.0000 </r>
       <r>    2.9831    1.0000 </r>
       <r>    4.8146    1.0000 </r>
       <r>    6.0476    1.0000 </r>
       <r>    9.5195   -0.0000 </r>
       <r>   11.3297   -0.0000 </r>
       <r>   13.6198    0.0000 </r>
       <r>   15.1711    0.0000 </r>
       <r>   16.2220    0.0000 </r>
       <r>   16.9842    0.0000 </r>
       <r>   18.0690    0.0000 </r>
       <r>   19.1978    0.0000 </r>
       <r>   19.9362    0.0000 </r>
       <r>   20.9260    0.0000 </r>
       <r>   21.8235    0.0000 </r>
       <r>   21.9084    0.0000 </r>
       <r>   23.7057    0.0000 </r>
       <r>   24.5696    0.0000 </r>
       <r>   25.0413    0.0000 </r>
       <r>   25.5776    0.0000 </r>
       <r>   25.8146    0.0000 </r>
       <r>   26.7792    0.0000 </r>
       <r>   28.9230    0.0000 </r>
       <r>   29.5185    0.0000 </r>
       <r>   30.9741    0.0000 </r>
      </set>
      <set comment="kpoint 31">
       <r>    0.0741    1.0000 </r>
       <r>    0.6891    1.0000 </r>
       <r>    1.2085    1.0000 </r>
       <r>    1.6301    1.0000 </r>
       <r>    1.7974    1.0000 </r>
       <r>    2.0540    1.0000 </r>
       <r>    3.2420    1.0000 </r>
       <r>    4.1222    1.0000 </r>
       <r>    6.4253    1.0000 </r>
       <r>    9.7190   -0.0000 </r>
       <r>   12.7420   -0.0000 </r>
       <r>   13.0570   -0.0000 </r>
       <r>   14.7041    0.0000 </r>
       <r>   15.1407    0.0000 </r>
       <r>   16.6495    0.0000 </r>
       <r>   17.3017    0.0000 </r>
       <r>   19.4051    0.0000 </r>
       <r>   20.7135    0.0000 </r>
       <r>   21.0866    0.0000 </r>
       <r>   22.3559    0.0000 </r>
       <r>   23.0203    0.0000 </r>
       <r>   23.7836    0.0000 </r>
       <r>   24.6707    0.0000 </r>
       <r>   24.7908    0.0000 </r>
       <r>   25.2990    0.0000 </r>
       <r>   25.8560    0.0000 </r>
       <r>   27.8287    0.0000 </r>
       <r>   28.5524    0.0000 </r>
       <r>   29.6631    0.0000 </r>
       <r>   30.2879    0.0000 </r>
      </set>
      <set comment="kpoint 32">
       <r>   -0.3487    1.0000 </r>
       <r>    0.6194    1.0000 </r>
       <r>    1.3216    1.0000 </r>
       <r>    1.5225    1.0000 </r>
       <r>    1.8533    1.0000 </r>
       <r>    1.9358    1.0000 </r>
       <r>    3.6354    1.0000 </r>
       <r>    4.3740    1.0000 </r>
       <r>    7.0692    1.0002 </r>
       <r>   10.0326   -0.0000 </r>
       <r>   12.3984   -0.0000 </r>
       <r>   13.5351    0.0000 </r>
       <r>   13.9881    0.0000 </r>
       <r>   14.7711    0.0000 </r>
       <r>   15.9573    0.0000 </r>
       <r>   16.4645    0.0000 </r>
       <r>   18.8796    0.0000 </r>
       <r>   20.7431    0.0000 </r>
       <r>   21.7885    0.0000 </r>
       <r>   22.6403    0.0000 </r>
       <r>   23.2897    0.0000 </r>
       <r>   24.0070    0.0000 </r>
       <r>   24.3011    0.0000 </r>
       <r>   25.2653    0.0000 </r>
       <r>   25.7946    0.0000 </r>
       <r>   26.0685    0.0000 </r>
       <r>   27.2419    0.0000 </r>
       <r>   28.6464    0.0000 </r>
       <r>   30.2307    0.0000 </r>
       <r>   30.5677    0.0000 </r>
      </set>
      <set comment="kpoint 33">
       <r>   -0.9483    1.0000 </r>
       <r>    0.6572    1.0000 </r>
       <r>    1.2736    1.0000 </r>
       <r>    1.3593    1.0000 </r>
       <r>    1.9016    1.0000 </r>
       <r>    2.0650    1.0000 </r>
       <r>    3.5263    1.0000 </r>
       <r>    5.8539    1.0000 </r>
       <r>    7.8087    0.0086 </r>
       <r>   10.4451   -0.0000 </r>
       <r>   11.5877   -0.0000 </r>
       <r>   12.6786   -0.0000 </r>
       <r>   13.7033    0.0000 </r>
       <r>   14.3822    0.0000 </r>
       <r>   15.3220    0.0000 </r>
       <r>   16.8435    0.0000 </r>
       <r>   18.8673    0.0000 </r>
       <r>   19.8411    0.0000 </r>
       <r>   21.2643    0.0000 </r>
       <r>   22.4101    0.0000 </r>
       <r>   22.9286    0.0000 </r>
       <r>   23.8684    0.0000 </r>
       <r>   24.4338    0.0000 </r>
       <r>   25.0836    0.0000 </r>
       <r>   26.3923    0.0000 </r>
       <r>   26.9098    0.0000 </r>
       <r>   29.1297    0.0000 </r>
       <r>   29.6795    0.0000 </r>
       <r>   30.1577    0.0000 </r>
       <r>   31.0604    0.0000 </r>
      </set>
      <set comment="kpoint 34">
       <r>   -1.4332    1.0000 </r>
       <r>    0.7267    1.0000 </r>
       <r>    1.2232    1.0000 </r>
       <r>    1.2344    1.0000 </r>
       <r>    1.9292    1.0000 </r>
       <r>    2.0544    1.0000 </r>
       <r>    3.8197    1.0000 </r>
       <r>    7.4923    0.9838 </r>
       <r>    8.3167   -0.0000 </r>
       <r>   10.5152   -0.0000 </r>
       <r>   11.4884   -0.0000 </r>
       <r>   11.8441   -0.0000 </r>
       <r>   12.6856   -0.0000 </r>
       <r>   13.9284    0.0000 </r>
       <r>   15.3080    0.0000 </r>
       <r>   16.5580    0.0000 </r>
       <r>   18.6125    0.0000 </r>
       <r>   20.1678    0.0000 </r>
       <r>   20.9632    0.0000 </r>
       <r>   21.6657    0.0000 </r>
       <r>   22.1513    0.0000 </r>
       <r>   22.6470    0.0000 </r>
       <r>   24.5042    0.0000 </r>
       <r>   26.0811    0.0000 </r>
       <r>   27.3587    0.0000 </r>
       <r>   28.5364    0.0000 </r>
       <r>   29.8773    0.0000 </r>
       <r>   30.2666    0.0000 </r>
       <r>   30.6417    0.0000 </r>
       <r>   31.3529    0.0000 </r>
      </set>
      <set comment="kpoint 35">
       <r>   -0.0155    1.0000 </r>
       <r>    0.3118    1.0000 </r>
       <r>    1.3695    1.0000 </r>
       <r>    1.7104    1.0000 </r>
       <r>    1.7793    1.0000 </r>
       <r>    2.2227    1.0000 </r>
       <r>    3.2127    1.0000 </r>
       <r>    5.5776    1.0000 </r>
       <r>    5.7096    1.0000 </r>
       <r>    8.9344   -0.0000 </r>
       <r>    9.8373   -0.0000 </r>
       <r>   15.1433    0.0000 </r>
       <r>   16.3502    0.0000 </r>
       <r>   16.7268    0.0000 </r>
       <r>   17.1283    0.0000 </r>
       <r>   18.5639    0.0000 </r>
       <r>   18.6517    0.0000 </r>
       <r>   19.9011    0.0000 </r>
       <r>   20.7116    0.0000 </r>
       <r>   20.9124    0.0000 </r>
       <r>   22.0429    0.0000 </r>
       <r>   22.7333    0.0000 </r>
       <r>   24.3699    0.0000 </r>
       <r>   24.3846    0.0000 </r>
       <r>   24.7808    0.0000 </r>
       <r>   24.9503    0.0000 </r>
       <r>   27.0134    0.0000 </r>
       <r>   29.6323    0.0000 </r>
       <r>   30.6326    0.0000 </r>
       <r>   31.1826    0.0000 </r>
      </set>
      <set comment="kpoint 36">
       <r>    0.2936    1.0000 </r>
       <r>    0.5085    1.0000 </r>
       <r>    1.1459    1.0000 </r>
       <r>    1.7658    1.0000 </r>
       <r>    2.0893    1.0000 </r>
       <r>    2.1844    1.0000 </r>
       <r>    2.5768    1.0000 </r>
       <r>    5.1363    1.0000 </r>
       <r>    5.5753    1.0000 </r>
       <r>    9.2048   -0.0000 </r>
       <r>   10.1221   -0.0000 </r>
       <r>   14.6502    0.0000 </r>
       <r>   16.6781    0.0000 </r>
       <r>   17.0177    0.0000 </r>
       <r>   17.7931    0.0000 </r>
       <r>   17.8183    0.0000 </r>
       <r>   18.3358    0.0000 </r>
       <r>   20.9098    0.0000 </r>
       <r>   21.0820    0.0000 </r>
       <r>   21.6140    0.0000 </r>
       <r>   22.0078    0.0000 </r>
       <r>   22.5113    0.0000 </r>
       <r>   23.1380    0.0000 </r>
       <r>   23.7720    0.0000 </r>
       <r>   24.6226    0.0000 </r>
       <r>   26.4092    0.0000 </r>
       <r>   26.8931    0.0000 </r>
       <r>   28.9675    0.0000 </r>
       <r>   30.3287    0.0000 </r>
       <r>   30.6364    0.0000 </r>
      </set>
      <set comment="kpoint 37">
       <r>    0.2560    1.0000 </r>
       <r>    0.6898    1.0000 </r>
       <r>    0.9962    1.0000 </r>
       <r>    1.7144    1.0000 </r>
       <r>    2.0310    1.0000 </r>
       <r>    2.2363    1.0000 </r>
       <r>    2.7162    1.0000 </r>
       <r>    4.5000    1.0000 </r>
       <r>    5.9110    1.0000 </r>
       <r>    9.4808   -0.0000 </r>
       <r>   11.2697   -0.0000 </r>
       <r>   13.8199    0.0000 </r>
       <r>   15.6526    0.0000 </r>
       <r>   16.0939    0.0000 </r>
       <r>   17.4163    0.0000 </r>
       <r>   17.8635    0.0000 </r>
       <r>   19.2519    0.0000 </r>
       <r>   20.0847    0.0000 </r>
       <r>   21.3048    0.0000 </r>
       <r>   22.1824    0.0000 </r>
       <r>   22.3426    0.0000 </r>
       <r>   23.2816    0.0000 </r>
       <r>   23.4474    0.0000 </r>
       <r>   24.4334    0.0000 </r>
       <r>   25.3235    0.0000 </r>
       <r>   25.6806    0.0000 </r>
       <r>   27.9763    0.0000 </r>
       <r>   28.8674    0.0000 </r>
       <r>   29.5538    0.0000 </r>
       <r>   30.2391    0.0000 </r>
      </set>
      <set comment="kpoint 38">
       <r>   -0.0951    1.0000 </r>
       <r>    0.6501    1.0000 </r>
       <r>    1.2468    1.0000 </r>
       <r>    1.5620    1.0000 </r>
       <r>    1.9148    1.0000 </r>
       <r>    2.1011    1.0000 </r>
       <r>    2.9001    1.0000 </r>
       <r>    4.7431    1.0000 </r>
       <r>    6.5267    1.0000 </r>
       <r>    9.7590   -0.0000 </r>
       <r>   12.8025   -0.0000 </r>
       <r>   12.8170   -0.0000 </r>
       <r>   14.2581    0.0000 </r>
       <r>   15.4891    0.0000 </r>
       <r>   16.2755    0.0000 </r>
       <r>   17.2374    0.0000 </r>
       <r>   20.0330    0.0000 </r>
       <r>   20.4343    0.0000 </r>
       <r>   20.7968    0.0000 </r>
       <r>   21.6227    0.0000 </r>
       <r>   22.6563    0.0000 </r>
       <r>   24.0909    0.0000 </r>
       <r>   24.8553    0.0000 </r>
       <r>   25.3428    0.0000 </r>
       <r>   26.0191    0.0000 </r>
       <r>   26.3850    0.0000 </r>
       <r>   27.4675    0.0000 </r>
       <r>   28.1565    0.0000 </r>
       <r>   29.3580    0.0000 </r>
       <r>   29.8915    0.0000 </r>
      </set>
      <set comment="kpoint 39">
       <r>   -0.5517    1.0000 </r>
       <r>    0.7825    1.0000 </r>
       <r>    1.3575    1.0000 </r>
       <r>    1.3832    1.0000 </r>
       <r>    1.9527    1.0000 </r>
       <r>    2.0568    1.0000 </r>
       <r>    2.5677    1.0000 </r>
       <r>    5.9476    1.0000 </r>
       <r>    7.2547    1.0090 </r>
       <r>   10.1337   -0.0000 </r>
       <r>   11.8008   -0.0000 </r>
       <r>   12.9273   -0.0000 </r>
       <r>   13.6882    0.0000 </r>
       <r>   15.1460    0.0000 </r>
       <r>   15.5778    0.0000 </r>
       <r>   16.8644    0.0000 </r>
       <r>   19.6695    0.0000 </r>
       <r>   20.6895    0.0000 </r>
       <r>   20.8079    0.0000 </r>
       <r>   21.3480    0.0000 </r>
       <r>   22.2958    0.0000 </r>
       <r>   24.5474    0.0000 </r>
       <r>   24.7046    0.0000 </r>
       <r>   26.1272    0.0000 </r>
       <r>   26.6011    0.0000 </r>
       <r>   27.5481    0.0000 </r>
       <r>   28.0103    0.0000 </r>
       <r>   28.5954    0.0000 </r>
       <r>   29.1560    0.0000 </r>
       <r>   30.0189    0.0000 </r>
      </set>
      <set comment="kpoint 40">
       <r>   -0.9059    1.0000 </r>
       <r>    0.9099    1.0000 </r>
       <r>    1.2588    1.0000 </r>
       <r>    1.2849    1.0000 </r>
       <r>    2.0346    1.0000 </r>
       <r>    2.0724    1.0000 </r>
       <r>    2.4650    1.0000 </r>
       <r>    7.3301    1.0237 </r>
       <r>    7.8249   -0.0090 </r>
       <r>   10.4443   -0.0000 </r>
       <r>   11.3509   -0.0000 </r>
       <r>   11.9205   -0.0000 </r>
       <r>   12.3152   -0.0000 </r>
       <r>   15.3377    0.0000 </r>
       <r>   16.3486    0.0000 </r>
       <r>   17.1016    0.0000 </r>
       <r>   18.7977    0.0000 </r>
       <r>   19.5145    0.0000 </r>
       <r>   20.5561    0.0000 </r>
       <r>   21.8156    0.0000 </r>
       <r>   22.6885    0.0000 </r>
       <r>   24.2028    0.0000 </r>
       <r>   24.8583    0.0000 </r>
       <r>   25.4394    0.0000 </r>
       <r>   26.6476    0.0000 </r>
       <r>   28.4340    0.0000 </r>
       <r>   29.0371    0.0000 </r>
       <r>   29.5493    0.0000 </r>
       <r>   29.7880    0.0000 </r>
       <r>   30.2202    0.0000 </r>
      </set>
      <set comment="kpoint 41">
       <r>    0.2797    1.0000 </r>
       <r>    0.4459    1.0000 </r>
       <r>    1.3035    1.0000 </r>
       <r>    1.7695    1.0000 </r>
       <r>    1.8666    1.0000 </r>
       <r>    2.2353    1.0000 </r>
       <r>    2.6297    1.0000 </r>
       <r>    5.4143    1.0000 </r>
       <r>    5.5537    1.0000 </r>
       <r>    8.9149   -0.0000 </r>
       <r>    9.7846   -0.0000 </r>
       <r>   15.1670    0.0000 </r>
       <r>   16.9775    0.0000 </r>
       <r>   17.3201    0.0000 </r>
       <r>   17.7144    0.0000 </r>
       <r>   18.0198    0.0000 </r>
       <r>   18.1117    0.0000 </r>
       <r>   20.5351    0.0000 </r>
       <r>   21.2253    0.0000 </r>
       <r>   21.5161    0.0000 </r>
       <r>   21.9039    0.0000 </r>
       <r>   22.3571    0.0000 </r>
       <r>   23.3573    0.0000 </r>
       <r>   23.4058    0.0000 </r>
       <r>   24.3097    0.0000 </r>
       <r>   25.9573    0.0000 </r>
       <r>   26.9663    0.0000 </r>
       <r>   28.7845    0.0000 </r>
       <r>   31.0363    0.0000 </r>
       <r>   31.1341    0.0000 </r>
      </set>
      <set comment="kpoint 42">
       <r>    0.0258    1.0000 </r>
       <r>    0.3337    1.0000 </r>
       <r>    1.2635    1.0000 </r>
       <r>    1.7057    1.0000 </r>
       <r>    1.9272    1.0000 </r>
       <r>    2.1867    1.0000 </r>
       <r>    3.1544    1.0000 </r>
       <r>    5.3059    1.0000 </r>
       <r>    5.7387    1.0000 </r>
       <r>    9.2339   -0.0000 </r>
       <r>   10.1767   -0.0000 </r>
       <r>   14.5154    0.0000 </r>
       <r>   16.1449    0.0000 </r>
       <r>   16.7628    0.0000 </r>
       <r>   17.1142    0.0000 </r>
       <r>   18.1762    0.0000 </r>
       <r>   18.8742    0.0000 </r>
       <r>   20.2481    0.0000 </r>
       <r>   20.5978    0.0000 </r>
       <r>   20.8631    0.0000 </r>
       <r>   22.5497    0.0000 </r>
       <r>   22.6499    0.0000 </r>
       <r>   24.1697    0.0000 </r>
       <r>   24.7746    0.0000 </r>
       <r>   25.0250    0.0000 </r>
       <r>   25.3712    0.0000 </r>
       <r>   26.8292    0.0000 </r>
       <r>   29.5471    0.0000 </r>
       <r>   30.3830    0.0000 </r>
       <r>   30.6504    0.0000 </r>
      </set>
      <set comment="kpoint 43">
       <r>   -0.4243    1.0000 </r>
       <r>    0.4644    1.0000 </r>
       <r>    1.2566    1.0000 </r>
       <r>    1.5473    1.0000 </r>
       <r>    1.9967    1.0000 </r>
       <r>    2.1213    1.0000 </r>
       <r>    3.4117    1.0000 </r>
       <r>    5.3625    1.0000 </r>
       <r>    6.3265    1.0000 </r>
       <r>    9.6009   -0.0000 </r>
       <r>   11.4519   -0.0000 </r>
       <r>   13.3008    0.0000 </r>
       <r>   14.6900    0.0000 </r>
       <r>   15.4773    0.0000 </r>
       <r>   16.9781    0.0000 </r>
       <r>   18.5531    0.0000 </r>
       <r>   18.6815    0.0000 </r>
       <r>   19.1761    0.0000 </r>
       <r>   20.6261    0.0000 </r>
       <r>   21.4051    0.0000 </r>
       <r>   22.6752    0.0000 </r>
       <r>   24.0809    0.0000 </r>
       <r>   24.6984    0.0000 </r>
       <r>   25.3649    0.0000 </r>
       <r>   25.7867    0.0000 </r>
       <r>   26.3813    0.0000 </r>
       <r>   27.1756    0.0000 </r>
       <r>   28.6484    0.0000 </r>
       <r>   29.0833    0.0000 </r>
       <r>   31.4821    0.0000 </r>
      </set>
      <set comment="kpoint 44">
       <r>   -0.7483    1.0000 </r>
       <r>    0.6632    1.0000 </r>
       <r>    1.2870    1.0000 </r>
       <r>    1.3745    1.0000 </r>
       <r>    2.0253    1.0000 </r>
       <r>    2.0834    1.0000 </r>
       <r>    2.9751    1.0000 </r>
       <r>    6.2825    1.0000 </r>
       <r>    7.0933    1.0003 </r>
       <r>    9.9855   -0.0000 </r>
       <r>   12.1055   -0.0000 </r>
       <r>   13.0204   -0.0000 </r>
       <r>   13.4149    0.0000 </r>
       <r>   13.9085    0.0000 </r>
       <r>   16.7224    0.0000 </r>
       <r>   17.6669    0.0000 </r>
       <r>   18.8723    0.0000 </r>
       <r>   19.1879    0.0000 </r>
       <r>   21.0149    0.0000 </r>
       <r>   22.2355    0.0000 </r>
       <r>   22.6199    0.0000 </r>
       <r>   23.3697    0.0000 </r>
       <r>   24.8616    0.0000 </r>
       <r>   25.9602    0.0000 </r>
       <r>   26.4084    0.0000 </r>
       <r>   28.0577    0.0000 </r>
       <r>   28.1609    0.0000 </r>
       <r>   28.8583    0.0000 </r>
       <r>   29.0759    0.0000 </r>
       <r>   29.9615    0.0000 </r>
      </set>
      <set comment="kpoint 45">
       <r>   -0.5848    1.0000 </r>
       <r>    0.3708    1.0000 </r>
       <r>    1.4263    1.0000 </r>
       <r>    1.6080    1.0000 </r>
       <r>    1.6762    1.0000 </r>
       <r>    2.1975    1.0000 </r>
       <r>    4.0389    1.0000 </r>
       <r>    5.8898    1.0000 </r>
       <r>    6.0062    1.0000 </r>
       <r>    8.9748   -0.0000 </r>
[...]
       <set comment="band 8">
        <r>  0.0556  0.1345  0.1907 </r>
        <r>  0.0796  0.0877  0.0170 </r>
        <r>  0.0796  0.0877  0.0170 </r>
       </set>
       <set comment="band 9">
        <r>  0.0014  0.1738  0.1156 </r>
        <r>  0.0110  0.1658  0.0150 </r>
        <r>  0.0110  0.1658  0.0150 </r>
       </set>
       <set comment="band 10">
        <r>  0.0175  0.0303  0.1451 </r>
        <r>  0.0871  0.0836  0.0433 </r>
        <r>  0.0871  0.0836  0.0433 </r>
       </set>
       <set comment="band 11">
        <r>  0.0248  0.0186  0.1269 </r>
        <r>  0.0561  0.1406  0.0515 </r>
        <r>  0.0561  0.1406  0.0515 </r>
       </set>
       <set comment="band 12">
        <r>  0.1307  0.0055  0.0275 </r>
        <r>  0.0016  0.1177  0.0904 </r>
        <r>  0.0016  0.1177  0.0904 </r>
       </set>
       <set comment="band 13">
        <r>  0.0039  0.0642  0.0623 </r>
        <r>  0.0122  0.1107  0.0873 </r>
        <r>  0.0122  0.1107  0.0873 </r>
       </set>
       <set comment="band 14">
        <r>  0.0022  0.0739  0.0424 </r>
        <r>  0.0518  0.1499  0.0537 </r>
        <r>  0.0518  0.1499  0.0537 </r>
       </set>
       <set comment="band 15">
        <r>  0.0028  0.1060  0.0883 </r>
        <r>  0.0598  0.1621  0.0520 </r>
        <r>  0.0598  0.1621  0.0520 </r>
       </set>
       <set comment="band 16">
        <r>  0.0091  0.1283  0.0541 </r>
        <r>  0.0103  0.0597  0.1175 </r>
        <r>  0.0103  0.0597  0.1175 </r>
       </set>
       <set comment="band 17">
        <r>  0.0061  0.0508  0.0285 </r>
        <r>  0.0221  0.0177  0.1780 </r>
        <r>  0.0221  0.0177  0.1780 </r>
       </set>
       <set comment="band 18">
        <r>  0.0131  0.0377  0.0479 </r>
        <r>  0.0178  0.1565  0.0919 </r>
        <r>  0.0178  0.1565  0.0919 </r>
       </set>
       <set comment="band 19">
        <r>  0.0068  0.0473  0.0301 </r>
        <r>  0.0099  0.1668  0.1051 </r>
        <r>  0.0099  0.1668  0.1051 </r>
       </set>
       <set comment="band 20">
        <r>  0.0002  0.0139  0.0116 </r>
        <r>  0.0018  0.0584  0.1797 </r>
        <r>  0.0018  0.0584  0.1797 </r>
       </set>
       <set comment="band 21">
        <r>  0.0066  0.0812  0.0866 </r>
        <r>  0.0027  0.0915  0.1412 </r>
        <r>  0.0027  0.0915  0.1412 </r>
       </set>
       <set comment="band 22">
        <r>  0.0199  0.0140  0.0236 </r>
        <r>  0.0044  0.0522  0.1341 </r>
        <r>  0.0044  0.0522  0.1341 </r>
       </set>
       <set comment="band 23">
        <r>  0.0001  0.0203  0.0253 </r>
        <r>  0.0023  0.0449  0.1218 </r>
        <r>  0.0023  0.0449  0.1218 </r>
       </set>
       <set comment="band 24">
        <r>  0.0016  0.1012  0.0207 </r>
        <r>  0.0190  0.0701  0.1507 </r>
        <r>  0.0190  0.0701  0.1507 </r>
       </set>
       <set comment="band 25">
        <r>  0.0138  0.0311  0.0702 </r>
        <r>  0.0058  0.0529  0.1444 </r>
        <r>  0.0058  0.0529  0.1444 </r>
       </set>
       <set comment="band 26">
        <r>  0.0360  0.0814  0.0191 </r>
        <r>  0.0015  0.0512  0.1495 </r>
        <r>  0.0015  0.0512  0.1495 </r>
       </set>
       <set comment="band 27">
        <r>  0.0020  0.0587  0.0423 </r>
        <r>  0.0003  0.0175  0.1291 </r>
        <r>  0.0003  0.0175  0.1291 </r>
       </set>
       <set comment="band 28">
        <r>  0.0060  0.0777  0.0547 </r>
        <r>  0.0017  0.0306  0.0638 </r>
        <r>  0.0017  0.0306  0.0638 </r>
       </set>
       <set comment="band 29">
        <r>  0.0895  0.0862  0.0648 </r>
        <r>  0.0001  0.0136  0.1429 </r>
        <r>  0.0001  0.0136  0.1429 </r>
       </set>
       <set comment="band 30">
        <r>  0.0001  0.0122  0.0234 </r>
        <r>  0.0008  0.0330  0.1635 </r>
        <r>  0.0008  0.0330  0.1635 </r>
       </set>
      </set>
      <set comment="kpoint 108">
       <set comment="band 1">
        <r>  0.1776  0.0097  0.2404 </r>
        <r>  0.1337  0.0349  0.0033 </r>
        <r>  0.1337  0.0349  0.0033 </r>
       </set>
       <set comment="band 2">
        <r>  0.0022  0.0491  0.4705 </r>
        <r>  0.1234  0.0152  0.0090 </r>
        <r>  0.1234  0.0152  0.0090 </r>
       </set>
       <set comment="band 3">
        <r>  0.0049  0.0207  0.6576 </r>
        <r>  0.0095  0.0498  0.0047 </r>
        <r>  0.0095  0.0498  0.0047 </r>
       </set>
       <set comment="band 4">
        <r>  0.0000  0.0010  0.8374 </r>
        <r>  0.0000  0.0349  0.0097 </r>
        <r>  0.0000  0.0349  0.0097 </r>
       </set>
       <set comment="band 5">
        <r>  0.0000  0.0008  0.8943 </r>
        <r>  0.0000  0.0039  0.0067 </r>
        <r>  0.0000  0.0039  0.0067 </r>
       </set>
       <set comment="band 6">
        <r>  0.1924  0.0029  0.5493 </r>
        <r>  0.0018  0.0462  0.0185 </r>
        <r>  0.0018  0.0462  0.0185 </r>
       </set>
       <set comment="band 7">
        <r>  0.0025  0.0709  0.5274 </r>
        <r>  0.0625  0.0398  0.0065 </r>
        <r>  0.0625  0.0398  0.0065 </r>
       </set>
       <set comment="band 8">
        <r>  0.0544  0.1507  0.1462 </r>
        <r>  0.0682  0.1035  0.0217 </r>
        <r>  0.0682  0.1035  0.0217 </r>
       </set>
       <set comment="band 9">
        <r>  0.0000  0.2080  0.0460 </r>
        <r>  0.0000  0.1891  0.0234 </r>
        <r>  0.0000  0.1891  0.0234 </r>
       </set>
       <set comment="band 10">
        <r>  0.0256  0.0010  0.1796 </r>
        <r>  0.1101  0.0590  0.0344 </r>
        <r>  0.1101  0.0590  0.0344 </r>
       </set>
       <set comment="band 11">
        <r>  0.0000  0.0131  0.1285 </r>
        <r>  0.0000  0.1705  0.0735 </r>
        <r>  0.0000  0.1705  0.0735 </r>
       </set>
       <set comment="band 12">
        <r>  0.1139  0.0230  0.0648 </r>
        <r>  0.0903  0.1149  0.0357 </r>
        <r>  0.0903  0.1149  0.0357 </r>
       </set>
       <set comment="band 13">
        <r>  0.0416  0.0221  0.0445 </r>
        <r>  0.0096  0.1414  0.0750 </r>
        <r>  0.0096  0.1414  0.0750 </r>
       </set>
       <set comment="band 14">
        <r>  0.0011  0.1069  0.0727 </r>
        <r>  0.0713  0.1324  0.0512 </r>
        <r>  0.0713  0.1324  0.0512 </r>
       </set>
       <set comment="band 15">
        <r>  0.0000  0.1736  0.0351 </r>
        <r>  0.0000  0.0209  0.1500 </r>
        <r>  0.0000  0.0209  0.1500 </r>
       </set>
       <set comment="band 16">
        <r>  0.0176  0.0742  0.0538 </r>
        <r>  0.0332  0.1320  0.0650 </r>
        <r>  0.0332  0.1320  0.0650 </r>
       </set>
       <set comment="band 17">
        <r>  0.0369  0.0540  0.0232 </r>
        <r>  0.0055  0.1439  0.1110 </r>
        <r>  0.0055  0.1439  0.1110 </r>
       </set>
       <set comment="band 18">
        <r>  0.0000  0.0215  0.0647 </r>
        <r>  0.0000  0.0378  0.1461 </r>
        <r>  0.0000  0.0378  0.1461 </r>
       </set>
       <set comment="band 19">
        <r>  0.0038  0.0184  0.0098 </r>
        <r>  0.0174  0.0959  0.1382 </r>
        <r>  0.0174  0.0959  0.1382 </r>
       </set>
       <set comment="band 20">
        <r>  0.0142  0.0838  0.0465 </r>
        <r>  0.0107  0.1070  0.1291 </r>
        <r>  0.0107  0.1070  0.1291 </r>
       </set>
       <set comment="band 21">
        <r>  0.0000  0.0035  0.0923 </r>
        <r>  0.0000  0.1438  0.1397 </r>
        <r>  0.0000  0.1438  0.1397 </r>
       </set>
       <set comment="band 22">
        <r>  0.0014  0.0632  0.0187 </r>
        <r>  0.0344  0.0317  0.1735 </r>
        <r>  0.0344  0.0317  0.1735 </r>
       </set>
       <set comment="band 23">
        <r>  0.0000  0.0004  0.0011 </r>
        <r>  0.0000  0.0605  0.1619 </r>
        <r>  0.0000  0.0605  0.1619 </r>
       </set>
       <set comment="band 24">
        <r>  0.0000  0.0276  0.0500 </r>
        <r>  0.0004  0.0097  0.1464 </r>
        <r>  0.0004  0.0097  0.1464 </r>
       </set>
       <set comment="band 25">
        <r>  0.0002  0.2588  0.0023 </r>
        <r>  0.0016  0.1068  0.0762 </r>
        <r>  0.0016  0.1068  0.0762 </r>
       </set>
       <set comment="band 26">
        <r>  0.0000  0.0269  0.0417 </r>
        <r>  0.0000  0.0023  0.1499 </r>
        <r>  0.0000  0.0023  0.1499 </r>
       </set>
       <set comment="band 27">
        <r>  0.0871  0.0493  0.0198 </r>
        <r>  0.0002  0.0855  0.1327 </r>
        <r>  0.0002  0.0855  0.1327 </r>
       </set>
       <set comment="band 28">
        <r>  0.0000  0.0050  0.1179 </r>
        <r>  0.0000  0.0268  0.1106 </r>
        <r>  0.0000  0.0268  0.1106 </r>
       </set>
       <set comment="band 29">
        <r>  0.0521  0.0236  0.0562 </r>
        <r>  0.0048  0.0192  0.0680 </r>
        <r>  0.0048  0.0192  0.0680 </r>
       </set>
       <set comment="band 30">
        <r>  0.0128  0.0601  0.0271 </r>
        <r>  0.0067  0.0238  0.2137 </r>
        <r>  0.0067  0.0238  0.2138 </r>
       </set>
      </set>
      <set comment="kpoint 109">
       <set comment="band 1">
        <r>  0.2091  0.0039  0.1714 </r>
        <r>  0.1470  0.0333  0.0013 </r>
        <r>  0.1470  0.0333  0.0013 </r>
       </set>
       <set comment="band 2">
        <r>  0.0097  0.0998  0.1935 </r>
        <r>  0.1497  0.0457  0.0019 </r>
        <r>  0.1497  0.0457  0.0019 </r>
       </set>
       <set comment="band 3">
        <r>  0.0000  0.0000  0.8139 </r>
        <r>  0.0000  0.0423  0.0090 </r>
        <r>  0.0000  0.0423  0.0090 </r>
       </set>
       <set comment="band 4">
        <r>  0.0000  0.0000  0.8139 </r>
        <r>  0.0000  0.0423  0.0090 </r>
        <r>  0.0000  0.0423  0.0090 </r>
       </set>
       <set comment="band 5">
        <r>  0.0000  0.0001  0.9026 </r>
        <r>  0.0000  0.0005  0.0092 </r>
        <r>  0.0000  0.0005  0.0092 </r>
       </set>
       <set comment="band 6">
        <r>  0.0000  0.0001  0.9026 </r>
        <r>  0.0000  0.0005  0.0092 </r>
        <r>  0.0000  0.0005  0.0092 </r>
       </set>
       <set comment="band 7">
        <r>  0.1516  0.0348  0.4688 </r>
        <r>  0.0306  0.0430  0.0186 </r>
        <r>  0.0306  0.0430  0.0186 </r>
       </set>
       <set comment="band 8">
        <r>  0.0000  0.2408  0.0034 </r>
        <r>  0.0000  0.1819  0.0429 </r>
        <r>  0.0000  0.1819  0.0429 </r>
       </set>
       <set comment="band 9">
        <r>  0.0000  0.2408  0.0034 </r>
        <r>  0.0000  0.1819  0.0429 </r>
        <r>  0.0000  0.1819  0.0429 </r>
       </set>
       <set comment="band 10">
        <r>  0.0367  0.0000  0.0333 </r>
        <r>  0.1637  0.0545  0.0254 </r>
        <r>  0.1637  0.0545  0.0254 </r>
       </set>
       <set comment="band 11">
        <r>  0.1730  0.0018  0.1381 </r>
        <r>  0.1813  0.0296  0.0199 </r>
        <r>  0.1813  0.0296  0.0199 </r>
       </set>
       <set comment="band 12">
        <r>  0.0000  0.0006  0.2072 </r>
        <r>  0.0000  0.1718  0.0415 </r>
        <r>  0.0000  0.1718  0.0415 </r>
       </set>
       <set comment="band 13">
        <r>  0.0000  0.0006  0.2072 </r>
        <r>  0.0000  0.1718  0.0415 </r>
        <r>  0.0000  0.1718  0.0415 </r>
       </set>
       <set comment="band 14">
        <r>  0.0000  0.1726  0.0133 </r>
        <r>  0.0000  0.0484  0.1306 </r>
        <r>  0.0000  0.0484  0.1306 </r>
       </set>
       <set comment="band 15">
        <r>  0.0000  0.1726  0.0133 </r>
        <r>  0.0000  0.0484  0.1306 </r>
        <r>  0.0000  0.0484  0.1306 </r>
       </set>
       <set comment="band 16">
        <r>  0.0471  0.0450  0.0006 </r>
        <r>  0.0393  0.1783  0.0518 </r>
        <r>  0.0393  0.1783  0.0518 </r>
       </set>
       <set comment="band 17">
        <r>  0.0768  0.0231  0.0026 </r>
        <r>  0.0272  0.2198  0.0562 </r>
        <r>  0.0272  0.2198  0.0562 </r>
       </set>
       <set comment="band 18">
        <r>  0.0000  0.0115  0.1217 </r>
        <r>  0.0000  0.0208  0.1614 </r>
        <r>  0.0000  0.0208  0.1614 </r>
       </set>
       <set comment="band 19">
        <r>  0.0000  0.0115  0.1217 </r>
        <r>  0.0000  0.0208  0.1614 </r>
        <r>  0.0000  0.0208  0.1614 </r>
       </set>
       <set comment="band 20">
        <r>  0.0000  0.0010  0.0353 </r>
        <r>  0.0000  0.1025  0.1450 </r>
        <r>  0.0000  0.1025  0.1450 </r>
       </set>
       <set comment="band 21">
        <r>  0.0000  0.0010  0.0353 </r>
        <r>  0.0000  0.1025  0.1450 </r>
        <r>  0.0000  0.1025  0.1450 </r>
       </set>
       <set comment="band 22">
        <r>  0.0127  0.1673  0.0132 </r>
        <r>  0.0012  0.0137  0.0845 </r>
        <r>  0.0012  0.0137  0.0845 </r>
       </set>
       <set comment="band 23">
        <r>  0.0000  0.0000  0.0511 </r>
        <r>  0.0000  0.1026  0.2047 </r>
        <r>  0.0000  0.1026  0.2047 </r>
       </set>
       <set comment="band 24">
        <r>  0.0000  0.0000  0.0511 </r>
        <r>  0.0000  0.1026  0.2047 </r>
        <r>  0.0000  0.1026  0.2047 </r>
       </set>
       <set comment="band 25">
        <r>  0.0309  0.2450  0.0068 </r>
        <r>  0.0567  0.0864  0.0703 </r>
        <r>  0.0567  0.0864  0.0703 </r>
       </set>
       <set comment="band 26">
        <r>  0.0065  0.0024  0.0114 </r>
        <r>  0.0152  0.0548  0.0556 </r>
        <r>  0.0152  0.0548  0.0556 </r>
       </set>
       <set comment="band 27">
        <r>  0.1242  0.1022  0.0821 </r>
        <r>  0.0189  0.0362  0.1947 </r>
        <r>  0.0189  0.0362  0.1947 </r>
       </set>
       <set comment="band 28">
        <r>  0.0000  0.0000  0.0000 </r>
        <r>  0.0000  0.0000  0.0000 </r>
        <r>  0.0000  0.0000  0.0000 </r>
       </set>
       <set comment="band 29">
        <r>  0.0000  0.0092  0.0041 </r>
        <r>  0.0000  0.0048  0.2050 </r>
        <r>  0.0000  0.0048  0.2050 </r>
       </set>
       <set comment="band 30">
        <r>  0.0000  0.0092  0.0041 </r>
        <r>  0.0000  0.0048  0.2050 </r>
        <r>  0.0000  0.0048  0.2051 </r>
       </set>
      </set>
      <set comment="kpoint 110">
       <set comment="band 1">
        <r>  0.1979  0.0031  0.2082 </r>
        <r>  0.1404  0.0342  0.0017 </r>
        <r>  0.1404  0.0342  0.0017 </r>
       </set>
       <set comment="band 2">
        <r>  0.0006  0.0697  0.3792 </r>
        <r>  0.1256  0.0304  0.0068 </r>
        <r>  0.1256  0.0304  0.0068 </r>
       </set>
       <set comment="band 3">
        <r>  0.0000  0.0002  0.8201 </r>
        <r>  0.0000  0.0400  0.0093 </r>
        <r>  0.0000  0.0400  0.0093 </r>
       </set>
       <set comment="band 4">
        <r>  0.0012  0.0399  0.5719 </r>
        <r>  0.0347  0.0548  0.0044 </r>
        <r>  0.0347  0.0548  0.0044 </r>
       </set>
       <set comment="band 5">
        <r>  0.0000  0.0003  0.8988 </r>
        <r>  0.0000  0.0019  0.0086 </r>
        <r>  0.0000  0.0019  0.0086 </r>
       </set>
       <set comment="band 6">
        <r>  0.1250  0.0007  0.6885 </r>
        <r>  0.0009  0.0283  0.0157 </r>
        <r>  0.0009  0.0283  0.0157 </r>
       </set>
       <set comment="band 7">
        <r>  0.0479  0.0281  0.6803 </r>
        <r>  0.0273  0.0213  0.0111 </r>
        <r>  0.0273  0.0213  0.0111 </r>
       </set>
       <set comment="band 8">
        <r>  0.0330  0.1927  0.0603 </r>
        <r>  0.0388  0.1436  0.0321 </r>
        <r>  0.0388  0.1436  0.0321 </r>
       </set>
       <set comment="band 9">
        <r>  0.0000  0.2291  0.0202 </r>
        <r>  0.0000  0.1843  0.0365 </r>
        <r>  0.0000  0.1843  0.0365 </r>
       </set>
       <set comment="band 10">
        <r>  0.0098  0.0025  0.1116 </r>
        <r>  0.1026  0.0794  0.0337 </r>
        <r>  0.1026  0.0794  0.0337 </r>
       </set>
       <set comment="band 11">
        <r>  0.1449  0.0216  0.1227 </r>
        <r>  0.1502  0.0640  0.0236 </r>
        <r>  0.1502  0.0640  0.0236 </r>
       </set>
       <set comment="band 12">
        <r>  0.0000  0.0071  0.1839 </r>
        <r>  0.0000  0.1727  0.0496 </r>
        <r>  0.0000  0.1727  0.0496 </r>
       </set>
       <set comment="band 13">
        <r>  0.0279  0.0099  0.0999 </r>
        <r>  0.0417  0.1553  0.0447 </r>
        <r>  0.0417  0.1553  0.0447 </r>
       </set>
       <set comment="band 14">
        <r>  0.0276  0.1309  0.0167 </r>
        <r>  0.0232  0.0853  0.1029 </r>
        <r>  0.0232  0.0853  0.1029 </r>
       </set>
       <set comment="band 15">
        <r>  0.0000  0.1700  0.0219 </r>
        <r>  0.0000  0.0384  0.1371 </r>
        <r>  0.0000  0.0384  0.1371 </r>
       </set>
       <set comment="band 16">
        <r>  0.0065  0.0689  0.0323 </r>
        <r>  0.0300  0.1422  0.0670 </r>
        <r>  0.0300  0.1422  0.0670 </r>
       </set>
       <set comment="band 17">
        <r>  0.0775  0.0610  0.0021 </r>
        <r>  0.0188  0.1839  0.0768 </r>
        <r>  0.0188  0.1839  0.0768 </r>
       </set>
       <set comment="band 18">
        <r>  0.0014  0.0071  0.0906 </r>
        <r>  0.0012  0.0570  0.1496 </r>
        <r>  0.0012  0.0570  0.1496 </r>
       </set>
       <set comment="band 19">
        <r>  0.0000  0.0160  0.1228 </r>
        <r>  0.0000  0.0294  0.1485 </r>
        <r>  0.0000  0.0294  0.1485 </r>
       </set>
       <set comment="band 20">
        <r>  0.0003  0.0149  0.0403 </r>
        <r>  0.0086  0.1036  0.1429 </r>
        <r>  0.0086  0.1036  0.1429 </r>
       </set>
       <set comment="band 21">
        <r>  0.0000  0.0019  0.0134 </r>
        <r>  0.0000  0.0996  0.1546 </r>
        <r>  0.0000  0.0996  0.1546 </r>
       </set>
       <set comment="band 22">
        <r>  0.0000  0.0854  0.0178 </r>
        <r>  0.0150  0.0731  0.1606 </r>
        <r>  0.0150  0.0731  0.1606 </r>
       </set>
       <set comment="band 23">
        <r>  0.0000  0.0004  0.0538 </r>
        <r>  0.0000  0.1044  0.1968 </r>
        <r>  0.0000  0.1044  0.1968 </r>
       </set>
       <set comment="band 24">
        <r>  0.0018  0.0832  0.0280 </r>
        <r>  0.0013  0.0082  0.1284 </r>
        <r>  0.0013  0.0082  0.1284 </r>
       </set>
       <set comment="band 25">
        <r>  0.0126  0.2738  0.0031 </r>
        <r>  0.0277  0.1113  0.0792 </r>
        <r>  0.0277  0.1113  0.0792 </r>
       </set>
       <set comment="band 26">
        <r>  0.0033  0.0155  0.0143 </r>
        <r>  0.0164  0.0713  0.0335 </r>
        <r>  0.0164  0.0713  0.0335 </r>
       </set>
       <set comment="band 27">
        <r>  0.0000  0.0165  0.0227 </r>
        <r>  0.0000  0.0031  0.1326 </r>
        <r>  0.0000  0.0031  0.1326 </r>
       </set>
       <set comment="band 28">
        <r>  0.1523  0.0407  0.0856 </r>
        <r>  0.0075  0.0340  0.2127 </r>
        <r>  0.0075  0.0340  0.2127 </r>
       </set>
       <set comment="band 29">
        <r>  0.0000  0.0001  0.0469 </r>
        <r>  0.0000  0.0062  0.0835 </r>
        <r>  0.0000  0.0062  0.0835 </r>
       </set>
       <set comment="band 30">
        <r>  0.0054  0.0173  0.0223 </r>
        <r>  0.0028  0.0043  0.2015 </r>
        <r>  0.0028  0.0043  0.2016 </r>
       </set>
      </set>
     </set>
    </set>
   </array>
  </projected>
 </calculation>
 <structure name="finalpos" >
  <crystal>
   <varray name="basis" >
    <v>       0.00000000       3.00000000       3.00000000 </v>
    <v>       3.00000000       0.00000000       3.00000000 </v>
    <v>       3.00000000       3.00000000       0.00000000 </v>
   </varray>
   <i name="volume">     54.00000000 </i>
   <varray name="rec_basis" >
    <v>      -0.16666667       0.16666667       0.16666667 </v>
    <v>       0.16666667      -0.16666667       0.16666667 </v>
    <v>       0.16666667       0.16666667      -0.16666667 </v>
   </varray>
  </crystal>
  <varray name="positions" >
   <v>       0.00000000       0.00000000       0.00000000 </v>
   <v>       0.25000000       0.25000000       0.25000000 </v>
   <v>       0.75000000       0.75000000       0.75000000 </v>
  </varray>
 </structure>
</modeling>
