AuAl2                                   
           1
     0.000000    3.000000    3.000000
     3.000000    0.000000    3.000000
     3.000000    3.000000    0.000000
   Au   Al
   1   2
Direct configuration=     1
   0.00000000  0.00000000  0.00000000
   0.25000000  0.25000000  0.25000000
   0.75000000  0.75000000  0.75000000
