unknown system                          
   3.16000000000000     
     1.000000    0.000000    0.000000
     0.000000    1.000000    0.000000
     0.000000    0.000000    5.000000
   W 
     5
Direct
  0.000000  0.000000  0.000000
  0.500000  0.500000  0.100000
  0.000000  0.000000  0.200000
  0.500000  0.500000  0.300000
  0.000000  0.000000  0.400000
 
   40   40  192
  143.64      141.08      134.05      124.21      113.59      103.90      96.027      89.929      84.883      79.954    
  74.464      68.271      61.745      55.502      50.079      45.733      42.451      40.168      38.722      37.937    
  37.689      37.937      38.722      40.168      42.451      45.733      50.079      55.502      61.745      68.271    
  74.464      79.954      84.883      89.929      96.027      103.90      113.59      124.21      134.05      141.08    
  141.08      138.69      132.11      122.89      112.93      103.80      96.306      90.381      85.330      80.282    
  74.631      68.298      61.683      55.403      49.979      45.645      42.377      40.106      38.666      37.883    
  37.636      37.883      38.666      40.106      42.377      45.645      49.979      55.403      61.683      68.298    
  74.631      80.282      85.330      90.381      96.306      103.80      112.93      122.89      132.11      138.69    
  134.05      132.11      126.76      119.25      111.09      103.49      97.018      91.548      86.467      81.081    
  74.992      68.285      61.441      55.078      49.667      45.377      42.155      39.918      38.496      37.719    
  37.472      37.719      38.496      39.918      42.155      45.377      49.667      55.078      61.441      68.285    
  74.992      81.081      86.467      91.548      97.018      103.49      111.09      119.25      126.76      132.11    
  124.21      122.89      119.25      114.11      108.42      102.90      97.806      92.912      87.739      81.862    
  75.176      67.989      60.885      54.466      49.118      44.916      41.777      39.600      38.208      37.441    
  37.197      37.441      38.208      39.600      41.777      44.916      49.118      54.466      60.885      67.989    
  75.176      81.862      87.739      92.912      97.806      102.90      108.42      114.11      119.25      122.89    
  113.59      112.93      111.09      108.42      105.30      101.90      98.148      93.757      88.412      81.993    
  74.718      67.120      59.862      53.498      48.303      44.250      41.240      39.149      37.800      37.049    
  36.807      37.049      37.800      39.149      41.240      44.250      48.303      53.498      59.862      67.120    
  74.718      81.993      88.412      93.757      98.148      101.90      105.30      108.42      111.09      112.93    
  103.90      103.80      103.49      102.90      101.90      100.20      97.458      93.362      87.786      80.909    
  73.234      65.461      58.276      52.145      47.216      43.380      40.546      38.567      37.273      36.541    
  36.304      36.541      37.273      38.567      40.546      43.380      47.216      52.145      58.276      65.461    
  73.234      80.909      87.786      93.362      97.458      100.20      101.90      102.90      103.49      103.80    
  96.027      96.306      97.018      97.806      98.148      97.458      95.232      91.195      85.409      78.299    
  70.558      62.958      56.136      50.433      45.869      42.324      39.708      37.861      36.633      35.925    
  35.693      35.925      36.633      37.861      39.708      42.324      45.869      50.433      56.136      62.958    
  70.558      78.299      85.409      91.195      95.232      97.458      98.148      97.806      97.018      96.306    
  89.929      90.381      91.548      92.912      93.757      93.362      91.195      87.072      81.216      74.205    
  66.804      59.750      53.560      48.435      44.310      41.117      38.747      37.045      35.889      35.210    
  34.986      35.210      35.889      37.045      38.747      41.117      44.310      48.435      53.560      59.750    
  66.804      74.205      81.216      87.072      91.195      93.362      93.757      92.912      91.548      90.381    
  84.883      85.330      86.467      87.739      88.412      87.786      85.409      81.216      75.538      68.999    
  62.318      56.107      50.725      46.243      42.615      39.804      37.688      36.135      35.056      34.412    
  34.196      34.412      35.056      36.135      37.688      39.804      42.615      46.243      50.725      56.107    
  62.318      68.999      75.538      81.216      85.409      87.786      88.412      87.739      86.467      85.330    
  79.954      80.282      81.081      81.862      81.993      80.909      78.299      74.205      68.999      63.253    
  57.554      52.338      47.804      43.969      40.863      38.429      36.558      35.152      34.152      33.547    
  33.343      33.547      34.152      35.152      36.558      38.429      40.863      43.969      47.804      52.338    
  57.554      63.253      68.999      74.205      78.299      80.909      81.993      81.862      81.081      80.282    
  74.464      74.631      74.992      75.176      74.718      73.234      70.558      66.804      62.318      57.554    
  52.923      48.682      44.924      41.732      39.121      37.033      35.385      34.115      33.197      32.636    
  32.446      32.636      33.197      34.115      35.385      37.033      39.121      41.732      44.924      48.682    
  52.923      57.554      62.318      66.804      70.558      73.234      74.718      75.176      74.992      74.631    
  68.271      68.298      68.285      67.989      67.120      65.461      62.958      59.750      56.107      52.338    
  48.682      45.270      42.225      39.616      37.437      35.644      34.190      33.048      32.213      31.701    
  31.528      31.701      32.213      33.048      34.190      35.644      37.437      39.616      42.225      45.270    
  48.682      52.338      56.107      59.750      62.958      65.461      67.120      67.989      68.285      68.298    
  61.745      61.683      61.441      60.885      59.862      58.276      56.136      53.560      50.725      47.804    
  44.924      42.225      39.796      37.670      35.840      34.288      33.001      31.976      31.225      30.764    
  30.609      30.764      31.225      31.976      33.001      34.288      35.840      37.670      39.796      42.225    
  44.924      47.804      50.725      53.560      56.136      58.276      59.862      60.885      61.441      61.683    
  55.502      55.403      55.078      54.466      53.498      52.145      50.433      48.435      46.243      43.969    
  41.732      39.616      37.670      35.913      34.351      32.992      31.845      30.927      30.257      29.849    
  29.712      29.849      30.257      30.927      31.845      32.992      34.351      35.913      37.670      39.616    
  41.732      43.969      46.243      48.435      50.433      52.145      53.498      54.466      55.078      55.403    
  50.079      49.979      49.667      49.118      48.303      47.216      45.869      44.310      42.615      40.863    
  39.121      37.437      35.840      34.351      32.991      31.784      30.756      29.935      29.338      28.977    
  28.856      28.977      29.338      29.935      30.756      31.784      32.991      34.351      35.840      37.437    
  39.121      40.863      42.615      44.310      45.869      47.216      48.303      49.118      49.667      49.979    
  45.733      45.645      45.377      44.916      44.250      43.380      42.324      41.117      39.804      38.429    
  37.033      35.644      34.288      32.992      31.784      30.699      29.772      29.032      28.495      28.172    
  28.064      28.172      28.495      29.032      29.772      30.699      31.784      32.992      34.288      35.644    
  37.033      38.429      39.804      41.117      42.324      43.380      44.250      44.916      45.377      45.645    
  42.451      42.377      42.155      41.777      41.240      40.546      39.708      38.747      37.688      36.558    
  35.385      34.190      33.001      31.845      30.756      29.772      28.927      28.249      27.757      27.459    
  27.360      27.459      27.757      28.249      28.927      29.772      30.756      31.845      33.001      34.190    
  35.385      36.558      37.688      38.747      39.708      40.546      41.240      41.777      42.155      42.377    
  40.168      40.106      39.918      39.600      39.149      38.567      37.861      37.045      36.135      35.152    
  34.115      33.048      31.976      30.927      29.935      29.032      28.249      27.615      27.149      26.865    
  26.769      26.865      27.149      27.615      28.249      29.032      29.935      30.927      31.976      33.048    
  34.115      35.152      36.135      37.045      37.861      38.567      39.149      39.600      39.918      40.106    
  38.722      38.666      38.496      38.208      37.800      37.273      36.633      35.889      35.056      34.152    
  33.197      32.213      31.225      30.257      29.338      28.495      27.757      27.149      26.696      26.415    
  26.321      26.415      26.696      27.149      27.757      28.495      29.338      30.257      31.225      32.213    
  33.197      34.152      35.056      35.889      36.633      37.273      37.800      38.208      38.496      38.666    
  37.937      37.883      37.719      37.441      37.049      36.541      35.925      35.210      34.412      33.547    
  32.636      31.701      30.764      29.849      28.977      28.172      27.459      26.865      26.415      26.135    
  26.039      26.135      26.415      26.865      27.459      28.172      28.977      29.849      30.764      31.701    
  32.636      33.547      34.412      35.210      35.925      36.541      37.049      37.441      37.719      37.883    
  37.689      37.636      37.472      37.197      36.807      36.304      35.693      34.986      34.196      33.343    
  32.446      31.528      30.609      29.712      28.856      28.064      27.360      26.769      26.321      26.039    
  25.944      26.039      26.321      26.769      27.360      28.064      28.856      29.712      30.609      31.528    
  32.446      33.343      34.196      34.986      35.693      36.304      36.807      37.197      37.472      37.636    
  37.937      37.883      37.719      37.441      37.049      36.541      35.925      35.210      34.412      33.547    
  32.636      31.701      30.764      29.849      28.977      28.172      27.459      26.865      26.415      26.135    
  26.039      26.135      26.415      26.865      27.459      28.172      28.977      29.849      30.764      31.701    
  32.636      33.547      34.412      35.210      35.925      36.541      37.049      37.441      37.719      37.883    
  38.722      38.666      38.496      38.208      37.800      37.273      36.633      35.889      35.056      34.152    
  33.197      32.213      31.225      30.257      29.338      28.495      27.757      27.149      26.696      26.415    
  26.321      26.415      26.696      27.149      27.757      28.495      29.338      30.257      31.225      32.213    
  33.197      34.152      35.056      35.889      36.633      37.273      37.800      38.208      38.496      38.666    
  40.168      40.106      39.918      39.600      39.149      38.567      37.861      37.045      36.135      35.152    
  34.115      33.048      31.976      30.927      29.935      29.032      28.249      27.615      27.149      26.865    
  26.769      26.865      27.149      27.615      28.249      29.032      29.935      30.927      31.976      33.048    
  34.115      35.152      36.135      37.045      37.861      38.567      39.149      39.600      39.918      40.106    
  42.451      42.377      42.155      41.777      41.240      40.546      39.708      38.747      37.688      36.558    
  35.385      34.190      33.001      31.845      30.756      29.772      28.927      28.249      27.757      27.459    
  27.360      27.459      27.757      28.249      28.927      29.772      30.756      31.845      33.001      34.190    
  35.385      36.558      37.688      38.747      39.708      40.546      41.240      41.777      42.155      42.377    
  45.733      45.645      45.377      44.916      44.250      43.380      42.324      41.117      39.804      38.429    
  37.033      35.644      34.288      32.992      31.784      30.699      29.772      29.032      28.495      28.172    
  28.064      28.172      28.495      29.032      29.772      30.699      31.784      32.992      34.288      35.644    
  37.033      38.429      39.804      41.117      42.324      43.380      44.250      44.916      45.377      45.645    
  50.079      49.979      49.667      49.118      48.303      47.216      45.869      44.310      42.615      40.863    
  39.121      37.437      35.840      34.351      32.991      31.784      30.756      29.935      29.338      28.977    
  28.856      28.977      29.338      29.935      30.756      31.784      32.991      34.351      35.840      37.437    
  39.121      40.863      42.615      44.310      45.869      47.216      48.303      49.118      49.667      49.979    
  55.502      55.403      55.078      54.466      53.498      52.145      50.433      48.435      46.243      43.969    
  41.732      39.616      37.670      35.913      34.351      32.992      31.845      30.927      30.257      29.849    
  29.712      29.849      30.257      30.927      31.845      32.992      34.351      35.913      37.670      39.616    
  41.732      43.969      46.243      48.435      50.433      52.145      53.498      54.466      55.078      55.403    
  61.745      61.683      61.441      60.885      59.862      58.276      56.136      53.560      50.725      47.804    
  44.924      42.225      39.796      37.670      35.840      34.288      33.001      31.976      31.225      30.764    
  30.609      30.764      31.225      31.976      33.001      34.288      35.840      37.670      39.796      42.225    
  44.924      47.804      50.725      53.560      56.136      58.276      59.862      60.885      61.441      61.683    
  68.271      68.298      68.285      67.989      67.120      65.461      62.958      59.750      56.107      52.338    
  48.682      45.270      42.225      39.616      37.437      35.644      34.190      33.048      32.213      31.701    
  31.528      31.701      32.213      33.048      34.190      35.644      37.437      39.616      42.225      45.270    
  48.682      52.338      56.107      59.750      62.958      65.461      67.120      67.989      68.285      68.298    
  74.464      74.631      74.992      75.176      74.718      73.234      70.558      66.804      62.318      57.554    
  52.923      48.682      44.924      41.732      39.121      37.033      35.385      34.115      33.197      32.636    
  32.446      32.636      33.197      34.115      35.385      37.033      39.121      41.732      44.924      48.682    
  52.923      57.554      62.318      66.804      70.558      73.234      74.718      75.176      74.992      74.631    
  79.954      80.282      81.081      81.862      81.993      80.909      78.299      74.205      68.999      63.253    
  57.554      52.338      47.804      43.969      40.863      38.429      36.558      35.152      34.152      33.547    
  33.343      33.547      34.152      35.152      36.558      38.429      40.863      43.969      47.804      52.338    
  57.554      63.253      68.999      74.205      78.299      80.909      81.993      81.862      81.081      80.282    
  84.883      85.330      86.467      87.739      88.412      87.786      85.409      81.216      75.538      68.999    
  62.318      56.107      50.725      46.243      42.615      39.804      37.688      36.135      35.056      34.412    
  34.196      34.412      35.056      36.135      37.688      39.804      42.615      46.243      50.725      56.107    
  62.318      68.999      75.538      81.216      85.409      87.786      88.412      87.739      86.467      85.330    
  89.929      90.381      91.548      92.912      93.757      93.362      91.195      87.072      81.216      74.205    
  66.804      59.750      53.560      48.435      44.310      41.117      38.747      37.045      35.889      35.210    
  34.986      35.210      35.889      37.045      38.747      41.117      44.310      48.435      53.560      59.750    
  66.804      74.205      81.216      87.072      91.195      93.362      93.757      92.912      91.548      90.381    
  96.027      96.306      97.018      97.806      98.148      97.458      95.232      91.195      85.409      78.299    
  70.558      62.958      56.136      50.433      45.869      42.324      39.708      37.861      36.633      35.925    
  35.693      35.925      36.633      37.861      39.708      42.324      45.869      50.433      56.136      62.958    
  70.558      78.299      85.409      91.195      95.232      97.458      98.148      97.806      97.018      96.306    
  103.90      103.80      103.49      102.90      101.90      100.20      97.458      93.362      87.786      80.909    
  73.234      65.461      58.276      52.145      47.216      43.380      40.546      38.567      37.273      36.541    
  36.304      36.541      37.273      38.567      40.546      43.380      47.216      52.145      58.276      65.461    
  73.234      80.909      87.786      93.362      97.458      100.20      101.90      102.90      103.49      103.80    
  113.59      112.93      111.09      108.42      105.30      101.90      98.148      93.757      88.412      81.993    
  74.718      67.120      59.862      53.498      48.303      44.250      41.240      39.149      37.800      37.049    
  36.807      37.049      37.800      39.149      41.240      44.250      48.303      53.498      59.862      67.120    
  74.718      81.993      88.412      93.757      98.148      101.90      105.30      108.42      111.09      112.93    
  124.21      122.89      119.25      114.11      108.42      102.90      97.806      92.912      87.739      81.862    
  75.176      67.989      60.885      54.466      49.118      44.916      41.777      39.600      38.208      37.441    
  37.197      37.441      38.208      39.600      41.777      44.916      49.118      54.466      60.885      67.989    
  75.176      81.862      87.739      92.912      97.806      102.90      108.42      114.11      119.25      122.89    
  134.05      132.11      126.76      119.25      111.09      103.49      97.018      91.548      86.467      81.081    
  74.992      68.285      61.441      55.078      49.667      45.377      42.155      39.918      38.496      37.719    
  37.472      37.719      38.496      39.918      42.155      45.377      49.667      55.078      61.441      68.285    
  74.992      81.081      86.467      91.548      97.018      103.49      111.09      119.25      126.76      132.11    
  141.08      138.69      132.11      122.89      112.93      103.80      96.306      90.381      85.330      80.282    
  74.631      68.298      61.683      55.403      49.979      45.645      42.377      40.106      38.666      37.883    
  37.636      37.883      38.666      40.106      42.377      45.645      49.979      55.403      61.683      68.298    
  74.631      80.282      85.330      90.381      96.306      103.80      112.93      122.89      132.11      138.69    
  130.17      127.98      122.00      113.72      104.98      97.267      91.276      86.838      83.160      79.289    
  74.566      68.893      62.688      56.618      51.271      46.953      43.689      41.418      39.979      39.196    
  38.948      39.196      39.979      41.418      43.689      46.953      51.271      56.618      62.688      68.893    
  74.566      79.289      83.160      86.838      91.276      97.267      104.98      113.72      122.00      127.98    
  127.98      125.95      120.38      112.69      104.57      97.365      91.711      87.411      83.701      79.689    
  74.791      68.965      62.662      56.548      51.196      46.887      43.635      41.374      39.939      39.157    
  38.910      39.157      39.939      41.374      43.635      46.887      51.196      56.548      62.662      68.965    
  74.791      79.689      83.701      87.411      91.711      97.365      104.57      112.69      120.38      125.95    
  122.00      120.38      115.98      109.89      103.43      97.621      92.873      88.927      85.106      80.696    
  75.315      69.082      62.525      56.309      50.956      46.682      43.470      41.239      39.818      39.040    
  38.793      39.040      39.818      41.239      43.470      46.682      50.956      56.309      62.525      69.082    
  75.315      80.696      85.106      88.927      92.873      97.621      103.43      109.89      115.98      120.38    
  113.72      112.69      109.89      106.00      101.82      97.903      94.348      90.826      86.792      81.797    
  75.749      68.985      62.128      55.827      50.518      46.320      43.183      41.005      39.610      38.839    
  38.593      38.839      39.610      41.005      43.183      46.320      50.518      55.827      62.128      68.985    
  75.749      81.797      86.792      90.826      94.348      97.903      101.82      106.00      109.89      112.69    
  104.98      104.57      103.43      101.82      99.982      97.956      95.534      92.332      87.976      82.325    
  75.601      68.360      61.301      55.021      49.843      45.783      42.765      40.666      39.308      38.548    
  38.304      38.548      39.308      40.666      42.765      45.783      49.843      55.021      61.301      68.360    
  75.601      82.325      87.976      92.332      95.534      97.956      99.982      101.82      103.43      104.57    
  97.267      97.365      97.621      97.903      97.956      97.391      95.755      92.653      87.907      81.673    
  74.452      66.964      59.926      53.846      48.912      45.060      42.211      40.216      38.907      38.164    
  37.923      38.164      38.907      40.216      42.211      45.060      48.912      53.846      59.926      66.964    
  74.452      81.673      87.907      92.653      95.755      97.391      97.956      97.903      97.621      97.365    
  91.276      91.711      92.873      94.348      95.534      95.755      94.422      91.192      86.081      79.489    
  72.106      64.720      57.995      52.311      47.728      44.162      41.524      39.655      38.407      37.686    
  37.449      37.686      38.407      39.655      41.524      44.162      47.728      52.311      57.995      64.720    
  72.106      79.489      86.081      91.192      94.422      95.755      95.534      94.348      92.873      91.711    
  86.838      87.411      88.927      90.826      92.332      92.653      91.192      87.708      82.386      75.778    
  68.647      61.743      55.608      50.480      46.331      43.113      40.716      38.988      37.809      37.115    
  36.884      37.115      37.809      38.988      40.716      43.113      46.331      50.480      55.608      61.743    
  68.647      75.778      82.386      87.708      91.192      92.653      92.332      90.826      88.927      87.411    
  83.160      83.701      85.106      86.792      87.976      87.907      86.081      82.386      77.119      70.885    
  64.400      58.288      52.933      48.438      44.788      41.950      39.804      38.223      37.118      36.457    
  36.235      36.457      37.118      38.223      39.804      41.950      44.788      48.438      52.933      58.288    
  64.400      70.885      77.119      82.386      86.081      87.907      87.976      86.792      85.106      83.701    
  79.289      79.689      80.696      81.797      82.325      81.673      79.489      75.778      70.885      65.366    
  59.807      54.657      50.137      46.294      43.170      40.710      38.808      37.371      36.345      35.721    
  35.511      35.721      36.345      37.371      38.808      40.710      43.170      46.294      50.137      54.657    
  59.807      65.366      70.885      75.778      79.489      81.673      82.325      81.797      80.696      79.689    
  74.566      74.791      75.315      75.749      75.601      74.452      72.106      68.647      64.400      59.807    
  55.281      51.092      47.353      44.162      41.538      39.425      37.746      36.445      35.500      34.920    
  34.723      34.920      35.500      36.445      37.746      39.425      41.538      44.162      47.353      51.092    
  55.281      59.807      64.400      68.647      72.106      74.452      75.601      75.749      75.315      74.791    
  68.893      68.965      69.082      68.985      68.360      66.964      64.720      61.743      58.288      54.657    
  51.092      47.737      44.724      42.124      39.936      38.121      36.638      35.463      34.601      34.069    
  33.889      34.069      34.601      35.463      36.638      38.121      39.936      42.124      44.724      47.737    
  51.092      54.657      58.288      61.743      64.720      66.964      68.360      68.985      69.082      68.965    
  62.688      62.662      62.525      62.128      61.301      59.926      57.995      55.608      52.933      50.137    
  47.353      44.724      42.337      40.227      38.393      36.821      35.504      34.447      33.667      33.188    
  33.026      33.188      33.667      34.447      35.504      36.821      38.393      40.227      42.337      44.724    
  47.353      50.137      52.933      55.608      57.995      59.926      61.301      62.128      62.525      62.662    
  56.618      56.548      56.309      55.827      55.021      53.846      52.311      50.480      48.438      46.294    
  44.162      42.124      40.227      38.492      36.930      35.551      34.375      33.425      32.726      32.298    
  32.154      32.298      32.726      33.425      34.375      35.551      36.930      38.492      40.227      42.124    
  44.162      46.294      48.438      50.480      52.311      53.846      55.021      55.827      56.309      56.548    
  51.271      51.196      50.956      50.518      49.843      48.912      47.728      46.331      44.788      43.170    
  41.538      39.936      38.393      36.930      35.570      34.344      33.287      32.432      31.805      31.424    
  31.296      31.424      31.805      32.432      33.287      34.344      35.570      36.930      38.393      39.936    
  41.538      43.170      44.788      46.331      47.728      48.912      49.843      50.518      50.956      51.196    
  46.953      46.887      46.682      46.320      45.783      45.060      44.162      43.113      41.950      40.710    
  39.425      38.121      36.821      35.551      34.344      33.241      32.283      31.508      30.940      30.596    
  30.480      30.596      30.940      31.508      32.283      33.241      34.344      35.551      36.821      38.121    
  39.425      40.710      41.950      43.113      44.162      45.060      45.783      46.320      46.682      46.887    
  43.689      43.635      43.470      43.183      42.765      42.211      41.524      40.716      39.804      38.808    
  37.746      36.638      35.504      34.375      33.287      32.283      31.406      30.691      30.165      29.845    
  29.738      29.845      30.165      30.691      31.406      32.283      33.287      34.375      35.504      36.638    
  37.746      38.808      39.804      40.716      41.524      42.211      42.765      43.183      43.470      43.635    
  41.418      41.374      41.239      41.005      40.666      40.216      39.655      38.988      38.223      37.371    
  36.445      35.463      34.447      33.425      32.432      31.508      30.691      30.017      29.516      29.208    
  29.104      29.208      29.516      30.017      30.691      31.508      32.432      33.425      34.447      35.463    
  36.445      37.371      38.223      38.988      39.655      40.216      40.666      41.005      41.239      41.374    
  39.979      39.939      39.818      39.610      39.308      38.907      38.407      37.809      37.118      36.345    
  35.500      34.601      33.667      32.726      31.805      30.940      30.165      29.516      29.025      28.719    
  28.615      28.719      29.025      29.516      30.165      30.940      31.805      32.726      33.667      34.601    
  35.500      36.345      37.118      37.809      38.407      38.907      39.308      39.610      39.818      39.939    
  39.196      39.157      39.040      38.839      38.548      38.164      37.686      37.115      36.457      35.721    
  34.920      34.069      33.188      32.298      31.424      30.596      29.845      29.208      28.719      28.411    
  28.306      28.411      28.719      29.208      29.845      30.596      31.424      32.298      33.188      34.069    
  34.920      35.721      36.457      37.115      37.686      38.164      38.548      38.839      39.040      39.157    
  38.948      38.910      38.793      38.593      38.304      37.923      37.449      36.884      36.235      35.511    
  34.723      33.889      33.026      32.154      31.296      30.480      29.738      29.104      28.615      28.306    
  28.200      28.306      28.615      29.104      29.738      30.480      31.296      32.154      33.026      33.889    
  34.723      35.511      36.235      36.884      37.449      37.923      38.304      38.593      38.793      38.910    