   5   5   0   0
  0.3155450E+02  0.3160000E-09  0.3160000E-09  0.1580000E-08  0.5000000E-15
  1.000000000000000E-004
  CAR 
 unknown system                          
      6.26445341     -8.98541479  301      1.74239760      1.00000000
     -8.985  0.0000E+00  0.0000E+00
     -8.935  0.0000E+00  0.0000E+00
     -8.884  0.0000E+00  0.0000E+00
     -8.833  0.0000E+00  0.0000E+00
     -8.782  0.0000E+00  0.0000E+00
     -8.731  0.0000E+00  0.0000E+00
     -8.680  0.0000E+00  0.0000E+00
     -8.630  0.0000E+00  0.0000E+00
     -8.579  0.0000E+00  0.0000E+00
     -8.528  0.0000E+00  0.0000E+00
     -8.477  0.0000E+00  0.0000E+00
     -8.426  0.0000E+00  0.0000E+00
     -8.375  0.0000E+00  0.0000E+00
     -8.325  0.0000E+00  0.0000E+00
     -8.274  0.0000E+00  0.0000E+00
     -8.223  0.0000E+00  0.0000E+00
     -8.172  0.0000E+00  0.0000E+00
     -8.121  0.0000E+00  0.0000E+00
     -8.070  0.0000E+00  0.0000E+00
     -8.020  0.0000E+00  0.0000E+00
     -7.969  0.0000E+00  0.0000E+00
     -7.918  0.0000E+00  0.0000E+00
     -7.867  0.0000E+00  0.0000E+00
     -7.816  0.0000E+00  0.0000E+00
     -7.765  0.0000E+00  0.0000E+00
     -7.715  0.0000E+00  0.0000E+00
     -7.664  0.0000E+00  0.0000E+00
     -7.613  0.0000E+00  0.0000E+00
     -7.562  0.0000E+00  0.0000E+00
     -7.511  0.0000E+00  0.0000E+00
     -7.460  0.0000E+00  0.0000E+00
     -7.410  0.0000E+00  0.0000E+00
     -7.359  0.0000E+00  0.0000E+00
     -7.308  0.0000E+00  0.0000E+00
     -7.257  0.0000E+00  0.0000E+00
     -7.206  0.0000E+00  0.0000E+00
     -7.155  0.0000E+00  0.0000E+00
     -7.105  0.0000E+00  0.0000E+00
     -7.054  0.0000E+00  0.0000E+00
     -7.003  0.0000E+00  0.0000E+00
     -6.952  0.2146E+00  0.3573E-02
     -6.901  0.3000E+00  0.1938E-01
     -6.850  0.2605E+00  0.3271E-01
     -6.800  0.2984E+00  0.4691E-01
     -6.749  0.3093E+00  0.6283E-01
     -6.698  0.2750E+00  0.7741E-01
     -6.647  0.2838E+00  0.9161E-01
     -6.596  0.2926E+00  0.1063E+00
     -6.545  0.3018E+00  0.1214E+00
     -6.495  0.3151E+00  0.1371E+00
     -6.444  0.2944E+00  0.1526E+00
     -6.393  0.2969E+00  0.1676E+00
     -6.342  0.2993E+00  0.1828E+00
     -6.291  0.3018E+00  0.1980E+00
     -6.240  0.3099E+00  0.2136E+00
     -6.190  0.3175E+00  0.2295E+00
     -6.139  0.3247E+00  0.2459E+00
     -6.088  0.3139E+00  0.2621E+00
     -6.037  0.3149E+00  0.2781E+00
     -5.986  0.3179E+00  0.2942E+00
     -5.935  0.3212E+00  0.3104E+00
     -5.885  0.3260E+00  0.3269E+00
     -5.834  0.3309E+00  0.3436E+00
     -5.783  0.3357E+00  0.3605E+00
     -5.732  0.3405E+00  0.3777E+00
     -5.681  0.3420E+00  0.3951E+00
     -5.630  0.3429E+00  0.4124E+00
     -5.580  0.3463E+00  0.4299E+00
     -5.529  0.3496E+00  0.4476E+00
     -5.478  0.3534E+00  0.4655E+00
     -5.427  0.3575E+00  0.4836E+00
     -5.376  0.3615E+00  0.5018E+00
     -5.325  0.3681E+00  0.5204E+00
     -5.275  0.3748E+00  0.5393E+00
     -5.224  0.3802E+00  0.5585E+00
     -5.173  0.3849E+00  0.5779E+00
     -5.122  0.3899E+00  0.5976E+00
     -5.071  0.7304E+00  0.6223E+00
     -5.020  0.7484E+00  0.6635E+00
     -4.970  0.8085E+00  0.7027E+00
     -4.919  0.8288E+00  0.7451E+00
     -4.868  0.8173E+00  0.7864E+00
     -4.817  0.8459E+00  0.8287E+00
     -4.766  0.8741E+00  0.8724E+00
     -4.715  0.8803E+00  0.9170E+00
     -4.665  0.9062E+00  0.9624E+00
     -4.614  0.9380E+00  0.1009E+01
     -4.563  0.9642E+00  0.1058E+01
     -4.512  0.9936E+00  0.1107E+01
     -4.461  0.1025E+01  0.1159E+01
     -4.410  0.1056E+01  0.1212E+01
     -4.360  0.1082E+01  0.1266E+01
     -4.309  0.1164E+01  0.1322E+01
     -4.258  0.1274E+01  0.1385E+01
     -4.207  0.1346E+01  0.1452E+01
     -4.156  0.1479E+01  0.1522E+01
     -4.105  0.1640E+01  0.1602E+01
     -4.055  0.2362E+01  0.1695E+01
     -4.004  0.3456E+01  0.1860E+01
     -3.953  0.2279E+01  0.2005E+01
     -3.902  0.2050E+01  0.2112E+01
     -3.851  0.1952E+01  0.2214E+01
     -3.800  0.1773E+01  0.2310E+01
     -3.750  0.1799E+01  0.2397E+01
     -3.699  0.2478E+01  0.2515E+01
     -3.648  0.4057E+01  0.2670E+01
     -3.597  0.2572E+01  0.2818E+01
     -3.546  0.2874E+01  0.2967E+01
     -3.495  0.2773E+01  0.3105E+01
     -3.445  0.2864E+01  0.3256E+01
     -3.394  0.4463E+01  0.3442E+01
     -3.343  0.4823E+01  0.3679E+01
     -3.292  0.5076E+01  0.3941E+01
     -3.241  0.3548E+01  0.4156E+01
     -3.190  0.3302E+01  0.4329E+01
     -3.140  0.3385E+01  0.4495E+01
     -3.089  0.3087E+01  0.4660E+01
     -3.038  0.3083E+01  0.4816E+01
     -2.987  0.2755E+01  0.4965E+01
     -2.936  0.3143E+01  0.5115E+01
     -2.885  0.3051E+01  0.5268E+01
     -2.835  0.3072E+01  0.5424E+01
     -2.784  0.3179E+01  0.5583E+01
     -2.733  0.3459E+01  0.5750E+01
     -2.682  0.2508E+01  0.5893E+01
     -2.631  0.2437E+01  0.6018E+01
     -2.580  0.2407E+01  0.6141E+01
     -2.530  0.2294E+01  0.6261E+01
     -2.479  0.4333E+01  0.6441E+01
     -2.428  0.5725E+01  0.6690E+01
     -2.377  0.8652E+01  0.7083E+01
     -2.326  0.9168E+01  0.7533E+01
     -2.275  0.7319E+01  0.7965E+01
     -2.225  0.7502E+01  0.8358E+01
     -2.174  0.9564E+01  0.8871E+01
     -2.123  0.4564E+01  0.9164E+01
     -2.072  0.5690E+01  0.9409E+01
     -2.021  0.5034E+01  0.9694E+01
     -1.970  0.4126E+01  0.9934E+01
     -1.920  0.4167E+01  0.1015E+02
     -1.869  0.4509E+01  0.1035E+02
     -1.818  0.3660E+01  0.1054E+02
     -1.767  0.3532E+01  0.1072E+02
     -1.716  0.2159E+01  0.1087E+02
     -1.665  0.2823E+01  0.1099E+02
     -1.615  0.2183E+01  0.1111E+02
     -1.564  0.2427E+01  0.1123E+02
     -1.513  0.2321E+01  0.1135E+02
     -1.462  0.2956E+01  0.1148E+02
     -1.411  0.3385E+01  0.1166E+02
     -1.360  0.6513E+01  0.1187E+02
     -1.310  0.1044E+02  0.1226E+02
     -1.259  0.8454E+01  0.1278E+02
     -1.208  0.7541E+01  0.1320E+02
     -1.157  0.6946E+01  0.1353E+02
     -1.106  0.8106E+01  0.1390E+02
     -1.055  0.1441E+02  0.1439E+02
     -1.005  0.7218E+01  0.1475E+02
     -0.954  0.5345E+01  0.1503E+02
     -0.903  0.4523E+01  0.1526E+02
     -0.852  0.5124E+01  0.1552E+02
     -0.801  0.6323E+01  0.1580E+02
     -0.750  0.4796E+01  0.1610E+02
     -0.700  0.6213E+01  0.1639E+02
     -0.649  0.8628E+01  0.1675E+02
     -0.598  0.6159E+01  0.1712E+02
     -0.547  0.6938E+01  0.1748E+02
     -0.496  0.7698E+01  0.1784E+02
     -0.445  0.8032E+01  0.1825E+02
     -0.395  0.6150E+01  0.1865E+02
     -0.344  0.8033E+01  0.1898E+02
     -0.293  0.6247E+01  0.1936E+02
     -0.242  0.4284E+01  0.1959E+02
     -0.191  0.4499E+01  0.1981E+02
     -0.140  0.5017E+01  0.2007E+02
     -0.090  0.6416E+01  0.2036E+02
     -0.039  0.6157E+01  0.2070E+02
      0.012  0.5694E+01  0.2100E+02
      0.063  0.5523E+01  0.2128E+02
      0.114  0.5679E+01  0.2157E+02
      0.165  0.6310E+01  0.2187E+02
      0.215  0.5883E+01  0.2219E+02
      0.266  0.5208E+01  0.2247E+02
      0.317  0.5747E+01  0.2274E+02
      0.368  0.4993E+01  0.2302E+02
      0.419  0.4884E+01  0.2327E+02
      0.470  0.5316E+01  0.2353E+02
      0.520  0.4934E+01  0.2379E+02
      0.571  0.4761E+01  0.2403E+02
      0.622  0.3952E+01  0.2427E+02
      0.673  0.3053E+01  0.2445E+02
      0.724  0.2987E+01  0.2460E+02
      0.775  0.3761E+01  0.2476E+02
      0.825  0.4278E+01  0.2500E+02
      0.876  0.3613E+01  0.2518E+02
      0.927  0.4312E+01  0.2538E+02
      0.978  0.4256E+01  0.2562E+02
      1.029  0.4586E+01  0.2583E+02
      1.079  0.7262E+01  0.2611E+02
      1.130  0.4878E+01  0.2634E+02
      1.181  0.4046E+01  0.2657E+02
      1.232  0.5446E+01  0.2679E+02
      1.283  0.8149E+01  0.2716E+02
      1.334  0.8002E+01  0.2755E+02
      1.384  0.8019E+01  0.2795E+02
      1.435  0.4879E+01  0.2827E+02
      1.486  0.3022E+01  0.2846E+02
      1.537  0.3062E+01  0.2865E+02
      1.588  0.4976E+01  0.2883E+02
      1.639  0.6330E+01  0.2913E+02
      1.689  0.8636E+01  0.2961E+02
      1.740  0.6250E+01  0.2999E+02
      1.791  0.7183E+01  0.3031E+02
      1.842  0.5543E+01  0.3061E+02
      1.893  0.6645E+01  0.3091E+02
      1.944  0.4835E+01  0.3121E+02
      1.994  0.5377E+01  0.3146E+02
      2.045  0.4596E+01  0.3172E+02
      2.096  0.4073E+01  0.3194E+02
      2.147  0.3585E+01  0.3214E+02
      2.198  0.3503E+01  0.3231E+02
      2.249  0.3629E+01  0.3249E+02
      2.299  0.3657E+01  0.3268E+02
      2.350  0.3214E+01  0.3287E+02
      2.401  0.3994E+01  0.3305E+02
      2.452  0.3341E+01  0.3325E+02
      2.503  0.2932E+01  0.3341E+02
      2.554  0.4017E+01  0.3357E+02
      2.604  0.7287E+01  0.3383E+02
      2.655  0.4690E+01  0.3420E+02
      2.706  0.7168E+01  0.3451E+02
      2.757  0.5961E+01  0.3484E+02
      2.808  0.4730E+01  0.3511E+02
      2.859  0.4439E+01  0.3534E+02
      2.909  0.3507E+01  0.3554E+02
      2.960  0.3698E+01  0.3572E+02
      3.011  0.4731E+01  0.3593E+02
      3.062  0.4990E+01  0.3618E+02
      3.113  0.5882E+01  0.3645E+02
      3.164  0.6064E+01  0.3679E+02
      3.214  0.3204E+01  0.3704E+02
      3.265  0.2325E+01  0.3717E+02
      3.316  0.2015E+01  0.3728E+02
      3.367  0.2216E+01  0.3739E+02
      3.418  0.2471E+01  0.3751E+02
      3.469  0.2412E+01  0.3764E+02
      3.519  0.1898E+01  0.3775E+02
      3.570  0.1423E+01  0.3784E+02
      3.621  0.7479E+00  0.3788E+02
      3.672  0.3705E+00  0.3792E+02
      3.723  0.3042E+00  0.3794E+02
      3.774  0.2379E+00  0.3795E+02
      3.824  0.1665E+00  0.3796E+02
      3.875  0.1529E+00  0.3797E+02
      3.926  0.1393E+00  0.3798E+02
      3.977  0.1257E+00  0.3798E+02
      4.028  0.9790E-01  0.3799E+02
      4.079  0.7684E-01  0.3799E+02
      4.129  0.5578E-01  0.3800E+02
      4.180  0.3472E-01  0.3800E+02
      4.231  0.1365E-01  0.3800E+02
      4.282  0.0000E+00  0.3800E+02
      4.333  0.0000E+00  0.3800E+02
      4.384  0.0000E+00  0.3800E+02
      4.434  0.0000E+00  0.3800E+02
      4.485  0.0000E+00  0.3800E+02
      4.536  0.0000E+00  0.3800E+02
      4.587  0.0000E+00  0.3800E+02
      4.638  0.0000E+00  0.3800E+02
      4.689  0.0000E+00  0.3800E+02
      4.739  0.0000E+00  0.3800E+02
      4.790  0.0000E+00  0.3800E+02
      4.841  0.0000E+00  0.3800E+02
      4.892  0.0000E+00  0.3800E+02
      4.943  0.0000E+00  0.3800E+02
      4.994  0.0000E+00  0.3800E+02
      5.044  0.0000E+00  0.3800E+02
      5.095  0.0000E+00  0.3800E+02
      5.146  0.0000E+00  0.3800E+02
      5.197  0.0000E+00  0.3800E+02
      5.248  0.0000E+00  0.3800E+02
      5.299  0.0000E+00  0.3800E+02
      5.349  0.0000E+00  0.3800E+02
      5.400  0.0000E+00  0.3800E+02
      5.451  0.0000E+00  0.3800E+02
      5.502  0.0000E+00  0.3800E+02
      5.553  0.0000E+00  0.3800E+02
      5.604  0.0000E+00  0.3800E+02
      5.654  0.0000E+00  0.3800E+02
      5.705  0.0000E+00  0.3800E+02
      5.756  0.0000E+00  0.3800E+02
      5.807  0.0000E+00  0.3800E+02
      5.858  0.0000E+00  0.3800E+02
      5.909  0.0000E+00  0.3800E+02
      5.959  0.0000E+00  0.3800E+02
      6.010  0.0000E+00  0.3800E+02
      6.061  0.0000E+00  0.3800E+02
      6.112  0.0000E+00  0.3800E+02
      6.163  0.0000E+00  0.3800E+02
      6.214  0.0000E+00  0.3800E+02
      6.264  0.0000E+00  0.3800E+02
