    5    5    1    1
  0.3155450E+02  0.3160000E-09  0.3160000E-09  0.1580000E-08  0.5000000E-15
  1.000000000000000E-004
  CAR 
 unknown system                          
     30    198     19
 
  0.0000000E+00  0.0000000E+00  0.0000000E+00  0.6250000E-03
    1       -6.985397   1.000000
    2       -5.099770   1.000000
    3       -3.604994   1.000000
    4       -3.507779   1.000000
    5       -2.973396   1.000000
    6       -2.326453   1.000000
    7       -2.321905   1.000000
    8       -0.615106   1.000000
    9        0.608667   1.000000
   10        0.608667   1.000000
   11        0.951167   1.000000
   12        1.039890   1.000000
   13        1.039890   1.000000
   14        1.400568   1.000000
   15        1.437573   1.000000
   16        1.493780   1.000000
   17        1.885812  -0.036057
   18        1.885812   0.000000
   19        2.105209   0.000000
 
  0.5000000E-01  0.0000000E+00  0.0000000E+00  0.2500000E-02
    1       -6.929654   1.000000
    2       -5.058618   1.000000
    3       -3.566802   1.000000
    4       -3.473028   1.000000
    5       -2.947984   1.000000
    6       -2.333376   1.000000
    7       -2.259803   1.000000
    8       -0.632904   1.000000
    9        0.539194   1.000000
   10        0.560299   1.000000
   11        0.697059   1.000000
   12        1.082015   1.000000
   13        1.240017   1.000000
   14        1.263696   1.000000
   15        1.507582   1.000000
   16        1.508698   1.000000
   17        1.635049   1.010927
   18        2.094401   0.000000
   19        2.378431   0.000000
 
  0.1000000E+00  0.0000000E+00  0.0000000E+00  0.2500000E-02
    1       -6.764684   1.000000
    2       -4.940347   1.000000
    3       -3.482279   1.000000
    4       -3.348458   1.000000
    5       -2.881994   1.000000
    6       -2.361760   1.000000
    7       -2.069531   1.000000
    8       -0.645255   1.000000
    9        0.385102   1.000000
   10        0.389734   1.000000
   11        0.399951   1.000000
   12        1.077723   1.000000
   13        1.132823   1.000000
   14        1.361260   1.000000
   15        1.391527   1.000000
   16        1.593390   1.023911
   17        1.693650   0.559394
   18        2.458466   0.000000
   19        2.736315   0.000000
 
  0.1500000E+00  0.0000000E+00  0.0000000E+00  0.2500000E-02
    1       -6.497397   1.000000
    2       -4.760914   1.000000
    3       -3.390115   1.000000
    4       -3.131774   1.000000
    5       -2.792976   1.000000
    6       -2.408497   1.000000
    7       -1.763303   1.000000
    8       -0.566667   1.000000
    9        0.073809   1.000000
   10        0.134339   1.000000
   11        0.250096   1.000000
   12        0.956228   1.000000
   13        1.074032   1.000000
   14        1.249740   1.000000
   15        1.295067   1.000000
   16        1.800038   0.332870
   17        1.938218  -0.026741
   18        2.622347   0.000000
   19        2.820943   0.000000
 
  0.2000000E+00  0.0000000E+00  0.0000000E+00  0.2500000E-02
    1       -6.139840   1.000000
    2       -4.548004   1.000000
    3       -3.317726   1.000000
    4       -2.890555   1.000000
    5       -2.650016   1.000000
    6       -2.465380   1.000000
    7       -1.360362   1.000000
    8       -0.329429   1.000000
    9       -0.221884   1.000000
   10       -0.176967   1.000000
   11        0.179477   1.000000
   12        0.905946   1.000000
   13        0.918534   1.000000
   14        1.075959   1.000000
   15        1.154528   1.000000
   16        2.076404  -0.050490
   17        2.210549   0.000000
   18        2.550527   0.000000
   19        2.897711   0.000000
 
  0.2500000E+00  0.0000000E+00  0.0000000E+00  0.2500000E-02
    1       -5.710249   1.000000
    2       -4.340061   1.000000
    3       -3.306601   1.000000
    4       -2.701262   1.000000
    5       -2.513237   1.000000
    6       -2.382250   1.000000
    7       -0.894751   1.000000
    8       -0.491025   1.000000
    9       -0.481266   1.000000
   10        0.079441   1.000000
   11        0.209736   1.000000
   12        0.727007   1.000000
   13        0.811262   1.000000
   14        0.921191   1.000000
   15        1.050919   1.000000
   16        2.334612   0.000000
   17        2.446739   0.000000
   18        2.470562   0.000000
   19        2.886740   0.000000
 
  0.3000000E+00  0.0000000E+00  0.0000000E+00  0.2500000E-02
    1       -5.235144   1.000000
    2       -4.177438   1.000000
    3       -3.354572   1.000000
    4       -2.528958   1.000000
    5       -2.523319   1.000000
    6       -2.065981   1.000000
    7       -0.750294   1.000000
    8       -0.724669   1.000000
    9       -0.424974   1.000000
   10        0.356193   1.000000
   11        0.541964   1.000000
   12        0.566372   1.000000
   13        0.623535   1.000000
   14        0.922814   1.000000
   15        0.983822   1.000000
   16        2.324110   0.000000
   17        2.350170   0.000000
   18        2.456390   0.000000
   19        2.903904   0.000000
 
  0.3500000E+00  0.0000000E+00  0.0000000E+00  0.2500000E-02
    1       -4.754686   1.000000
    2       -4.082221   1.000000
    3       -3.415447   1.000000
    4       -2.504411   1.000000
    5       -2.377147   1.000000
    6       -1.752532   1.000000
    7       -0.969387   1.000000
    8       -0.915217   1.000000
    9       -0.029366   1.000000
   10        0.360859   1.000000
   11        0.367835   1.000000
   12        0.600574   1.000000
   13        0.786169   1.000000
   14        1.062337   1.000000
   15        1.211239   1.000000
   16        2.143032   0.000000
   17        2.176383   0.000000
   18        2.382785   0.000000
   19        2.989352   0.000000
 
  0.4000000E+00  0.0000000E+00  0.0000000E+00  0.2500000E-02
    1       -4.334883   1.000000
    2       -4.044643   1.000000
    3       -3.437455   1.000000
    4       -2.457056   1.000000
    5       -2.323716   1.000000
    6       -1.421308   1.000000
    7       -1.130375   1.000000
    8       -1.056306   1.000000
    9        0.120051   1.000000
   10        0.224938   1.000000
   11        0.254036   1.000000
   12        0.667343   1.000000
   13        0.784242   1.000000
   14        1.202716   1.000000
   15        1.586102   1.000000
   16        1.977492   0.000000
   17        2.304122   0.000000
   18        2.446667   0.000000
   19        3.069823   0.000000
 
  0.4500000E+00  0.0000000E+00  0.0000000E+00  0.2500000E-02
    1       -4.072185   1.000000
    2       -4.037237   1.000000
    3       -3.378871   1.000000
    4       -2.415099   1.000000
    5       -2.362909   1.000000
    6       -1.228585   1.000000
    7       -1.143034   1.000000
    8       -1.054091   1.000000
    9       -0.211461   1.000000
   10        0.139664   1.000000
   11        0.430954   1.000000
   12        0.587765   1.000000
   13        0.795633   1.000000
   14        1.428003   1.000000
   15        1.646574   1.000000
   16        1.864534   0.000000
   17        2.547123   0.000000
   18        2.759487   0.000000
   19        3.165420   0.000000
 
  0.5000000E+00  0.0000000E+00  0.0000000E+00  0.1250000E-02
    1       -4.037451   1.000000
    2       -3.997168   1.000000
    3       -3.318904   1.000000
    4       -2.402544   1.000000
    5       -2.398859   1.000000
    6       -1.261577   1.000000
    7       -1.172300   1.000000
    8       -0.752892   1.000000
    9       -0.506516   1.000000
   10        0.111409   1.000000
   11        0.492862   1.000000
   12        0.559905   1.000000
   13        0.781142   1.000000
   14        1.534867   1.000000
   15        1.653256   1.000000
   16        1.824712   0.000000
   17        2.572621   0.000000
   18        2.998544   0.000000
   19        3.213531   0.000000
 
  0.5000000E-01  0.5000000E-01  0.0000000E+00  0.2500000E-02
    1       -6.874130   1.000000
    2       -5.016800   1.000000
    3       -3.523217   1.000000
    4       -3.443246   1.000000
    5       -2.920538   1.000000
    6       -2.272241   1.000000
    7       -2.265975   1.000000
    8       -0.656213   1.000000
    9        0.429984   1.000000
   10        0.546254   1.000000
   11        0.595212   1.000000
   12        1.080883   1.000000
   13        1.157844   1.000000
   14        1.336908   1.000000
   15        1.454672   1.000000
   16        1.492666   1.000000
   17        1.795896   0.159131
   18        2.069740   0.000000
   19        2.554799   0.000000
 
  0.1000000E+00  0.5000000E-01  0.0000000E+00  0.5000000E-02
    1       -6.709870   1.000000
    2       -4.896519   1.000000
    3       -3.429282   1.000000
    4       -3.326605   1.000000
    5       -2.849062   1.000000
    6       -2.298264   1.000000
    7       -2.078884   1.000000
    8       -0.684447   1.000000
    9        0.265060   1.000000
   10        0.354834   1.000000
   11        0.368610   1.000000
   12        1.039051   1.000000
   13        1.114490   1.000000
   14        1.408031   1.000000
   15        1.416798   1.000000
   16        1.499290   1.020226
   17        1.822433   0.015193
   18        2.400302   0.000000
   19        2.701652   0.000000
 
  0.1500000E+00  0.5000000E-01  0.0000000E+00  0.5000000E-02
    1       -6.443817   1.000000
    2       -4.713826   1.000000
    3       -3.336039   1.000000
    4       -3.106902   1.000000
    5       -2.754961   1.000000
    6       -2.346047   1.000000
    7       -1.773498   1.000000
    8       -0.634677   1.000000
    9        0.049310   1.000000
   10        0.083447   1.000000
   11        0.160615   1.000000
   12        0.976826   1.000000
   13        0.979475   1.000000
   14        1.296187   1.000000
   15        1.350623   1.000000
   16        1.666917   0.835540
   17        2.006280  -0.016797
   18        2.652811   0.000000
   19        2.779622   0.000000
 
  0.2000000E+00  0.5000000E-01  0.0000000E+00  0.5000000E-02
    1       -6.088088   1.000000
    2       -4.496747   1.000000
    3       -3.262492   1.000000
    4       -2.853075   1.000000
    5       -2.619221   1.000000
    6       -2.404745   1.000000
    7       -1.372725   1.000000
    8       -0.487095   1.000000
    9       -0.246393   1.000000
   10       -0.124920   1.000000
   11        0.081914   1.000000
   12        0.710634   1.000000
   13        0.948031   1.000000
   14        1.170132   1.000000
   15        1.224989   1.000000
   16        1.894625  -0.047895
   17        2.264752   0.000000
   18        2.649098   0.000000
   19        2.712842   0.000000
 
  0.2500000E+00  0.5000000E-01  0.0000000E+00  0.5000000E-02
    1       -5.660905   1.000000
    2       -4.284524   1.000000
    3       -3.249737   1.000000
    4       -2.649591   1.000000
    5       -2.454932   1.000000
    6       -2.367876   1.000000
    7       -0.918069   1.000000
    8       -0.556015   1.000000
    9       -0.526252   1.000000
   10        0.076062   1.000000
   11        0.111876   1.000000
   12        0.441026   1.000000
   13        0.955209   1.000000
   14        1.020616   1.000000
   15        1.052755   1.000000
   16        2.053360  -0.002838
   17        2.510573   0.000000
   18        2.620836   0.000000
   19        2.676848   0.000000
 
  0.3000000E+00  0.5000000E-01  0.0000000E+00  0.5000000E-02
    1       -5.188547   1.000000
    2       -4.118729   1.000000
    3       -3.297741   1.000000
    4       -2.473209   1.000000
    5       -2.466880   1.000000
    6       -2.067542   1.000000
    7       -0.809908   1.000000
    8       -0.759725   1.000000
    9       -0.426442   1.000000
   10        0.209336   1.000000
   11        0.269406   1.000000
   12        0.590029   1.000000
   13        0.818627   1.000000
   14        0.868027   1.000000
   15        1.027477   1.000000
   16        2.025025  -0.009823
   17        2.427183   0.000000
   18        2.662835   0.000000
   19        2.838593   0.000000
 
  0.3500000E+00  0.5000000E-01  0.0000000E+00  0.5000000E-02
    1       -4.710133   1.000000
    2       -4.022134   1.000000
    3       -3.360876   1.000000
    4       -2.451629   1.000000
    5       -2.323016   1.000000
    6       -1.775611   1.000000
    7       -1.008075   1.000000
    8       -0.939059   1.000000
    9       -0.058719   1.000000
   10        0.040518   1.000000
   11        0.549299   1.000000
   12        0.637557   1.000000
   13        0.672893   1.000000
   14        1.106466   1.000000
   15        1.171480   1.000000
   16        1.919890  -0.020163
   17        2.338973   0.000000
   18        2.420662   0.000000
   19        3.015691   0.000000
 
  0.4000000E+00  0.5000000E-01  0.0000000E+00  0.5000000E-02
    1       -4.289101   1.000000
    2       -3.984503   1.000000
    3       -3.387916   1.000000
    4       -2.407939   1.000000
    5       -2.285142   1.000000
    6       -1.468706   1.000000
    7       -1.158098   1.000000
    8       -1.067411   1.000000
    9       -0.121729   1.000000
   10        0.199746   1.000000
   11        0.452833   1.000000
   12        0.468085   1.000000
   13        0.917398   1.000000
   14        1.164566   1.000000
   15        1.586651   1.016126
   16        1.922067  -0.011886
   17        2.341233   0.000000
   18        2.362718   0.000000
   19        3.104028   0.000000
 
  0.4500000E+00  0.5000000E-01  0.0000000E+00  0.5000000E-02
    1       -4.020317   1.000000
    2       -3.977423   1.000000
    3       -3.336179   1.000000
    4       -2.369437   1.000000
    5       -2.344935   1.000000
    6       -1.249654   1.000000
    7       -1.212797   1.000000
    8       -1.056224   1.000000
    9       -0.355107   1.000000
   10        0.286671   1.000000
   11        0.308878   1.000000
   12        0.425161   1.000000
   13        1.071695   1.000000
   14        1.311001   1.000000
   15        1.682525   0.977302
   16        1.903067   0.000000
   17        2.355347   0.000000
   18        2.702129   0.000000
   19        3.158264   0.000000
 
  0.5000000E+00  0.5000000E-01  0.0000000E+00  0.2500000E-02
    1       -3.977794   1.000000
    2       -3.941890   1.000000
    3       -3.278269   1.000000
    4       -2.394666   1.000000
    5       -2.354646   1.000000
    6       -1.280338   1.000000
    7       -1.207909   1.000000
    8       -0.804053   1.000000
    9       -0.604158   1.000000
   10        0.255541   1.000000
   11        0.262902   1.000000
   12        0.470765   1.000000
   13        1.076164   1.000000
   14        1.426957   1.000000
   15        1.696356   0.919890
   16        1.880659   0.000000
   17        2.340761   0.000000
   18        2.915342   0.000000
   19        3.142789   0.000000
 
  0.1000000E+00  0.1000000E+00  0.0000000E+00  0.2500000E-02
    1       -6.547772   1.000000
    2       -4.770205   1.000000
    3       -3.280586   1.000000
    4       -3.259916   1.000000
    5       -2.761934   1.000000
    6       -2.128039   1.000000
    7       -2.091105   1.000000
    8       -0.755358   1.000000
    9        0.088574   1.000000
   10        0.157856   1.000000
   11        0.232109   1.000000
   12        1.026510   1.000000
   13        1.161024   1.000000
   14        1.171879   1.000000
   15        1.430413   1.000000
   16        1.539659   1.000000
   17        1.988250   0.000000
   18        2.506531   0.000000
   19        2.723737   0.000000
 
  0.1500000E+00  0.1000000E+00  0.0000000E+00  0.5000000E-02
    1       -6.285588   1.000000
    2       -4.577603   1.000000
    3       -3.181595   1.000000
    4       -3.034721   1.000000
    5       -2.650238   1.000000
    6       -2.163145   1.000000
    7       -1.805546   1.000000
    8       -0.770361   1.000000
    9       -0.133194   1.000000
   10       -0.052498   1.000000
   11        0.045196   1.000000
   12        0.785980   1.000000
   13        1.016260   1.000000
   14        1.279271   1.000000
   15        1.363585   1.000000
   16        1.621793   1.000882
   17        2.112227   0.000000
   18        2.647655   0.000000
   19        2.687986   0.000000
 
  0.2000000E+00  0.1000000E+00  0.0000000E+00  0.5000000E-02
    1       -5.935687   1.000000
    2       -4.347627   1.000000
    3       -3.104343   1.000000
    4       -2.751338   1.000000
    5       -2.525356   1.000000
    6       -2.227476   1.000000
    7       -1.414566   1.000000
    8       -0.699480   1.000000
    9       -0.404394   1.000000
   10       -0.140723   1.000000
   11       -0.099563   1.000000
   12        0.422518   1.000000
   13        0.980830   1.000000
   14        1.210357   1.000000
   15        1.307197   1.000000
   16        1.736274   0.589627
   17        2.236676   0.000000
   18        2.592173   0.000000
   19        2.672911   0.000000
 
  0.2500000E+00  0.1000000E+00  0.0000000E+00  0.5000000E-02
    1       -5.516344   1.000000
    2       -4.121894   1.000000
    3       -3.085204   1.000000
    4       -2.502120   1.000000
    5       -2.325982   1.000000
    6       -2.285500   1.000000
    7       -1.005631   1.000000
    8       -0.707616   1.000000
    9       -0.612629   1.000000
   10       -0.127011   1.000000
   11       -0.026606   1.000000
   12        0.169052   1.000000
   13        0.870020   1.000000
   14        1.068583   1.000000
   15        1.235281   1.000000
   16        1.819055  -0.034723
   17        2.299428   0.000000
   18        2.678439   0.000000
   19        2.697704   0.000000
 
  0.3000000E+00  0.1000000E+00  0.0000000E+00  0.5000000E-02
    1       -5.053326   1.000000
    2       -3.945924   1.000000
    3       -3.132415   1.000000
    4       -2.312746   1.000000
    5       -2.302538   1.000000
    6       -2.076662   1.000000
    7       -0.956079   1.000000
    8       -0.851462   1.000000
    9       -0.447667   1.000000
   10       -0.127828   1.000000
   11        0.033702   1.000000
   12        0.478016   1.000000
   13        0.613283   1.000000
   14        1.094960   1.000000
   15        1.118341   1.000000
   16        1.783004   0.171352
   17        2.286995   0.000000
   18        2.784335   0.000000
   19        2.911285   0.000000
 
  0.3500000E+00  0.1000000E+00  0.0000000E+00  0.5000000E-02
    1       -4.582921   1.000000
    2       -3.844950   1.000000
    3       -3.202353   1.000000
    4       -2.302345   1.000000
    5       -2.172536   1.000000
    6       -1.841183   1.000000
    7       -1.104751   1.000000
    8       -0.998861   1.000000
    9       -0.248792   1.000000
   10       -0.163499   1.000000
   11        0.354955   1.000000
   12        0.375798   1.000000
   13        0.832434   1.000000
   14        1.140908   1.000000
   15        1.198535   1.000000
   16        1.730242   0.418698
   17        2.214874   0.000000
   18        2.680639   0.000000
   19        3.028758   0.000000
 
  0.4000000E+00  0.1000000E+00  0.0000000E+00  0.5000000E-02
    1       -4.160663   1.000000
    2       -3.807205   1.000000
    3       -3.245502   1.000000
    4       -2.273008   1.000000
    5       -2.198019   1.000000
    6       -1.572383   1.000000
    7       -1.222528   1.000000
    8       -1.095755   1.000000
    9       -0.357158   1.000000
   10       -0.011939   1.000000
   11        0.235425   1.000000
   12        0.699168   1.000000
   13        0.741294   1.000000
   14        1.318671   1.000000
   15        1.593503   1.037148
   16        1.770319   0.058083
   17        2.133751   0.000000
   18        2.531770   0.000000
   19        3.115701   0.000000
 
  0.4500000E+00  0.1000000E+00  0.0000000E+00  0.5000000E-02
    1       -3.873590   1.000000
    2       -3.801223   1.000000
    3       -3.219011   1.000000
    4       -2.319620   1.000000
    5       -2.248031   1.000000
    6       -1.341004   1.000000
    7       -1.293177   1.000000
    8       -1.080087   1.000000
    9       -0.531032   1.000000
   10       -0.066864   1.000000
   11        0.327978   1.000000
   12        0.565543   1.000000
   13        1.018679   1.000000
   14        1.412113   1.001139
   15        1.790439   0.306669
   16        1.899001   0.000000
   17        2.055206   0.000000
   18        2.642575   0.000000
   19        3.137812   0.000000
 
  0.5000000E+00  0.1000000E+00  0.0000000E+00  0.2500000E-02
    1       -3.802124   1.000000
    2       -3.782908   1.000000
    3       -3.171875   1.000000
    4       -2.395781   1.000000
    5       -2.238894   1.000000
    6       -1.316388   1.000000
    7       -1.292628   1.000000
    8       -0.926181   1.000000
    9       -0.708172   1.000000
   10       -0.104830   1.000000
   11        0.384338   1.000000
   12        0.519613   1.000000
   13        1.118213   1.000000
   14        1.463034   1.002111
   15        1.819031  -0.059658
   16        1.939970   0.000000
   17        2.004172   0.000000
   18        2.782379   0.000000
   19        3.259535   0.000000
 
  0.1500000E+00  0.1500000E+00  0.0000000E+00  0.2500000E-02
    1       -6.030381   1.000000
    2       -4.368344   1.000000
    3       -2.987216   1.000000
    4       -2.885604   1.000000
    5       -2.511378   1.000000
    6       -1.904969   1.000000
    7       -1.830056   1.000000
    8       -0.870234   1.000000
    9       -0.353107   1.000000
   10       -0.260299   1.000000
   11       -0.071831   1.000000
   12        0.459387   1.000000
   13        0.984647   1.000000
   14        1.269386   1.000000
   15        1.391768   1.000000
   16        1.680078   1.000000
   17        2.030152   0.000000
   18        2.654908   0.000000
   19        2.663824   0.000000
 
  0.2000000E+00  0.1500000E+00  0.0000000E+00  0.5000000E-02
    1       -5.691271   1.000000
    2       -4.115727   1.000000
    3       -2.876090   1.000000
    4       -2.597174   1.000000
    5       -2.381949   1.000000
    6       -1.950464   1.000000
    7       -1.494313   1.000000
    8       -0.879014   1.000000
    9       -0.572544   1.000000
   10       -0.384484   1.000000
   11       -0.189138   1.000000
   12        0.114112   1.000000
   13        0.847339   1.000000
   14        1.319003   1.000000
   15        1.324876   1.000000
   16        1.715872   0.961082
   17        1.959084   0.000000
   18        2.601741   0.000000
   19        2.785272   0.000000
 
  0.2500000E+00  0.1500000E+00  0.0000000E+00  0.5000000E-02
    1       -5.287182   1.000000
    2       -3.865153   1.000000
    3       -2.835644   1.000000
    4       -2.288767   1.000000
    5       -2.255766   1.000000
    6       -2.025049   1.000000
    7       -1.167941   1.000000
    8       -0.878941   1.000000
    9       -0.674640   1.000000
   10       -0.406518   1.000000
   11       -0.279718   1.000000
   12       -0.010527   1.000000
   13        0.601322   1.000000
   14        1.227656   1.000000
   15        1.339920   1.000000
   16        1.693729   0.954465
   17        2.016111   0.000000
   18        2.598755   0.000000
   19        2.906314   0.000000
 
  0.3000000E+00  0.1500000E+00  0.0000000E+00  0.5000000E-02
    1       -4.843547   1.000000
    2       -3.669680   1.000000
    3       -2.876133   1.000000
    4       -2.107358   1.000000
    5       -2.073438   1.000000
    6       -2.045869   1.000000
    7       -1.131678   1.000000
    8       -0.969901   1.000000
    9       -0.532898   1.000000
   10       -0.412071   1.000000
   11       -0.222711   1.000000
   12        0.284530   1.000000
   13        0.306123   1.000000
   14        1.238334   1.000000
   15        1.297283   1.000000
   16        1.628138   1.057087
   17        2.055365   0.000000
   18        2.713961   0.000000
   19        3.025832   0.000000
 
  0.3500000E+00  0.1500000E+00  0.0000000E+00  0.5000000E-02
    1       -4.393163   1.000000
    2       -3.560370   1.000000
    3       -2.956626   1.000000
    4       -2.092350   1.000000
    5       -2.065300   1.000000
    6       -1.828601   1.000000
    7       -1.208102   1.000000
    8       -1.070152   1.000000
    9       -0.460916   1.000000
   10       -0.374380   1.000000
   11        0.038705   1.000000
   12        0.156307   1.000000
   13        0.683991   1.000000
   14        1.236608   1.000000
   15        1.357185   1.000000
   16        1.653923   1.069366
   17        2.006532   0.000000
   18        2.869379   0.000000
   19        2.975533   0.000000
 
  0.4000000E+00  0.1500000E+00  0.0000000E+00  0.5000000E-02
    1       -3.979109   1.000000
    2       -3.522665   1.000000
    3       -3.028945   1.000000
    4       -2.183348   1.000000
    5       -2.100689   1.000000
    6       -1.591165   1.000000
    7       -1.267047   1.000000
    8       -1.129284   1.000000
    9       -0.491481   1.000000
   10       -0.307685   1.000000
   11       -0.026656   1.000000
   12        0.469051   1.000000
   13        0.824317   1.000000
   14        1.405072   1.000000
   15        1.549679   1.026123
   16        1.806631   0.004782
   17        1.907914   0.000000
   18        2.779148   0.000000
   19        3.051422   0.000000
 
  0.4500000E+00  0.1500000E+00  0.0000000E+00  0.5000000E-02
    1       -3.666452   1.000000
    2       -3.518963   1.000000
    3       -3.059453   1.000000
    4       -2.353419   1.000000
    5       -2.108513   1.000000
    6       -1.405246   1.000000
    7       -1.298817   1.000000
    8       -1.120601   1.000000
    9       -0.577183   1.000000
   10       -0.400764   1.000000
   11        0.125892   1.000000
   12        0.659251   1.000000
   13        0.787706   1.000000
   14        1.652304   0.999690
   15        1.719888   0.837682
   16        1.824251   0.000000
   17        1.963917   0.000000
   18        2.793136   0.000000
   19        3.120443   0.000000
 
  0.5000000E+00  0.1500000E+00  0.0000000E+00  0.2500000E-02
    1       -3.547368   1.000000
    2       -3.520915   1.000000
    3       -3.052720   1.000000
    4       -2.443969   1.000000
    5       -2.112178   1.000000
    6       -1.351619   1.000000
    7       -1.308468   1.000000
    8       -1.066760   1.000000
    9       -0.649379   1.000000
   10       -0.443340   1.000000
   11        0.203455   1.000000
   12        0.722185   1.000000
   13        0.770066   1.000000
   14        1.744850   0.991538
   15        1.760861   0.378237
   16        1.814356   0.000000
   17        2.009045   0.000000
   18        2.872431   0.000000
   19        3.122555   0.000000
 
  0.2000000E+00  0.2000000E+00  0.0000000E+00  0.2500000E-02
    1       -5.369520   1.000000
    2       -3.830264   1.000000
    3       -2.668220   1.000000
    4       -2.354598   1.000000
    5       -2.250282   1.000000
    6       -1.634564   1.000000
    7       -1.590429   1.000000
    8       -0.973218   1.000000
    9       -0.699801   1.000000
   10       -0.574386   1.000000
   11       -0.338141   1.000000
   12       -0.147607   1.000000
   13        0.590351   1.000000
   14        1.378499   1.000000
   15        1.400051   1.000000
   16        1.678594   1.000000
   17        1.785508   0.014423
   18        2.532393   0.000000
   19        2.949482   0.000000
 
  0.2500000E+00  0.2000000E+00  0.0000000E+00  0.5000000E-02
    1       -4.991356   1.000000
    2       -3.540135   1.000000
    3       -2.559020   1.000000
    4       -2.198259   1.000000
    5       -2.021624   1.000000
    6       -1.730417   1.000000
    7       -1.351026   1.000000
    8       -1.005454   1.000000
    9       -0.718288   1.000000
   10       -0.635878   1.000000
   11       -0.523693   1.000000
   12       -0.169996   1.000000
   13        0.280226   1.000000
   14        1.389864   1.000000
   15        1.431575   1.000000
   16        1.586888   1.000000
   17        1.794672   0.045743
   18        2.558540   0.000000
   19        3.019404   0.000000
 
  0.3000000E+00  0.2000000E+00  0.0000000E+00  0.5000000E-02
    1       -4.583233   1.000000
    2       -3.310715   1.000000
    3       -2.566111   1.000000
    4       -2.181247   1.000000
    5       -1.831587   1.000000
    6       -1.725464   1.000000
    7       -1.266803   1.000000
    8       -1.076626   1.000000
    9       -0.729837   1.000000
   10       -0.605569   1.000000
   11       -0.368785   1.000000
   12       -0.026322   1.000000
   13        0.070848   1.000000
   14        1.373291   1.000000
   15        1.415841   1.000000
   16        1.594982   1.046790
   17        1.825162  -0.001484
   18        2.684728   0.000000
   19        3.079442   0.000000
 
  0.3500000E+00  0.2000000E+00  0.0000000E+00  0.5000000E-02
    1       -4.175392   1.000000
    2       -3.186588   1.000000
    3       -2.658415   1.000000
    4       -2.212030   1.000000
    5       -1.917484   1.000000
    6       -1.536715   1.000000
    7       -1.226424   1.000000
    8       -1.138347   1.000000
    9       -0.662543   1.000000
   10       -0.557120   1.000000
   11       -0.294400   1.000000
   12       -0.019798   1.000000
   13        0.437732   1.000000
   14        1.260907   1.000000
   15        1.551340   1.000000
   16        1.755523   0.427983
   17        1.795234   0.009011
   18        2.854784   0.000000
   19        3.218799   0.000000
 
  0.4000000E+00  0.2000000E+00  0.0000000E+00  0.5000000E-02
    1       -3.798076   1.000000
    2       -3.149498   1.000000
    3       -2.778922   1.000000
    4       -2.316230   1.000000
    5       -1.991764   1.000000
    6       -1.409593   1.000000
    7       -1.201741   1.000000
    8       -1.169220   1.000000
    9       -0.588244   1.000000
   10       -0.469414   1.000000
   11       -0.375096   1.000000
   12        0.209537   1.000000
   13        0.774082   1.000000
   14        1.217293   1.000000
   15        1.699566   1.000000
   16        1.819954  -0.003276
   17        1.996379   0.000000
   18        2.999401   0.000000
   19        3.095610   0.000000
 
  0.4500000E+00  0.2000000E+00  0.0000000E+00  0.5000000E-02
    1       -3.482470   1.000000
    2       -3.150142   1.000000