 vasp.5.4.4.18Apr17-6-g9f103f2a35 (build May 20 2018 16:52:39) complex          
  
 executed on             LinuxIFC date 2022.11.15  14:46:22
 running on    1 total cores
 distrk:  each k-point on    1 cores,    1 groups
 distr:  one band on NCORES_PER_BAND=   1 cores,    1 groups


--------------------------------------------------------------------------------------------------------


 INCAR:
 POTCAR:    PAW W                                 
 POTCAR:    PAW W                                 
   VRHFIN =W: 5p6s5d                                                            
   LEXCH  = CA                                                                  
   EATOM  =   206.5370 eV,   15.1800 Ry                                         
                                                                                
   TITEL  = PAW W                                                               
   LULTRA =        F    use ultrasoft PP ?                                      
   IUNSCR =        1    unscreen: 0-lin 1-nonlin 2-no                           
   RPACOR =    2.330    partial core radius                                     
   POMASS =  183.850; ZVAL   =    6.000    mass and valenz                      
   RCORE  =    2.750    outmost cutoff radius                                   
   RWIGS  =    2.750; RWIGS  =    1.455    wigner-seitz radius (au A)           
   ENMAX  =  223.126; ENMIN  =  167.344 eV                                      
   RCLOC  =    2.147    cutoff for local pot                                    
   LCOR   =        T    correct aug charges                                     
   LPAW   =        T    paw PP                                                  
   EAUG   =  373.438                                                            
   DEXC   =    -.048                                                            
   RMAX   =    3.087    core radius for proj-oper                               
   RAUG   =    1.300    factor for augmentation sphere                          
   RDEP   =    2.886    radius for radial grids                                 
   QCUT   =   -4.050; QGAM   =    8.099    optimization parameters              
                                                                                
   Description                                                                  
     l     E      TYP  RCUT    TYP  RCUT                                        
     2   .000     23  2.500                                                     
     2   .000     23  2.500                                                     
     0   .000     23  2.500                                                     
     0   .000     23  2.500                                                     
     1   .200     23  2.750                                                     
     1  2.000     23  2.750                                                     
     3   .000      7   .000                                                     
  local pseudopotential read in
  partial core-charges read in
  atomic valenz-charges read in
  non local Contribution for L=           2  read in
    real space projection operators read in
  non local Contribution for L=           2  read in
    real space projection operators read in
  non local Contribution for L=           0  read in
    real space projection operators read in
  non local Contribution for L=           0  read in
    real space projection operators read in
  non local Contribution for L=           1  read in
    real space projection operators read in
  non local Contribution for L=           1  read in
    real space projection operators read in
    PAW grid and wavefunctions read in
 
   number of l-projection  operators is LMAX  =           6
   number of lm-projection operators is LMMAX =          18
 
  PAW W                                 :
 energy of atom  1       EATOM= -206.5370
 kinetic energy error for atom=    0.0005 (will be added to EATOM!!)
 
 
 POSCAR: BCC W 5-layers                          
  positions in direct lattice
  No initial velocities read in
 exchange correlation table for  LEXCH =        2
   RHO(1)=    0.500       N(1)  =     2000
   RHO(2)=  100.500       N(2)  =     4000
 


--------------------------------------------------------------------------------------------------------


 ion  position               nearest neighbor table
   1  0.000  0.000  0.000-   2 2.74   2 2.74   2 2.74   2 2.74   3 3.16
   2  0.500  0.500  0.100-   1 2.74   3 2.74   1 2.74   3 2.74   1 2.74   3 2.74   1 2.74   3 2.74
                             4 3.16
   3  0.000  0.000  0.200-   4 2.74   4 2.74   4 2.74   4 2.74   2 2.74   2 2.74   2 2.74   2 2.74
                             5 3.16   1 3.16
   4  0.500  0.500  0.300-   3 2.74   3 2.74   3 2.74   3 2.74   5 2.74   5 2.74   5 2.74   5 2.74
                             2 3.16
   5  0.000  0.000  0.400-   4 2.74   4 2.74   4 2.74   4 2.74   3 3.16
 
  LATTYP: Found a simple tetragonal cell.
 ALAT       =     3.1600000000
 C/A-ratio  =     5.0000000000
  
  Lattice vectors:
  
 A1 = (   3.1600000000,   0.0000000000,   0.0000000000)
 A2 = (   0.0000000000,   3.1600000000,   0.0000000000)
 A3 = (   0.0000000000,   0.0000000000,  15.8000000000)


Analysis of symmetry for initial positions (statically):
=====================================================================
 Subroutine PRICEL returns:
 Original cell was already a primitive cell.
 

 Routine SETGRP: Setting up the symmetry group for a 
 simple tetragonal supercell.


 Subroutine GETGRP returns: Found 16 space group operations
 (whereof  8 operations were pure point group operations)
 out of a pool of 16 trial point group operations.


The static configuration has the point symmetry C_4v.
 The point group associated with its full space group is D_4h.


Analysis of symmetry for dynamics (positions and initial velocities):
=====================================================================
 Subroutine PRICEL returns:
 Original cell was already a primitive cell.
 

 Routine SETGRP: Setting up the symmetry group for a 
 simple tetragonal supercell.


 Subroutine GETGRP returns: Found 16 space group operations
 (whereof  8 operations were pure point group operations)
 out of a pool of 16 trial point group operations.


The dynamic configuration has the point symmetry C_4v.
 The point group associated with its full space group is D_4h.


 Subroutine INISYM returns: Found 16 space group operations
 (whereof  8 operations are pure point group operations),
 and found     1 'primitive' translations

 
 
 KPOINTS: Gamma 20*20*4                           

Automatic generation of k-mesh.
Space group operators:
 irot       det(A)        alpha          n_x          n_y          n_z        tau_x        tau_y        tau_z
    1     1.000000     0.000000     1.000000     0.000000     0.000000     0.000000     0.000000     0.000000
    2     1.000000    90.000000     0.000000     0.000000    -1.000000     0.000000     0.000000     0.000000
    3     1.000000   180.000000     0.000000     0.000000     1.000000     0.000000     0.000000     0.000000
    4     1.000000    90.000000     0.000000     0.000000     1.000000     0.000000     0.000000     0.000000
    5    -1.000000   180.000000     0.000000     1.000000     0.000000     0.000000     0.000000     0.000000
    6    -1.000000   180.000000     0.707107     0.707107     0.000000     0.000000     0.000000     0.000000
    7    -1.000000   180.000000     1.000000     0.000000     0.000000     0.000000     0.000000     0.000000
    8    -1.000000   180.000000     0.707107    -0.707107     0.000000     0.000000     0.000000     0.000000
    9    -1.000000     0.000000     1.000000     0.000000     0.000000     0.000000     0.000000     0.400000
   10    -1.000000    90.000000     0.000000     0.000000    -1.000000     0.000000     0.000000     0.400000
   11    -1.000000   180.000000     0.000000     0.000000     1.000000     0.000000     0.000000     0.400000
   12    -1.000000    90.000000     0.000000     0.000000     1.000000     0.000000     0.000000     0.400000
   13     1.000000   180.000000     0.000000     1.000000     0.000000     0.000000     0.000000     0.400000
   14     1.000000   180.000000     0.707107     0.707107     0.000000     0.000000     0.000000     0.400000
   15     1.000000   180.000000     1.000000     0.000000     0.000000     0.000000     0.000000     0.400000
   16     1.000000   180.000000     0.707107    -0.707107     0.000000     0.000000     0.000000     0.400000
 
 Subroutine IBZKPT returns following result:
 ===========================================
 
 Found    198 irreducible k-points:
 
 Following reciprocal coordinates:
            Coordinates               Weight
  0.000000  0.000000  0.000000      1.000000
  0.050000  0.000000  0.000000      4.000000
  0.100000  0.000000  0.000000      4.000000
  0.150000  0.000000  0.000000      4.000000
  0.200000  0.000000  0.000000      4.000000
  0.250000  0.000000  0.000000      4.000000
  0.300000  0.000000  0.000000      4.000000
  0.350000  0.000000  0.000000      4.000000
  0.400000  0.000000  0.000000      4.000000
  0.450000  0.000000  0.000000      4.000000
  0.500000  0.000000  0.000000      2.000000
  0.050000  0.050000  0.000000      4.000000
  0.100000  0.050000  0.000000      8.000000
  0.150000  0.050000  0.000000      8.000000
  0.200000  0.050000  0.000000      8.000000
  0.250000  0.050000  0.000000      8.000000
  0.300000  0.050000  0.000000      8.000000
  0.350000  0.050000  0.000000      8.000000
  0.400000  0.050000  0.000000      8.000000
  0.450000  0.050000  0.000000      8.000000
  0.500000  0.050000  0.000000      4.000000
  0.100000  0.100000  0.000000      4.000000
  0.150000  0.100000  0.000000      8.000000
  0.200000  0.100000  0.000000      8.000000
  0.250000  0.100000  0.000000      8.000000
  0.300000  0.100000  0.000000      8.000000
  0.350000  0.100000  0.000000      8.000000
  0.400000  0.100000  0.000000      8.000000
  0.450000  0.100000  0.000000      8.000000
  0.500000  0.100000  0.000000      4.000000
  0.150000  0.150000  0.000000      4.000000
  0.200000  0.150000  0.000000      8.000000
  0.250000  0.150000  0.000000      8.000000
  0.300000  0.150000  0.000000      8.000000
  0.350000  0.150000  0.000000      8.000000
  0.400000  0.150000  0.000000      8.000000
  0.450000  0.150000  0.000000      8.000000
  0.500000  0.150000  0.000000      4.000000
  0.200000  0.200000  0.000000      4.000000
  0.250000  0.200000  0.000000      8.000000
  0.300000  0.200000  0.000000      8.000000
  0.350000  0.200000  0.000000      8.000000
  0.400000  0.200000  0.000000      8.000000
  0.450000  0.200000  0.000000      8.000000
  0.500000  0.200000  0.000000      4.000000
  0.250000  0.250000  0.000000      4.000000
  0.300000  0.250000  0.000000      8.000000
  0.350000  0.250000  0.000000      8.000000
  0.400000  0.250000  0.000000      8.000000
  0.450000  0.250000  0.000000      8.000000
  0.500000  0.250000  0.000000      4.000000
  0.300000  0.300000  0.000000      4.000000
  0.350000  0.300000  0.000000      8.000000
  0.400000  0.300000  0.000000      8.000000
  0.450000  0.300000  0.000000      8.000000
  0.500000  0.300000  0.000000      4.000000
  0.350000  0.350000  0.000000      4.000000
  0.400000  0.350000  0.000000      8.000000
  0.450000  0.350000  0.000000      8.000000
  0.500000  0.350000  0.000000      4.000000
  0.400000  0.400000  0.000000      4.000000
  0.450000  0.400000  0.000000      8.000000
  0.500000  0.400000  0.000000      4.000000
  0.450000  0.450000  0.000000      4.000000
  0.500000  0.450000  0.000000      4.000000
  0.500000  0.500000  0.000000      1.000000
  0.000000  0.000000  0.250000      2.000000
  0.050000  0.000000  0.250000      8.000000
  0.100000  0.000000  0.250000      8.000000
  0.150000  0.000000  0.250000      8.000000
  0.200000  0.000000  0.250000      8.000000
  0.250000  0.000000  0.250000      8.000000
  0.300000  0.000000  0.250000      8.000000
  0.350000  0.000000  0.250000      8.000000
  0.400000  0.000000  0.250000      8.000000
  0.450000  0.000000  0.250000      8.000000
  0.500000  0.000000  0.250000      4.000000
  0.050000  0.050000  0.250000      8.000000
  0.100000  0.050000  0.250000     16.000000
  0.150000  0.050000  0.250000     16.000000
  0.200000  0.050000  0.250000     16.000000
  0.250000  0.050000  0.250000     16.000000
  0.300000  0.050000  0.250000     16.000000
  0.350000  0.050000  0.250000     16.000000
  0.400000  0.050000  0.250000     16.000000
  0.450000  0.050000  0.250000     16.000000
  0.500000  0.050000  0.250000      8.000000
  0.100000  0.100000  0.250000      8.000000
  0.150000  0.100000  0.250000     16.000000
  0.200000  0.100000  0.250000     16.000000
  0.250000  0.100000  0.250000     16.000000
  0.300000  0.100000  0.250000     16.000000
  0.350000  0.100000  0.250000     16.000000
  0.400000  0.100000  0.250000     16.000000
  0.450000  0.100000  0.250000     16.000000
  0.500000  0.100000  0.250000      8.000000
  0.150000  0.150000  0.250000      8.000000
  0.200000  0.150000  0.250000     16.000000
  0.250000  0.150000  0.250000     16.000000
  0.300000  0.150000  0.250000     16.000000
  0.350000  0.150000  0.250000     16.000000
  0.400000  0.150000  0.250000     16.000000
  0.450000  0.150000  0.250000     16.000000
  0.500000  0.150000  0.250000      8.000000
  0.200000  0.200000  0.250000      8.000000
  0.250000  0.200000  0.250000     16.000000
  0.300000  0.200000  0.250000     16.000000
  0.350000  0.200000  0.250000     16.000000
  0.400000  0.200000  0.250000     16.000000
  0.450000  0.200000  0.250000     16.000000
  0.500000  0.200000  0.250000      8.000000
  0.250000  0.250000  0.250000      8.000000
  0.300000  0.250000  0.250000     16.000000
  0.350000  0.250000  0.250000     16.000000
  0.400000  0.250000  0.250000     16.000000
  0.450000  0.250000  0.250000     16.000000
  0.500000  0.250000  0.250000      8.000000
  0.300000  0.300000  0.250000      8.000000
  0.350000  0.300000  0.250000     16.000000
  0.400000  0.300000  0.250000     16.000000
  0.450000  0.300000  0.250000     16.000000
  0.500000  0.300000  0.250000      8.000000
  0.350000  0.350000  0.250000      8.000000
  0.400000  0.350000  0.250000     16.000000
  0.450000  0.350000  0.250000     16.000000
  0.500000  0.350000  0.250000      8.000000
  0.400000  0.400000  0.250000      8.000000
  0.450000  0.400000  0.250000     16.000000
  0.500000  0.400000  0.250000      8.000000
  0.450000  0.450000  0.250000      8.000000
  0.500000  0.450000  0.250000      8.000000
  0.500000  0.500000  0.250000      2.000000
  0.000000  0.000000  0.500000      1.000000
  0.050000  0.000000  0.500000      4.000000
  0.100000  0.000000  0.500000      4.000000
  0.150000  0.000000  0.500000      4.000000
  0.200000  0.000000  0.500000      4.000000
  0.250000  0.000000  0.500000      4.000000
  0.300000  0.000000  0.500000      4.000000
  0.350000  0.000000  0.500000      4.000000
  0.400000  0.000000  0.500000      4.000000
  0.450000  0.000000  0.500000      4.000000
  0.500000  0.000000  0.500000      2.000000
  0.050000  0.050000  0.500000      4.000000
  0.100000  0.050000  0.500000      8.000000
  0.150000  0.050000  0.500000      8.000000
  0.200000  0.050000  0.500000      8.000000
  0.250000  0.050000  0.500000      8.000000
  0.300000  0.050000  0.500000      8.000000
  0.350000  0.050000  0.500000      8.000000
  0.400000  0.050000  0.500000      8.000000
  0.450000  0.050000  0.500000      8.000000
  0.500000  0.050000  0.500000      4.000000
  0.100000  0.100000  0.500000      4.000000
  0.150000  0.100000  0.500000      8.000000
  0.200000  0.100000  0.500000      8.000000
  0.250000  0.100000  0.500000      8.000000
  0.300000  0.100000  0.500000      8.000000
  0.350000  0.100000  0.500000      8.000000
  0.400000  0.100000  0.500000      8.000000
  0.450000  0.100000  0.500000      8.000000
  0.500000  0.100000  0.500000      4.000000
  0.150000  0.150000  0.500000      4.000000
  0.200000  0.150000  0.500000      8.000000
  0.250000  0.150000  0.500000      8.000000
  0.300000  0.150000  0.500000      8.000000
  0.350000  0.150000  0.500000      8.000000
  0.400000  0.150000  0.500000      8.000000
  0.450000  0.150000  0.500000      8.000000
  0.500000  0.150000  0.500000      4.000000
  0.200000  0.200000  0.500000      4.000000
  0.250000  0.200000  0.500000      8.000000
  0.300000  0.200000  0.500000      8.000000
  0.350000  0.200000  0.500000      8.000000
  0.400000  0.200000  0.500000      8.000000
  0.450000  0.200000  0.500000      8.000000
  0.500000  0.200000  0.500000      4.000000
  0.250000  0.250000  0.500000      4.000000
  0.300000  0.250000  0.500000      8.000000
  0.350000  0.250000  0.500000      8.000000
  0.400000  0.250000  0.500000      8.000000
  0.450000  0.250000  0.500000      8.000000
  0.500000  0.250000  0.500000      4.000000
  0.300000  0.300000  0.500000      4.000000
  0.350000  0.300000  0.500000      8.000000
  0.400000  0.300000  0.500000      8.000000
  0.450000  0.300000  0.500000      8.000000
  0.500000  0.300000  0.500000      4.000000
  0.350000  0.350000  0.500000      4.000000
  0.400000  0.350000  0.500000      8.000000
  0.450000  0.350000  0.500000      8.000000
  0.500000  0.350000  0.500000      4.000000
  0.400000  0.400000  0.500000      4.000000
  0.450000  0.400000  0.500000      8.000000
  0.500000  0.400000  0.500000      4.000000
  0.450000  0.450000  0.500000      4.000000
  0.500000  0.450000  0.500000      4.000000
  0.500000  0.500000  0.500000      1.000000
 
 Following cartesian coordinates:
            Coordinates               Weight
  0.000000  0.000000  0.000000      1.000000
  0.050000  0.000000  0.000000      4.000000
  0.100000  0.000000  0.000000      4.000000
  0.150000  0.000000  0.000000      4.000000
  0.200000  0.000000  0.000000      4.000000
  0.250000  0.000000  0.000000      4.000000
  0.300000  0.000000  0.000000      4.000000
  0.350000  0.000000  0.000000      4.000000
  0.400000  0.000000  0.000000      4.000000
  0.450000  0.000000  0.000000      4.000000
  0.500000  0.000000  0.000000      2.000000
  0.050000  0.050000  0.000000      4.000000
  0.100000  0.050000  0.000000      8.000000
  0.150000  0.050000  0.000000      8.000000
  0.200000  0.050000  0.000000      8.000000
  0.250000  0.050000  0.000000      8.000000
  0.300000  0.050000  0.000000      8.000000
  0.350000  0.050000  0.000000      8.000000
  0.400000  0.050000  0.000000      8.000000
  0.450000  0.050000  0.000000      8.000000
  0.500000  0.050000  0.000000      4.000000
  0.100000  0.100000  0.000000      4.000000
  0.150000  0.100000  0.000000      8.000000
  0.200000  0.100000  0.000000      8.000000
  0.250000  0.100000  0.000000      8.000000
  0.300000  0.100000  0.000000      8.000000
  0.350000  0.100000  0.000000      8.000000
  0.400000  0.100000  0.000000      8.000000
  0.450000  0.100000  0.000000      8.000000
  0.500000  0.100000  0.000000      4.000000
  0.150000  0.150000  0.000000      4.000000
  0.200000  0.150000  0.000000      8.000000
  0.250000  0.150000  0.000000      8.000000
  0.300000  0.150000  0.000000      8.000000
  0.350000  0.150000  0.000000      8.000000
  0.400000  0.150000  0.000000      8.000000
  0.450000  0.150000  0.000000      8.000000
  0.500000  0.150000  0.000000      4.000000
  0.200000  0.200000  0.000000      4.000000
  0.250000  0.200000  0.000000      8.000000
  0.300000  0.200000  0.000000      8.000000
  0.350000  0.200000  0.000000      8.000000
  0.400000  0.200000  0.000000      8.000000
  0.450000  0.200000  0.000000      8.000000
  0.500000  0.200000  0.000000      4.000000
  0.250000  0.250000  0.000000      4.000000
  0.300000  0.250000  0.000000      8.000000
  0.350000  0.250000  0.000000      8.000000
  0.400000  0.250000  0.000000      8.000000
  0.450000  0.250000  0.000000      8.000000
  0.500000  0.250000  0.000000      4.000000
  0.300000  0.300000  0.000000      4.000000
  0.350000  0.300000  0.000000      8.000000
  0.400000  0.300000  0.000000      8.000000
  0.450000  0.300000  0.000000      8.000000
  0.500000  0.300000  0.000000      4.000000
  0.350000  0.350000  0.000000      4.000000
  0.400000  0.350000  0.000000      8.000000
  0.450000  0.350000  0.000000      8.000000
  0.500000  0.350000  0.000000      4.000000
  0.400000  0.400000  0.000000      4.000000
  0.450000  0.400000  0.000000      8.000000
  0.500000  0.400000  0.000000      4.000000
  0.450000  0.450000  0.000000      4.000000
  0.500000  0.450000  0.000000      4.000000
  0.500000  0.500000  0.000000      1.000000
  0.000000  0.000000  0.050000      2.000000
  0.050000  0.000000  0.050000      8.000000
  0.100000  0.000000  0.050000      8.000000
  0.150000  0.000000  0.050000      8.000000
  0.200000  0.000000  0.050000      8.000000
  0.250000  0.000000  0.050000      8.000000
  0.300000  0.000000  0.050000      8.000000
  0.350000  0.000000  0.050000      8.000000
  0.400000  0.000000  0.050000      8.000000
  0.450000  0.000000  0.050000      8.000000
  0.500000  0.000000  0.050000      4.000000
  0.050000  0.050000  0.050000      8.000000
  0.100000  0.050000  0.050000     16.000000
  0.150000  0.050000  0.050000     16.000000
  0.200000  0.050000  0.050000     16.000000
  0.250000  0.050000  0.050000     16.000000
  0.300000  0.050000  0.050000     16.000000
  0.350000  0.050000  0.050000     16.000000
  0.400000  0.050000  0.050000     16.000000
  0.450000  0.050000  0.050000     16.000000
  0.500000  0.050000  0.050000      8.000000
  0.100000  0.100000  0.050000      8.000000
  0.150000  0.100000  0.050000     16.000000
  0.200000  0.100000  0.050000     16.000000
  0.250000  0.100000  0.050000     16.000000
  0.300000  0.100000  0.050000     16.000000
  0.350000  0.100000  0.050000     16.000000
  0.400000  0.100000  0.050000     16.000000
  0.450000  0.100000  0.050000     16.000000
  0.500000  0.100000  0.050000      8.000000
  0.150000  0.150000  0.050000      8.000000
  0.200000  0.150000  0.050000     16.000000
  0.250000  0.150000  0.050000     16.000000
  0.300000  0.150000  0.050000     16.000000
  0.350000  0.150000  0.050000     16.000000
  0.400000  0.150000  0.050000     16.000000
  0.450000  0.150000  0.050000     16.000000
  0.500000  0.150000  0.050000      8.000000
  0.200000  0.200000  0.050000      8.000000
  0.250000  0.200000  0.050000     16.000000
  0.300000  0.200000  0.050000     16.000000
  0.350000  0.200000  0.050000     16.000000
  0.400000  0.200000  0.050000     16.000000
  0.450000  0.200000  0.050000     16.000000
  0.500000  0.200000  0.050000      8.000000
  0.250000  0.250000  0.050000      8.000000
  0.300000  0.250000  0.050000     16.000000
  0.350000  0.250000  0.050000     16.000000
  0.400000  0.250000  0.050000     16.000000
  0.450000  0.250000  0.050000     16.000000
  0.500000  0.250000  0.050000      8.000000
  0.300000  0.300000  0.050000      8.000000
  0.350000  0.300000  0.050000     16.000000
  0.400000  0.300000  0.050000     16.000000
  0.450000  0.300000  0.050000     16.000000
  0.500000  0.300000  0.050000      8.000000
  0.350000  0.350000  0.050000      8.000000
  0.400000  0.350000  0.050000     16.000000
  0.450000  0.350000  0.050000     16.000000
  0.500000  0.350000  0.050000      8.000000
  0.400000  0.400000  0.050000      8.000000
  0.450000  0.400000  0.050000     16.000000
  0.500000  0.400000  0.050000      8.000000
  0.450000  0.450000  0.050000      8.000000
  0.500000  0.450000  0.050000      8.000000
  0.500000  0.500000  0.050000      2.000000
  0.000000  0.000000  0.100000      1.000000
  0.050000  0.000000  0.100000      4.000000
  0.100000  0.000000  0.100000      4.000000
  0.150000  0.000000  0.100000      4.000000
  0.200000  0.000000  0.100000      4.000000
  0.250000  0.000000  0.100000      4.000000
  0.300000  0.000000  0.100000      4.000000
  0.350000  0.000000  0.100000      4.000000
  0.400000  0.000000  0.100000      4.000000
  0.450000  0.000000  0.100000      4.000000
  0.500000  0.000000  0.100000      2.000000
  0.050000  0.050000  0.100000      4.000000
  0.100000  0.050000  0.100000      8.000000
  0.150000  0.050000  0.100000      8.000000
  0.200000  0.050000  0.100000      8.000000
  0.250000  0.050000  0.100000      8.000000
  0.300000  0.050000  0.100000      8.000000
  0.350000  0.050000  0.100000      8.000000
  0.400000  0.050000  0.100000      8.000000
  0.450000  0.050000  0.100000      8.000000
  0.500000  0.050000  0.100000      4.000000
  0.100000  0.100000  0.100000      4.000000
  0.150000  0.100000  0.100000      8.000000
  0.200000  0.100000  0.100000      8.000000
  0.250000  0.100000  0.100000      8.000000
  0.300000  0.100000  0.100000      8.000000
  0.350000  0.100000  0.100000      8.000000
  0.400000  0.100000  0.100000      8.000000
  0.450000  0.100000  0.100000      8.000000
  0.500000  0.100000  0.100000      4.000000
  0.150000  0.150000  0.100000      4.000000
  0.200000  0.150000  0.100000      8.000000
  0.250000  0.150000  0.100000      8.000000
  0.300000  0.150000  0.100000      8.000000
  0.350000  0.150000  0.100000      8.000000
  0.400000  0.150000  0.100000      8.000000
  0.450000  0.150000  0.100000      8.000000
  0.500000  0.150000  0.100000      4.000000
  0.200000  0.200000  0.100000      4.000000
  0.250000  0.200000  0.100000      8.000000
  0.300000  0.200000  0.100000      8.000000
  0.350000  0.200000  0.100000      8.000000
  0.400000  0.200000  0.100000      8.000000
  0.450000  0.200000  0.100000      8.000000
  0.500000  0.200000  0.100000      4.000000
  0.250000  0.250000  0.100000      4.000000
  0.300000  0.250000  0.100000      8.000000
  0.350000  0.250000  0.100000      8.000000
  0.400000  0.250000  0.100000      8.000000
  0.450000  0.250000  0.100000      8.000000
  0.500000  0.250000  0.100000      4.000000
  0.300000  0.300000  0.100000      4.000000
  0.350000  0.300000  0.100000      8.000000
  0.400000  0.300000  0.100000      8.000000
  0.450000  0.300000  0.100000      8.000000
  0.500000  0.300000  0.100000      4.000000
  0.350000  0.350000  0.100000      4.000000
  0.400000  0.350000  0.100000      8.000000
  0.450000  0.350000  0.100000      8.000000
  0.500000  0.350000  0.100000      4.000000
  0.400000  0.400000  0.100000      4.000000
  0.450000  0.400000  0.100000      8.000000
  0.500000  0.400000  0.100000      4.000000
  0.450000  0.450000  0.100000      4.000000
  0.500000  0.450000  0.100000      4.000000
  0.500000  0.500000  0.100000      1.000000
 
 TETIRR: Found   2400 inequivalent tetrahedra from     9600


--------------------------------------------------------------------------------------------------------




 Dimension of arrays:
   k-points           NKPTS =    198   k-points in BZ     NKDIM =    198   number of bands    NBANDS=     19
   number of dos      NEDOS =    301   number of ions     NIONS =      5
   non local maximal  LDIM  =      6   non local SUM 2l+1 LMDIM =     18
   total plane-waves  NPLWV =  38400
   max r-space proj   IRMAX =      1   max aug-charges    IRDMAX=  14091
   dimension x,y,z NGX =    20 NGY =   20 NGZ =   96
   dimension x,y,z NGXF=    40 NGYF=   40 NGZF=  192
   support grid    NGXF=    40 NGYF=   40 NGZF=  192
   ions per type =               5
   NGX,Y,Z   is equivalent  to a cutoff of  10.52, 10.52, 10.10 a.u.
   NGXF,Y,Z  is equivalent  to a cutoff of  21.04, 21.04, 20.20 a.u.

 SYSTEM =  unknown system                          
 POSCAR =  BCC W 5-layers                          

 Startparameter for this run:
   NWRITE =      2    write-flag & timer
   PREC   = normal    normal or accurate (medium, high low for compatibility)
   ISTART =      0    job   : 0-new  1-cont  2-samecut
   ICHARG =      2    charge: 1-file 2-atom 10-const
   ISPIN  =      1    spin polarized calculation?
   LNONCOLLINEAR =      F non collinear calculations
   LSORBIT =      F    spin-orbit coupling
   INIWAV =      1    electr: 0-lowe 1-rand  2-diag
   LASPH  =      F    aspherical Exc in radial PAW
   METAGGA=      F    non-selfconsistent MetaGGA calc.

 Electronic Relaxation 1
   ENCUT  =  600.0 eV  44.10 Ry    6.64 a.u.   6.31  6.31 31.56*2*pi/ulx,y,z
   ENINI  =  600.0     initial cutoff
   ENAUG  =  373.4 eV  augmentation charge cutoff
   NELM   =     60;   NELMIN=  2; NELMDL= -5     # of ELM steps 
   EDIFF  = 0.1E-05   stopping-criterion for ELM
   LREAL  =      F    real-space projection
   NLSPLINE    = F    spline interpolate recip. space projectors
   LCOMPAT=      F    compatible to vasp.4.4
   GGA_COMPAT  = T    GGA compatible to vasp.4.4-vasp.4.6
   LMAXPAW     = -100 max onsite density
   LMAXMIX     =    2 max onsite mixed and CHGCAR
   VOSKOWN=      0    Vosko Wilk Nusair interpolation
   ROPT   =    0.00000
 Ionic relaxation
   EDIFFG = 0.1E-04   stopping-criterion for IOM
   NSW    =      0    number of steps for IOM
   NBLOCK =      1;   KBLOCK =      1    inner block; outer block 
   IBRION =     -1    ionic relax: 0-MD 1-quasi-New 2-CG
   NFREE  =      0    steps in history (QN), initial steepest desc. (CG)
   ISIF   =      2    stress and relaxation
   IWAVPR =     10    prediction:  0-non 1-charg 2-wave 3-comb
   ISYM   =      2    0-nonsym 1-usesym 2-fastsym
   LCORR  =      T    Harris-Foulkes like correction to forces

   POTIM  = 0.5000    time-step for ionic-motion
   TEIN   =    0.0    initial temperature
   TEBEG  =    0.0;   TEEND  =   0.0 temperature during run
   SMASS  =  -3.00    Nose mass-parameter (am)
   estimated Nose-frequenzy (Omega)   =  0.10E-29 period in steps =****** mass=  -0.228E-27a.u.
   SCALEE = 1.0000    scale energy and forces
   NPACO  =    256;   APACO  = 16.0  distance and # of slots for P.C.
   PSTRESS=    0.0 pullay stress

  Mass of Ions in am
   POMASS = 183.85
  Ionic Valenz
   ZVAL   =   6.00
  Atomic Wigner-Seitz radii
   RWIGS  =  -1.00
  virtual crystal weights 
   VCA    =   1.00
   NELECT =      30.0000    total number of electrons
   NUPDOWN=      -1.0000    fix difference up-down

 DOS related values:
   EMIN   =  10.00;   EMAX   =-10.00  energy-range for DOS
   EFERMI =   0.00
   ISMEAR =    -5;   SIGMA  =   0.20  broadening in eV -4-tet -1-fermi 0-gaus

 Electronic relaxation 2 (details)
   IALGO  =     38    algorithm
   LDIAG  =      T    sub-space diagonalisation (order eigenvalues)
   LSUBROT=      F    optimize rotation matrix (better conditioning)
   TURBO    =      0    0=normal 1=particle mesh
   IRESTART =      0    0=no restart 2=restart with 2 vectors
   NREBOOT  =      0    no. of reboots
   NMIN     =      0    reboot dimension
   EREF     =   0.00    reference energy to select bands
   IMIX   =      4    mixing-type and parameters
     AMIX     =   0.40;   BMIX     =  1.00
     AMIX_MAG =   1.60;   BMIX_MAG =  1.00
     AMIN     =   0.10
     WC   =   100.;   INIMIX=   1;  MIXPRE=   1;  MAXMIX= -45

 Intra band minimization:
   WEIMIN = 0.0000     energy-eigenvalue tresh-hold
   EBREAK =  0.13E-07  absolut break condition
   DEPER  =   0.30     relativ break condition  

   TIME   =   0.40     timestep for ELM

  volume/ion in A,a.u.               =      31.55       212.94
  Fermi-wavevector in a.u.,A,eV,Ry     =   0.941394  1.778977 12.057795  0.886223
  Thomas-Fermi vector in A             =   2.068901
 
 Write flags
   LWAVE        =      T    write WAVECAR
   LDOWNSAMPLE  =      F    k-point downsampling of WAVECAR
   LCHARG       =      T    write CHGCAR
   LVTOT        =      F    write LOCPOT, total local potential
   LVHAR        =      F    write LOCPOT, Hartree potential only
   LELF         =      F    write electronic localiz. function (ELF)
   LORBIT       =      0    0 simple, 1 ext, 2 COOP (PROOUT), +10 PAW based schemes


 Dipole corrections
   LMONO  =      F    monopole corrections only (constant potential shift)
   LDIPOL =      F    correct potential (dipole corrections)
   IDIPOL =      0    1-x, 2-y, 3-z, 4-all directions 
   EPSILON=  1.0000000 bulk dielectric constant

 Exchange correlation treatment:
   GGA     =    --    GGA type
   LEXCH   =     2    internal setting for exchange type
   VOSKOWN=      0    Vosko Wilk Nusair interpolation
   LHFCALC =     F    Hartree Fock is set to
   LHFONE  =     F    Hartree Fock one center treatment
   AEXX    =    0.0000 exact exchange contribution

 Linear response parameters
   LEPSILON=     F    determine dielectric tensor
   LRPA    =     F    only Hartree local field effects (RPA)
   LNABLA  =     F    use nabla operator in PAW spheres
   LVEL    =     F    velocity operator in full k-point grid
   LINTERFAST=   F  fast interpolation
   KINTER  =     0    interpolate to denser k-point grid
   CSHIFT  =0.1000    complex shift for real part using Kramers Kronig
   OMEGAMAX=  -1.0    maximum frequency
   DEG_THRESHOLD= 0.2000000E-02 threshold for treating states as degnerate
   RTIME   =   -0.100 relaxation time in fs
  (WPLASMAI=    0.000 imaginary part of plasma frequency in eV, 0.658/RTIME)
   DFIELD  = 0.0000000 0.0000000 0.0000000 field for delta impulse in time
 
 Orbital magnetization related:
   ORBITALMAG=     F  switch on orbital magnetization
   LCHIMAG   =     F  perturbation theory with respect to B field
   DQ        =  0.001000  dq finite difference perturbation B field
   LLRAUG    =     F  two centre corrections for induced B field



--------------------------------------------------------------------------------------------------------


 Static calculation
 charge density and potential will be updated during run
 non-spin polarized calculation
 Variant of blocked Davidson
 Davidson routine will perform the subspace rotation
 perform sub-space diagonalisation
    after iterative eigenvector-optimisation
 modified Broyden-mixing scheme, WC =      100.0
 initial mixing is a Kerker type mixing with AMIX =  0.4000 and BMIX =      1.0000
 Hartree-type preconditioning will be used
 using additional bands            4
 reciprocal scheme for non local part
 use partial core corrections
 calculate Harris-corrections to forces 
   (improved forces if not selfconsistent)
 use of overlap-Matrix (Vanderbilt PP)
 Fermi weights with tetrahedron method with Bloechl corrections


--------------------------------------------------------------------------------------------------------


  energy-cutoff  :      600.00
  volume of cell :      157.77
      direct lattice vectors                 reciprocal lattice vectors
     3.160000000  0.000000000  0.000000000     0.316455696  0.000000000  0.000000000
     0.000000000  3.160000000  0.000000000     0.000000000  0.316455696  0.000000000
     0.000000000  0.000000000 15.800000000     0.000000000  0.000000000  0.063291139

  length of vectors
     3.160000000  3.160000000 15.800000000     0.316455696  0.316455696  0.063291139


 
 k-points in units of 2pi/SCALE and weight: Gamma 20*20*4                           
   0.00000000  0.00000000  0.00000000       0.001
   0.05000000  0.00000000  0.00000000       0.003
   0.10000000  0.00000000  0.00000000       0.003
   0.15000000  0.00000000  0.00000000       0.003
   0.20000000  0.00000000  0.00000000       0.003
   0.25000000  0.00000000  0.00000000       0.003
   0.30000000  0.00000000  0.00000000       0.003
   0.35000000  0.00000000  0.00000000       0.003
   0.40000000  0.00000000  0.00000000       0.003
   0.45000000  0.00000000  0.00000000       0.003
   0.50000000  0.00000000  0.00000000       0.001
   0.05000000  0.05000000  0.00000000       0.003
   0.10000000  0.05000000  0.00000000       0.005
   0.15000000  0.05000000  0.00000000       0.005
   0.20000000  0.05000000  0.00000000       0.005
   0.25000000  0.05000000  0.00000000       0.005
   0.30000000  0.05000000  0.00000000       0.005
   0.35000000  0.05000000  0.00000000       0.005
   0.40000000  0.05000000  0.00000000       0.005
   0.45000000  0.05000000  0.00000000       0.005
   0.50000000  0.05000000  0.00000000       0.003
   0.10000000  0.10000000  0.00000000       0.003
   0.15000000  0.10000000  0.00000000       0.005
   0.20000000  0.10000000  0.00000000       0.005
   0.25000000  0.10000000  0.00000000       0.005
   0.30000000  0.10000000  0.00000000       0.005
   0.35000000  0.10000000  0.00000000       0.005
   0.40000000  0.10000000  0.00000000       0.005
   0.45000000  0.10000000  0.00000000       0.005
   0.50000000  0.10000000  0.00000000       0.003
   0.15000000  0.15000000  0.00000000       0.003
   0.20000000  0.15000000  0.00000000       0.005
   0.25000000  0.15000000  0.00000000       0.005
   0.30000000  0.15000000  0.00000000       0.005
   0.35000000  0.15000000  0.00000000       0.005
   0.40000000  0.15000000  0.00000000       0.005
   0.45000000  0.15000000  0.00000000       0.005
   0.50000000  0.15000000  0.00000000       0.003
   0.20000000  0.20000000  0.00000000       0.003
   0.25000000  0.20000000  0.00000000       0.005
   0.30000000  0.20000000  0.00000000       0.005
   0.35000000  0.20000000  0.00000000       0.005
   0.40000000  0.20000000  0.00000000       0.005
   0.45000000  0.20000000  0.00000000       0.005
   0.50000000  0.20000000  0.00000000       0.003
   0.25000000  0.25000000  0.00000000       0.003
   0.30000000  0.25000000  0.00000000       0.005
   0.35000000  0.25000000  0.00000000       0.005
   0.40000000  0.25000000  0.00000000       0.005
   0.45000000  0.25000000  0.00000000       0.005
   0.50000000  0.25000000  0.00000000       0.003
   0.30000000  0.30000000  0.00000000       0.003
   0.35000000  0.30000000  0.00000000       0.005
   0.40000000  0.30000000  0.00000000       0.005
   0.45000000  0.30000000  0.00000000       0.005
   0.50000000  0.30000000  0.00000000       0.003
   0.35000000  0.35000000  0.00000000       0.003
   0.40000000  0.35000000  0.00000000       0.005
   0.45000000  0.35000000  0.00000000       0.005
   0.50000000  0.35000000  0.00000000       0.003
   0.40000000  0.40000000  0.00000000       0.003
   0.45000000  0.40000000  0.00000000       0.005
   0.50000000  0.40000000  0.00000000       0.003
   0.45000000  0.45000000  0.00000000       0.003
   0.50000000  0.45000000  0.00000000       0.003
   0.50000000  0.50000000  0.00000000       0.001
   0.00000000  0.00000000  0.05000000       0.001
   0.05000000  0.00000000  0.05000000       0.005
   0.10000000  0.00000000  0.05000000       0.005
   0.15000000  0.00000000  0.05000000       0.005
   0.20000000  0.00000000  0.05000000       0.005
   0.25000000  0.00000000  0.05000000       0.005
   0.30000000  0.00000000  0.05000000       0.005
   0.35000000  0.00000000  0.05000000       0.005
   0.40000000  0.00000000  0.05000000       0.005
   0.45000000  0.00000000  0.05000000       0.005
   0.50000000  0.00000000  0.05000000       0.003
   0.05000000  0.05000000  0.05000000       0.005
   0.10000000  0.05000000  0.05000000       0.010
   0.15000000  0.05000000  0.05000000       0.010
   0.20000000  0.05000000  0.05000000       0.010
   0.25000000  0.05000000  0.05000000       0.010
   0.30000000  0.05000000  0.05000000       0.010
   0.35000000  0.05000000  0.05000000       0.010
   0.40000000  0.05000000  0.05000000       0.010
   0.45000000  0.05000000  0.05000000       0.010
   0.50000000  0.05000000  0.05000000       0.005
   0.10000000  0.10000000  0.05000000       0.005
   0.15000000  0.10000000  0.05000000       0.010
   0.20000000  0.10000000  0.05000000       0.010
   0.25000000  0.10000000  0.05000000       0.010
   0.30000000  0.10000000  0.05000000       0.010
   0.35000000  0.10000000  0.05000000       0.010
   0.40000000  0.10000000  0.05000000       0.010
   0.45000000  0.10000000  0.05000000       0.010
   0.50000000  0.10000000  0.05000000       0.005
   0.15000000  0.15000000  0.05000000       0.005
   0.20000000  0.15000000  0.05000000       0.010
   0.25000000  0.15000000  0.05000000       0.010
   0.30000000  0.15000000  0.05000000       0.010
   0.35000000  0.15000000  0.05000000       0.010
   0.40000000  0.15000000  0.05000000       0.010
   0.45000000  0.15000000  0.05000000       0.010
   0.50000000  0.15000000  0.05000000       0.005
   0.20000000  0.20000000  0.05000000       0.005
   0.25000000  0.20000000  0.05000000       0.010
   0.30000000  0.20000000  0.05000000       0.010
   0.35000000  0.20000000  0.05000000       0.010
   0.40000000  0.20000000  0.05000000       0.010
   0.45000000  0.20000000  0.05000000       0.010
   0.50000000  0.20000000  0.05000000       0.005
   0.25000000  0.25000000  0.05000000       0.005
   0.30000000  0.25000000  0.05000000       0.010
   0.35000000  0.25000000  0.05000000       0.010
   0.40000000  0.25000000  0.05000000       0.010
   0.45000000  0.25000000  0.05000000       0.010
   0.50000000  0.25000000  0.05000000       0.005
   0.30000000  0.30000000  0.05000000       0.005
   0.35000000  0.30000000  0.05000000       0.010
   0.40000000  0.30000000  0.05000000       0.010
   0.45000000  0.30000000  0.05000000       0.010
   0.50000000  0.30000000  0.05000000       0.005
   0.35000000  0.35000000  0.05000000       0.005
   0.40000000  0.35000000  0.05000000       0.010
   0.45000000  0.35000000  0.05000000       0.010
   0.50000000  0.35000000  0.05000000       0.005
   0.40000000  0.40000000  0.05000000       0.005
   0.45000000  0.40000000  0.05000000       0.010
   0.50000000  0.40000000  0.05000000       0.005
   0.45000000  0.45000000  0.05000000       0.005
   0.50000000  0.45000000  0.05000000       0.005
   0.50000000  0.50000000  0.05000000       0.001
   0.00000000  0.00000000  0.10000000       0.001
   0.05000000  0.00000000  0.10000000       0.003
   0.10000000  0.00000000  0.10000000       0.003
   0.15000000  0.00000000  0.10000000       0.003
   0.20000000  0.00000000  0.10000000       0.003
   0.25000000  0.00000000  0.10000000       0.003
   0.30000000  0.00000000  0.10000000       0.003
   0.35000000  0.00000000  0.10000000       0.003
   0.40000000  0.00000000  0.10000000       0.003
   0.45000000  0.00000000  0.10000000       0.003
   0.50000000  0.00000000  0.10000000       0.001
   0.05000000  0.05000000  0.10000000       0.003
   0.10000000  0.05000000  0.10000000       0.005
   0.15000000  0.05000000  0.10000000       0.005
   0.20000000  0.05000000  0.10000000       0.005
   0.25000000  0.05000000  0.10000000       0.005
   0.30000000  0.05000000  0.10000000       0.005
   0.35000000  0.05000000  0.10000000       0.005
   0.40000000  0.05000000  0.10000000       0.005
   0.45000000  0.05000000  0.10000000       0.005
   0.50000000  0.05000000  0.10000000       0.003
   0.10000000  0.10000000  0.10000000       0.003
   0.15000000  0.10000000  0.10000000       0.005
   0.20000000  0.10000000  0.10000000       0.005
   0.25000000  0.10000000  0.10000000       0.005
   0.30000000  0.10000000  0.10000000       0.005
   0.35000000  0.10000000  0.10000000       0.005
   0.40000000  0.10000000  0.10000000       0.005
   0.45000000  0.10000000  0.10000000       0.005
   0.50000000  0.10000000  0.10000000       0.003
   0.15000000  0.15000000  0.10000000       0.003
   0.20000000  0.15000000  0.10000000       0.005
   0.25000000  0.15000000  0.10000000       0.005
   0.30000000  0.15000000  0.10000000       0.005
   0.35000000  0.15000000  0.10000000       0.005
   0.40000000  0.15000000  0.10000000       0.005
   0.45000000  0.15000000  0.10000000       0.005
   0.50000000  0.15000000  0.10000000       0.003
   0.20000000  0.20000000  0.10000000       0.003
   0.25000000  0.20000000  0.10000000       0.005
   0.30000000  0.20000000  0.10000000       0.005
   0.35000000  0.20000000  0.10000000       0.005
   0.40000000  0.20000000  0.10000000       0.005
   0.45000000  0.20000000  0.10000000       0.005
   0.50000000  0.20000000  0.10000000       0.003
   0.25000000  0.25000000  0.10000000       0.003
   0.30000000  0.25000000  0.10000000       0.005
   0.35000000  0.25000000  0.10000000       0.005
   0.40000000  0.25000000  0.10000000       0.005
   0.45000000  0.25000000  0.10000000       0.005
   0.50000000  0.25000000  0.10000000       0.003
   0.30000000  0.30000000  0.10000000       0.003
   0.35000000  0.30000000  0.10000000       0.005
   0.40000000  0.30000000  0.10000000       0.005
   0.45000000  0.30000000  0.10000000       0.005
   0.50000000  0.30000000  0.10000000       0.003
   0.35000000  0.35000000  0.10000000       0.003
   0.40000000  0.35000000  0.10000000       0.005
   0.45000000  0.35000000  0.10000000       0.005
   0.50000000  0.35000000  0.10000000       0.003
   0.40000000  0.40000000  0.10000000       0.003
   0.45000000  0.40000000  0.10000000       0.005
   0.50000000  0.40000000  0.10000000       0.003
   0.45000000  0.45000000  0.10000000       0.003
   0.50000000  0.45000000  0.10000000       0.003
   0.50000000  0.50000000  0.10000000       0.001
 
 k-points in reciprocal lattice and weights: Gamma 20*20*4                           
   0.00000000  0.00000000  0.00000000       0.001
   0.05000000  0.00000000  0.00000000       0.003
   0.10000000  0.00000000  0.00000000       0.003
   0.15000000  0.00000000  0.00000000       0.003
   0.20000000  0.00000000  0.00000000       0.003
   0.25000000  0.00000000  0.00000000       0.003
   0.30000000  0.00000000  0.00000000       0.003
   0.35000000  0.00000000  0.00000000       0.003
   0.40000000  0.00000000  0.00000000       0.003
   0.45000000  0.00000000  0.00000000       0.003
   0.50000000  0.00000000  0.00000000       0.001
   0.05000000  0.05000000  0.00000000       0.003
   0.10000000  0.05000000  0.00000000       0.005
   0.15000000  0.05000000  0.00000000       0.005
   0.20000000  0.05000000  0.00000000       0.005
   0.25000000  0.05000000  0.00000000       0.005
   0.30000000  0.05000000  0.00000000       0.005
   0.35000000  0.05000000  0.00000000       0.005
   0.40000000  0.05000000  0.00000000       0.005
   0.45000000  0.05000000  0.00000000       0.005
   0.50000000  0.05000000  0.00000000       0.003
   0.10000000  0.10000000  0.00000000       0.003
   0.15000000  0.10000000  0.00000000       0.005
   0.20000000  0.10000000  0.00000000       0.005
   0.25000000  0.10000000  0.00000000       0.005
   0.30000000  0.10000000  0.00000000       0.005
   0.35000000  0.10000000  0.00000000       0.005
   0.40000000  0.10000000  0.00000000       0.005
   0.45000000  0.10000000  0.00000000       0.005
   0.50000000  0.10000000  0.00000000       0.003
   0.15000000  0.15000000  0.00000000       0.003
   0.20000000  0.15000000  0.00000000       0.005
   0.25000000  0.15000000  0.00000000       0.005
   0.30000000  0.15000000  0.00000000       0.005
   0.35000000  0.15000000  0.00000000       0.005
   0.40000000  0.15000000  0.00000000       0.005
   0.45000000  0.15000000  0.00000000       0.005
   0.50000000  0.15000000  0.00000000       0.003
   0.20000000  0.20000000  0.00000000       0.003
   0.25000000  0.20000000  0.00000000       0.005
   0.30000000  0.20000000  0.00000000       0.005
   0.35000000  0.20000000  0.00000000       0.005
   0.40000000  0.20000000  0.00000000       0.005
   0.45000000  0.20000000  0.00000000       0.005
   0.50000000  0.20000000  0.00000000       0.003
   0.25000000  0.25000000  0.00000000       0.003
   0.30000000  0.25000000  0.00000000       0.005
   0.35000000  0.25000000  0.00000000       0.005
   0.40000000  0.25000000  0.00000000       0.005
   0.45000000  0.25000000  0.00000000       0.005
   0.50000000  0.25000000  0.00000000       0.003
   0.30000000  0.30000000  0.00000000       0.003
   0.35000000  0.30000000  0.00000000       0.005
   0.40000000  0.30000000  0.00000000       0.005
   0.45000000  0.30000000  0.00000000       0.005
   0.50000000  0.30000000  0.00000000       0.003
   0.35000000  0.35000000  0.00000000       0.003
   0.40000000  0.35000000  0.00000000       0.005
   0.45000000  0.35000000  0.00000000       0.005
   0.50000000  0.35000000  0.00000000       0.003
   0.40000000  0.40000000  0.00000000       0.003
   0.45000000  0.40000000  0.00000000       0.005
   0.50000000  0.40000000  0.00000000       0.003
   0.45000000  0.45000000  0.00000000       0.003
   0.50000000  0.45000000  0.00000000       0.003
   0.50000000  0.50000000  0.00000000       0.001
   0.00000000  0.00000000  0.25000000       0.001
   0.05000000  0.00000000  0.25000000       0.005
   0.10000000  0.00000000  0.25000000       0.005
   0.15000000  0.00000000  0.25000000       0.005
   0.20000000  0.00000000  0.25000000       0.005
   0.25000000  0.00000000  0.25000000       0.005
   0.30000000  0.00000000  0.25000000       0.005
   0.35000000  0.00000000  0.25000000       0.005
   0.40000000  0.00000000  0.25000000       0.005
   0.45000000  0.00000000  0.25000000       0.005
   0.50000000  0.00000000  0.25000000       0.003
   0.05000000  0.05000000  0.25000000       0.005
   0.10000000  0.05000000  0.25000000       0.010
   0.15000000  0.05000000  0.25000000       0.010
   0.20000000  0.05000000  0.25000000       0.010
   0.25000000  0.05000000  0.25000000       0.010
   0.30000000  0.05000000  0.25000000       0.010
   0.35000000  0.05000000  0.25000000       0.010
   0.40000000  0.05000000  0.25000000       0.010
   0.45000000  0.05000000  0.25000000       0.010
   0.50000000  0.05000000  0.25000000       0.005
   0.10000000  0.10000000  0.25000000       0.005
   0.15000000  0.10000000  0.25000000       0.010
   0.20000000  0.10000000  0.25000000       0.010
   0.25000000  0.10000000  0.25000000       0.010
   0.30000000  0.10000000  0.25000000       0.010
   0.35000000  0.10000000  0.25000000       0.010
   0.40000000  0.10000000  0.25000000       0.010
   0.45000000  0.10000000  0.25000000       0.010
   0.50000000  0.10000000  0.25000000       0.005
   0.15000000  0.15000000  0.25000000       0.005
   0.20000000  0.15000000  0.25000000       0.010
   0.25000000  0.15000000  0.25000000       0.010
   0.30000000  0.15000000  0.25000000       0.010
   0.35000000  0.15000000  0.25000000       0.010
   0.40000000  0.15000000  0.25000000       0.010
   0.45000000  0.15000000  0.25000000       0.010
   0.50000000  0.15000000  0.25000000       0.005
   0.20000000  0.20000000  0.25000000       0.005
   0.25000000  0.20000000  0.25000000       0.010
   0.30000000  0.20000000  0.25000000       0.010
   0.35000000  0.20000000  0.25000000       0.010
   0.40000000  0.20000000  0.25000000       0.010
   0.45000000  0.20000000  0.25000000       0.010
   0.50000000  0.20000000  0.25000000       0.005
   0.25000000  0.25000000  0.25000000       0.005
   0.30000000  0.25000000  0.25000000       0.010
   0.35000000  0.25000000  0.25000000       0.010
   0.40000000  0.25000000  0.25000000       0.010
   0.45000000  0.25000000  0.25000000       0.010
   0.50000000  0.25000000  0.25000000       0.005
   0.30000000  0.30000000  0.25000000       0.005
   0.35000000  0.30000000  0.25000000       0.010
   0.40000000  0.30000000  0.25000000       0.010
   0.45000000  0.30000000  0.25000000       0.010
   0.50000000  0.30000000  0.25000000       0.005
   0.35000000  0.35000000  0.25000000       0.005
   0.40000000  0.35000000  0.25000000       0.010
   0.45000000  0.35000000  0.25000000       0.010
   0.50000000  0.35000000  0.25000000       0.005
   0.40000000  0.40000000  0.25000000       0.005
   0.45000000  0.40000000  0.25000000       0.010
   0.50000000  0.40000000  0.25000000       0.005
   0.45000000  0.45000000  0.25000000       0.005
   0.50000000  0.45000000  0.25000000       0.005
   0.50000000  0.50000000  0.25000000       0.001
   0.00000000  0.00000000  0.50000000       0.001
   0.05000000  0.00000000  0.50000000       0.003
   0.10000000  0.00000000  0.50000000       0.003
   0.15000000  0.00000000  0.50000000       0.003
   0.20000000  0.00000000  0.50000000       0.003
   0.25000000  0.00000000  0.50000000       0.003
   0.30000000  0.00000000  0.50000000       0.003
   0.35000000  0.00000000  0.50000000       0.003
   0.40000000  0.00000000  0.50000000       0.003
   0.45000000  0.00000000  0.50000000       0.003
   0.50000000  0.00000000  0.50000000       0.001
   0.05000000  0.05000000  0.50000000       0.003
   0.10000000  0.05000000  0.50000000       0.005
   0.15000000  0.05000000  0.50000000       0.005
   0.20000000  0.05000000  0.50000000       0.005
   0.25000000  0.05000000  0.50000000       0.005
   0.30000000  0.05000000  0.50000000       0.005
   0.35000000  0.05000000  0.50000000       0.005
   0.40000000  0.05000000  0.50000000       0.005
   0.45000000  0.05000000  0.50000000       0.005
   0.50000000  0.05000000  0.50000000       0.003
   0.10000000  0.10000000  0.50000000       0.003
   0.15000000  0.10000000  0.50000000       0.005
   0.20000000  0.10000000  0.50000000       0.005
   0.25000000  0.10000000  0.50000000       0.005
   0.30000000  0.10000000  0.50000000       0.005
   0.35000000  0.10000000  0.50000000       0.005
   0.40000000  0.10000000  0.50000000       0.005
   0.45000000  0.10000000  0.50000000       0.005
   0.50000000  0.10000000  0.50000000       0.003
   0.15000000  0.15000000  0.50000000       0.003
   0.20000000  0.15000000  0.50000000       0.005
   0.25000000  0.15000000  0.50000000       0.005
   0.30000000  0.15000000  0.50000000       0.005
   0.35000000  0.15000000  0.50000000       0.005
   0.40000000  0.15000000  0.50000000       0.005
   0.45000000  0.15000000  0.50000000       0.005
   0.50000000  0.15000000  0.50000000       0.003
   0.20000000  0.20000000  0.50000000       0.003
   0.25000000  0.20000000  0.50000000       0.005
   0.30000000  0.20000000  0.50000000       0.005
   0.35000000  0.20000000  0.50000000       0.005
   0.40000000  0.20000000  0.50000000       0.005
   0.45000000  0.20000000  0.50000000       0.005
   0.50000000  0.20000000  0.50000000       0.003
   0.25000000  0.25000000  0.50000000       0.003
   0.30000000  0.25000000  0.50000000       0.005
   0.35000000  0.25000000  0.50000000       0.005
   0.40000000  0.25000000  0.50000000       0.005
   0.45000000  0.25000000  0.50000000       0.005
   0.50000000  0.25000000  0.50000000       0.003
   0.30000000  0.30000000  0.50000000       0.003
   0.35000000  0.30000000  0.50000000       0.005
   0.40000000  0.30000000  0.50000000       0.005
   0.45000000  0.30000000  0.50000000       0.005
   0.50000000  0.30000000  0.50000000       0.003
   0.35000000  0.35000000  0.50000000       0.003
   0.40000000  0.35000000  0.50000000       0.005
   0.45000000  0.35000000  0.50000000       0.005
   0.50000000  0.35000000  0.50000000       0.003
   0.40000000  0.40000000  0.50000000       0.003
   0.45000000  0.40000000  0.50000000       0.005
   0.50000000  0.40000000  0.50000000       0.003
   0.45000000  0.45000000  0.50000000       0.003
   0.50000000  0.45000000  0.50000000       0.003
   0.50000000  0.50000000  0.50000000       0.001
 
 position of ions in fractional coordinates (direct lattice) 
   0.00000000  0.00000000  0.00000000
   0.50000000  0.50000000  0.10000000
   0.00000000  0.00000000  0.20000000
   0.50000000  0.50000000  0.30000000
   0.00000000  0.00000000  0.40000000
 
 position of ions in cartesian coordinates  (Angst):
   0.00000000  0.00000000  0.00000000
   1.58000000  1.58000000  1.58000000
   0.00000000  0.00000000  3.16000000
   1.58000000  1.58000000  4.74000000
   0.00000000  0.00000000  6.32000000
 


--------------------------------------------------------------------------------------------------------


 k-point  1 :   0.0000 0.0000 0.0000  plane waves:    5231
 k-point  2 :   0.0500 0.0000 0.0000  plane waves:    5247
 k-point  3 :   0.1000 0.0000 0.0000  plane waves:    5261
 k-point  4 :   0.1500 0.0000 0.0000  plane waves:    5263
 k-point  5 :   0.2000 0.0000 0.0000  plane waves:    5277
 k-point  6 :   0.2500 0.0000 0.0000  plane waves:    5295
 k-point  7 :   0.3000 0.0000 0.0000  plane waves:    5273
 k-point  8 :   0.3500 0.0000 0.0000  plane waves:    5288
 k-point  9 :   0.4000 0.0000 0.0000  plane waves:    5296
 k-point 10 :   0.4500 0.0000 0.0000  plane waves:    5296
 k-point 11 :   0.5000 0.0000 0.0000  plane waves:    5296
 k-point 12 :   0.0500 0.0500 0.0000  plane waves:    5249
 k-point 13 :   0.1000 0.0500 0.0000  plane waves:    5259
 k-point 14 :   0.1500 0.0500 0.0000  plane waves:    5272
 k-point 15 :   0.2000 0.0500 0.0000  plane waves:    5269
 k-point 16 :   0.2500 0.0500 0.0000  plane waves:    5273
 k-point 17 :   0.3000 0.0500 0.0000  plane waves:    5285
 k-point 18 :   0.3500 0.0500 0.0000  plane waves:    5284
 k-point 19 :   0.4000 0.0500 0.0000  plane waves:    5290
 k-point 20 :   0.4500 0.0500 0.0000  plane waves:    5287
 k-point 21 :   0.5000 0.0500 0.0000  plane waves:    5296
 k-point 22 :   0.1000 0.1000 0.0000  plane waves:    5271
 k-point 23 :   0.1500 0.1000 0.0000  plane waves:    5291
 k-point 24 :   0.2000 0.1000 0.0000  plane waves:    5275
 k-point 25 :   0.2500 0.1000 0.0000  plane waves:    5269
 k-point 26 :   0.3000 0.1000 0.0000  plane waves:    5266
 k-point 27 :   0.3500 0.1000 0.0000  plane waves:    5267
 k-point 28 :   0.4000 0.1000 0.0000  plane waves:    5283
 k-point 29 :   0.4500 0.1000 0.0000  plane waves:    5269
 k-point 30 :   0.5000 0.1000 0.0000  plane waves:    5278
 k-point 31 :   0.1500 0.1500 0.0000  plane waves:    5291
 k-point 32 :   0.2000 0.1500 0.0000  plane waves:    5281
 k-point 33 :   0.2500 0.1500 0.0000  plane waves:    5263
 k-point 34 :   0.3000 0.1500 0.0000  plane waves:    5262
 k-point 35 :   0.3500 0.1500 0.0000  plane waves:    5261
 k-point 36 :   0.4000 0.1500 0.0000  plane waves:    5260
 k-point 37 :   0.4500 0.1500 0.0000  plane waves:    5275
 k-point 38 :   0.5000 0.1500 0.0000  plane waves:    5276
 k-point 39 :   0.2000 0.2000 0.0000  plane waves:    5245
 k-point 40 :   0.2500 0.2000 0.0000  plane waves:    5261
 k-point 41 :   0.3000 0.2000 0.0000  plane waves:    5257
 k-point 42 :   0.3500 0.2000 0.0000  plane waves:    5275
 k-point 43 :   0.4000 0.2000 0.0000  plane waves:    5273
 k-point 44 :   0.4500 0.2000 0.0000  plane waves:    5279
 k-point 45 :   0.5000 0.2000 0.0000  plane waves:    5268
 k-point 46 :   0.2500 0.2500 0.0000  plane waves:    5263
 k-point 47 :   0.3000 0.2500 0.0000  plane waves:    5264
 k-point 48 :   0.3500 0.2500 0.0000  plane waves:    5271
 k-point 49 :   0.4000 0.2500 0.0000  plane waves:    5254
 k-point 50 :   0.4500 0.2500 0.0000  plane waves:    5265
 k-point 51 :   0.5000 0.2500 0.0000  plane waves:    5266
 k-point 52 :   0.3000 0.3000 0.0000  plane waves:    5263
 k-point 53 :   0.3500 0.3000 0.0000  plane waves:    5240
 k-point 54 :   0.4000 0.3000 0.0000  plane waves:    5245
 k-point 55 :   0.4500 0.3000 0.0000  plane waves:    5242
 k-point 56 :   0.5000 0.3000 0.0000  plane waves:    5242
 k-point 57 :   0.3500 0.3500 0.0000  plane waves:    5239
 k-point 58 :   0.4000 0.3500 0.0000  plane waves:    5247
 k-point 59 :   0.4500 0.3500 0.0000  plane waves:    5246
 k-point 60 :   0.5000 0.3500 0.0000  plane waves:    5250
 k-point 61 :   0.4000 0.4000 0.0000  plane waves:    5249
 k-point 62 :   0.4500 0.4000 0.0000  plane waves:    5253
 k-point 63 :   0.5000 0.4000 0.0000  plane waves:    5250
 k-point 64 :   0.4500 0.4500 0.0000  plane waves:    5237
 k-point 65 :   0.5000 0.4500 0.0000  plane waves:    5240
 k-point 66 :   0.5000 0.5000 0.0000  plane waves:    5248
 k-point 67 :   0.0000 0.0000 0.2500  plane waves:    5251
 k-point 68 :   0.0500 0.0000 0.2500  plane waves:    5255
 k-point 69 :   0.1000 0.0000 0.2500  plane waves:    5255
 k-point 70 :   0.1500 0.0000 0.2500  plane waves:    5274
 k-point 71 :   0.2000 0.0000 0.2500  plane waves:    5281
 k-point 72 :   0.2500 0.0000 0.2500  plane waves:    5279
 k-point 73 :   0.3000 0.0000 0.2500  plane waves:    5285
 k-point 74 :   0.3500 0.0000 0.2500  plane waves:    5289
 k-point 75 :   0.4000 0.0000 0.2500  plane waves:    5288
 k-point 76 :   0.4500 0.0000 0.2500  plane waves:    5298
 k-point 77 :   0.5000 0.0000 0.2500  plane waves:    5296
 k-point 78 :   0.0500 0.0500 0.2500  plane waves:    5250
 k-point 79 :   0.1000 0.0500 0.2500  plane waves:    5264
 k-point 80 :   0.1500 0.0500 0.2500  plane waves:    5267
 k-point 81 :   0.2000 0.0500 0.2500  plane waves:    5266
 k-point 82 :   0.2500 0.0500 0.2500  plane waves:    5276
 k-point 83 :   0.3000 0.0500 0.2500  plane waves:    5285
 k-point 84 :   0.3500 0.0500 0.2500  plane waves:    5280
 k-point 85 :   0.4000 0.0500 0.2500  plane waves:    5289
 k-point 86 :   0.4500 0.0500 0.2500  plane waves:    5294
 k-point 87 :   0.5000 0.0500 0.2500  plane waves:    5288
 k-point 88 :   0.1000 0.1000 0.2500  plane waves:    5280
 k-point 89 :   0.1500 0.1000 0.2500  plane waves:    5274
 k-point 90 :   0.2000 0.1000 0.2500  plane waves:    5268
 k-point 91 :   0.2500 0.1000 0.2500  plane waves:    5270
 k-point 92 :   0.3000 0.1000 0.2500  plane waves:    5277
 k-point 93 :   0.3500 0.1000 0.2500  plane waves:    5275
 k-point 94 :   0.4000 0.1000 0.2500  plane waves:    5282
 k-point 95 :   0.4500 0.1000 0.2500  plane waves:    5284
 k-point 96 :   0.5000 0.1000 0.2500  plane waves:    5282
 k-point 97 :   0.1500 0.1500 0.2500  plane waves:    5273
 k-point 98 :   0.2000 0.1500 0.2500  plane waves:    5279
 k-point 99 :   0.2500 0.1500 0.2500  plane waves:    5272
 k-point ** :   0.3000 0.1500 0.2500  plane waves:    5267
 k-point ** :   0.3500 0.1500 0.2500  plane waves:    5259
 k-point ** :   0.4000 0.1500 0.2500  plane waves:    5265
 k-point ** :   0.4500 0.1500 0.2500  plane waves:    5271
 k-point ** :   0.5000 0.1500 0.2500  plane waves:    5256
 k-point ** :   0.2000 0.2000 0.2500  plane waves:    5274
 k-point ** :   0.2500 0.2000 0.2500  plane waves:    5269
 k-point ** :   0.3000 0.2000 0.2500  plane waves:    5259
 k-point ** :   0.3500 0.2000 0.2500  plane waves:    5265
 k-point ** :   0.4000 0.2000 0.2500  plane waves:    5268
 k-point ** :   0.4500 0.2000 0.2500  plane waves:    5254
 k-point ** :   0.5000 0.2000 0.2500  plane waves:    5258
 k-point ** :   0.2500 0.2500 0.2500  plane waves:    5263
 k-point ** :   0.3000 0.2500 0.2500  plane waves:    5248
 k-point ** :   0.3500 0.2500 0.2500  plane waves:    5256
 k-point ** :   0.4000 0.2500 0.2500  plane waves:    5259
 k-point ** :   0.4500 0.2500 0.2500  plane waves:    5262
 k-point ** :   0.5000 0.2500 0.2500  plane waves:    5254
 k-point ** :   0.3000 0.3000 0.2500  plane waves:    5237
 k-point ** :   0.3500 0.3000 0.2500  plane waves:    5246
 k-point ** :   0.4000 0.3000 0.2500  plane waves:    5245
 k-point ** :   0.4500 0.3000 0.2500  plane waves:    5255
 k-point ** :   0.5000 0.3000 0.2500  plane waves:    5252
 k-point ** :   0.3500 0.3500 0.2500  plane waves:    5235
 k-point ** :   0.4000 0.3500 0.2500  plane waves:    5241
 k-point ** :   0.4500 0.3500 0.2500  plane waves:    5250
 k-point ** :   0.5000 0.3500 0.2500  plane waves:    5244
 k-point ** :   0.4000 0.4000 0.2500  plane waves:    5240
 k-point ** :   0.4500 0.4000 0.2500  plane waves:    5252
 k-point ** :   0.5000 0.4000 0.2500  plane waves:    5258
 k-point ** :   0.4500 0.4500 0.2500  plane waves:    5251
 k-point ** :   0.5000 0.4500 0.2500  plane waves:    5246
 k-point ** :   0.5000 0.5000 0.2500  plane waves:    5244
 k-point ** :   0.0000 0.0000 0.5000  plane waves:    5216
 k-point ** :   0.0500 0.0000 0.5000  plane waves:    5248
 k-point ** :   0.1000 0.0000 0.5000  plane waves:    5256
 k-point ** :   0.1500 0.0000 0.5000  plane waves:    5282
 k-point ** :   0.2000 0.0000 0.5000  plane waves:    5276
 k-point ** :   0.2500 0.0000 0.5000  plane waves:    5280
 k-point ** :   0.3000 0.0000 0.5000  plane waves:    5292
 k-point ** :   0.3500 0.0000 0.5000  plane waves:    5280
 k-point ** :   0.4000 0.0000 0.5000  plane waves:    5298
 k-point ** :   0.4500 0.0000 0.5000  plane waves:    5286
 k-point ** :   0.5000 0.0000 0.5000  plane waves:    5304
 k-point ** :   0.0500 0.0500 0.5000  plane waves:    5254
 k-point ** :   0.1000 0.0500 0.5000  plane waves:    5282
 k-point ** :   0.1500 0.0500 0.5000  plane waves:    5272
 k-point ** :   0.2000 0.0500 0.5000  plane waves:    5280
 k-point ** :   0.2500 0.0500 0.5000  plane waves:    5280
 k-point ** :   0.3000 0.0500 0.5000  plane waves:    5284
 k-point ** :   0.3500 0.0500 0.5000  plane waves:    5288
 k-point ** :   0.4000 0.0500 0.5000  plane waves:    5288
 k-point ** :   0.4500 0.0500 0.5000  plane waves:    5292
 k-point ** :   0.5000 0.0500 0.5000  plane waves:    5292
 k-point ** :   0.1000 0.1000 0.5000  plane waves:    5266
 k-point ** :   0.1500 0.1000 0.5000  plane waves:    5276
 k-point ** :   0.2000 0.1000 0.5000  plane waves:    5268
 k-point ** :   0.2500 0.1000 0.5000  plane waves:    5268
 k-point ** :   0.3000 0.1000 0.5000  plane waves:    5282
 k-point ** :   0.3500 0.1000 0.5000  plane waves:    5278
 k-point ** :   0.4000 0.1000 0.5000  plane waves:    5280
 k-point ** :   0.4500 0.1000 0.5000  plane waves:    5292
 k-point ** :   0.5000 0.1000 0.5000  plane waves:    5252
 k-point ** :   0.1500 0.1500 0.5000  plane waves:    5280
 k-point ** :   0.2000 0.1500 0.5000  plane waves:    5278
 k-point ** :   0.2500 0.1500 0.5000  plane waves:    5264
 k-point ** :   0.3000 0.1500 0.5000  plane waves:    5272
 k-point ** :   0.3500 0.1500 0.5000  plane waves:    5254
 k-point ** :   0.4000 0.1500 0.5000  plane waves:    5272
 k-point ** :   0.4500 0.1500 0.5000  plane waves:    5268
 k-point ** :   0.5000 0.1500 0.5000  plane waves:    5264
 k-point ** :   0.2000 0.2000 0.5000  plane waves:    5272
 k-point ** :   0.2500 0.2000 0.5000  plane waves:    5264
 k-point ** :   0.3000 0.2000 0.5000  plane waves:    5268
 k-point ** :   0.3500 0.2000 0.5000  plane waves:    5246
 k-point ** :   0.4000 0.2000 0.5000  plane waves:    5256
 k-point ** :   0.4500 0.2000 0.5000  plane waves:    5244
 k-point ** :   0.5000 0.2000 0.5000  plane waves:    5248
 k-point ** :   0.2500 0.2500 0.5000  plane waves:    5250
 k-point ** :   0.3000 0.2500 0.5000  plane waves:    5232
 k-point ** :   0.3500 0.2500 0.5000  plane waves:    5242
 k-point ** :   0.4000 0.2500 0.5000  plane waves:    5262
 k-point ** :   0.4500 0.2500 0.5000  plane waves:    5254
 k-point ** :   0.5000 0.2500 0.5000  plane waves:    5256
 k-point ** :   0.3000 0.3000 0.5000  plane waves:    5244
 k-point ** :   0.3500 0.3000 0.5000  plane waves:    5246
 k-point ** :   0.4000 0.3000 0.5000  plane waves:    5236
 k-point ** :   0.4500 0.3000 0.5000  plane waves:    5246
 k-point ** :   0.5000 0.3000 0.5000  plane waves:    5240
 k-point ** :   0.3500 0.3500 0.5000  plane waves:    5242
 k-point ** :   0.4000 0.3500 0.5000  plane waves:    5246
 k-point ** :   0.4500 0.3500 0.5000  plane waves:    5260
 k-point ** :   0.5000 0.3500 0.5000  plane waves:    5260
 k-point ** :   0.4000 0.4000 0.5000  plane waves:    5248
 k-point ** :   0.4500 0.4000 0.5000  plane waves:    5244
 k-point ** :   0.5000 0.4000 0.5000  plane waves:    5244
 k-point ** :   0.4500 0.4500 0.5000  plane waves:    5250
 k-point ** :   0.5000 0.4500 0.5000  plane waves:    5240
 k-point ** :   0.5000 0.5000 0.5000  plane waves:    5256

 maximum and minimum number of plane-waves per node :      5304     5216

 maximum number of plane-waves:      5304
 maximum index in each direction: 
   IXMAX=    6   IYMAX=    6   IZMAX=   31
   IXMIN=   -6   IYMIN=   -6   IZMIN=  -32


 serial   3D FFT for wavefunctions
 parallel 3D FFT for charge:
    minimum data exchange during FFTs selected (reduces bandwidth)


 total amount of memory used by VASP MPI-rank0   553091. kBytes
=======================================================================

   base      :      30000. kBytes
   nonl-proj :     151651. kBytes
   fftplans  :      20884. kBytes
   grid      :      25804. kBytes
   one-center:         77. kBytes
   wavefun   :     324675. kBytes
 
     INWAV:  cpu time    0.0001: real time    0.0002
 Broyden mixing: mesh for mixing (old mesh)
   NGX = 13   NGY = 13   NGZ = 63
  (NGX  = 40   NGY  = 40   NGZ  =192)
  gives a total of  10647 points

 initial charge density was supplied:
 charge density of overlapping atoms calculated
 number of electron      30.0000000 magnetization 
 keeping initial charge density in first step


--------------------------------------------------------------------------------------------------------


 Maximum index for augmentation-charges        13477 (set IRDMAX)


--------------------------------------------------------------------------------------------------------


 First call to EWALD:  gamma=   0.328
 Maximum number of real-space cells 4x 4x 1
 Maximum number of reciprocal cells 2x 2x 7

    FEWALD:  cpu time    0.0015: real time    0.0015


--------------------------------------- Iteration      1(   1)  ---------------------------------------


    POTLOK:  cpu time    0.0590: real time    0.0614
    SETDIJ:  cpu time    0.0139: real time    0.0140
     EDDAV:  cpu time   22.3909: real time   22.4710
 BZINTS: Fermi energy: 12.290024; 30.000000 electrons
         Band energy: 148.071730;  BLOECHL correction: -0.139536
       DOS:  cpu time    0.0896: real time    0.0908
    --------------------------------------------
      LOOP:  cpu time   22.5535: real time   22.6372

 eigenvalue-minimisations  :  7532
 total energy-change (2. order) : 0.1348933E+03  (-0.1291759E+04)
 number of electron      30.0000000 magnetization 
 augmentation part       30.0000000 magnetization 

 Free energy of the ion-electron system (eV)
  ---------------------------------------------------
  alpha Z        PSCENC =       110.60728398
  Ewald energy   TEWEN  =      1319.42101824
  -Hartree energ DENC   =     -2526.20288165
  -exchange      EXHF   =         0.00000000
  -V(xc)+E(xc)   XCENC  =      -238.31731148
  PAW double counting   =       917.67451279     -629.04332620
  entropy T*S    EENTRO =         0.00000000
  eigenvalues    EBANDS =       148.07172968
  atomic energy  EATOM  =      1032.68232307
  Solvation  Ediel_sol  =         0.00000000
  ---------------------------------------------------
  free energy    TOTEN  =       134.89334844 eV

  energy without entropy =      134.89334844  energy(sigma->0) =      134.89334844


--------------------------------------------------------------------------------------------------------




--------------------------------------- Iteration      1(   2)  ---------------------------------------


     EDDAV:  cpu time   28.1372: real time   28.2204
 BZINTS: Fermi energy:  2.900204; 30.000000 electrons
         Band energy: -39.266154;  BLOECHL correction: -0.068564
       DOS:  cpu time    0.0856: real time    0.0859
    --------------------------------------------
      LOOP:  cpu time   28.2228: real time   28.3063

 eigenvalue-minimisations  : 10336
 total energy-change (2. order) :-0.1873379E+03  (-0.1802052E+03)
 number of electron      30.0000000 magnetization 
 augmentation part       30.0000000 magnetization 

 Free energy of the ion-electron system (eV)
  ---------------------------------------------------
  alpha Z        PSCENC =       110.60728398
  Ewald energy   TEWEN  =      1319.42101824
  -Hartree energ DENC   =     -2526.20288165
  -exchange      EXHF   =         0.00000000
  -V(xc)+E(xc)   XCENC  =      -238.31731148
  PAW double counting   =       917.67451279     -629.04332620
  entropy T*S    EENTRO =         0.00000000
  eigenvalues    EBANDS =       -39.26615373
  atomic energy  EATOM  =      1032.68232307
  Solvation  Ediel_sol  =         0.00000000
  ---------------------------------------------------
  free energy    TOTEN  =       -52.44453497 eV

  energy without entropy =      -52.44453497  energy(sigma->0) =      -52.44453497


--------------------------------------------------------------------------------------------------------




--------------------------------------- Iteration      1(   3)  ---------------------------------------


     EDDAV:  cpu time   29.5782: real time   29.6657
 BZINTS: Fermi energy:  1.935422; 30.000000 electrons
         Band energy: -55.971912;  BLOECHL correction: -0.024057
       DOS:  cpu time    0.0878: real time    0.0880
    --------------------------------------------
      LOOP:  cpu time   29.6669: real time   29.7538

 eigenvalue-minimisations  : 11009
 total energy-change (2. order) :-0.1670576E+02  (-0.1606361E+02)
 number of electron      30.0000000 magnetization 
 augmentation part       30.0000000 magnetization 

 Free energy of the ion-electron system (eV)
  ---------------------------------------------------
  alpha Z        PSCENC =       110.60728398
  Ewald energy   TEWEN  =      1319.42101824
  -Hartree energ DENC   =     -2526.20288165
  -exchange      EXHF   =         0.00000000
  -V(xc)+E(xc)   XCENC  =      -238.31731148
  PAW double counting   =       917.67451279     -629.04332620
  entropy T*S    EENTRO =         0.00000000
  eigenvalues    EBANDS =       -55.97191189
  atomic energy  EATOM  =      1032.68232307
  Solvation  Ediel_sol  =         0.00000000
  ---------------------------------------------------
  free energy    TOTEN  =       -69.15029313 eV

  energy without entropy =      -69.15029313  energy(sigma->0) =      -69.15029313


--------------------------------------------------------------------------------------------------------




--------------------------------------- Iteration      1(   4)  ---------------------------------------


     EDDAV:  cpu time   31.7564: real time   31.8481
 BZINTS: Fermi energy:  1.817445; 30.000000 electrons
         Band energy: -56.949844;  BLOECHL correction: -0.016084
       DOS:  cpu time    0.0837: real time    0.0839
    --------------------------------------------
      LOOP:  cpu time   31.8401: real time   31.9320

 eigenvalue-minimisations  : 12696
 total energy-change (2. order) :-0.9779320E+00  (-0.9355075E+00)
 number of electron      30.0000000 magnetization 
 augmentation part       30.0000000 magnetization 

 Free energy of the ion-electron system (eV)
  ---------------------------------------------------
  alpha Z        PSCENC =       110.60728398
  Ewald energy   TEWEN  =      1319.42101824
  -Hartree energ DENC   =     -2526.20288165
  -exchange      EXHF   =         0.00000000
  -V(xc)+E(xc)   XCENC  =      -238.31731148
  PAW double counting   =       917.67451279     -629.04332620
  entropy T*S    EENTRO =         0.00000000
  eigenvalues    EBANDS =       -56.94984386
  atomic energy  EATOM  =      1032.68232307
  Solvation  Ediel_sol  =         0.00000000
  ---------------------------------------------------
  free energy    TOTEN  =       -70.12822510 eV

  energy without entropy =      -70.12822510  energy(sigma->0) =      -70.12822510


--------------------------------------------------------------------------------------------------------




--------------------------------------- Iteration      1(   5)  ---------------------------------------


     EDDAV:  cpu time   28.9222: real time   29.0032
 BZINTS: Fermi energy:  1.803997; 30.000000 electrons
         Band energy: -57.001773;  BLOECHL correction: -0.015137
       DOS:  cpu time    0.0855: real time    0.0857
    CHARGE:  cpu time    1.8173: real time    1.8221
    MIXING:  cpu time    0.0095: real time    0.0095
    --------------------------------------------
      LOOP:  cpu time   30.8335: real time   30.9204

 eigenvalue-minimisations  : 11863
 total energy-change (2. order) :-0.5192947E-01  (-0.4870186E-01)
 number of electron      30.0000001 magnetization 
 augmentation part        3.1504961 magnetization 

 Broyden mixing:
  rms(total) = 0.10001E+01    rms(broyden)= 0.10001E+01
  rms(prec ) = 0.14435E+01
  weight for this iteration     100.00

 Free energy of the ion-electron system (eV)
  ---------------------------------------------------
  alpha Z        PSCENC =       110.60728398
  Ewald energy   TEWEN  =      1319.42101824
  -Hartree energ DENC   =     -2526.20288165
  -exchange      EXHF   =         0.00000000
  -V(xc)+E(xc)   XCENC  =      -238.31731148
  PAW double counting   =       917.67451279     -629.04332620
  entropy T*S    EENTRO =         0.00000000
  eigenvalues    EBANDS =       -57.00177333
  atomic energy  EATOM  =      1032.68232307
  Solvation  Ediel_sol  =         0.00000000
  ---------------------------------------------------
  free energy    TOTEN  =       -70.18015458 eV

  energy without entropy =      -70.18015458  energy(sigma->0) =      -70.18015458


--------------------------------------------------------------------------------------------------------




--------------------------------------- Iteration      1(   6)  ---------------------------------------


    POTLOK:  cpu time    0.0490: real time    0.0493
    SETDIJ:  cpu time    0.0134: real time    0.0134
     EDDAV:  cpu time   29.8350: real time   29.9264
 BZINTS: Fermi energy:  1.614595; 30.000000 electrons
         Band energy: -26.483047;  BLOECHL correction: -0.030528
       DOS:  cpu time    0.0847: real time    0.0849
    CHARGE:  cpu time    1.8383: real time    1.8432
    MIXING:  cpu time    0.0089: real time    0.0091
    --------------------------------------------
      LOOP:  cpu time   31.8293: real time   31.9263

 eigenvalue-minimisations  : 12358
 total energy-change (2. order) : 0.1531539E+01  (-0.4919196E+01)
 number of electron      30.0000001 magnetization 
 augmentation part        3.3725290 magnetization 

 Broyden mixing:
  rms(total) = 0.94955E+00    rms(broyden)= 0.94955E+00
  rms(prec ) = 0.17326E+01
  weight for this iteration     100.00

 eigenvalues of (default mixing * dielectric matrix)
  average eigenvalue GAMMA=   0.5835
  0.5835

 Free energy of the ion-electron system (eV)
  ---------------------------------------------------
  alpha Z        PSCENC =       110.60728398
  Ewald energy   TEWEN  =      1319.42101824
  -Hartree energ DENC   =     -2552.71490574
  -exchange      EXHF   =         0.00000000
  -V(xc)+E(xc)   XCENC  =      -237.50981968
  PAW double counting   =       988.88843988     -703.53990893
  entropy T*S    EENTRO =         0.00000000
  eigenvalues    EBANDS =       -26.48304683
  atomic energy  EATOM  =      1032.68232307
  Solvation  Ediel_sol  =         0.00000000
  ---------------------------------------------------
  free energy    TOTEN  =       -68.64861601 eV

  energy without entropy =      -68.64861601  energy(sigma->0) =      -68.64861601


--------------------------------------------------------------------------------------------------------




--------------------------------------- Iteration      1(   7)  ---------------------------------------


    POTLOK:  cpu time    0.0484: real time    0.0487
    SETDIJ:  cpu time    0.0133: real time    0.0134
     EDDAV:  cpu time   29.4301: real time   29.5145
 BZINTS: Fermi energy:  1.780974; 30.000000 electrons
         Band energy: -43.023906;  BLOECHL correction: -0.017185
       DOS:  cpu time    0.0869: real time    0.0871
    CHARGE:  cpu time    1.8322: real time    1.8370
    MIXING:  cpu time    0.0093: real time    0.0094
    --------------------------------------------
      LOOP:  cpu time   31.4202: real time   31.5099

 eigenvalue-minimisations  : 12233
 total energy-change (2. order) : 0.2994914E+01  (-0.3173228E+01)
 number of electron      30.0000001 magnetization 
 augmentation part        3.3220204 magnetization 

 Broyden mixing:
  rms(total) = 0.42511E+00    rms(broyden)= 0.42511E+00
  rms(prec ) = 0.62281E+00
  weight for this iteration     100.00

 eigenvalues of (default mixing * dielectric matrix)
  average eigenvalue GAMMA=   1.1647
  1.9765  0.3529

 Free energy of the ion-electron system (eV)
  ---------------------------------------------------
  alpha Z        PSCENC =       110.60728398
  Ewald energy   TEWEN  =      1319.42101824
  -Hartree energ DENC   =     -2532.87748185
  -exchange      EXHF   =         0.00000000
[...]
      1      -3.4757      2.00000
      2      -3.1027      2.00000
      3      -2.3199      2.00000
      4      -2.1122      2.00000
      5      -2.0026      2.00000
      6      -1.3473      2.00000
      7      -1.0987      2.00000
      8      -1.0277      2.00000
      9      -0.6314      2.00000
     10      -0.6092      2.00000
     11      -0.3554      2.00000
     12       0.1020      2.00000
     13       0.4186      2.00000
     14       1.6518      1.46011
     15       1.8446      0.02936
     16       2.6260      0.00000
     17       2.7475      0.00000
     18       3.1796      0.00000
     19       3.4411      0.00000

 k-point   188 :       0.5000    0.3000    0.5000
  band No.  band energies     occupation 
      1      -3.3740      2.00000
      2      -3.2161      2.00000
      3      -2.3282      2.00000
      4      -2.1422      2.00000
      5      -2.0083      2.00000
      6      -1.3702      2.00000
      7      -1.1010      2.00000
      8      -1.0560      2.00000
      9      -0.5948      2.00000
     10      -0.5440      2.00000
     11      -0.3703      2.00000
     12       0.1886      2.00000
     13       0.5127      2.00000
     14       1.6398      1.46955
     15       1.8650     -0.00976
     16       2.7704      0.00000
     17       2.8425      0.00000
     18       3.2196      0.00000
     19       3.4678      0.00000

 k-point   189 :       0.3500    0.3500    0.5000
  band No.  band energies     occupation 
      1      -3.7131      2.00000
      2      -2.9349      2.00000
      3      -2.1474      2.00000
      4      -1.8583      2.00000
      5      -1.8205      2.00000
      6      -1.4552      2.00000
      7      -1.2274      2.00000
      8      -0.9192      2.00000
      9      -0.7240      2.00000
     10      -0.5502      2.00000
     11      -0.4349      2.00000
     12      -0.2218      2.00000
     13      -0.1228      2.00000
     14       1.9013      0.11207
     15       2.0520     -0.21269
     16       2.1923      0.00000
     17       2.2185      0.00000
     18       3.0327      0.00000
     19       3.3262      0.00000

 k-point   190 :       0.4000    0.3500    0.5000
  band No.  band energies     occupation 
      1      -3.6371      2.00000
      2      -3.1319      2.00000
      3      -2.1650      2.00000
      4      -1.8707      2.00000
      5      -1.7397      2.00000
      6      -1.4072      2.00000
      7      -1.2753      2.00000
      8      -0.9581      2.00000
      9      -0.7583      2.00000
     10      -0.5699      2.00000
     11      -0.2865      2.00000
     12      -0.0772      2.00000
     13       0.1340      2.00000
     14       2.1300     -0.14762
     15       2.1999     -0.04875
     16       2.5359      0.00000
     17       2.6530      0.00000
     18       3.1667      0.00000
     19       3.4245      0.00000

 k-point   191 :       0.4500    0.3500    0.5000
  band No.  band energies     occupation 
      1      -3.5680      2.00000
      2      -3.2886      2.00000
      3      -2.1802      2.00000
      4      -1.9774      2.00000
      5      -1.6977      2.00000
      6      -1.3539      2.00000
      7      -1.3239      2.00000
      8      -0.9892      2.00000
      9      -0.8481      2.00000
     10      -0.4526      2.00000
     11      -0.2954      2.00000
     12       0.1737      2.00000
     13       0.3604      2.00000
     14       2.2433     -0.14370
     15       2.2508      0.00000
     16       2.8985      0.00000
     17       3.0639      0.00000
     18       3.2816      0.00000
     19       3.5019      0.00000

 k-point   192 :       0.5000    0.3500    0.5000
  band No.  band energies     occupation 
      1      -3.5214      2.00000
      2      -3.3668      2.00000
      3      -2.1794      2.00000
      4      -2.0261      2.00000
      5      -1.6794      2.00000
      6      -1.3931      2.00000
      7      -1.2934      2.00000
      8      -1.0221      2.00000
      9      -0.8704      2.00000
     10      -0.3919      2.00000
     11      -0.3058      2.00000
     12       0.3157      2.00000
     13       0.4112      2.00000
     14       2.2562     -0.13920
     15       2.2883      0.00000
     16       3.0652      0.00000
     17       3.1949      0.00000
     18       3.3281      0.00000
     19       3.5292      0.00000

 k-point   193 :       0.4000    0.4000    0.5000
  band No.  band energies     occupation 
      1      -3.6512      2.00000
      2      -3.3115      2.00000
      3      -2.1852      2.00000
      4      -1.7144      2.00000
      5      -1.6018      2.00000
      6      -1.5963      2.00000
      7      -1.2603      2.00000
      8      -0.9362      2.00000
      9      -0.8400      2.00000
     10      -0.5927      2.00000
     11      -0.3096      2.00000
     12       0.1300      2.00000
     13       0.3860      2.00000
     14       2.5689      0.00000
     15       2.7729      0.00000
     16       2.7831      0.00000
     17       2.8721      0.00000
     18       3.3063      0.00000
     19       3.5064      0.00000

 k-point   194 :       0.4500    0.4000    0.5000
  band No.  band energies     occupation 
      1      -3.6523      2.00000
      2      -3.4399      2.00000
      3      -2.1915      2.00000
      4      -1.8148      2.00000
      5      -1.5464      2.00000
      6      -1.5118      2.00000
      7      -1.3093      2.00000
      8      -1.1189      2.00000
      9      -0.7772      2.00000
     10      -0.4928      2.00000
     11      -0.3972      2.00000
     12       0.4079      2.00000
     13       0.5872      2.00000
     14       2.7908      0.00000
     15       2.9390      0.00000
     16       3.1403      0.00000
     17       3.3365      0.00000
     18       3.4553      0.00000
     19       3.5725      0.00000

 k-point   195 :       0.5000    0.4000    0.5000
  band No.  band energies     occupation 
      1      -3.6455      2.00000
      2      -3.4919      2.00000
      3      -2.1886      2.00000
      4      -1.8701      2.00000
      5      -1.5013      2.00000
      6      -1.4464      2.00000
      7      -1.3726      2.00000
      8      -1.2045      2.00000
      9      -0.7716      2.00000
     10      -0.4290      2.00000
     11      -0.4256      2.00000
     12       0.5471      2.00000
     13       0.6348      2.00000
     14       2.8461      0.00000
     15       2.9864      0.00000
     16       3.3348      0.00000
     17       3.4383      0.00000
     18       3.5879      0.00000
     19       3.5979      0.00000

 k-point   196 :       0.4500    0.4500    0.5000
  band No.  band energies     occupation 
      1      -3.7071      2.00000
      2      -3.5384      2.00000
      3      -2.1834      2.00000
      4      -1.7389      2.00000
      5      -1.6896      2.00000
      6      -1.4066      2.00000
      7      -1.3246      2.00000
      8      -1.2831      2.00000
      9      -0.5913      2.00000
     10      -0.5632      2.00000
     11      -0.5111      2.00000
     12       0.6826      2.00000
     13       0.7836      2.00000
     14       3.2843      0.00000
     15       3.3351      0.00000
     16       3.4049      0.00000
     17       3.5772      0.00000
     18       3.6277      0.00000
     19       3.7884      0.00000

 k-point   197 :       0.5000    0.4500    0.5000
  band No.  band energies     occupation 
      1      -3.7255      2.00000
      2      -3.5728      2.00000
      3      -2.1738      2.00000
      4      -1.7789      2.00000
      5      -1.6595      2.00000
      6      -1.4224      2.00000
      7      -1.3259      2.00000
      8      -1.3228      2.00000
      9      -0.6267      2.00000
     10      -0.5667      2.00000
     11      -0.4678      2.00000
     12       0.8164      2.00000
     13       0.8353      2.00000
     14       3.3766      0.00000
     15       3.4403      0.00000
     16       3.5418      0.00000
     17       3.6481      0.00000
     18       3.8012      0.00000
     19       3.9986      0.00000

 k-point   198 :       0.5000    0.5000    0.5000
  band No.  band energies     occupation 
      1      -3.7529      2.00000
      2      -3.6006      2.00000
      3      -2.1610      2.00000
      4      -1.7219      2.00000
      5      -1.7219      2.00000
      6      -1.5295      2.00000
      7      -1.2911      2.00000
      8      -1.2911      2.00000
      9      -0.7148      2.00000
     10      -0.4837      2.00000
     11      -0.4837      2.00000
     12       0.9190      2.00000
     13       0.9190      2.00000
     14       3.4809      0.00000
     15       3.6234      0.00000
     16       3.6234      0.00000
     17       3.6628      0.00000
     18       4.2642      0.00000
     19       4.2645      0.00000


--------------------------------------------------------------------------------------------------------


 soft charge-density along one line, spin component           1
         0         1         2         3         4         5         6         7         8         9
 total charge-density along one line
 
 pseudopotential strength for first ion, spin component:           1
 -7.939   0.000   0.000   0.000   0.000   0.000   0.000   0.000   0.000   0.000   0.028   0.000   0.000   0.000   0.000   0.000
  0.000   0.000  -7.967   0.000  -0.000   0.000  -0.000   0.000  -0.000   0.000   0.000   0.000   0.026   0.000  -0.000   0.000
  0.000   0.000  -0.000   0.000  -7.998   0.000   0.000   0.000   0.000   0.000   0.000   0.000  -0.000   0.000   0.024   0.000
  0.000   0.000  -0.000   0.000   0.000   0.000  -7.967   0.000  -0.000   0.000   0.000   0.000  -0.000   0.000   0.000   0.000
  0.000   0.000  -0.000   0.000   0.000   0.000  -0.000   0.000  -7.953   0.000   0.000   0.000  -0.000   0.000   0.000   0.000
  0.028   0.000   0.000   0.000   0.000   0.000   0.000   0.000   0.000   0.000   0.077   0.000  -0.000   0.000   0.000   0.000
  0.000   0.000   0.026   0.000  -0.000   0.000  -0.000   0.000  -0.000   0.000  -0.000   0.000   0.077   0.000   0.000   0.000
  0.000   0.000  -0.000   0.000   0.024   0.000   0.000   0.000   0.000   0.000   0.000   0.000   0.000   0.000   0.077   0.000
  0.000   0.000  -0.000   0.000   0.000   0.000   0.026   0.000  -0.000   0.000   0.000   0.000  -0.000   0.000  -0.000   0.000
  0.000   0.000  -0.000   0.000   0.000   0.000  -0.000   0.000   0.027   0.000  -0.000   0.000  -0.000   0.000   0.000   0.000
  0.000   0.000  -0.000   0.000   0.016   0.000   0.000   0.000   0.000   0.000   0.000   0.000  -0.000   0.000   0.001   0.000
 -0.000   0.000   0.000   0.000  -0.002   0.000  -0.000   0.000  -0.000   0.000  -0.000   0.000   0.000   0.000  -0.000   0.000
  0.000   0.000  -0.024   0.000  -0.000   0.000   0.000   0.000  -0.000   0.000   0.000   0.000  -0.001   0.000   0.000   0.000
  0.000   0.000  -0.000   0.000  -0.045   0.000   0.000   0.000  -0.000   0.000  -0.000   0.000   0.000   0.000  -0.000   0.000
  0.000   0.000   0.000   0.000  -0.000   0.000  -0.024   0.000   0.000   0.000  -0.000   0.000  -0.000   0.000  -0.000   0.000
 -0.000   0.000   0.020   0.000   0.000   0.000  -0.000   0.000   0.000   0.000  -0.000   0.000   0.001   0.000  -0.000   0.000
 -0.000   0.000   0.000   0.000   0.032   0.000  -0.000   0.000   0.000   0.000   0.000   0.000  -0.000   0.000   0.001   0.000
 -0.000   0.000  -0.000   0.000   0.000   0.000   0.020   0.000  -0.000   0.000   0.000   0.000   0.000   0.000   0.000   0.000
 total augmentation occupancy for first ion, spin component:           1
  0.995   0.000   0.000   0.000  -0.000  -0.444   0.000   0.000   0.000   0.000   0.000   0.000   0.000   0.000   0.000   0.000
 -0.000   1.004   0.000   0.000   0.000   0.000  -0.412   0.000   0.000   0.000   0.000   0.000   0.123   0.000  -0.000  -0.024
  0.000  -0.000   0.737   0.000   0.000   0.000   0.000  -0.390   0.000   0.000  -0.049   0.055  -0.000   0.095   0.000   0.000
  0.000   0.000   0.000   1.004  -0.000   0.000   0.000   0.000  -0.412   0.000  -0.000   0.000   0.000   0.000   0.123  -0.000
  0.000   0.000   0.000  -0.000   0.828   0.000   0.000   0.000   0.000  -0.452   0.000   0.000   0.000   0.000   0.000  -0.000
 -0.444   0.000   0.000   0.000   0.000   0.273   0.000   0.000   0.000  -0.000   0.000   0.000  -0.000   0.000   0.000   0.000
  0.000  -0.412  -0.000   0.000   0.000   0.000   0.269   0.000   0.000   0.000   0.000  -0.000  -0.112   0.000   0.000   0.014
  0.000   0.000  -0.390   0.000   0.000   0.000  -0.000   0.293  -0.000   0.000   0.055  -0.030   0.000  -0.093   0.000   0.000
  0.000   0.000   0.000  -0.412   0.000   0.000   0.000  -0.000   0.269   0.000  -0.000  -0.000  -0.000   0.000  -0.112   0.000
 -0.000   0.000   0.000  -0.000  -0.452   0.000   0.000   0.000   0.000   0.351   0.000   0.000   0.000   0.000  -0.000  -0.000
  0.000   0.000  -0.049   0.000   0.000   0.000   0.000   0.055   0.000   0.000   1.409  -0.151   0.000   0.131   0.000   0.000
  0.000   0.000   0.055  -0.000   0.000   0.000   0.000  -0.030   0.000   0.000  -0.151   0.033   0.000  -0.024   0.000   0.000
  0.000   0.123   0.000   0.000   0.000   0.000  -0.112   0.000   0.000   0.000   0.000  -0.000   0.170   0.000   0.000  -0.013
  0.000   0.000   0.095   0.000   0.000   0.000   0.000  -0.093   0.000   0.000   0.131  -0.024   0.000   0.100   0.000   0.000
  0.000  -0.000   0.000   0.123  -0.000   0.000   0.000   0.000  -0.112  -0.000   0.000   0.000   0.000   0.000   0.170   0.000
  0.000  -0.024   0.000   0.000   0.000   0.000   0.014   0.000   0.000  -0.000   0.000   0.000  -0.013   0.000   0.000   0.001
  0.000   0.000  -0.027   0.000   0.000   0.000   0.000   0.017   0.000   0.000  -0.019   0.001   0.000  -0.010  -0.000   0.000
  0.000   0.000   0.000  -0.024   0.000  -0.000   0.000   0.000   0.014   0.000   0.000   0.000   0.000   0.000  -0.013   0.000


------------------------ aborting loop because EDIFF is reached ----------------------------------------


    CHARGE:  cpu time    1.7836: real time    1.7884
    FORLOC:  cpu time    0.0224: real time    0.0224
    FORNL :  cpu time   13.7846: real time   13.8201
    STRESS:  cpu time   11.4916: real time   11.5212
    FORCOR:  cpu time    0.0729: real time    0.0731
    FORHAR:  cpu time    0.0600: real time    0.0602
    MIXING:  cpu time    0.0175: real time    0.0175
    OFIELD:  cpu time    0.0001: real time    0.0001

  FORCE on cell =-STRESS in cart. coord.  units (eV):
  Direction    XX          YY          ZZ          XY          YZ          ZX
  --------------------------------------------------------------------------------------
  Alpha Z   110.60728   110.60728   110.60728
  Ewald    2279.68535  2279.68535 -3239.94969     0.00000     0.00000     0.00000
  Hartree  2527.22913  2527.22913 -2514.50424    -0.00000    -0.00000    -0.00000
  E(xc)    -132.88935  -132.88935  -131.73116     0.00000    -0.00000    -0.00000
  Local   -5143.20266 -5143.20266  5423.30252     0.00000    -0.00000    -0.00000
  n-local   -75.43736   -62.92092   -74.34439     3.83820    -0.00809    -0.00009
  augment    26.10242    26.10242    26.14099    -0.00000     0.00000     0.00000
  Kinetic   370.99078   404.67465   390.61824     2.43046     0.00556    -0.00106
  Fock        0.00000     0.00000     0.00000     0.00000     0.00000     0.00000
  -------------------------------------------------------------------------------------
  Total     -13.81425   -13.81425    -9.86044     0.00000     0.00000     0.00000
  in kB    -140.28354  -140.28354  -100.13262     0.00000     0.00000     0.00000
  external pressure =     -126.90 kB  Pullay stress =        0.00 kB


 VOLUME and BASIS-vectors are now :
 -----------------------------------------------------------------------------
  energy-cutoff  :      600.00
  volume of cell :      157.77
      direct lattice vectors                 reciprocal lattice vectors
     3.160000000  0.000000000  0.000000000     0.316455696  0.000000000  0.000000000
     0.000000000  3.160000000  0.000000000     0.000000000  0.316455696  0.000000000
     0.000000000  0.000000000 15.800000000     0.000000000  0.000000000  0.063291139

  length of vectors
     3.160000000  3.160000000 15.800000000     0.316455696  0.316455696  0.063291139


 FORCES acting on ions
    electron-ion (+dipol)            ewald-force                    non-local-force                 convergence-correction
 -----------------------------------------------------------------------------------------------
   -.147E-14 0.175E-14 0.621E+03   0.195E-14 0.846E-16 -.614E+03   0.000E+00 0.000E+00 -.455E+01   -.778E-15 0.275E-15 0.111E-01
   0.295E-14 -.747E-14 0.327E+03   -.118E-14 0.891E-15 -.329E+03   0.339E-20 0.000E+00 -.334E-01   -.139E-14 -.248E-15 0.137E-01
   -.796E-15 0.288E-14 0.261E-05   0.194E-14 -.139E-14 -.101E-10   0.000E+00 0.000E+00 -.254E-20   0.549E-15 0.128E-15 -.170E-06
   -.347E-14 -.432E-13 -.327E+03   0.580E-15 -.465E-15 0.329E+03   0.000E+00 0.000E+00 0.334E-01   -.148E-14 0.920E-15 -.137E-01
   -.139E-14 -.138E-14 -.621E+03   -.189E-14 0.500E-15 0.614E+03   0.000E+00 0.000E+00 0.455E+01   0.135E-14 -.129E-15 -.111E-01
 -----------------------------------------------------------------------------------------------
   -.417E-14 -.474E-13 -.806E-05   0.140E-14 -.384E-15 -.227E-12   0.339E-20 0.000E+00 -.888E-15   -.175E-14 0.947E-15 -.548E-06
 
 
 POSITION                                       TOTAL-FORCE (eV/Angst)
 -----------------------------------------------------------------------------------
      0.00000      0.00000      0.00000         0.000000      0.000000      2.353943
      1.58000      1.58000      1.58000         0.000000      0.000000     -1.594724
      0.00000      0.00000      3.16000         0.000000      0.000000     -0.000000
      1.58000      1.58000      4.74000         0.000000     -0.000000      1.594724
      0.00000      0.00000      6.32000         0.000000      0.000000     -2.353943
 -----------------------------------------------------------------------------------
    total drift:                               -0.000000     -0.000000     -0.000009


--------------------------------------------------------------------------------------------------------



  FREE ENERGIE OF THE ION-ELECTRON SYSTEM (eV)
  ---------------------------------------------------
  free  energy   TOTEN  =       -64.89756720 eV

  energy  without entropy=      -64.89756720  energy(sigma->0) =      -64.89756720
 


--------------------------------------------------------------------------------------------------------


    POTLOK:  cpu time    0.0672: real time    0.0831


--------------------------------------------------------------------------------------------------------


 writing wavefunctions
     LOOP+:  cpu time  565.9520: real time  567.6275
    4ORBIT:  cpu time    0.0000: real time    0.0000
 BZINTS: Fermi energy:  1.742398; 30.000000 electrons
         Band energy: -33.366654;  BLOECHL correction: -0.019312

 total amount of memory used by VASP MPI-rank0   553091. kBytes
=======================================================================

   base      :      30000. kBytes
   nonl-proj :     151651. kBytes
   fftplans  :      20884. kBytes
   grid      :      25804. kBytes
   one-center:         77. kBytes
   wavefun   :     324675. kBytes
 
  
  
 General timing and accounting informations for this job:
 ========================================================
  
                  Total CPU time used (sec):      570.565
                            User time (sec):      568.955
                          System time (sec):        1.609
                         Elapsed time (sec):      572.634
  
                   Maximum memory used (kb):      636724.
                   Average memory used (kb):           0.
  
                          Minor page faults:       137417
                          Major page faults:           66
                 Voluntary context switches:          507
