 running on    1 total cores
 distrk:  each k-point on    1 cores,    1 groups
 distr:  one band on    1 cores,    1 groups
 using from now: INCAR     
 vasp.5.4.4.18Apr17-6-g9f103f2a35 (build May 20 2018 16:52:39) complex          
  
 POSCAR found type information on POSCAR  W 
 POSCAR found :  1 types and       5 ions
 scaLAPACK will be used
 LDA part: xc-table for Ceperly-Alder, standard interpolation
 POSCAR, INCAR and KPOINTS ok, starting setup
 FFT: planning ...
 WAVECAR not read
 entering main loop
       N       E                     dE             d eps       ncg     rms          rms(c)
DAV:   1     0.134893348438E+03    0.13489E+03   -0.12918E+04  7532   0.145E+03
DAV:   2    -0.524445349747E+02   -0.18734E+03   -0.18021E+03 10336   0.280E+02
DAV:   3    -0.691502931311E+02   -0.16706E+02   -0.16064E+02 11009   0.717E+01
DAV:   4    -0.701282251036E+02   -0.97793E+00   -0.93551E+00 12696   0.163E+01
DAV:   5    -0.701801545768E+02   -0.51929E-01   -0.48702E-01 11863   0.286E+00    0.100E+01
DAV:   6    -0.686486160083E+02    0.15315E+01   -0.49192E+01 12358   0.266E+01    0.950E+00
DAV:   7    -0.656537016614E+02    0.29949E+01   -0.31732E+01 12233   0.266E+01    0.425E+00
DAV:   8    -0.649505658055E+02    0.70314E+00   -0.49578E+00 10681   0.122E+01    0.149E+00
DAV:   9    -0.649027537548E+02    0.47812E-01   -0.59376E-01 12241   0.425E+00    0.439E-01
DAV:  10    -0.648988421858E+02    0.39116E-02   -0.45774E-02 12519   0.112E+00    0.228E-01
DAV:  11    -0.648970891897E+02    0.17530E-02   -0.11268E-02 12439   0.497E-01    0.964E-02
DAV:  12    -0.648967622200E+02    0.32697E-03   -0.24126E-03 12847   0.245E-01    0.564E-02
DAV:  13    -0.648970400667E+02   -0.27785E-03   -0.14283E-03 12236   0.180E-01    0.372E-02
DAV:  14    -0.648974532634E+02   -0.41320E-03   -0.75707E-04 11263   0.121E-01    0.242E-02
DAV:  15    -0.648975129188E+02   -0.59655E-04   -0.24598E-04 12622   0.709E-02    0.168E-02
DAV:  16    -0.648975620271E+02   -0.49108E-04   -0.10005E-04 11898   0.445E-02    0.521E-03
DAV:  17    -0.648975676616E+02   -0.56345E-05   -0.17400E-05 12252   0.198E-02    0.371E-03
DAV:  18    -0.648975672045E+02    0.45711E-06   -0.18623E-06  6266   0.855E-03
   1 F= -.64897567E+02 E0= -.64897567E+02  d E =0.000000E+00
 writing wavefunctions
