<?xml version="1.0" encoding="ISO-8859-1"?>
<modeling>
 <generator>
  <i name="program" type="string">vasp </i>
  <i name="version" type="string">5.4.4.18Apr17-6-g9f103f2a35  </i>
  <i name="subversion" type="string">(build May 20 2018 16:52:39) complex            parallel </i>
  <i name="platform" type="string">LinuxIFC </i>
  <i name="date" type="string">2022 11 15 </i>
  <i name="time" type="string">14:46:22 </i>
 </generator>
 <incar>
  <i type="string" name="PREC">normal</i>
  <i name="EDIFF">      0.00000100</i>
  <i name="ENCUT">    600.00000000</i>
  <i type="int" name="ISMEAR">    -5</i>
  <v type="int" name="KPOINT_BSE">    -1     0     0     0</v>
 </incar>
 <structure name="primitive_cell" >
  <crystal>
   <varray name="basis" >
    <v>       3.16000000       0.00000000       0.00000000 </v>
    <v>       0.00000000       3.16000000       0.00000000 </v>
    <v>       0.00000000       0.00000000      15.80000000 </v>
   </varray>
   <i name="volume">    157.77248000 </i>
   <varray name="rec_basis" >
    <v>       0.31645570       0.00000000       0.00000000 </v>
    <v>       0.00000000       0.31645570       0.00000000 </v>
    <v>       0.00000000       0.00000000       0.06329114 </v>
   </varray>
  </crystal>
  <varray name="positions" >
   <v>       0.00000000       0.00000000       0.00000000 </v>
   <v>      -0.50000000      -0.50000000       0.10000000 </v>
   <v>       0.00000000       0.00000000       0.20000000 </v>
   <v>      -0.50000000      -0.50000000       0.30000000 </v>
   <v>       0.00000000       0.00000000       0.40000000 </v>
  </varray>
 </structure>
 <varray name="primitive_index" >
  <v type="int" >        1 </v>
  <v type="int" >        2 </v>
  <v type="int" >        3 </v>
  <v type="int" >        4 </v>
  <v type="int" >        5 </v>
 </varray>
 <kpoints>
  <generation param="Gamma">
   <v type="int" name="divisions">      20       20        4 </v>
   <v name="usershift">      0.00000000       0.00000000       0.00000000 </v>
   <v name="genvec1">      0.05000000       0.00000000       0.00000000 </v>
   <v name="genvec2">      0.00000000       0.05000000       0.00000000 </v>
   <v name="genvec3">      0.00000000       0.00000000       0.25000000 </v>
   <v name="shift">      0.00000000       0.00000000       0.00000000 </v>
  </generation>
  <varray name="kpointlist" >
   <v>       0.00000000       0.00000000       0.00000000 </v>
   <v>       0.05000000       0.00000000       0.00000000 </v>
   <v>       0.10000000       0.00000000       0.00000000 </v>
   <v>       0.15000000       0.00000000       0.00000000 </v>
   <v>       0.20000000       0.00000000       0.00000000 </v>
   <v>       0.25000000       0.00000000       0.00000000 </v>
   <v>       0.30000000       0.00000000       0.00000000 </v>
   <v>       0.35000000       0.00000000       0.00000000 </v>
   <v>       0.40000000       0.00000000       0.00000000 </v>
   <v>       0.45000000       0.00000000       0.00000000 </v>
   <v>       0.50000000       0.00000000       0.00000000 </v>
   <v>       0.05000000       0.05000000       0.00000000 </v>
   <v>       0.10000000       0.05000000       0.00000000 </v>
   <v>       0.15000000       0.05000000       0.00000000 </v>
   <v>       0.20000000       0.05000000       0.00000000 </v>
   <v>       0.25000000       0.05000000       0.00000000 </v>
   <v>       0.30000000       0.05000000       0.00000000 </v>
   <v>       0.35000000       0.05000000       0.00000000 </v>
   <v>       0.40000000       0.05000000       0.00000000 </v>
   <v>       0.45000000       0.05000000       0.00000000 </v>
   <v>       0.50000000       0.05000000       0.00000000 </v>
   <v>       0.10000000       0.10000000       0.00000000 </v>
   <v>       0.15000000       0.10000000       0.00000000 </v>
   <v>       0.20000000       0.10000000       0.00000000 </v>
   <v>       0.25000000       0.10000000       0.00000000 </v>
   <v>       0.30000000       0.10000000       0.00000000 </v>
   <v>       0.35000000       0.10000000       0.00000000 </v>
   <v>       0.40000000       0.10000000       0.00000000 </v>
   <v>       0.45000000       0.10000000       0.00000000 </v>
   <v>       0.50000000       0.10000000       0.00000000 </v>
   <v>       0.15000000       0.15000000       0.00000000 </v>
   <v>       0.20000000       0.15000000       0.00000000 </v>
   <v>       0.25000000       0.15000000       0.00000000 </v>
   <v>       0.30000000       0.15000000       0.00000000 </v>
   <v>       0.35000000       0.15000000       0.00000000 </v>
   <v>       0.40000000       0.15000000       0.00000000 </v>
   <v>       0.45000000       0.15000000       0.00000000 </v>
   <v>       0.50000000       0.15000000       0.00000000 </v>
   <v>       0.20000000       0.20000000       0.00000000 </v>
   <v>       0.25000000       0.20000000       0.00000000 </v>
   <v>       0.30000000       0.20000000       0.00000000 </v>
   <v>       0.35000000       0.20000000       0.00000000 </v>
   <v>       0.40000000       0.20000000       0.00000000 </v>
   <v>       0.45000000       0.20000000       0.00000000 </v>
   <v>       0.50000000       0.20000000       0.00000000 </v>
   <v>       0.25000000       0.25000000       0.00000000 </v>
   <v>       0.30000000       0.25000000       0.00000000 </v>
   <v>       0.35000000       0.25000000       0.00000000 </v>
   <v>       0.40000000       0.25000000       0.00000000 </v>
   <v>       0.45000000       0.25000000       0.00000000 </v>
   <v>       0.50000000       0.25000000       0.00000000 </v>
   <v>       0.30000000       0.30000000       0.00000000 </v>
   <v>       0.35000000       0.30000000       0.00000000 </v>
   <v>       0.40000000       0.30000000       0.00000000 </v>
   <v>       0.45000000       0.30000000       0.00000000 </v>
   <v>       0.50000000       0.30000000       0.00000000 </v>
   <v>       0.35000000       0.35000000       0.00000000 </v>
   <v>       0.40000000       0.35000000       0.00000000 </v>
   <v>       0.45000000       0.35000000       0.00000000 </v>
   <v>       0.50000000       0.35000000       0.00000000 </v>
   <v>       0.40000000       0.40000000       0.00000000 </v>
   <v>       0.45000000       0.40000000       0.00000000 </v>
   <v>       0.50000000       0.40000000       0.00000000 </v>
   <v>       0.45000000       0.45000000       0.00000000 </v>
   <v>       0.50000000       0.45000000       0.00000000 </v>
   <v>       0.50000000       0.50000000       0.00000000 </v>
   <v>       0.00000000       0.00000000       0.25000000 </v>
   <v>       0.05000000       0.00000000       0.25000000 </v>
   <v>       0.10000000       0.00000000       0.25000000 </v>
   <v>       0.15000000       0.00000000       0.25000000 </v>
   <v>       0.20000000       0.00000000       0.25000000 </v>
   <v>       0.25000000       0.00000000       0.25000000 </v>
   <v>       0.30000000       0.00000000       0.25000000 </v>
   <v>       0.35000000       0.00000000       0.25000000 </v>
   <v>       0.40000000       0.00000000       0.25000000 </v>
   <v>       0.45000000       0.00000000       0.25000000 </v>
   <v>       0.50000000       0.00000000       0.25000000 </v>
   <v>       0.05000000       0.05000000       0.25000000 </v>
   <v>       0.10000000       0.05000000       0.25000000 </v>
   <v>       0.15000000       0.05000000       0.25000000 </v>
   <v>       0.20000000       0.05000000       0.25000000 </v>
   <v>       0.25000000       0.05000000       0.25000000 </v>
   <v>       0.30000000       0.05000000       0.25000000 </v>
   <v>       0.35000000       0.05000000       0.25000000 </v>
   <v>       0.40000000       0.05000000       0.25000000 </v>
   <v>       0.45000000       0.05000000       0.25000000 </v>
   <v>       0.50000000       0.05000000       0.25000000 </v>
   <v>       0.10000000       0.10000000       0.25000000 </v>
   <v>       0.15000000       0.10000000       0.25000000 </v>
   <v>       0.20000000       0.10000000       0.25000000 </v>
   <v>       0.25000000       0.10000000       0.25000000 </v>
   <v>       0.30000000       0.10000000       0.25000000 </v>
   <v>       0.35000000       0.10000000       0.25000000 </v>
   <v>       0.40000000       0.10000000       0.25000000 </v>
   <v>       0.45000000       0.10000000       0.25000000 </v>
   <v>       0.50000000       0.10000000       0.25000000 </v>
   <v>       0.15000000       0.15000000       0.25000000 </v>
   <v>       0.20000000       0.15000000       0.25000000 </v>
   <v>       0.25000000       0.15000000       0.25000000 </v>
   <v>       0.30000000       0.15000000       0.25000000 </v>
   <v>       0.35000000       0.15000000       0.25000000 </v>
   <v>       0.40000000       0.15000000       0.25000000 </v>
   <v>       0.45000000       0.15000000       0.25000000 </v>
   <v>       0.50000000       0.15000000       0.25000000 </v>
   <v>       0.20000000       0.20000000       0.25000000 </v>
   <v>       0.25000000       0.20000000       0.25000000 </v>
   <v>       0.30000000       0.20000000       0.25000000 </v>
   <v>       0.35000000       0.20000000       0.25000000 </v>
   <v>       0.40000000       0.20000000       0.25000000 </v>
   <v>       0.45000000       0.20000000       0.25000000 </v>
   <v>       0.50000000       0.20000000       0.25000000 </v>
   <v>       0.25000000       0.25000000       0.25000000 </v>
   <v>       0.30000000       0.25000000       0.25000000 </v>
   <v>       0.35000000       0.25000000       0.25000000 </v>
   <v>       0.40000000       0.25000000       0.25000000 </v>
   <v>       0.45000000       0.25000000       0.25000000 </v>
   <v>       0.50000000       0.25000000       0.25000000 </v>
   <v>       0.30000000       0.30000000       0.25000000 </v>
   <v>       0.35000000       0.30000000       0.25000000 </v>
   <v>       0.40000000       0.30000000       0.25000000 </v>
   <v>       0.45000000       0.30000000       0.25000000 </v>
   <v>       0.50000000       0.30000000       0.25000000 </v>
   <v>       0.35000000       0.35000000       0.25000000 </v>
   <v>       0.40000000       0.35000000       0.25000000 </v>
   <v>       0.45000000       0.35000000       0.25000000 </v>
   <v>       0.50000000       0.35000000       0.25000000 </v>
   <v>       0.40000000       0.40000000       0.25000000 </v>
   <v>       0.45000000       0.40000000       0.25000000 </v>
   <v>       0.50000000       0.40000000       0.25000000 </v>
   <v>       0.45000000       0.45000000       0.25000000 </v>
   <v>       0.50000000       0.45000000       0.25000000 </v>
   <v>       0.50000000       0.50000000       0.25000000 </v>
   <v>       0.00000000       0.00000000       0.50000000 </v>
   <v>       0.05000000       0.00000000       0.50000000 </v>
   <v>       0.10000000       0.00000000       0.50000000 </v>
   <v>       0.15000000       0.00000000       0.50000000 </v>
   <v>       0.20000000       0.00000000       0.50000000 </v>
   <v>       0.25000000       0.00000000       0.50000000 </v>
   <v>       0.30000000       0.00000000       0.50000000 </v>
   <v>       0.35000000       0.00000000       0.50000000 </v>
   <v>       0.40000000       0.00000000       0.50000000 </v>
   <v>       0.45000000       0.00000000       0.50000000 </v>
   <v>       0.50000000       0.00000000       0.50000000 </v>
   <v>       0.05000000       0.05000000       0.50000000 </v>
   <v>       0.10000000       0.05000000       0.50000000 </v>
   <v>       0.15000000       0.05000000       0.50000000 </v>
   <v>       0.20000000       0.05000000       0.50000000 </v>
   <v>       0.25000000       0.05000000       0.50000000 </v>
   <v>       0.30000000       0.05000000       0.50000000 </v>
   <v>       0.35000000       0.05000000       0.50000000 </v>
   <v>       0.40000000       0.05000000       0.50000000 </v>
   <v>       0.45000000       0.05000000       0.50000000 </v>
   <v>       0.50000000       0.05000000       0.50000000 </v>
   <v>       0.10000000       0.10000000       0.50000000 </v>
   <v>       0.15000000       0.10000000       0.50000000 </v>
   <v>       0.20000000       0.10000000       0.50000000 </v>
   <v>       0.25000000       0.10000000       0.50000000 </v>
   <v>       0.30000000       0.10000000       0.50000000 </v>
   <v>       0.35000000       0.10000000       0.50000000 </v>
   <v>       0.40000000       0.10000000       0.50000000 </v>
   <v>       0.45000000       0.10000000       0.50000000 </v>
   <v>       0.50000000       0.10000000       0.50000000 </v>
   <v>       0.15000000       0.15000000       0.50000000 </v>
   <v>       0.20000000       0.15000000       0.50000000 </v>
   <v>       0.25000000       0.15000000       0.50000000 </v>
   <v>       0.30000000       0.15000000       0.50000000 </v>
   <v>       0.35000000       0.15000000       0.50000000 </v>
   <v>       0.40000000       0.15000000       0.50000000 </v>
   <v>       0.45000000       0.15000000       0.50000000 </v>
   <v>       0.50000000       0.15000000       0.50000000 </v>
   <v>       0.20000000       0.20000000       0.50000000 </v>
   <v>       0.25000000       0.20000000       0.50000000 </v>
   <v>       0.30000000       0.20000000       0.50000000 </v>
   <v>       0.35000000       0.20000000       0.50000000 </v>
   <v>       0.40000000       0.20000000       0.50000000 </v>
   <v>       0.45000000       0.20000000       0.50000000 </v>
   <v>       0.50000000       0.20000000       0.50000000 </v>
   <v>       0.25000000       0.25000000       0.50000000 </v>
   <v>       0.30000000       0.25000000       0.50000000 </v>
   <v>       0.35000000       0.25000000       0.50000000 </v>
   <v>       0.40000000       0.25000000       0.50000000 </v>
   <v>       0.45000000       0.25000000       0.50000000 </v>
   <v>       0.50000000       0.25000000       0.50000000 </v>
   <v>       0.30000000       0.30000000       0.50000000 </v>
   <v>       0.35000000       0.30000000       0.50000000 </v>
   <v>       0.40000000       0.30000000       0.50000000 </v>
   <v>       0.45000000       0.30000000       0.50000000 </v>
   <v>       0.50000000       0.30000000       0.50000000 </v>
   <v>       0.35000000       0.35000000       0.50000000 </v>
   <v>       0.40000000       0.35000000       0.50000000 </v>
   <v>       0.45000000       0.35000000       0.50000000 </v>
   <v>       0.50000000       0.35000000       0.50000000 </v>
   <v>       0.40000000       0.40000000       0.50000000 </v>
   <v>       0.45000000       0.40000000       0.50000000 </v>
   <v>       0.50000000       0.40000000       0.50000000 </v>
   <v>       0.45000000       0.45000000       0.50000000 </v>
   <v>       0.50000000       0.45000000       0.50000000 </v>
   <v>       0.50000000       0.50000000       0.50000000 </v>
  </varray>
  <varray name="weights" >
   <v>       0.00062500 </v>
   <v>       0.00250000 </v>
   <v>       0.00250000 </v>
   <v>       0.00250000 </v>
   <v>       0.00250000 </v>
   <v>       0.00250000 </v>
   <v>       0.00250000 </v>
   <v>       0.00250000 </v>
   <v>       0.00250000 </v>
   <v>       0.00250000 </v>
   <v>       0.00125000 </v>
   <v>       0.00250000 </v>
   <v>       0.00500000 </v>
   <v>       0.00500000 </v>
   <v>       0.00500000 </v>
   <v>       0.00500000 </v>
   <v>       0.00500000 </v>
   <v>       0.00500000 </v>
   <v>       0.00500000 </v>
   <v>       0.00500000 </v>
   <v>       0.00250000 </v>
   <v>       0.00250000 </v>
   <v>       0.00500000 </v>
   <v>       0.00500000 </v>
   <v>       0.00500000 </v>
   <v>       0.00500000 </v>
   <v>       0.00500000 </v>
   <v>       0.00500000 </v>
   <v>       0.00500000 </v>
   <v>       0.00250000 </v>
   <v>       0.00250000 </v>
   <v>       0.00500000 </v>
   <v>       0.00500000 </v>
   <v>       0.00500000 </v>
   <v>       0.00500000 </v>
   <v>       0.00500000 </v>
   <v>       0.00500000 </v>
   <v>       0.00250000 </v>
   <v>       0.00250000 </v>
   <v>       0.00500000 </v>
   <v>       0.00500000 </v>
   <v>       0.00500000 </v>
   <v>       0.00500000 </v>
   <v>       0.00500000 </v>
   <v>       0.00250000 </v>
   <v>       0.00250000 </v>
   <v>       0.00500000 </v>
   <v>       0.00500000 </v>
   <v>       0.00500000 </v>
   <v>       0.00500000 </v>
   <v>       0.00250000 </v>
   <v>       0.00250000 </v>
   <v>       0.00500000 </v>
   <v>       0.00500000 </v>
   <v>       0.00500000 </v>
   <v>       0.00250000 </v>
   <v>       0.00250000 </v>
   <v>       0.00500000 </v>
   <v>       0.00500000 </v>
   <v>       0.00250000 </v>
   <v>       0.00250000 </v>
   <v>       0.00500000 </v>
   <v>       0.00250000 </v>
   <v>       0.00250000 </v>
   <v>       0.00250000 </v>
   <v>       0.00062500 </v>
   <v>       0.00125000 </v>
   <v>       0.00500000 </v>
   <v>       0.00500000 </v>
   <v>       0.00500000 </v>
   <v>       0.00500000 </v>
   <v>       0.00500000 </v>
   <v>       0.00500000 </v>
   <v>       0.00500000 </v>
   <v>       0.00500000 </v>
   <v>       0.00500000 </v>
   <v>       0.00250000 </v>
   <v>       0.00500000 </v>
   <v>       0.01000000 </v>
   <v>       0.01000000 </v>
   <v>       0.01000000 </v>
   <v>       0.01000000 </v>
   <v>       0.01000000 </v>
   <v>       0.01000000 </v>
   <v>       0.01000000 </v>
   <v>       0.01000000 </v>
   <v>       0.00500000 </v>
   <v>       0.00500000 </v>
   <v>       0.01000000 </v>
   <v>       0.01000000 </v>
   <v>       0.01000000 </v>
   <v>       0.01000000 </v>
   <v>       0.01000000 </v>
   <v>       0.01000000 </v>
   <v>       0.01000000 </v>
   <v>       0.00500000 </v>
   <v>       0.00500000 </v>
   <v>       0.01000000 </v>
   <v>       0.01000000 </v>
   <v>       0.01000000 </v>
   <v>       0.01000000 </v>
   <v>       0.01000000 </v>
   <v>       0.01000000 </v>
   <v>       0.00500000 </v>
   <v>       0.00500000 </v>
   <v>       0.01000000 </v>
   <v>       0.01000000 </v>
   <v>       0.01000000 </v>
   <v>       0.01000000 </v>
   <v>       0.01000000 </v>
   <v>       0.00500000 </v>
   <v>       0.00500000 </v>
   <v>       0.01000000 </v>
   <v>       0.01000000 </v>
   <v>       0.01000000 </v>
   <v>       0.01000000 </v>
   <v>       0.00500000 </v>
   <v>       0.00500000 </v>
   <v>       0.01000000 </v>
   <v>       0.01000000 </v>
   <v>       0.01000000 </v>
   <v>       0.00500000 </v>
   <v>       0.00500000 </v>
   <v>       0.01000000 </v>
   <v>       0.01000000 </v>
   <v>       0.00500000 </v>
   <v>       0.00500000 </v>
   <v>       0.01000000 </v>
   <v>       0.00500000 </v>
   <v>       0.00500000 </v>
   <v>       0.00500000 </v>
   <v>       0.00125000 </v>
   <v>       0.00062500 </v>
   <v>       0.00250000 </v>
   <v>       0.00250000 </v>
   <v>       0.00250000 </v>
   <v>       0.00250000 </v>
   <v>       0.00250000 </v>
   <v>       0.00250000 </v>
   <v>       0.00250000 </v>
   <v>       0.00250000 </v>
   <v>       0.00250000 </v>
   <v>       0.00125000 </v>
   <v>       0.00250000 </v>
   <v>       0.00500000 </v>
   <v>       0.00500000 </v>
   <v>       0.00500000 </v>
   <v>       0.00500000 </v>
   <v>       0.00500000 </v>
   <v>       0.00500000 </v>
   <v>       0.00500000 </v>
   <v>       0.00500000 </v>
   <v>       0.00250000 </v>
   <v>       0.00250000 </v>
   <v>       0.00500000 </v>
   <v>       0.00500000 </v>
   <v>       0.00500000 </v>
   <v>       0.00500000 </v>
   <v>       0.00500000 </v>
   <v>       0.00500000 </v>
   <v>       0.00500000 </v>
   <v>       0.00250000 </v>
   <v>       0.00250000 </v>
   <v>       0.00500000 </v>
   <v>       0.00500000 </v>
   <v>       0.00500000 </v>
   <v>       0.00500000 </v>
   <v>       0.00500000 </v>
   <v>       0.00500000 </v>
   <v>       0.00250000 </v>
   <v>       0.00250000 </v>
   <v>       0.00500000 </v>
   <v>       0.00500000 </v>
   <v>       0.00500000 </v>
   <v>       0.00500000 </v>
   <v>       0.00500000 </v>
   <v>       0.00250000 </v>
   <v>       0.00250000 </v>
   <v>       0.00500000 </v>
   <v>       0.00500000 </v>
   <v>       0.00500000 </v>
   <v>       0.00500000 </v>
   <v>       0.00250000 </v>
   <v>       0.00250000 </v>
   <v>       0.00500000 </v>
   <v>       0.00500000 </v>
   <v>       0.00500000 </v>
   <v>       0.00250000 </v>
   <v>       0.00250000 </v>
   <v>       0.00500000 </v>
   <v>       0.00500000 </v>
   <v>       0.00250000 </v>
   <v>       0.00250000 </v>
   <v>       0.00500000 </v>
   <v>       0.00250000 </v>
   <v>       0.00250000 </v>
   <v>       0.00250000 </v>
   <v>       0.00062500 </v>
  </varray>
  <varray name="tetrahedronlist"  type="int" >
   <v type="int" >        4        1        2       12       67 </v>
   <v type="int" >        4        2       12       67       68 </v>
   <v type="int" >        4       12       67       68       78 </v>
   <v type="int" >        4        2        3       13       68 </v>
   <v type="int" >        4        2       12       13       68 </v>
   <v type="int" >        4       12       13       68       78 </v>
   <v type="int" >        4        3       13       68       69 </v>
   <v type="int" >        4       13       68       69       79 </v>
   <v type="int" >        4       13       68       78       79 </v>
   <v type="int" >        4        3        4       14       69 </v>
   <v type="int" >        4        3       13       14       69 </v>
   <v type="int" >        4       13       14       69       79 </v>
   <v type="int" >        4        4       14       69       70 </v>
   <v type="int" >        4       14       69       70       80 </v>
   <v type="int" >        4       14       69       79       80 </v>
   <v type="int" >        4        4        5       15       70 </v>
   <v type="int" >        4        4       14       15       70 </v>
   <v type="int" >        4       14       15       70       80 </v>
   <v type="int" >        4        5       15       70       71 </v>
   <v type="int" >        4       15       70       71       81 </v>
   <v type="int" >        4       15       70       80       81 </v>
   <v type="int" >        4        5        6       16       71 </v>
   <v type="int" >        4        5       15       16       71 </v>
   <v type="int" >        4       15       16       71       81 </v>
   <v type="int" >        4        6       16       71       72 </v>
   <v type="int" >        4       16       71       72       82 </v>
   <v type="int" >        4       16       71       81       82 </v>
   <v type="int" >        4        6        7       17       72 </v>
   <v type="int" >        4        6       16       17       72 </v>
   <v type="int" >        4       16       17       72       82 </v>
   <v type="int" >        4        7       17       72       73 </v>
   <v type="int" >        4       17       72       73       83 </v>
   <v type="int" >        4       17       72       82       83 </v>
   <v type="int" >        4        7        8       18       73 </v>
   <v type="int" >        4        7       17       18       73 </v>
   <v type="int" >        4       17       18       73       83 </v>
   <v type="int" >        4        8       18       73       74 </v>
   <v type="int" >        4       18       73       74       84 </v>
   <v type="int" >        4       18       73       83       84 </v>
   <v type="int" >        4        8        9       19       74 </v>
   <v type="int" >        4        8       18       19       74 </v>
   <v type="int" >        4       18       19       74       84 </v>
   <v type="int" >        4        9       19       74       75 </v>
   <v type="int" >        4       19       74       75       85 </v>
   <v type="int" >        4       19       74       84       85 </v>
   <v type="int" >        4        9       10       20       75 </v>
   <v type="int" >        4        9       19       20       75 </v>
   <v type="int" >        4       19       20       75       85 </v>
   <v type="int" >        4       10       20       75       76 </v>
   <v type="int" >        4       20       75       76       86 </v>
   <v type="int" >        4       20       75       85       86 </v>
   <v type="int" >        4       10       11       21       76 </v>
   <v type="int" >        4       10       20       21       76 </v>
   <v type="int" >        4       20       21       76       86 </v>
   <v type="int" >        4       11       21       76       77 </v>
   <v type="int" >        4       21       76       77       87 </v>
   <v type="int" >        4       21       76       86       87 </v>
   <v type="int" >        4       10       11       20       77 </v>
   <v type="int" >        4       11       20       21       77 </v>
   <v type="int" >        4       20       21       77       87 </v>
   <v type="int" >        4       10       20       76       77 </v>
   <v type="int" >        4       20       76       77       86 </v>
   <v type="int" >        4       20       77       86       87 </v>
   <v type="int" >        4        9       10       19       76 </v>
   <v type="int" >        4       10       19       20       76 </v>
   <v type="int" >        4       19       20       76       86 </v>
   <v type="int" >        4        9       19       75       76 </v>
   <v type="int" >        4       19       75       76       85 </v>
   <v type="int" >        4       19       76       85       86 </v>
   <v type="int" >        4        8        9       18       75 </v>
   <v type="int" >        4        9       18       19       75 </v>
   <v type="int" >        4       18       19       75       85 </v>
   <v type="int" >        4        8       18       74       75 </v>
   <v type="int" >        4       18       74       75       84 </v>
   <v type="int" >        4       18       75       84       85 </v>
   <v type="int" >        4        7        8       17       74 </v>
   <v type="int" >        4        8       17       18       74 </v>
   <v type="int" >        4       17       18       74       84 </v>
   <v type="int" >        4        7       17       73       74 </v>
   <v type="int" >        4       17       73       74       83 </v>
   <v type="int" >        4       17       74       83       84 </v>
   <v type="int" >        4        6        7       16       73 </v>
   <v type="int" >        4        7       16       17       73 </v>
   <v type="int" >        4       16       17       73       83 </v>
   <v type="int" >        4        6       16       72       73 </v>
   <v type="int" >        4       16       72       73       82 </v>
   <v type="int" >        4       16       73       82       83 </v>
   <v type="int" >        4        5        6       15       72 </v>
   <v type="int" >        4        6       15       16       72 </v>
   <v type="int" >        4       15       16       72       82 </v>
   <v type="int" >        4        5       15       71       72 </v>
   <v type="int" >        4       15       71       72       81 </v>
   <v type="int" >        4       15       72       81       82 </v>
   <v type="int" >        4        4        5       14       71 </v>
   <v type="int" >        4        5       14       15       71 </v>
   <v type="int" >        4       14       15       71       81 </v>
   <v type="int" >        4        4       14       70       71 </v>
   <v type="int" >        4       14       70       71       80 </v>
   <v type="int" >        4       14       71       80       81 </v>
   <v type="int" >        4        3        4       13       70 </v>
   <v type="int" >        4        4       13       14       70 </v>
   <v type="int" >        4       13       14       70       80 </v>
   <v type="int" >        4        3       13       69       70 </v>
   <v type="int" >        4       13       69       70       79 </v>
   <v type="int" >        4       13       70       79       80 </v>
   <v type="int" >        4        2        3       12       69 </v>
   <v type="int" >        4        3       12       13       69 </v>
   <v type="int" >        4       12       13       69       79 </v>
   <v type="int" >        4        2       12       68       69 </v>
   <v type="int" >        4       12       68       69       78 </v>
   <v type="int" >        4       12       69       78       79 </v>
   <v type="int" >        4        1        2        2       68 </v>
   <v type="int" >        4        2        2       12       68 </v>
   <v type="int" >        4        2       12       68       78 </v>
   <v type="int" >        4        1        2       67       68 </v>
   <v type="int" >        4        2       67       68       68 </v>
   <v type="int" >        4        2       68       68       78 </v>
   <v type="int" >        4       12       13       22       78 </v>
   <v type="int" >        4       13       22       78       79 </v>
   <v type="int" >        4       22       78       79       88 </v>
   <v type="int" >        4       13       14       23       79 </v>
   <v type="int" >        4       13       22       23       79 </v>
   <v type="int" >        4       22       23       79       88 </v>
   <v type="int" >        4       14       23       79       80 </v>
   <v type="int" >        4       23       79       80       89 </v>
   <v type="int" >        4       23       79       88       89 </v>
   <v type="int" >        4       14       15       24       80 </v>
   <v type="int" >        4       14       23       24       80 </v>
   <v type="int" >        4       23       24       80       89 </v>
   <v type="int" >        4       15       24       80       81 </v>
   <v type="int" >        4       24       80       81       90 </v>
   <v type="int" >        4       24       80       89       90 </v>
   <v type="int" >        4       15       16       25       81 </v>
   <v type="int" >        4       15       24       25       81 </v>
   <v type="int" >        4       24       25       81       90 </v>
   <v type="int" >        4       16       25       81       82 </v>
   <v type="int" >        4       25       81       82       91 </v>
   <v type="int" >        4       25       81       90       91 </v>
   <v type="int" >        4       16       17       26       82 </v>
   <v type="int" >        4       16       25       26       82 </v>
   <v type="int" >        4       25       26       82       91 </v>
   <v type="int" >        4       17       26       82       83 </v>
   <v type="int" >        4       26       82       83       92 </v>
   <v type="int" >        4       26       82       91       92 </v>
   <v type="int" >        4       17       18       27       83 </v>
   <v type="int" >        4       17       26       27       83 </v>
   <v type="int" >        4       26       27       83       92 </v>
   <v type="int" >        4       18       27       83       84 </v>
   <v type="int" >        4       27       83       84       93 </v>
   <v type="int" >        4       27       83       92       93 </v>
   <v type="int" >        4       18       19       28       84 </v>
   <v type="int" >        4       18       27       28       84 </v>
   <v type="int" >        4       27       28       84       93 </v>
   <v type="int" >        4       19       28       84       85 </v>
   <v type="int" >        4       28       84       85       94 </v>
   <v type="int" >        4       28       84       93       94 </v>
   <v type="int" >        4       19       20       29       85 </v>
   <v type="int" >        4       19       28       29       85 </v>
   <v type="int" >        4       28       29       85       94 </v>
   <v type="int" >        4       20       29       85       86 </v>
   <v type="int" >        4       29       85       86       95 </v>
   <v type="int" >        4       29       85       94       95 </v>
   <v type="int" >        4       20       21       30       86 </v>
   <v type="int" >        4       20       29       30       86 </v>
   <v type="int" >        4       29       30       86       95 </v>
   <v type="int" >        4       21       30       86       87 </v>
   <v type="int" >        4       30       86       87       96 </v>
   <v type="int" >        4       30       86       95       96 </v>
   <v type="int" >        4       20       21       29       87 </v>
   <v type="int" >        4       21       29       30       87 </v>
   <v type="int" >        4       29       30       87       96 </v>
   <v type="int" >        4       20       29       86       87 </v>
   <v type="int" >        4       29       86       87       95 </v>
   <v type="int" >        4       29       87       95       96 </v>
   <v type="int" >        4       19       20       28       86 </v>
   <v type="int" >        4       20       28       29       86 </v>
   <v type="int" >        4       28       29       86       95 </v>
   <v type="int" >        4       19       28       85       86 </v>
   <v type="int" >        4       28       85       86       94 </v>
   <v type="int" >        4       28       86       94       95 </v>
   <v type="int" >        4       18       19       27       85 </v>
   <v type="int" >        4       19       27       28       85 </v>
   <v type="int" >        4       27       28       85       94 </v>
   <v type="int" >        4       18       27       84       85 </v>
   <v type="int" >        4       27       84       85       93 </v>
   <v type="int" >        4       27       85       93       94 </v>
   <v type="int" >        4       17       18       26       84 </v>
   <v type="int" >        4       18       26       27       84 </v>
   <v type="int" >        4       26       27       84       93 </v>
   <v type="int" >        4       17       26       83       84 </v>
   <v type="int" >        4       26       83       84       92 </v>
   <v type="int" >        4       26       84       92       93 </v>
   <v type="int" >        4       16       17       25       83 </v>
   <v type="int" >        4       17       25       26       83 </v>
   <v type="int" >        4       25       26       83       92 </v>
   <v type="int" >        4       16       25       82       83 </v>
   <v type="int" >        4       25       82       83       91 </v>
   <v type="int" >        4       25       83       91       92 </v>
   <v type="int" >        4       15       16       24       82 </v>
   <v type="int" >        4       16       24       25       82 </v>
   <v type="int" >        4       24       25       82       91 </v>
   <v type="int" >        4       15       24       81       82 </v>
   <v type="int" >        4       24       81       82       90 </v>
   <v type="int" >        4       24       82       90       91 </v>
   <v type="int" >        4       14       15       23       81 </v>
   <v type="int" >        4       15       23       24       81 </v>
   <v type="int" >        4       23       24       81       90 </v>
   <v type="int" >        4       14       23       80       81 </v>
   <v type="int" >        4       23       80       81       89 </v>
   <v type="int" >        4       23       81       89       90 </v>
   <v type="int" >        4       13       14       22       80 </v>
   <v type="int" >        4       14       22       23       80 </v>
   <v type="int" >        4       22       23       80       89 </v>
   <v type="int" >        4       13       22       79       80 </v>
   <v type="int" >        4       22       79       80       88 </v>
   <v type="int" >        4       22       80       88       89 </v>
   <v type="int" >        4       12       13       13       79 </v>
   <v type="int" >        4       13       13       22       79 </v>
   <v type="int" >        4       13       22       79       88 </v>
   <v type="int" >        4       12       13       78       79 </v>
   <v type="int" >        4       13       78       79       79 </v>
   <v type="int" >        4       13       79       79       88 </v>
   <v type="int" >        4        2        3       12       78 </v>
   <v type="int" >        4        3       12       13       78 </v>
   <v type="int" >        4        3       13       78       79 </v>
   <v type="int" >        4        2        3       68       78 </v>
   <v type="int" >        4        3       68       69       78 </v>
   <v type="int" >        4        3       69       78       79 </v>
   <v type="int" >        4       22       23       31       88 </v>
   <v type="int" >        4       23       31       88       89 </v>
   <v type="int" >        4       31       88       89       97 </v>
   <v type="int" >        4       23       24       32       89 </v>
   <v type="int" >        4       23       31       32       89 </v>
   <v type="int" >        4       31       32       89       97 </v>
   <v type="int" >        4       24       32       89       90 </v>
   <v type="int" >        4       32       89       90       98 </v>
   <v type="int" >        4       32       89       97       98 </v>
   <v type="int" >        4       24       25       33       90 </v>
   <v type="int" >        4       24       32       33       90 </v>
   <v type="int" >        4       32       33       90       98 </v>
   <v type="int" >        4       25       33       90       91 </v>
   <v type="int" >        4       33       90       91       99 </v>
   <v type="int" >        4       33       90       98       99 </v>
   <v type="int" >        4       25       26       34       91 </v>
   <v type="int" >        4       25       33       34       91 </v>
   <v type="int" >        4       33       34       91       99 </v>
   <v type="int" >        4       26       34       91       92 </v>
   <v type="int" >        4       34       91       92      100 </v>
   <v type="int" >        4       34       91       99      100 </v>
   <v type="int" >        4       26       27       35       92 </v>
   <v type="int" >        4       26       34       35       92 </v>
   <v type="int" >        4       34       35       92      100 </v>
   <v type="int" >        4       27       35       92       93 </v>
   <v type="int" >        4       35       92       93      101 </v>
   <v type="int" >        4       35       92      100      101 </v>
   <v type="int" >        4       27       28       36       93 </v>
   <v type="int" >        4       27       35       36       93 </v>
   <v type="int" >        4       35       36       93      101 </v>
   <v type="int" >        4       28       36       93       94 </v>
   <v type="int" >        4       36       93       94      102 </v>
   <v type="int" >        4       36       93      101      102 </v>
   <v type="int" >        4       28       29       37       94 </v>
   <v type="int" >        4       28       36       37       94 </v>
   <v type="int" >        4       36       37       94      102 </v>
   <v type="int" >        4       29       37       94       95 </v>
   <v type="int" >        4       37       94       95      103 </v>
   <v type="int" >        4       37       94      102      103 </v>
   <v type="int" >        4       29       30       38       95 </v>
   <v type="int" >        4       29       37       38       95 </v>
   <v type="int" >        4       37       38       95      103 </v>
   <v type="int" >        4       30       38       95       96 </v>
   <v type="int" >        4       38       95       96      104 </v>
   <v type="int" >        4       38       95      103      104 </v>
   <v type="int" >        4       29       30       37       96 </v>
   <v type="int" >        4       30       37       38       96 </v>
   <v type="int" >        4       37       38       96      104 </v>
   <v type="int" >        4       29       37       95       96 </v>
   <v type="int" >        4       37       95       96      103 </v>
   <v type="int" >        4       37       96      103      104 </v>
   <v type="int" >        4       28       29       36       95 </v>
   <v type="int" >        4       29       36       37       95 </v>
   <v type="int" >        4       36       37       95      103 </v>
   <v type="int" >        4       28       36       94       95 </v>
   <v type="int" >        4       36       94       95      102 </v>
   <v type="int" >        4       36       95      102      103 </v>
   <v type="int" >        4       27       28       35       94 </v>
   <v type="int" >        4       28       35       36       94 </v>
   <v type="int" >        4       35       36       94      102 </v>
   <v type="int" >        4       27       35       93       94 </v>
   <v type="int" >        4       35       93       94      101 </v>
   <v type="int" >        4       35       94      101      102 </v>
   <v type="int" >        4       26       27       34       93 </v>
   <v type="int" >        4       27       34       35       93 </v>
   <v type="int" >        4       34       35       93      101 </v>
   <v type="int" >        4       26       34       92       93 </v>
   <v type="int" >        4       34       92       93      100 </v>
   <v type="int" >        4       34       93      100      101 </v>
   <v type="int" >        4       25       26       33       92 </v>
   <v type="int" >        4       26       33       34       92 </v>
   <v type="int" >        4       33       34       92      100 </v>
   <v type="int" >        4       25       33       91       92 </v>
   <v type="int" >        4       33       91       92       99 </v>
   <v type="int" >        4       33       92       99      100 </v>
   <v type="int" >        4       24       25       32       91 </v>
   <v type="int" >        4       25       32       33       91 </v>
   <v type="int" >        4       32       33       91       99 </v>
   <v type="int" >        4       24       32       90       91 </v>
   <v type="int" >        4       32       90       91       98 </v>
   <v type="int" >        4       32       91       98       99 </v>
   <v type="int" >        4       23       24       31       90 </v>
   <v type="int" >        4       24       31       32       90 </v>
   <v type="int" >        4       31       32       90       98 </v>
   <v type="int" >        4       23       31       89       90 </v>
   <v type="int" >        4       31       89       90       97 </v>
   <v type="int" >        4       31       90       97       98 </v>
   <v type="int" >        4       22       23       23       89 </v>
   <v type="int" >        4       23       23       31       89 </v>
   <v type="int" >        4       23       31       89       97 </v>
   <v type="int" >        4       22       23       88       89 </v>
   <v type="int" >        4       23       88       89       89 </v>
   <v type="int" >        4       23       89       89       97 </v>
   <v type="int" >        4       13       14       22       88 </v>
   <v type="int" >        4       14       22       23       88 </v>
   <v type="int" >        4       14       23       88       89 </v>
   <v type="int" >        4       13       14       79       88 </v>
   <v type="int" >        4       14       79       80       88 </v>
   <v type="int" >        4       14       80       88       89 </v>
   <v type="int" >        4        3        4       13       79 </v>
   <v type="int" >        4        4       13       14       79 </v>
   <v type="int" >        4        4       14       79       80 </v>
   <v type="int" >        4        3        4       69       79 </v>
   <v type="int" >        4        4       69       70       79 </v>
   <v type="int" >        4        4       70       79       80 </v>
   <v type="int" >        4       31       32       39       97 </v>
   <v type="int" >        4       32       39       97       98 </v>
   <v type="int" >        4       39       97       98      105 </v>
   <v type="int" >        4       32       33       40       98 </v>
   <v type="int" >        4       32       39       40       98 </v>
   <v type="int" >        4       39       40       98      105 </v>
   <v type="int" >        4       33       40       98       99 </v>
   <v type="int" >        4       40       98       99      106 </v>
   <v type="int" >        4       40       98      105      106 </v>
   <v type="int" >        4       33       34       41       99 </v>
   <v type="int" >        4       33       40       41       99 </v>
   <v type="int" >        4       40       41       99      106 </v>
   <v type="int" >        4       34       41       99      100 </v>
   <v type="int" >        4       41       99      100      107 </v>
   <v type="int" >        4       41       99      106      107 </v>
   <v type="int" >        4       34       35       42      100 </v>
   <v type="int" >        4       34       41       42      100 </v>
   <v type="int" >        4       41       42      100      107 </v>
   <v type="int" >        4       35       42      100      101 </v>
   <v type="int" >        4       42      100      101      108 </v>
   <v type="int" >        4       42      100      107      108 </v>
   <v type="int" >        4       35       36       43      101 </v>
   <v type="int" >        4       35       42       43      101 </v>
   <v type="int" >        4       42       43      101      108 </v>
   <v type="int" >        4       36       43      101      102 </v>
   <v type="int" >        4       43      101      102      109 </v>
   <v type="int" >        4       43      101      108      109 </v>
   <v type="int" >        4       36       37       44      102 </v>
   <v type="int" >        4       36       43       44      102 </v>
   <v type="int" >        4       43       44      102      109 </v>
   <v type="int" >        4       37       44      102      103 </v>
   <v type="int" >        4       44      102      103      110 </v>
   <v type="int" >        4       44      102      109      110 </v>
   <v type="int" >        4       37       38       45      103 </v>
   <v type="int" >        4       37       44       45      103 </v>
   <v type="int" >        4       44       45      103      110 </v>
   <v type="int" >        4       38       45      103      104 </v>
   <v type="int" >        4       45      103      104      111 </v>
   <v type="int" >        4       45      103      110      111 </v>
   <v type="int" >        4       37       38       44      104 </v>
   <v type="int" >        4       38       44       45      104 </v>
   <v type="int" >        4       44       45      104      111 </v>
   <v type="int" >        4       37       44      103      104 </v>
   <v type="int" >        4       44      103      104      110 </v>
   <v type="int" >        4       44      104      110      111 </v>
   <v type="int" >        4       36       37       43      103 </v>
   <v type="int" >        4       37       43       44      103 </v>
   <v type="int" >        4       43       44      103      110 </v>
   <v type="int" >        4       36       43      102      103 </v>
   <v type="int" >        4       43      102      103      109 </v>
   <v type="int" >        4       43      103      109      110 </v>
   <v type="int" >        4       35       36       42      102 </v>
   <v type="int" >        4       36       42       43      102 </v>
   <v type="int" >        4       42       43      102      109 </v>
   <v type="int" >        4       35       42      101      102 </v>
   <v type="int" >        4       42      101      102      108 </v>
   <v type="int" >        4       42      102      108      109 </v>
   <v type="int" >        4       34       35       41      101 </v>
   <v type="int" >        4       35       41       42      101 </v>
   <v type="int" >        4       41       42      101      108 </v>
   <v type="int" >        4       34       41      100      101 </v>
   <v type="int" >        4       41      100      101      107 </v>
   <v type="int" >        4       41      101      107      108 </v>
   <v type="int" >        4       33       34       40      100 </v>
   <v type="int" >        4       34       40       41      100 </v>
   <v type="int" >        4       40       41      100      107 </v>
   <v type="int" >        4       33       40       99      100 </v>
   <v type="int" >        4       40       99      100      106 </v>
   <v type="int" >        4       40      100      106      107 </v>
   <v type="int" >        4       32       33       39       99 </v>
   <v type="int" >        4       33       39       40       99 </v>
   <v type="int" >        4       39       40       99      106 </v>
   <v type="int" >        4       32       39       98       99 </v>
   <v type="int" >        4       39       98       99      105 </v>
   <v type="int" >        4       39       99      105      106 </v>
   <v type="int" >        4       31       32       32       98 </v>
   <v type="int" >        4       32       32       39       98 </v>
   <v type="int" >        4       32       39       98      105 </v>
   <v type="int" >        4       31       32       97       98 </v>
   <v type="int" >        4       32       97       98       98 </v>
   <v type="int" >        4       32       98       98      105 </v>
   <v type="int" >        4       23       24       31       97 </v>
   <v type="int" >        4       24       31       32       97 </v>
   <v type="int" >        4       24       32       97       98 </v>
   <v type="int" >        4       23       24       89       97 </v>
   <v type="int" >        4       24       89       90       97 </v>
   <v type="int" >        4       24       90       97       98 </v>
   <v type="int" >        4       14       15       23       89 </v>
   <v type="int" >        4       15       23       24       89 </v>
   <v type="int" >        4       15       24       89       90 </v>
   <v type="int" >        4       14       15       80       89 </v>
   <v type="int" >        4       15       80       81       89 </v>
   <v type="int" >        4       15       81       89       90 </v>
   <v type="int" >        4        4        5       14       80 </v>
   <v type="int" >        4        5       14       15       80 </v>
   <v type="int" >        4        5       15       80       81 </v>
   <v type="int" >        4        4        5       70       80 </v>
   <v type="int" >        4        5       70       71       80 </v>
   <v type="int" >        4        5       71       80       81 </v>
   <v type="int" >        4       39       40       46      105 </v>
   <v type="int" >        4       40       46      105      106 </v>
   <v type="int" >        4       46      105      106      112 </v>
   <v type="int" >        4       40       41       47      106 </v>
   <v type="int" >        4       40       46       47      106 </v>
   <v type="int" >        4       46       47      106      112 </v>
   <v type="int" >        4       41       47      106      107 </v>
   <v type="int" >        4       47      106      107      113 </v>
   <v type="int" >        4       47      106      112      113 </v>
   <v type="int" >        4       41       42       48      107 </v>
   <v type="int" >        4       41       47       48      107 </v>
   <v type="int" >        4       47       48      107      113 </v>
   <v type="int" >        4       42       48      107      108 </v>
   <v type="int" >        4       48      107      108      114 </v>
   <v type="int" >        4       48      107      113      114 </v>
   <v type="int" >        4       42       43       49      108 </v>
   <v type="int" >        4       42       48       49      108 </v>
   <v type="int" >        4       48       49      108      114 </v>
   <v type="int" >        4       43       49      108      109 </v>
   <v type="int" >        4       49      108      109      115 </v>
   <v type="int" >        4       49      108      114      115 </v>
   <v type="int" >        4       43       44       50      109 </v>
   <v type="int" >        4       43       49       50      109 </v>
   <v type="int" >        4       49       50      109      115 </v>
   <v type="int" >        4       44       50      109      110 </v>
   <v type="int" >        4       50      109      110      116 </v>
   <v type="int" >        4       50      109      115      116 </v>
   <v type="int" >        4       44       45       51      110 </v>
   <v type="int" >        4       44       50       51      110 </v>
   <v type="int" >        4       50       51      110      116 </v>
   <v type="int" >        4       45       51      110      111 </v>
   <v type="int" >        4       51      110      111      117 </v>
   <v type="int" >        4       51      110      116      117 </v>
   <v type="int" >        4       44       45       50      111 </v>
   <v type="int" >        4       45       50       51      111 </v>
   <v type="int" >        4       50       51      111      117 </v>
   <v type="int" >        4       44       50      110      111 </v>
   <v type="int" >        4       50      110      111      116 </v>
   <v type="int" >        4       50      111      116      117 </v>
   <v type="int" >        4       43       44       49      110 </v>
   <v type="int" >        4       44       49       50      110 </v>
   <v type="int" >        4       49       50      110      116 </v>
   <v type="int" >        4       43       49      109      110 </v>
   <v type="int" >        4       49      109      110      115 </v>
   <v type="int" >        4       49      110      115      116 </v>
   <v type="int" >        4       42       43       48      109 </v>
   <v type="int" >        4       43       48       49      109 </v>
   <v type="int" >        4       48       49      109      115 </v>
   <v type="int" >        4       42       48      108      109 </v>
   <v type="int" >        4       48      108      109      114 </v>
   <v type="int" >        4       48      109      114      115 </v>
   <v type="int" >        4       41       42       47      108 </v>
   <v type="int" >        4       42       47       48      108 </v>
   <v type="int" >        4       47       48      108      114 </v>
   <v type="int" >        4       41       47      107      108 </v>
   <v type="int" >        4       47      107      108      113 </v>
   <v type="int" >        4       47      108      113      114 </v>
   <v type="int" >        4       40       41       46      107 </v>
   <v type="int" >        4       41       46       47      107 </v>
   <v type="int" >        4       46       47      107      113 </v>
   <v type="int" >        4       40       46      106      107 </v>
   <v type="int" >        4       46      106      107      112 </v>
   <v type="int" >        4       46      107      112      113 </v>
   <v type="int" >        4       39       40       40      106 </v>
   <v type="int" >        4       40       40       46      106 </v>
   <v type="int" >        4       40       46      106      112 </v>
   <v type="int" >        4       39       40      105      106 </v>
   <v type="int" >        4       40      105      106      106 </v>
   <v type="int" >        4       40      106      106      112 </v>
   <v type="int" >        4       32       33       39      105 </v>
   <v type="int" >        4       33       39       40      105 </v>
   <v type="int" >        4       33       40      105      106 </v>
   <v type="int" >        4       32       33       98      105 </v>
   <v type="int" >        4       33       98       99      105 </v>
   <v type="int" >        4       33       99      105      106 </v>
   <v type="int" >        4       24       25       32       98 </v>
   <v type="int" >        4       25       32       33       98 </v>
   <v type="int" >        4       25       33       98       99 </v>
   <v type="int" >        4       24       25       90       98 </v>
   <v type="int" >        4       25       90       91       98 </v>
   <v type="int" >        4       25       91       98       99 </v>
   <v type="int" >        4       15       16       24       90 </v>
   <v type="int" >        4       16       24       25       90 </v>
   <v type="int" >        4       16       25       90       91 </v>
   <v type="int" >        4       15       16       81       90 </v>
   <v type="int" >        4       16       81       82       90 </v>
   <v type="int" >        4       16       82       90       91 </v>
   <v type="int" >        4        5        6       15       81 </v>
   <v type="int" >        4        6       15       16       81 </v>
   <v type="int" >        4        6       16       81       82 </v>
   <v type="int" >        4        5        6       71       81 </v>
   <v type="int" >        4        6       71       72       81 </v>
   <v type="int" >        4        6       72       81       82 </v>
   <v type="int" >        4       46       47       52      112 </v>
   <v type="int" >        4       47       52      112      113 </v>
   <v type="int" >        4       52      112      113      118 </v>
   <v type="int" >        4       47       48       53      113 </v>
   <v type="int" >        4       47       52       53      113 </v>
   <v type="int" >        4       52       53      113      118 </v>
   <v type="int" >        4       48       53      113      114 </v>
   <v type="int" >        4       53      113      114      119 </v>
   <v type="int" >        4       53      113      118      119 </v>
   <v type="int" >        4       48       49       54      114 </v>
   <v type="int" >        4       48       53       54      114 </v>
   <v type="int" >        4       53       54      114      119 </v>
   <v type="int" >        4       49       54      114      115 </v>
   <v type="int" >        4       54      114      115      120 </v>
   <v type="int" >        4       54      114      119      120 </v>
   <v type="int" >        4       49       50       55      115 </v>
   <v type="int" >        4       49       54       55      115 </v>
   <v type="int" >        4       54       55      115      120 </v>
   <v type="int" >        4       50       55      115      116 </v>
   <v type="int" >        4       55      115      116      121 </v>
   <v type="int" >        4       55      115      120      121 </v>
   <v type="int" >        4       50       51       56      116 </v>
   <v type="int" >        4       50       55       56      116 </v>
   <v type="int" >        4       55       56      116      121 </v>
   <v type="int" >        4       51       56      116      117 </v>
   <v type="int" >        4       56      116      117      122 </v>
   <v type="int" >        4       56      116      121      122 </v>
   <v type="int" >        4       50       51       55      117 </v>
   <v type="int" >        4       51       55       56      117 </v>
   <v type="int" >        4       55       56      117      122 </v>
   <v type="int" >        4       50       55      116      117 </v>
   <v type="int" >        4       55      116      117      121 </v>
   <v type="int" >        4       55      117      121      122 </v>
   <v type="int" >        4       49       50       54      116 </v>
   <v type="int" >        4       50       54       55      116 </v>
   <v type="int" >        4       54       55      116      121 </v>
   <v type="int" >        4       49       54      115      116 </v>
   <v type="int" >        4       54      115      116      120 </v>
   <v type="int" >        4       54      116      120      121 </v>
   <v type="int" >        4       48       49       53      115 </v>
   <v type="int" >        4       49       53       54      115 </v>
   <v type="int" >        4       53       54      115      120 </v>
   <v type="int" >        4       48       53      114      115 </v>
   <v type="int" >        4       53      114      115      119 </v>
   <v type="int" >        4       53      115      119      120 </v>
   <v type="int" >        4       47       48       52      114 </v>
   <v type="int" >        4       48       52       53      114 </v>
   <v type="int" >        4       52       53      114      119 </v>
   <v type="int" >        4       47       52      113      114 </v>
   <v type="int" >        4       52      113      114      118 </v>
   <v type="int" >        4       52      114      118      119 </v>
   <v type="int" >        4       46       47       47      113 </v>
   <v type="int" >        4       47       47       52      113 </v>
   <v type="int" >        4       47       52      113      118 </v>
   <v type="int" >        4       46       47      112      113 </v>
   <v type="int" >        4       47      112      113      113 </v>
   <v type="int" >        4       47      113      113      118 </v>
   <v type="int" >        4       40       41       46      112 </v>
   <v type="int" >        4       41       46       47      112 </v>
   <v type="int" >        4       41       47      112      113 </v>
   <v type="int" >        4       40       41      106      112 </v>
   <v type="int" >        4       41      106      107      112 </v>
   <v type="int" >        4       41      107      112      113 </v>
   <v type="int" >        4       33       34       40      106 </v>
   <v type="int" >        4       34       40       41      106 </v>
   <v type="int" >        4       34       41      106      107 </v>
   <v type="int" >        4       33       34       99      106 </v>
   <v type="int" >        4       34       99      100      106 </v>
   <v type="int" >        4       34      100      106      107 </v>
   <v type="int" >        4       25       26       33       99 </v>
   <v type="int" >        4       26       33       34       99 </v>
   <v type="int" >        4       26       34       99      100 </v>
   <v type="int" >        4       25       26       91       99 </v>
   <v type="int" >        4       26       91       92       99 </v>
   <v type="int" >        4       26       92       99      100 </v>
   <v type="int" >        4       16       17       25       91 </v>
   <v type="int" >        4       17       25       26       91 </v>
   <v type="int" >        4       17       26       91       92 </v>
   <v type="int" >        4       16       17       82       91 </v>
   <v type="int" >        4       17       82       83       91 </v>
   <v type="int" >        4       17       83       91       92 </v>
   <v type="int" >        4        6        7       16       82 </v>
   <v type="int" >        4        7       16       17       82 </v>
   <v type="int" >        4        7       17       82       83 </v>
   <v type="int" >        4        6        7       72       82 </v>
   <v type="int" >        4        7       72       73       82 </v>
   <v type="int" >        4        7       73       82       83 </v>
   <v type="int" >        4       52       53       57      118 </v>
   <v type="int" >        4       53       57      118      119 </v>
   <v type="int" >        4       57      118      119      123 </v>
   <v type="int" >        4       53       54       58      119 </v>
   <v type="int" >        4       53       57       58      119 </v>
   <v type="int" >        4       57       58      119      123 </v>
   <v type="int" >        4       54       58      119      120 </v>
   <v type="int" >        4       58      119      120      124 </v>
   <v type="int" >        4       58      119      123      124 </v>
   <v type="int" >        4       54       55       59      120 </v>
   <v type="int" >        4       54       58       59      120 </v>
   <v type="int" >        4       58       59      120      124 </v>
   <v type="int" >        4       55       59      120      121 </v>
   <v type="int" >        4       59      120      121      125 </v>
   <v type="int" >        4       59      120      124      125 </v>
   <v type="int" >        4       55       56       60      121 </v>
   <v type="int" >        4       55       59       60      121 </v>
   <v type="int" >        4       59       60      121      125 </v>
   <v type="int" >        4       56       60      121      122 </v>
   <v type="int" >        4       60      121      122      126 </v>
   <v type="int" >        4       60      121      125      126 </v>
   <v type="int" >        4       55       56       59      122 </v>
   <v type="int" >        4       56       59       60      122 </v>
   <v type="int" >        4       59       60      122      126 </v>
   <v type="int" >        4       55       59      121      122 </v>
   <v type="int" >        4       59      121      122      125 </v>
   <v type="int" >        4       59      122      125      126 </v>
   <v type="int" >        4       54       55       58      121 </v>
   <v type="int" >        4       55       58       59      121 </v>
   <v type="int" >        4       58       59      121      125 </v>
   <v type="int" >        4       54       58      120      121 </v>
   <v type="int" >        4       58      120      121      124 </v>
   <v type="int" >        4       58      121      124      125 </v>
   <v type="int" >        4       53       54       57      120 </v>
   <v type="int" >        4       54       57       58      120 </v>
   <v type="int" >        4       57       58      120      124 </v>
   <v type="int" >        4       53       57      119      120 </v>
   <v type="int" >        4       57      119      120      123 </v>
   <v type="int" >        4       57      120      123      124 </v>
   <v type="int" >        4       52       53       53      119 </v>
   <v type="int" >        4       53       53       57      119 </v>
   <v type="int" >        4       53       57      119      123 </v>
   <v type="int" >        4       52       53      118      119 </v>
   <v type="int" >        4       53      118      119      119 </v>
   <v type="int" >        4       53      119      119      123 </v>
   <v type="int" >        4       47       48       52      118 </v>
   <v type="int" >        4       48       52       53      118 </v>
   <v type="int" >        4       48       53      118      119 </v>
   <v type="int" >        4       47       48      113      118 </v>
   <v type="int" >        4       48      113      114      118 </v>
   <v type="int" >        4       48      114      118      119 </v>
   <v type="int" >        4       41       42       47      113 </v>
   <v type="int" >        4       42       47       48      113 </v>
   <v type="int" >        4       42       48      113      114 </v>
   <v type="int" >        4       41       42      107      113 </v>
   <v type="int" >        4       42      107      108      113 </v>
   <v type="int" >        4       42      108      113      114 </v>
   <v type="int" >        4       34       35       41      107 </v>
   <v type="int" >        4       35       41       42      107 </v>
   <v type="int" >        4       35       42      107      108 </v>
   <v type="int" >        4       34       35      100      107 </v>
   <v type="int" >        4       35      100      101      107 </v>
   <v type="int" >        4       35      101      107      108 </v>
   <v type="int" >        4       26       27       34      100 </v>
   <v type="int" >        4       27       34       35      100 </v>
   <v type="int" >        4       27       35      100      101 </v>
   <v type="int" >        4       26       27       92      100 </v>
   <v type="int" >        4       27       92       93      100 </v>
   <v type="int" >        4       27       93      100      101 </v>
   <v type="int" >        4       17       18       26       92 </v>
   <v type="int" >        4       18       26       27       92 </v>
   <v type="int" >        4       18       27       92       93 </v>
   <v type="int" >        4       17       18       83       92 </v>
   <v type="int" >        4       18       83       84       92 </v>
   <v type="int" >        4       18       84       92       93 </v>
   <v type="int" >        4        7        8       17       83 </v>
   <v type="int" >        4        8       17       18       83 </v>
   <v type="int" >        4        8       18       83       84 </v>
   <v type="int" >        4        7        8       73       83 </v>
   <v type="int" >        4        8       73       74       83 </v>
   <v type="int" >        4        8       74       83       84 </v>
   <v type="int" >        4       57       58       61      123 </v>
   <v type="int" >        4       58       61      123      124 </v>
   <v type="int" >        4       61      123      124      127 </v>
   <v type="int" >        4       58       59       62      124 </v>
   <v type="int" >        4       58       61       62      124 </v>
   <v type="int" >        4       61       62      124      127 </v>
   <v type="int" >        4       59       62      124      125 </v>
   <v type="int" >        4       62      124      125      128 </v>
   <v type="int" >        4       62      124      127      128 </v>
   <v type="int" >        4       59       60       63      125 </v>
   <v type="int" >        4       59       62       63      125 </v>
   <v type="int" >        4       62       63      125      128 </v>
   <v type="int" >        4       60       63      125      126 </v>
   <v type="int" >        4       63      125      126      129 </v>
   <v type="int" >        4       63      125      128      129 </v>
   <v type="int" >        4       59       60       62      126 </v>
   <v type="int" >        4       60       62       63      126 </v>
   <v type="int" >        4       62       63      126      129 </v>
   <v type="int" >        4       59       62      125      126 </v>
   <v type="int" >        4       62      125      126      128 </v>
   <v type="int" >        4       62      126      128      129 </v>
   <v type="int" >        4       58       59       61      125 </v>
   <v type="int" >        4       59       61       62      125 </v>
   <v type="int" >        4       61       62      125      128 </v>
   <v type="int" >        4       58       61      124      125 </v>
   <v type="int" >        4       61      124      125      127 </v>
   <v type="int" >        4       61      125      127      128 </v>
   <v type="int" >        4       57       58       58      124 </v>
   <v type="int" >        4       58       58       61      124 </v>
   <v type="int" >        4       58       61      124      127 </v>
   <v type="int" >        4       57       58      123      124 </v>
   <v type="int" >        4       58      123      124      124 </v>
   <v type="int" >        4       58      124      124      127 </v>
   <v type="int" >        4       53       54       57      123 </v>
   <v type="int" >        4       54       57       58      123 </v>
   <v type="int" >        4       54       58      123      124 </v>
   <v type="int" >        4       53       54      119      123 </v>
   <v type="int" >        4       54      119      120      123 </v>
   <v type="int" >        4       54      120      123      124 </v>
   <v type="int" >        4       48       49       53      119 </v>
   <v type="int" >        4       49       53       54      119 </v>
   <v type="int" >        4       49       54      119      120 </v>
   <v type="int" >        4       48       49      114      119 </v>
   <v type="int" >        4       49      114      115      119 </v>
   <v type="int" >        4       49      115      119      120 </v>
   <v type="int" >        4       42       43       48      114 </v>
   <v type="int" >        4       43       48       49      114 </v>
   <v type="int" >        4       43       49      114      115 </v>
   <v type="int" >        4       42       43      108      114 </v>
   <v type="int" >        4       43      108      109      114 </v>
   <v type="int" >        4       43      109      114      115 </v>
   <v type="int" >        4       35       36       42      108 </v>
   <v type="int" >        4       36       42       43      108 </v>
   <v type="int" >        4       36       43      108      109 </v>
   <v type="int" >        4       35       36      101      108 </v>
   <v type="int" >        4       36      101      102      108 </v>
   <v type="int" >        4       36      102      108      109 </v>
   <v type="int" >        4       27       28       35      101 </v>
   <v type="int" >        4       28       35       36      101 </v>
   <v type="int" >        4       28       36      101      102 </v>
   <v type="int" >        4       27       28       93      101 </v>
   <v type="int" >        4       28       93       94      101 </v>
   <v type="int" >        4       28       94      101      102 </v>
   <v type="int" >        4       18       19       27       93 </v>
   <v type="int" >        4       19       27       28       93 </v>
   <v type="int" >        4       19       28       93       94 </v>
   <v type="int" >        4       18       19       84       93 </v>
   <v type="int" >        4       19       84       85       93 </v>
   <v type="int" >        4       19       85       93       94 </v>
   <v type="int" >        4        8        9       18       84 </v>
   <v type="int" >        4        9       18       19       84 </v>
   <v type="int" >        4        9       19       84       85 </v>
   <v type="int" >        4        8        9       74       84 </v>
   <v type="int" >        4        9       74       75       84 </v>
   <v type="int" >        4        9       75       84       85 </v>
   <v type="int" >        4       61       62       64      127 </v>
   <v type="int" >        4       62       64      127      128 </v>
   <v type="int" >        4       64      127      128      130 </v>
   <v type="int" >        4       62       63       65      128 </v>
   <v type="int" >        4       62       64       65      128 </v>
   <v type="int" >        4       64       65      128      130 </v>
   <v type="int" >        4       63       65      128      129 </v>
   <v type="int" >        4       65      128      129      131 </v>
   <v type="int" >        4       65      128      130      131 </v>
   <v type="int" >        4       62       63       64      129 </v>
   <v type="int" >        4       63       64       65      129 </v>
   <v type="int" >        4       64       65      129      131 </v>
   <v type="int" >        4       62       64      128      129 </v>
   <v type="int" >        4       64      128      129      130 </v>
   <v type="int" >        4       64      129      130      131 </v>
   <v type="int" >        4       61       62       62      128 </v>
   <v type="int" >        4       62       62       64      128 </v>
   <v type="int" >        4       62       64      128      130 </v>
   <v type="int" >        4       61       62      127      128 </v>
   <v type="int" >        4       62      127      128      128 </v>
   <v type="int" >        4       62      128      128      130 </v>
   <v type="int" >        4       58       59       61      127 </v>
   <v type="int" >        4       59       61       62      127 </v>
   <v type="int" >        4       59       62      127      128 </v>
   <v type="int" >        4       58       59      124      127 </v>
   <v type="int" >        4       59      124      125      127 </v>
   <v type="int" >        4       59      125      127      128 </v>
   <v type="int" >        4       54       55       58      124 </v>
   <v type="int" >        4       55       58       59      124 </v>
   <v type="int" >        4       55       59      124      125 </v>
   <v type="int" >        4       54       55      120      124 </v>
   <v type="int" >        4       55      120      121      124 </v>
   <v type="int" >        4       55      121      124      125 </v>
   <v type="int" >        4       49       50       54      120 </v>
   <v type="int" >        4       50       54       55      120 </v>
   <v type="int" >        4       50       55      120      121 </v>
   <v type="int" >        4       49       50      115      120 </v>
   <v type="int" >        4       50      115      116      120 </v>
   <v type="int" >        4       50      116      120      121 </v>
   <v type="int" >        4       43       44       49      115 </v>
   <v type="int" >        4       44       49       50      115 </v>
   <v type="int" >        4       44       50      115      116 </v>
   <v type="int" >        4       43       44      109      115 </v>
   <v type="int" >        4       44      109      110      115 </v>
   <v type="int" >        4       44      110      115      116 </v>
   <v type="int" >        4       36       37       43      109 </v>
   <v type="int" >        4       37       43       44      109 </v>
   <v type="int" >        4       37       44      109      110 </v>
   <v type="int" >        4       36       37      102      109 </v>
   <v type="int" >        4       37      102      103      109 </v>
   <v type="int" >        4       37      103      109      110 </v>
   <v type="int" >        4       28       29       36      102 </v>
   <v type="int" >        4       29       36       37      102 </v>
   <v type="int" >        4       29       37      102      103 </v>
   <v type="int" >        4       28       29       94      102 </v>
   <v type="int" >        4       29       94       95      102 </v>
   <v type="int" >        4       29       95      102      103 </v>
   <v type="int" >        4       19       20       28       94 </v>
   <v type="int" >        4       20       28       29       94 </v>
   <v type="int" >        4       20       29       94       95 </v>
   <v type="int" >        4       19       20       85       94 </v>
   <v type="int" >        4       20       85       86       94 </v>
   <v type="int" >        4       20       86       94       95 </v>
   <v type="int" >        4        9       10       19       85 </v>
   <v type="int" >        4       10       19       20       85 </v>
   <v type="int" >        4       10       20       85       86 </v>
   <v type="int" >        4        9       10       75       85 </v>
   <v type="int" >        4       10       75       76       85 </v>
   <v type="int" >        4       10       76       85       86 </v>
   <v type="int" >        4       64       65       66      130 </v>
   <v type="int" >        4       65       66      130      131 </v>
   <v type="int" >        4       66      130      131      132 </v>
   <v type="int" >        4       64       65       65      131 </v>
   <v type="int" >        4       65       65       66      131 </v>
   <v type="int" >        4       65       66      131      132 </v>
   <v type="int" >        4       64       65      130      131 </v>
   <v type="int" >        4       65      130      131      131 </v>
   <v type="int" >        4       65      131      131      132 </v>
   <v type="int" >        4       62       63       64      130 </v>
   <v type="int" >        4       63       64       65      130 </v>
   <v type="int" >        4       63       65      130      131 </v>
   <v type="int" >        4       62       63      128      130 </v>
   <v type="int" >        4       63      128      129      130 </v>
   <v type="int" >        4       63      129      130      131 </v>
   <v type="int" >        4       59       60       62      128 </v>
   <v type="int" >        4       60       62       63      128 </v>
   <v type="int" >        4       60       63      128      129 </v>
   <v type="int" >        4       59       60      125      128 </v>
   <v type="int" >        4       60      125      126      128 </v>
   <v type="int" >        4       60      126      128      129 </v>
   <v type="int" >        4       55       56       59      125 </v>
[...]
       <r>    3.3063    0.0000 </r>
       <r>    3.5064    0.0000 </r>
      </set>
      <set comment="kpoint 194">
       <r>   -3.6523    1.0000 </r>
       <r>   -3.4399    1.0000 </r>
       <r>   -2.1915    1.0000 </r>
       <r>   -1.8148    1.0000 </r>
       <r>   -1.5464    1.0000 </r>
       <r>   -1.5118    1.0000 </r>
       <r>   -1.3093    1.0000 </r>
       <r>   -1.1189    1.0000 </r>
       <r>   -0.7772    1.0000 </r>
       <r>   -0.4928    1.0000 </r>
       <r>   -0.3972    1.0000 </r>
       <r>    0.4079    1.0000 </r>
       <r>    0.5872    1.0000 </r>
       <r>    2.7908    0.0000 </r>
       <r>    2.9390    0.0000 </r>
       <r>    3.1403    0.0000 </r>
       <r>    3.3365    0.0000 </r>
       <r>    3.4553    0.0000 </r>
       <r>    3.5725    0.0000 </r>
      </set>
      <set comment="kpoint 195">
       <r>   -3.6455    1.0000 </r>
       <r>   -3.4919    1.0000 </r>
       <r>   -2.1886    1.0000 </r>
       <r>   -1.8701    1.0000 </r>
       <r>   -1.5013    1.0000 </r>
       <r>   -1.4464    1.0000 </r>
       <r>   -1.3726    1.0000 </r>
       <r>   -1.2045    1.0000 </r>
       <r>   -0.7716    1.0000 </r>
       <r>   -0.4290    1.0000 </r>
       <r>   -0.4256    1.0000 </r>
       <r>    0.5471    1.0000 </r>
       <r>    0.6348    1.0000 </r>
       <r>    2.8461    0.0000 </r>
       <r>    2.9864    0.0000 </r>
       <r>    3.3348    0.0000 </r>
       <r>    3.4383    0.0000 </r>
       <r>    3.5879    0.0000 </r>
       <r>    3.5979    0.0000 </r>
      </set>
      <set comment="kpoint 196">
       <r>   -3.7071    1.0000 </r>
       <r>   -3.5384    1.0000 </r>
       <r>   -2.1834    1.0000 </r>
       <r>   -1.7389    1.0000 </r>
       <r>   -1.6896    1.0000 </r>
       <r>   -1.4066    1.0000 </r>
       <r>   -1.3246    1.0000 </r>
       <r>   -1.2831    1.0000 </r>
       <r>   -0.5913    1.0000 </r>
       <r>   -0.5632    1.0000 </r>
       <r>   -0.5111    1.0000 </r>
       <r>    0.6826    1.0000 </r>
       <r>    0.7836    1.0000 </r>
       <r>    3.2843    0.0000 </r>
       <r>    3.3351    0.0000 </r>
       <r>    3.4049    0.0000 </r>
       <r>    3.5772    0.0000 </r>
       <r>    3.6277    0.0000 </r>
       <r>    3.7884    0.0000 </r>
      </set>
      <set comment="kpoint 197">
       <r>   -3.7255    1.0000 </r>
       <r>   -3.5728    1.0000 </r>
       <r>   -2.1738    1.0000 </r>
       <r>   -1.7789    1.0000 </r>
       <r>   -1.6595    1.0000 </r>
       <r>   -1.4224    1.0000 </r>
       <r>   -1.3259    1.0000 </r>
       <r>   -1.3228    1.0000 </r>
       <r>   -0.6267    1.0000 </r>
       <r>   -0.5667    1.0000 </r>
       <r>   -0.4678    1.0000 </r>
       <r>    0.8164    1.0000 </r>
       <r>    0.8353    1.0000 </r>
       <r>    3.3766    0.0000 </r>
       <r>    3.4403    0.0000 </r>
       <r>    3.5418    0.0000 </r>
       <r>    3.6481    0.0000 </r>
       <r>    3.8012    0.0000 </r>
       <r>    3.9986    0.0000 </r>
      </set>
      <set comment="kpoint 198">
       <r>   -3.7529    1.0000 </r>
       <r>   -3.6006    1.0000 </r>
       <r>   -2.1610    1.0000 </r>
       <r>   -1.7219    1.0000 </r>
       <r>   -1.7219    1.0000 </r>
       <r>   -1.5295    1.0000 </r>
       <r>   -1.2911    1.0000 </r>
       <r>   -1.2911    1.0000 </r>
       <r>   -0.7148    1.0000 </r>
       <r>   -0.4837    1.0000 </r>
       <r>   -0.4837    1.0000 </r>
       <r>    0.9190    1.0000 </r>
       <r>    0.9190    1.0000 </r>
       <r>    3.4809    0.0000 </r>
       <r>    3.6234    0.0000 </r>
       <r>    3.6234    0.0000 </r>
       <r>    3.6628    0.0000 </r>
       <r>    4.2642    0.0000 </r>
       <r>    4.2645    0.0000 </r>
      </set>
     </set>
    </set>
   </array>
  </eigenvalues>
  <separator name="orbital magnetization" >
   <v name="MAGDIPOLOUT">      0.00000000      0.00000000      0.00000000</v>
  </separator>
  <dos>
   <i name="efermi">      1.74239760 </i>
   <total>
    <array>
     <dimension dim="1">gridpoints</dimension>
     <dimension dim="2">spin</dimension>
     <field>energy</field>
     <field>total</field>
     <field>integrated</field>
     <set>
      <set comment="spin 1">
       <r>    -8.9854     0.0000     0.0000 </r>
       <r>    -8.9346     0.0000     0.0000 </r>
       <r>    -8.8837     0.0000     0.0000 </r>
       <r>    -8.8329     0.0000     0.0000 </r>
       <r>    -8.7821     0.0000     0.0000 </r>
       <r>    -8.7313     0.0000     0.0000 </r>
       <r>    -8.6804     0.0000     0.0000 </r>
       <r>    -8.6296     0.0000     0.0000 </r>
       <r>    -8.5788     0.0000     0.0000 </r>
       <r>    -8.5279     0.0000     0.0000 </r>
       <r>    -8.4771     0.0000     0.0000 </r>
       <r>    -8.4263     0.0000     0.0000 </r>
       <r>    -8.3754     0.0000     0.0000 </r>
       <r>    -8.3246     0.0000     0.0000 </r>
       <r>    -8.2738     0.0000     0.0000 </r>
       <r>    -8.2229     0.0000     0.0000 </r>
       <r>    -8.1721     0.0000     0.0000 </r>
       <r>    -8.1213     0.0000     0.0000 </r>
       <r>    -8.0704     0.0000     0.0000 </r>
       <r>    -8.0196     0.0000     0.0000 </r>
       <r>    -7.9688     0.0000     0.0000 </r>
       <r>    -7.9179     0.0000     0.0000 </r>
       <r>    -7.8671     0.0000     0.0000 </r>
       <r>    -7.8163     0.0000     0.0000 </r>
       <r>    -7.7654     0.0000     0.0000 </r>
       <r>    -7.7146     0.0000     0.0000 </r>
       <r>    -7.6638     0.0000     0.0000 </r>
       <r>    -7.6129     0.0000     0.0000 </r>
       <r>    -7.5621     0.0000     0.0000 </r>
       <r>    -7.5113     0.0000     0.0000 </r>
       <r>    -7.4604     0.0000     0.0000 </r>
       <r>    -7.4096     0.0000     0.0000 </r>
       <r>    -7.3588     0.0000     0.0000 </r>
       <r>    -7.3079     0.0000     0.0000 </r>
       <r>    -7.2571     0.0000     0.0000 </r>
       <r>    -7.2063     0.0000     0.0000 </r>
       <r>    -7.1554     0.0000     0.0000 </r>
       <r>    -7.1046     0.0000     0.0000 </r>
       <r>    -7.0538     0.0000     0.0000 </r>
       <r>    -7.0029     0.0000     0.0000 </r>
       <r>    -6.9521     0.2146     0.0036 </r>
       <r>    -6.9013     0.3000     0.0194 </r>
       <r>    -6.8504     0.2605     0.0327 </r>
       <r>    -6.7996     0.2984     0.0469 </r>
       <r>    -6.7488     0.3093     0.0628 </r>
       <r>    -6.6979     0.2750     0.0774 </r>
       <r>    -6.6471     0.2838     0.0916 </r>
       <r>    -6.5963     0.2926     0.1063 </r>
       <r>    -6.5454     0.3018     0.1214 </r>
       <r>    -6.4946     0.3151     0.1371 </r>
       <r>    -6.4438     0.2944     0.1526 </r>
       <r>    -6.3929     0.2969     0.1676 </r>
       <r>    -6.3421     0.2993     0.1828 </r>
       <r>    -6.2913     0.3018     0.1980 </r>
       <r>    -6.2404     0.3099     0.2136 </r>
       <r>    -6.1896     0.3175     0.2295 </r>
       <r>    -6.1388     0.3247     0.2459 </r>
       <r>    -6.0879     0.3139     0.2621 </r>
       <r>    -6.0371     0.3149     0.2781 </r>
       <r>    -5.9863     0.3179     0.2942 </r>
       <r>    -5.9354     0.3212     0.3104 </r>
       <r>    -5.8846     0.3260     0.3269 </r>
       <r>    -5.8338     0.3309     0.3436 </r>
       <r>    -5.7829     0.3357     0.3605 </r>
       <r>    -5.7321     0.3405     0.3777 </r>
       <r>    -5.6813     0.3420     0.3951 </r>
       <r>    -5.6304     0.3429     0.4124 </r>
       <r>    -5.5796     0.3463     0.4299 </r>
       <r>    -5.5288     0.3496     0.4476 </r>
       <r>    -5.4779     0.3534     0.4655 </r>
       <r>    -5.4271     0.3575     0.4836 </r>
       <r>    -5.3763     0.3615     0.5018 </r>
       <r>    -5.3254     0.3681     0.5204 </r>
       <r>    -5.2746     0.3748     0.5393 </r>
       <r>    -5.2238     0.3802     0.5585 </r>
       <r>    -5.1729     0.3849     0.5779 </r>
       <r>    -5.1221     0.3899     0.5976 </r>
       <r>    -5.0713     0.7304     0.6223 </r>
       <r>    -5.0204     0.7484     0.6635 </r>
       <r>    -4.9696     0.8085     0.7027 </r>
       <r>    -4.9188     0.8288     0.7451 </r>
       <r>    -4.8680     0.8173     0.7864 </r>
       <r>    -4.8171     0.8459     0.8287 </r>
       <r>    -4.7663     0.8741     0.8724 </r>
       <r>    -4.7155     0.8803     0.9170 </r>
       <r>    -4.6646     0.9062     0.9624 </r>
       <r>    -4.6138     0.9380     1.0093 </r>
       <r>    -4.5630     0.9642     1.0577 </r>
       <r>    -4.5121     0.9936     1.1074 </r>
       <r>    -4.4613     1.0246     1.1587 </r>
       <r>    -4.4105     1.0555     1.2116 </r>
       <r>    -4.3596     1.0818     1.2660 </r>
       <r>    -4.3088     1.1637     1.3223 </r>
       <r>    -4.2580     1.2742     1.3849 </r>
       <r>    -4.2071     1.3461     1.4515 </r>
       <r>    -4.1563     1.4792     1.5224 </r>
       <r>    -4.1055     1.6402     1.6025 </r>
       <r>    -4.0546     2.3619     1.6954 </r>
       <r>    -4.0038     3.4556     1.8602 </r>
       <r>    -3.9530     2.2794     2.0051 </r>
       <r>    -3.9021     2.0497     2.1123 </r>
       <r>    -3.8513     1.9517     2.2141 </r>
       <r>    -3.8005     1.7727     2.3098 </r>
       <r>    -3.7496     1.7988     2.3968 </r>
       <r>    -3.6988     2.4777     2.5150 </r>
       <r>    -3.6480     4.0573     2.6704 </r>
       <r>    -3.5971     2.5721     2.8177 </r>
       <r>    -3.5463     2.8736     2.9673 </r>
       <r>    -3.4955     2.7731     3.1053 </r>
       <r>    -3.4446     2.8639     3.2559 </r>
       <r>    -3.3938     4.4628     3.4424 </r>
       <r>    -3.3430     4.8225     3.6794 </r>
       <r>    -3.2921     5.0763     3.9407 </r>
       <r>    -3.2413     3.5483     4.1562 </r>
       <r>    -3.1905     3.3016     4.3293 </r>
       <r>    -3.1396     3.3852     4.4947 </r>
       <r>    -3.0888     3.0871     4.6604 </r>
       <r>    -3.0380     3.0830     4.8161 </r>
       <r>    -2.9871     2.7551     4.9647 </r>
       <r>    -2.9363     3.1426     5.1154 </r>
       <r>    -2.8855     3.0515     5.2683 </r>
       <r>    -2.8346     3.0719     5.4236 </r>
       <r>    -2.7838     3.1793     5.5832 </r>
       <r>    -2.7330     3.4587     5.7502 </r>
       <r>    -2.6821     2.5083     5.8928 </r>
       <r>    -2.6313     2.4370     6.0179 </r>
       <r>    -2.5805     2.4065     6.1411 </r>
       <r>    -2.5296     2.2941     6.2610 </r>
       <r>    -2.4788     4.3331     6.4405 </r>
       <r>    -2.4280     5.7247     6.6903 </r>
       <r>    -2.3771     8.6519     7.0828 </r>
       <r>    -2.3263     9.1683     7.5332 </r>
       <r>    -2.2755     7.3190     7.9650 </r>
       <r>    -2.2246     7.5022     8.3580 </r>
       <r>    -2.1738     9.5644     8.8706 </r>
       <r>    -2.1230     4.5637     9.1640 </r>
       <r>    -2.0721     5.6895     9.4086 </r>
       <r>    -2.0213     5.0341     9.6939 </r>
       <r>    -1.9705     4.1259     9.9343 </r>
       <r>    -1.9196     4.1673    10.1476 </r>
       <r>    -1.8688     4.5090    10.3485 </r>
       <r>    -1.8180     3.6597    10.5384 </r>
       <r>    -1.7671     3.5320    10.7233 </r>
       <r>    -1.7163     2.1589    10.8670 </r>
       <r>    -1.6655     2.8234    10.9933 </r>
       <r>    -1.6146     2.1825    11.1130 </r>
       <r>    -1.5638     2.4273    11.2278 </r>
       <r>    -1.5130     2.3208    11.3483 </r>
       <r>    -1.4621     2.9561    11.4786 </r>
       <r>    -1.4113     3.3848    11.6568 </r>
       <r>    -1.3605     6.5127    11.8656 </r>
       <r>    -1.3096    10.4366    12.2570 </r>
       <r>    -1.2588     8.4541    12.7814 </r>
       <r>    -1.2080     7.5405    13.1976 </r>
       <r>    -1.1571     6.9458    13.5267 </r>
       <r>    -1.1063     8.1061    13.8977 </r>
       <r>    -1.0555    14.4093    14.3853 </r>
       <r>    -1.0047     7.2181    14.7510 </r>
       <r>    -0.9538     5.3446    15.0272 </r>
       <r>    -0.9030     4.5231    15.2573 </r>
       <r>    -0.8522     5.1241    15.5167 </r>
       <r>    -0.8013     6.3234    15.7969 </r>
       <r>    -0.7505     4.7960    16.0952 </r>
       <r>    -0.6997     6.2126    16.3893 </r>
       <r>    -0.6488     8.6276    16.7484 </r>
       <r>    -0.5980     6.1594    17.1250 </r>
       <r>    -0.5472     6.9381    17.4832 </r>
       <r>    -0.4963     7.6983    17.8444 </r>
       <r>    -0.4455     8.0318    18.2494 </r>
       <r>    -0.3947     6.1497    18.6484 </r>
       <r>    -0.3438     8.0326    18.9787 </r>
       <r>    -0.2930     6.2465    19.3604 </r>
       <r>    -0.2422     4.2840    19.5901 </r>
       <r>    -0.1913     4.4992    19.8090 </r>
       <r>    -0.1405     5.0172    20.0657 </r>
       <r>    -0.0897     6.4163    20.3635 </r>
       <r>    -0.0388     6.1571    20.6975 </r>
       <r>     0.0120     5.6937    20.9971 </r>
       <r>     0.0628     5.5234    21.2821 </r>
       <r>     0.1137     5.6795    21.5650 </r>
       <r>     0.1645     6.3095    21.8697 </r>
       <r>     0.2153     5.8834    22.1860 </r>
       <r>     0.2662     5.2080    22.4672 </r>
       <r>     0.3170     5.7469    22.7446 </r>
       <r>     0.3678     4.9928    23.0200 </r>
       <r>     0.4187     4.8837    23.2720 </r>
       <r>     0.4695     5.3165    23.5274 </r>
       <r>     0.5203     4.9341    23.7871 </r>
       <r>     0.5712     4.7611    24.0345 </r>
       <r>     0.6220     3.9518    24.2706 </r>
       <r>     0.6728     3.0535    24.4472 </r>
       <r>     0.7237     2.9870    24.5951 </r>
       <r>     0.7745     3.7607    24.7643 </r>
       <r>     0.8253     4.2783    24.9960 </r>
       <r>     0.8762     3.6133    25.1831 </r>
       <r>     0.9270     4.3125    25.3826 </r>
       <r>     0.9778     4.2558    25.6175 </r>
       <r>     1.0287     4.5863    25.8318 </r>
       <r>     1.0795     7.2618    26.1131 </r>
       <r>     1.1303     4.8780    26.3418 </r>
       <r>     1.1812     4.0463    26.5694 </r>
       <r>     1.2320     5.4456    26.7851 </r>
       <r>     1.2828     8.1488    27.1573 </r>
       <r>     1.3337     8.0023    27.5527 </r>
       <r>     1.3845     8.0191    27.9495 </r>
       <r>     1.4353     4.8790    28.2657 </r>
       <r>     1.4862     3.0225    28.4589 </r>
       <r>     1.5370     3.0621    28.6488 </r>
       <r>     1.5878     4.9759    28.8332 </r>
       <r>     1.6387     6.3299    29.1295 </r>
       <r>     1.6895     8.6361    29.6116 </r>
       <r>     1.7403     6.2504    29.9871 </r>
       <r>     1.7912     7.1833    30.3113 </r>
       <r>     1.8420     5.5431    30.6094 </r>
       <r>     1.8928     6.6453    30.9083 </r>
       <r>     1.9437     4.8346    31.2092 </r>
       <r>     1.9945     5.3775    31.4619 </r>
       <r>     2.0453     4.5959    31.7210 </r>
       <r>     2.0962     4.0734    31.9444 </r>
       <r>     2.1470     3.5854    32.1354 </r>
       <r>     2.1978     3.5033    32.3143 </r>
       <r>     2.2487     3.6292    32.4920 </r>
       <r>     2.2995     3.6568    32.6784 </r>
       <r>     2.3503     3.2143    32.8745 </r>
       <r>     2.4012     3.9938    33.0513 </r>
       <r>     2.4520     3.3414    33.2496 </r>
       <r>     2.5028     2.9325    33.4108 </r>
       <r>     2.5537     4.0171    33.5693 </r>
       <r>     2.6045     7.2869    33.8303 </r>
       <r>     2.6553     4.6905    34.2009 </r>
       <r>     2.7062     7.1677    34.5129 </r>
       <r>     2.7570     5.9606    34.8391 </r>
       <r>     2.8078     4.7299    35.1118 </r>
       <r>     2.8586     4.4388    35.3418 </r>
       <r>     2.9095     3.5075    35.5379 </r>
       <r>     2.9603     3.6981    35.7212 </r>
       <r>     3.0111     4.7307    35.9322 </r>
       <r>     3.0620     4.9904    36.1787 </r>
       <r>     3.1128     5.8817    36.4544 </r>
       <r>     3.1636     6.0640    36.7922 </r>
       <r>     3.2145     3.2037    37.0410 </r>
       <r>     3.2653     2.3252    37.1727 </r>
       <r>     3.3161     2.0152    37.2833 </r>
       <r>     3.3670     2.2160    37.3875 </r>
       <r>     3.4178     2.4708    37.5054 </r>
       <r>     3.4686     2.4116    37.6418 </r>
       <r>     3.5195     1.8977    37.7525 </r>
       <r>     3.5703     1.4229    37.8351 </r>
       <r>     3.6211     0.7479    37.8831 </r>
       <r>     3.6720     0.3705    37.9195 </r>
       <r>     3.7228     0.3042    37.9366 </r>
       <r>     3.7736     0.2379    37.9504 </r>
       <r>     3.8245     0.1665    37.9605 </r>
       <r>     3.8753     0.1529    37.9686 </r>
       <r>     3.9261     0.1393    37.9760 </r>
       <r>     3.9770     0.1257    37.9827 </r>
       <r>     4.0278     0.0979    37.9884 </r>
       <r>     4.0786     0.0768    37.9929 </r>
       <r>     4.1295     0.0558    37.9962 </r>
       <r>     4.1803     0.0347    37.9985 </r>
       <r>     4.2311     0.0137    37.9998 </r>
       <r>     4.2820     0.0000    38.0000 </r>
       <r>     4.3328     0.0000    38.0000 </r>
       <r>     4.3836     0.0000    38.0000 </r>
       <r>     4.4345     0.0000    38.0000 </r>
       <r>     4.4853     0.0000    38.0000 </r>
       <r>     4.5361     0.0000    38.0000 </r>
       <r>     4.5870     0.0000    38.0000 </r>
       <r>     4.6378     0.0000    38.0000 </r>
       <r>     4.6886     0.0000    38.0000 </r>
       <r>     4.7395     0.0000    38.0000 </r>
       <r>     4.7903     0.0000    38.0000 </r>
       <r>     4.8411     0.0000    38.0000 </r>
       <r>     4.8920     0.0000    38.0000 </r>
       <r>     4.9428     0.0000    38.0000 </r>
       <r>     4.9936     0.0000    38.0000 </r>
       <r>     5.0445     0.0000    38.0000 </r>
       <r>     5.0953     0.0000    38.0000 </r>
       <r>     5.1461     0.0000    38.0000 </r>
       <r>     5.1970     0.0000    38.0000 </r>
       <r>     5.2478     0.0000    38.0000 </r>
       <r>     5.2986     0.0000    38.0000 </r>
       <r>     5.3495     0.0000    38.0000 </r>
       <r>     5.4003     0.0000    38.0000 </r>
       <r>     5.4511     0.0000    38.0000 </r>
       <r>     5.5020     0.0000    38.0000 </r>
       <r>     5.5528     0.0000    38.0000 </r>
       <r>     5.6036     0.0000    38.0000 </r>
       <r>     5.6545     0.0000    38.0000 </r>
       <r>     5.7053     0.0000    38.0000 </r>
       <r>     5.7561     0.0000    38.0000 </r>
       <r>     5.8070     0.0000    38.0000 </r>
       <r>     5.8578     0.0000    38.0000 </r>
       <r>     5.9086     0.0000    38.0000 </r>
       <r>     5.9595     0.0000    38.0000 </r>
       <r>     6.0103     0.0000    38.0000 </r>
       <r>     6.0611     0.0000    38.0000 </r>
       <r>     6.1120     0.0000    38.0000 </r>
       <r>     6.1628     0.0000    38.0000 </r>
       <r>     6.2136     0.0000    38.0000 </r>
       <r>     6.2645     0.0000    38.0000 </r>
      </set>
     </set>
    </array>
   </total>
  </dos>
 </calculation>
 <structure name="finalpos" >
  <crystal>
   <varray name="basis" >
    <v>       3.16000000       0.00000000       0.00000000 </v>
    <v>       0.00000000       3.16000000       0.00000000 </v>
    <v>       0.00000000       0.00000000      15.80000000 </v>
   </varray>
   <i name="volume">    157.77248000 </i>
   <varray name="rec_basis" >
    <v>       0.31645570       0.00000000       0.00000000 </v>
    <v>       0.00000000       0.31645570       0.00000000 </v>
    <v>       0.00000000       0.00000000       0.06329114 </v>
   </varray>
  </crystal>
  <varray name="positions" >
   <v>       0.00000000       0.00000000       0.00000000 </v>
   <v>       0.50000000       0.50000000       0.10000000 </v>
   <v>       0.00000000       0.00000000       0.20000000 </v>
   <v>       0.50000000       0.50000000       0.30000000 </v>
   <v>       0.00000000       0.00000000       0.40000000 </v>
  </varray>
 </structure>
</modeling>
