unknown system                          
   2.76000000000000     
    -0.500000    0.500000    0.500000
     0.500000   -0.500000    0.500000
     0.500000    0.500000   -0.500000
   W 
     1
Direct
  0.000000  0.000000  0.000000
 
   20   20   20
 0.10601608442E+02 0.10208802870E+02 0.93320380056E+01 0.85719909031E+01 0.82518560824E+01
 0.81824661815E+01 0.79630522749E+01 0.74276705037E+01 0.67683210753E+01 0.62935605227E+01
 0.61455833652E+01 0.62935605227E+01 0.67683210753E+01 0.74276705037E+01 0.79630522749E+01
 0.81824661815E+01 0.82518560824E+01 0.85719909031E+01 0.93320380056E+01 0.10208802870E+02
 0.10208802870E+02 0.10070908346E+02 0.93430156109E+01 0.85529143974E+01 0.81326739233E+01
 0.80454264099E+01 0.79244346151E+01 0.75080571594E+01 0.68840563895E+01 0.63473430355E+01
 0.61043825303E+01 0.61516115468E+01 0.65043494851E+01 0.71072297105E+01 0.76991789092E+01
 0.80208656255E+01 0.80989466768E+01 0.82709971365E+01 0.88338488379E+01 0.96544522993E+01
 0.93320380056E+01 0.93430156109E+01 0.88147541550E+01 0.81178982700E+01 0.76789643572E+01
 0.75809990068E+01 0.75493215520E+01 0.72911620944E+01 0.67916248813E+01 0.62820622738E+01
 0.59882321694E+01 0.59570470264E+01 0.61795123539E+01 0.66640247058E+01 0.72466949241E+01
 0.76708573265E+01 0.78362933870E+01 0.79337103146E+01 0.82547266212E+01 0.88338488379E+01
 0.85719909031E+01 0.85529143974E+01 0.81178982700E+01 0.74995172360E+01 0.70535758398E+01
 0.69241272139E+01 0.69390946656E+01 0.68276180092E+01 0.64988708047E+01 0.60945750291E+01
 0.58131307658E+01 0.57349191076E+01 0.58641693796E+01 0.62131909740E+01 0.67265099312E+01
 0.72222932831E+01 0.75438639006E+01 0.77216015269E+01 0.79337103146E+01 0.82709971365E+01
 0.82518560824E+01 0.81326739233E+01 0.76789643572E+01 0.70535758398E+01 0.65438208396E+01
 0.63183981064E+01 0.62965915905E+01 0.62621566784E+01 0.60853548487E+01 0.58187909075E+01
 0.56008800441E+01 0.55124979382E+01 0.55873247906E+01 0.58283785030E+01 0.62317710751E+01
 0.67259965843E+01 0.71852829238E+01 0.75438639006E+01 0.78362933870E+01 0.80989466768E+01
 0.81824661815E+01 0.80454264099E+01 0.75809990068E+01 0.69241272139E+01 0.63183981064E+01
 0.59465924945E+01 0.58066956663E+01 0.57549438856E+01 0.56610071394E+01 0.55115002506E+01
 0.53757002538E+01 0.53086782479E+01 0.53529772129E+01 0.55291290755E+01 0.58223265035E+01
 0.62358754661E+01 0.67259965843E+01 0.72222932831E+01 0.76708573265E+01 0.80208656255E+01
 0.79630522749E+01 0.79244346151E+01 0.75493215520E+01 0.69390946656E+01 0.62965915905E+01
 0.58066956663E+01 0.55288683456E+01 0.53961599299E+01 0.53095699420E+01 0.52255393099E+01
 0.51581828290E+01 0.51285966903E+01 0.51677389836E+01 0.52970335854E+01 0.55170317636E+01
 0.58223265035E+01 0.62317710751E+01 0.67265099312E+01 0.72466949241E+01 0.76991789092E+01
 0.74276705037E+01 0.75080571594E+01 0.72911620944E+01 0.68276180092E+01 0.62621566784E+01
 0.57549438856E+01 0.53961599299E+01 0.51819457626E+01 0.50606773003E+01 0.49924066483E+01
 0.49631080244E+01 0.49709869169E+01 0.50246947515E+01 0.51306268677E+01 0.52970335854E+01
 0.55291290755E+01 0.58283785030E+01 0.62131909740E+01 0.66640247058E+01 0.71072297105E+01
 0.67683210753E+01 0.68840563895E+01 0.67916248813E+01 0.64988708047E+01 0.60853548487E+01
 0.56610071394E+01 0.53095699420E+01 0.50606773003E+01 0.49049741786E+01 0.48244536990E+01
 0.48047962620E+01 0.48383076977E+01 0.49147969204E+01 0.50246947515E+01 0.51677389836E+01
 0.53529772129E+01 0.55873247906E+01 0.58641693796E+01 0.61795123539E+01 0.65043494851E+01
 0.62935605227E+01 0.63473430355E+01 0.62820622738E+01 0.60945750291E+01 0.58187909075E+01
 0.55115002506E+01 0.52255393099E+01 0.49924066483E+01 0.48244536990E+01 0.47258396457E+01
 0.46999118048E+01 0.47421597891E+01 0.48383076977E+01 0.49709869169E+01 0.51285966903E+01
 0.53086782479E+01 0.55124979382E+01 0.57349191076E+01 0.59570470264E+01 0.61516115468E+01
 0.61455833652E+01 0.61043825303E+01 0.59882321694E+01 0.58131307658E+01 0.56008800441E+01
 0.53757002538E+01 0.51581828290E+01 0.49631080244E+01 0.48047962620E+01 0.46999118048E+01
 0.46629824652E+01 0.46999118048E+01 0.48047962620E+01 0.49631080244E+01 0.51581828290E+01
 0.53757002538E+01 0.56008800441E+01 0.58131307658E+01 0.59882321694E+01 0.61043825303E+01
 0.62935605227E+01 0.61516115468E+01 0.59570470264E+01 0.57349191076E+01 0.55124979382E+01
 0.53086782479E+01 0.51285966903E+01 0.49709869169E+01 0.48383076977E+01 0.47421597891E+01
 0.46999118048E+01 0.47258396457E+01 0.48244536990E+01 0.49924066483E+01 0.52255393099E+01
 0.55115002506E+01 0.58187909075E+01 0.60945750291E+01 0.62820622738E+01 0.63473430355E+01
 0.67683210753E+01 0.65043494851E+01 0.61795123539E+01 0.58641693796E+01 0.55873247906E+01
 0.53529772129E+01 0.51677389836E+01 0.50246947515E+01 0.49147969204E+01 0.48383076977E+01
 0.48047962620E+01 0.48244536990E+01 0.49049741786E+01 0.50606773003E+01 0.53095699420E+01
 0.56610071394E+01 0.60853548487E+01 0.64988708047E+01 0.67916248813E+01 0.68840563895E+01
 0.74276705037E+01 0.71072297105E+01 0.66640247058E+01 0.62131909740E+01 0.58283785030E+01
 0.55291290755E+01 0.52970335854E+01 0.51306268677E+01 0.50246947515E+01 0.49709869169E+01
 0.49631080244E+01 0.49924066483E+01 0.50606773003E+01 0.51819457626E+01 0.53961599299E+01
 0.57549438856E+01 0.62621566784E+01 0.68276180092E+01 0.72911620944E+01 0.75080571594E+01
 0.79630522749E+01 0.76991789092E+01 0.72466949241E+01 0.67265099312E+01 0.62317710751E+01
 0.58223265035E+01 0.55170317636E+01 0.52970335854E+01 0.51677389836E+01 0.51285966903E+01
 0.51581828290E+01 0.52255393099E+01 0.53095699420E+01 0.53961599299E+01 0.55288683456E+01
 0.58066956663E+01 0.62965915905E+01 0.69390946656E+01 0.75493215520E+01 0.79244346151E+01
 0.81824661815E+01 0.80208656255E+01 0.76708573265E+01 0.72222932831E+01 0.67259965843E+01
 0.62358754661E+01 0.58223265035E+01 0.55291290755E+01 0.53529772129E+01 0.53086782479E+01
 0.53757002538E+01 0.55115002506E+01 0.56610071394E+01 0.57549438856E+01 0.58066956663E+01
 0.59465924945E+01 0.63183981064E+01 0.69241272139E+01 0.75809990068E+01 0.80454264099E+01
 0.82518560824E+01 0.80989466768E+01 0.78362933870E+01 0.75438639006E+01 0.71852829238E+01
 0.67259965843E+01 0.62317710751E+01 0.58283785030E+01 0.55873247906E+01 0.55124979382E+01
 0.56008800441E+01 0.58187909075E+01 0.60853548487E+01 0.62621566784E+01 0.62965915905E+01
 0.63183981064E+01 0.65438208396E+01 0.70535758398E+01 0.76789643572E+01 0.81326739233E+01
 0.85719909031E+01 0.82709971365E+01 0.79337103146E+01 0.77216015269E+01 0.75438639006E+01
 0.72222932831E+01 0.67265099312E+01 0.62131909740E+01 0.58641693796E+01 0.57349191076E+01
 0.58131307658E+01 0.60945750291E+01 0.64988708047E+01 0.68276180092E+01 0.69390946656E+01
 0.69241272139E+01 0.70535758398E+01 0.74995172360E+01 0.81178982700E+01 0.85529143974E+01
 0.93320380056E+01 0.88338488379E+01 0.82547266212E+01 0.79337103146E+01 0.78362933870E+01
 0.76708573265E+01 0.72466949241E+01 0.66640247058E+01 0.61795123539E+01 0.59570470264E+01
 0.59882321694E+01 0.62820622738E+01 0.67916248813E+01 0.72911620944E+01 0.75493215520E+01
 0.75809990068E+01 0.76789643572E+01 0.81178982700E+01 0.88147541550E+01 0.93430156109E+01
 0.10208802870E+02 0.96544522993E+01 0.88338488379E+01 0.82709971365E+01 0.80989466768E+01
 0.80208656255E+01 0.76991789092E+01 0.71072297105E+01 0.65043494851E+01 0.61516115468E+01
 0.61043825303E+01 0.63473430355E+01 0.68840563895E+01 0.75080571594E+01 0.79244346151E+01
 0.80454264099E+01 0.81326739233E+01 0.85529143974E+01 0.93430156109E+01 0.10070908346E+02
 0.10208802870E+02 0.10070908346E+02 0.93430156109E+01 0.85529143974E+01 0.81326739233E+01
 0.80454264099E+01 0.79244346151E+01 0.75080571594E+01 0.68840563895E+01 0.63473430355E+01
 0.61043825303E+01 0.61516115468E+01 0.65043494851E+01 0.71072297105E+01 0.76991789092E+01
 0.80208656255E+01 0.80989466768E+01 0.82709971365E+01 0.88338488379E+01 0.96544522993E+01
 0.10070908346E+02 0.10207479910E+02 0.96529941224E+01 0.88331738793E+01 0.82705133258E+01
 0.80982097552E+01 0.80206336140E+01 0.76997612021E+01 0.71075926819E+01 0.65039485726E+01
 0.61513725443E+01 0.61048432026E+01 0.63476041760E+01 0.68836150895E+01 0.75078893318E+01
 0.79251912539E+01 0.80463008468E+01 0.81330705520E+01 0.85534512279E+01 0.93438509814E+01
 0.93430156109E+01 0.96529941224E+01 0.93430175515E+01 0.86569938592E+01 0.80764636945E+01
 0.78483474593E+01 0.77990765030E+01 0.75938936599E+01 0.71102169356E+01 0.65290353086E+01
 0.61174060886E+01 0.59885056640E+01 0.61174059263E+01 0.65290351430E+01 0.71102168394E+01
 0.75938933848E+01 0.77990755359E+01 0.78483454058E+01 0.80764607208E+01 0.86569908162E+01
 0.85529143974E+01 0.88331738793E+01 0.86569938592E+01 0.81182236880E+01 0.75834390524E+01
 0.73282455727E+01 0.72913618333E+01 0.71958620348E+01 0.68673014447E+01 0.63932117152E+01
 0.59974736257E+01 0.58207035304E+01 0.58668626321E+01 0.61455619513E+01 0.66291610624E+01
 0.71380178486E+01 0.74671369715E+01 0.75971953975E+01 0.77335318760E+01 0.80765441255E+01
 0.81326739233E+01 0.82705133258E+01 0.80764636945E+01 0.75834390524E+01 0.70535759447E+01
 0.67417313384E+01 0.66657134859E+01 0.66279667235E+01 0.64443089819E+01 0.61191575889E+01
 0.58033027788E+01 0.56263929083E+01 0.56227638201E+01 0.58041803572E+01 0.61673441168E+01
 0.66433424568E+01 0.70802967109E+01 0.73810151742E+01 0.75976959228E+01 0.78486278817E+01
 0.80454264099E+01 0.80982097552E+01 0.78483474593E+01 0.73282455727E+01 0.67417313384E+01
 0.63188264224E+01 0.61328249669E+01 0.60688446911E+01 0.59664199876E+01 0.57741534281E+01
 0.55642677853E+01 0.54263879071E+01 0.54025571116E+01 0.55267098223E+01 0.57854721315E+01
 0.61736895994E+01 0.66347002104E+01 0.70805160306E+01 0.74674191097E+01 0.77987791245E+01
 0.79244346151E+01 0.80206336140E+01 0.77990765030E+01 0.72913618333E+01 0.66657134859E+01
 0.61328249669E+01 0.58066952292E+01 0.56501670703E+01 0.55502354346E+01 0.54352719469E+01
 0.53163910644E+01 0.52336674297E+01 0.52179758385E+01 0.53041827572E+01 0.54967909195E+01
 0.57828887514E+01 0.61735138728E+01 0.66431820691E+01 0.71376824715E+01 0.75931674520E+01
 0.75080571594E+01 0.76997612021E+01 0.75938936599E+01 0.71958620348E+01 0.66279667235E+01
 0.60688446911E+01 0.56501670703E+01 0.53959336118E+01 0.52505678382E+01 0.51548420109E+01
 0.50892367013E+01 0.50553122798E+01 0.50657832984E+01 0.51375216926E+01 0.52803754640E+01
 0.54965638679E+01 0.57851515305E+01 0.61670981564E+01 0.66289587350E+01 0.71100792890E+01
 0.68840563895E+01 0.71075926819E+01 0.71102169356E+01 0.68673014447E+01 0.64443089819E+01
 0.59664199876E+01 0.55502354346E+01 0.52505678382E+01 0.50606773253E+01 0.49515382910E+01
 0.49016918995E+01 0.48985383753E+01 0.49390092247E+01 0.50186303929E+01 0.51374561554E+01
 0.53040658777E+01 0.55267025615E+01 0.58043880564E+01 0.61459237743E+01 0.65294586483E+01
 0.63473430355E+01 0.65039485726E+01 0.65290353086E+01 0.63932117152E+01 0.61191575889E+01
 0.57741534281E+01 0.54352719469E+01 0.51548420109E+01 0.49515382910E+01 0.48244994312E+01
 0.47675352795E+01 0.47758908250E+01 0.48384487704E+01 0.49390250874E+01 0.50658386480E+01
 0.52181086647E+01 0.54028025564E+01 0.56230657743E+01 0.58670644308E+01 0.61173773109E+01
 0.61043825303E+01 0.61513725443E+01 0.61174060886E+01 0.59974736257E+01 0.58033027788E+01
 0.55642677853E+01 0.53163910644E+01 0.50892367013E+01 0.49016918995E+01 0.47675352795E+01
 0.46999117631E+01 0.47045953926E+01 0.47758708912E+01 0.48985661389E+01 0.50553940983E+01
 0.52337418694E+01 0.54263763360E+01 0.56262213031E+01 0.58203318500E+01 0.59879991837E+01
 0.61516115468E+01 0.61048432026E+01 0.59885056640E+01 0.58207035304E+01 0.56263929083E+01
 0.54263879071E+01 0.52336674297E+01 0.50553122798E+01 0.48985383753E+01 0.47758908250E+01
 0.47045953926E+01 0.46998595669E+01 0.47674811177E+01 0.49016793110E+01 0.50892153077E+01
 0.53162708752E+01 0.55640291835E+01 0.58030170964E+01 0.59972555031E+01 0.61173773109E+01
 0.65043494851E+01 0.63476041760E+01 0.61174059263E+01 0.58668626321E+01 0.56227638201E+01
 0.54025571116E+01 0.52179758385E+01 0.50657832984E+01 0.49390092247E+01 0.48384487704E+01
 0.47758708912E+01 0.47674811177E+01 0.48244535723E+01 0.49515381456E+01 0.51548549700E+01
 0.54352604704E+01 0.57741734239E+01 0.61193161329E+01 0.63935403157E+01 0.65294586483E+01
 0.71072297105E+01 0.68836150895E+01 0.65290351430E+01 0.61455619513E+01 0.58041803572E+01
 0.55267098223E+01 0.53041827572E+01 0.51375216926E+01 0.50186303929E+01 0.49390250874E+01
 0.48985661389E+01 0.49016793110E+01 0.49515381456E+01 0.50607881712E+01 0.52507680028E+01
 0.55504332666E+01 0.59666091951E+01 0.64445091597E+01 0.68674059091E+01 0.71100792890E+01
 0.76991789092E+01 0.75078893318E+01 0.71102168394E+01 0.66291610624E+01 0.61673441168E+01
 0.57854721315E+01 0.54967909195E+01 0.52803754640E+01 0.51374561554E+01 0.50658386480E+01
 0.50553940983E+01 0.50892153077E+01 0.51548549700E+01 0.52507680028E+01 0.53961600011E+01
 0.56501674855E+01 0.60686144101E+01 0.66275966832E+01 0.71953018051E+01 0.75931674520E+01
 0.80208656255E+01 0.79251912539E+01 0.75938933848E+01 0.71380178486E+01 0.66433424568E+01
 0.61736895994E+01 0.57828887514E+01 0.54965638679E+01 0.53040658777E+01 0.52181086647E+01
 0.52337418694E+01 0.53162708752E+01 0.54352604704E+01 0.55504332666E+01 0.56501674855E+01
 0.58062357520E+01 0.61321810946E+01 0.66651735912E+01 0.72908952842E+01 0.77987791245E+01
 0.80989466768E+01 0.80463008468E+01 0.77990755359E+01 0.74671369715E+01 0.70802967109E+01
 0.66347002104E+01 0.61735138728E+01 0.57851515305E+01 0.55267025615E+01 0.54028025564E+01
 0.54263763360E+01 0.55640291835E+01 0.57741734239E+01 0.59666091951E+01 0.60686144101E+01
 0.61321810946E+01 0.63183980028E+01 0.67417312377E+01 0.73283690202E+01 0.78486278817E+01
 0.82709971365E+01 0.81330705520E+01 0.78483454058E+01 0.75971953975E+01 0.73810151742E+01
 0.70805160306E+01 0.66431820691E+01 0.61670981564E+01 0.58043880564E+01 0.56230657743E+01
 0.56262213031E+01 0.58030170964E+01 0.61193161329E+01 0.64445091597E+01 0.66275966832E+01
 0.66651735912E+01 0.67417312377E+01 0.70538915631E+01 0.75835156752E+01 0.80765441255E+01
 0.88338488379E+01 0.85534512279E+01 0.80764607208E+01 0.77335318760E+01 0.75976959228E+01
 0.74674191097E+01 0.71376824715E+01 0.66289587350E+01 0.61459237743E+01 0.58670644308E+01
 0.58203318500E+01 0.59972555031E+01 0.63935403157E+01 0.68674059091E+01 0.71953018051E+01
 0.72908952842E+01 0.73283690202E+01 0.75835156752E+01 0.81178968376E+01 0.86569908162E+01
 0.96544522993E+01 0.93438509814E+01 0.86569908162E+01 0.80765441255E+01 0.78486278817E+01
 0.77987791245E+01 0.75931674520E+01 0.71100792890E+01 0.65294586483E+01 0.61173773109E+01
 0.59879991837E+01 0.61173773109E+01 0.65294586483E+01 0.71100792890E+01 0.75931674520E+01
 0.77987791245E+01 0.78486278817E+01 0.80765441255E+01 0.86569908162E+01 0.93438509814E+01
 0.93320380056E+01 0.93430156109E+01 0.88147541550E+01 0.81178982700E+01 0.76789643572E+01
 0.75809990068E+01 0.75493215520E+01 0.72911620944E+01 0.67916248813E+01 0.62820622738E+01
 0.59882321694E+01 0.59570470264E+01 0.61795123539E+01 0.66640247058E+01 0.72466949241E+01
 0.76708573265E+01 0.78362933870E+01 0.79337103146E+01 0.82547266212E+01 0.88338488379E+01
 0.93430156109E+01 0.96529941224E+01 0.93430175515E+01 0.86569938592E+01 0.80764636945E+01
 0.78483474593E+01 0.77990765030E+01 0.75938936599E+01 0.71102169356E+01 0.65290353086E+01
 0.61174060886E+01 0.59885056640E+01 0.61174059263E+01 0.65290351430E+01 0.71102168394E+01
 0.75938933848E+01 0.77990755359E+01 0.78483454058E+01 0.80764607208E+01 0.86569908162E+01
 0.88147541550E+01 0.93430175515E+01 0.93320415483E+01 0.88338529332E+01 0.82547300791E+01
 0.79337124260E+01 0.78362941896E+01 0.76708573827E+01 0.72466948350E+01 0.66640247409E+01
 0.61795124328E+01 0.59570469764E+01 0.59882319727E+01 0.62820620676E+01 0.67916247358E+01
 0.72911618192E+01 0.75493207740E+01 0.75809975198E+01 0.76789624725E+01 0.81178968376E+01
 0.81178982700E+01 0.86569938592E+01 0.88338529332E+01 0.85534553088E+01 0.80764637643E+01
 0.77335334160E+01 0.75976961943E+01 0.74674187646E+01 0.71376821106E+01 0.66289585959E+01
 0.61459237556E+01 0.58670643509E+01 0.58203316717E+01 0.59972553334E+01 0.63935402200E+01
 0.68674057640E+01 0.71953013793E+01 0.72908945210E+01 0.73283682786E+01 0.75835156752E+01
 0.76789643572E+01 0.80764636945E+01 0.82547300791E+01 0.80764637643E+01 0.76789643704E+01
 0.73283688321E+01 0.71499730170E+01 0.70349338478E+01 0.68038649450E+01 0.64177940899E+01
 0.60077923975E+01 0.57294079889E+01 0.56342968140E+01 0.57294079616E+01 0.60077924530E+01
 0.64177943467E+01 0.68038654116E+01 0.70349343898E+01 0.71499734411E+01 0.73283690202E+01
 0.75809990068E+01 0.78483474593E+01 0.79337124260E+01 0.77335334160E+01 0.73283688321E+01
 0.69246711219E+01 0.66657125449E+01 0.65182682266E+01 0.63487373550E+01 0.60858030401E+01
 0.57869029263E+01 0.55586819464E+01 0.54523445069E+01 0.54972642802E+01 0.56877783255E+01
 0.60075241585E+01 0.63975422715E+01 0.67548114986E+01 0.70349346128E+01 0.72908952842E+01
 0.75493215520E+01 0.77990765030E+01 0.78362941896E+01 0.75976961943E+01 0.71499730170E+01
 0.66657125449E+01 0.62965903546E+01 0.60686134201E+01 0.59020632806E+01 0.57210092044E+01
 0.55274012382E+01 0.53720597937E+01 0.52867312753E+01 0.53054778113E+01 0.54417134965E+01
 0.56754054197E+01 0.60046115101E+01 0.63975422723E+01 0.68038655420E+01 0.71953018051E+01
 0.72911620944E+01 0.75938936599E+01 0.76708573827E+01 0.74674187646E+01 0.70349338478E+01
 0.65182682266E+01 0.60686134201E+01 0.57545800497E+01 0.55502353620E+01 0.53987284327E+01
 0.52749945996E+01 0.51857060815E+01 0.51389867074E+01 0.51571689061E+01 0.52538037617E+01
 0.54293382466E+01 0.56754053967E+01 0.60075241213E+01 0.64177943619E+01 0.68674059091E+01
 0.67916248813E+01 0.71102169356E+01 0.72466948350E+01 0.71376821106E+01 0.68038649450E+01
 0.63487373550E+01 0.59020632806E+01 0.55502353620E+01 0.53095699236E+01 0.51548550809E+01
 0.50611352447E+01 0.50136024488E+01 0.50068849852E+01 0.50431543314E+01 0.51233584957E+01
 0.52538037647E+01 0.54417134896E+01 0.56877783156E+01 0.60077924782E+01 0.63935403157E+01
 0.62820622738E+01 0.65290353086E+01 0.66640247409E+01 0.66289585959E+01 0.64177940899E+01
 0.60858030401E+01 0.57210092044E+01 0.53987284327E+01 0.51548550809E+01 0.49924378828E+01
 0.49016918621E+01 0.48712510200E+01 0.48932454355E+01 0.49545708551E+01 0.50431543312E+01
 0.51571689181E+01 0.53054778374E+01 0.54972643328E+01 0.57294080659E+01 0.59972555031E+01
 0.59882321694E+01 0.61174060886E+01 0.61795124328E+01 0.61459237556E+01 0.60077923975E+01
 0.57869029263E+01 0.55274012382E+01 0.52749945996E+01 0.50611352447E+01 0.49016918621E+01
 0.48047961700E+01 0.47758708234E+01 0.48102736997E+01 0.48932454003E+01 0.50068849485E+01
 0.51389866923E+01 0.52867312965E+01 0.54523445769E+01 0.56342969415E+01 0.58203318500E+01
 0.59570470264E+01 0.59885056640E+01 0.59570469764E+01 0.58670643509E+01 0.57294079889E+01
 0.55586819464E+01 0.53720597937E+01 0.51857060815E+01 0.50136024488E+01 0.48712510200E+01
 0.47758708234E+01 0.47421167623E+01 0.47758707555E+01 0.48712509092E+01 0.50136023349E+01
 0.51857060035E+01 0.53720597747E+01 0.55586819862E+01 0.57294080659E+01 0.58670644308E+01
 0.61795123539E+01 0.61174059263E+01 0.59882319727E+01 0.58203316717E+01 0.56342968140E+01
 0.54523445069E+01 0.52867312753E+01 0.51389867074E+01 0.50068849852E+01 0.48932454355E+01
 0.48102736997E+01 0.47758707555E+01 0.48047960246E+01 0.49016916683E+01 0.50611350636E+01
 0.52749944937E+01 0.55274012348E+01 0.57869029987E+01 0.60077924782E+01 0.61459237743E+01
 0.66640247058E+01 0.65290351430E+01 0.62820620676E+01 0.59972553334E+01 0.57294079616E+01
 0.54972642802E+01 0.53054778113E+01 0.51571689061E+01 0.50431543314E+01 0.49545708551E+01
 0.48932454003E+01 0.48712509092E+01 0.49016916683E+01 0.49924376582E+01 0.51548549239E+01
 0.53987284335E+01 0.57210093848E+01 0.60858033301E+01 0.64177943619E+01 0.66289587350E+01
 0.72466949241E+01 0.71102168394E+01 0.67916247358E+01 0.63935402200E+01 0.60077924530E+01
 0.56877783255E+01 0.54417134965E+01 0.52538037617E+01 0.51233584957E+01 0.50431543312E+01
 0.50068849485E+01 0.50136023349E+01 0.50611350636E+01 0.51548549239E+01 0.53095699323E+01
 0.55502356440E+01 0.59020638281E+01 0.63487380289E+01 0.68038655420E+01 0.71376824715E+01
 0.76708573265E+01 0.75938933848E+01 0.72911618192E+01 0.68674057640E+01 0.64177943467E+01
 0.60075241585E+01 0.56754054197E+01 0.54293382466E+01 0.52538037647E+01 0.51571689181E+01
 0.51389866923E+01 0.51857060035E+01 0.52749944937E+01 0.53987284335E+01 0.55502356440E+01
 0.57545807075E+01 0.60686143741E+01 0.65182692315E+01 0.70349346128E+01 0.74674191097E+01
 0.78362933870E+01 0.77990755359E+01 0.75493207740E+01 0.71953013793E+01 0.68038654116E+01
 0.63975422715E+01 0.60046115101E+01 0.56754053967E+01 0.54417134896E+01 0.53054778374E+01
 0.52867312965E+01 0.53720597747E+01 0.55274012348E+01 0.57210093848E+01 0.59020638281E+01
 0.60686143741E+01 0.62965915125E+01 0.66657135211E+01 0.71499734411E+01 0.75976959228E+01
 0.79337103146E+01 0.78483454058E+01 0.75809975198E+01 0.72908945210E+01 0.70349343898E+01
 0.67548114986E+01 0.63975422723E+01 0.60075241213E+01 0.56877783156E+01 0.54972643328E+01
 0.54523445769E+01 0.55586819862E+01 0.57869029987E+01 0.60858033301E+01 0.63487380289E+01
 0.65182692315E+01 0.66657135211E+01 0.69246715372E+01 0.73283682786E+01 0.77335318760E+01
 0.82547266212E+01 0.80764607208E+01 0.76789624725E+01 0.73283682786E+01 0.71499734411E+01
 0.70349346128E+01 0.68038655420E+01 0.64177943619E+01 0.60077924782E+01 0.57294080659E+01
 0.56342969415E+01 0.57294080659E+01 0.60077924782E+01 0.64177943619E+01 0.68038655420E+01
 0.70349346128E+01 0.71499734411E+01 0.73283682786E+01 0.76789624725E+01 0.80764607208E+01
 0.88338488379E+01 0.86569908162E+01 0.81178968376E+01 0.75835156752E+01 0.73283690202E+01
 0.72908952842E+01 0.71953018051E+01 0.68674059091E+01 0.63935403157E+01 0.59972555031E+01
 0.58203318500E+01 0.58670644308E+01 0.61459237743E+01 0.66289587350E+01 0.71376824715E+01
 0.74674191097E+01 0.75976959228E+01 0.77335318760E+01 0.80764607208E+01 0.85534512279E+01
 0.85719909031E+01 0.85529143974E+01 0.81178982700E+01 0.74995172360E+01 0.70535758398E+01
 0.69241272139E+01 0.69390946656E+01 0.68276180092E+01 0.64988708047E+01 0.60945750291E+01
 0.58131307658E+01 0.57349191076E+01 0.58641693796E+01 0.62131909740E+01 0.67265099312E+01
 0.72222932831E+01 0.75438639006E+01 0.77216015269E+01 0.79337103146E+01 0.82709971365E+01
 0.85529143974E+01 0.88331738793E+01 0.86569938592E+01 0.81182236880E+01 0.75834390524E+01
 0.73282455727E+01 0.72913618333E+01 0.71958620348E+01 0.68673014447E+01 0.63932117152E+01
 0.59974736257E+01 0.58207035304E+01 0.58668626321E+01 0.61455619513E+01 0.66291610624E+01
 0.71380178486E+01 0.74671369715E+01 0.75971953975E+01 0.77335318760E+01 0.80765441255E+01
 0.81178982700E+01 0.86569938592E+01 0.88338529332E+01 0.85534553088E+01 0.80764637643E+01
 0.77335334160E+01 0.75976961943E+01 0.74674187646E+01 0.71376821106E+01 0.66289585959E+01
 0.61459237556E+01 0.58670643509E+01 0.58203316717E+01 0.59972553334E+01 0.63935402200E+01
 0.68674057640E+01 0.71953013793E+01 0.72908945210E+01 0.73283682786E+01 0.75835156752E+01
 0.74995172360E+01 0.81182236880E+01 0.85534553088E+01 0.85719677917E+01 0.82705132787E+01
 0.79336516482E+01 0.77219969720E+01 0.75439017262E+01 0.72219376783E+01 0.67265223369E+01
 0.62135674928E+01 0.58641450245E+01 0.57345160048E+01 0.58131217985E+01 0.60949195771E+01
 0.64987704554E+01 0.68271245527E+01 0.69390844672E+01 0.69246715372E+01 0.70538915631E+01
 0.70535758398E+01 0.75834390524E+01 0.80764637643E+01 0.82705132787E+01 0.81326735456E+01
 0.78486271006E+01 0.75976948855E+01 0.73810141726E+01 0.70802960049E+01 0.66433421252E+01
 0.61673440434E+01 0.58041803516E+01 0.56227637700E+01 0.56263928435E+01 0.58033028061E+01
 0.61191577655E+01 0.64443092421E+01 0.66279669225E+01 0.66657135211E+01 0.67417312377E+01
 0.69241272139E+01 0.73282455727E+01 0.77335334160E+01 0.79336516482E+01 0.78486271006E+01
 0.75816993815E+01 0.72913597546E+01 0.70348191549E+01 0.67546325923E+01 0.63976661588E+01
 0.60075591916E+01 0.56874888054E+01 0.54971146971E+01 0.54525833428E+01 0.55588320866E+01
 0.57867047095E+01 0.60857168277E+01 0.63489721228E+01 0.65182692315E+01 0.66651735912E+01
 0.69390946656E+01 0.72913618333E+01 0.75976961943E+01 0.77219969720E+01 0.75976948855E+01
 0.72913597546E+01 0.69390925835E+01 0.66275951821E+01 0.63487372697E+01 0.60615416173E+01
 0.57708016937E+01 0.55275325927E+01 0.53660138675E+01 0.53052696366E+01 0.53660139024E+01
 0.55275326102E+01 0.57708017146E+01 0.60615418445E+01 0.63487380289E+01 0.66275966832E+01
 0.68276180092E+01 0.71958620348E+01 0.74674187646E+01 0.75439017262E+01 0.73810141726E+01
 0.70348191549E+01 0.66275951821E+01 0.62617333486E+01 0.59664199218E+01 0.57209618863E+01
 0.55110962079E+01 0.53469707341E+01 0.52343812867E+01 0.51865104659E+01 0.52206165746E+01
 0.53367903357E+01 0.55194065339E+01 0.57709228222E+01 0.60858033301E+01 0.64445091597E+01
 0.64988708047E+01 0.68673014447E+01 0.71376821106E+01 0.72219376783E+01 0.70802960049E+01
 0.67546325923E+01 0.63487372697E+01 0.59664199218E+01 0.56610072104E+01 0.54352606860E+01
 0.52749947403E+01 0.51691923906E+01 0.51060850560E+01 0.50885493085E+01 0.51189578742E+01
 0.52002626470E+01 0.53369670986E+01 0.55277845470E+01 0.57869029987E+01 0.61193161329E+01
 0.60945750291E+01 0.63932117152E+01 0.66289585959E+01 0.67265223369E+01 0.66433421252E+01
 0.63976661588E+01 0.60615416173E+01 0.57209618863E+01 0.54352606860E+01 0.52255543045E+01
 0.50892367849E+01 0.50136512402E+01 0.49880894800E+01 0.50038453325E+01 0.50490771367E+01
 0.51190086137E+01 0.52207116922E+01 0.53660308973E+01 0.55586819862E+01 0.58030170964E+01
 0.58131307658E+01 0.59974736257E+01 0.61459237556E+01 0.62135674928E+01 0.61673440434E+01
 0.60075591916E+01 0.57708016937E+01 0.55110962079E+01 0.52749947403E+01 0.50892367849E+01
 0.49631080100E+01 0.48985660908E+01 0.48932453772E+01 0.49343112882E+01 0.50038198806E+01
 0.50884944585E+01 0.51864015089E+01 0.53050781379E+01 0.54523445769E+01 0.56262213031E+01
 0.57349191076E+01 0.58207035304E+01 0.58670643509E+01 0.58641450245E+01 0.58041803516E+01
 0.56874888054E+01 0.55275325927E+01 0.53469707341E+01 0.51691923906E+01 0.50136512402E+01
 0.48985660908E+01 0.48383111342E+01 0.48384486072E+01 0.48932272340E+01 0.49880258301E+01
 0.51059909901E+01 0.52343130102E+01 0.53660308973E+01 0.54972643328E+01 0.56230657743E+01
 0.58641693796E+01 0.58668626321E+01 0.58203316717E+01 0.57345160048E+01 0.56227637700E+01
 0.54971146971E+01 0.53660138675E+01 0.52343812867E+01 0.51060850560E+01 0.49880894800E+01
 0.48932453772E+01 0.48384486072E+01 0.48383074768E+01 0.48985381893E+01 0.50136023273E+01
 0.51691922482E+01 0.53470972071E+01 0.55277845470E+01 0.56877783156E+01 0.58043880564E+01
 0.62131909740E+01 0.61455619513E+01 0.59972553334E+01 0.58131217985E+01 0.56263928435E+01
 0.54525833428E+01 0.53052696366E+01 0.51865104659E+01 0.50885493085E+01 0.50038453325E+01
 0.49343112882E+01 0.48932272340E+01 0.48985381893E+01 0.49630713532E+01 0.50892152631E+01
 0.52750442661E+01 0.55112299940E+01 0.57709228222E+01 0.60075241213E+01 0.61670981564E+01
 0.67265099312E+01 0.66291610624E+01 0.63935402200E+01 0.60949195771E+01 0.58033028061E+01
 0.55588320866E+01 0.53660139024E+01 0.52206165746E+01 0.51189578742E+01 0.50490771367E+01
 0.50038198806E+01 0.49880258301E+01 0.50136023273E+01 0.50892152631E+01 0.52255392747E+01
 0.54352720212E+01 0.57210094249E+01 0.60615418445E+01 0.63975422723E+01 0.66431820691E+01
 0.72222932831E+01 0.71380178486E+01 0.68674057640E+01 0.64987704554E+01 0.61191577655E+01
 0.57867047095E+01 0.55275326102E+01 0.53367903357E+01 0.52002626470E+01 0.51190086137E+01
 0.50884944585E+01 0.51059909901E+01 0.51691922482E+01 0.52750442661E+01 0.54352720212E+01
 0.56610599740E+01 0.59666092311E+01 0.63489721228E+01 0.67548114986E+01 0.70805160306E+01
 0.75438639006E+01 0.74671369715E+01 0.71953013793E+01 0.68271245527E+01 0.64443092421E+01
 0.60857168277E+01 0.57708017146E+01 0.55194065339E+01 0.53369670986E+01 0.52207116922E+01
 0.51864015089E+01 0.52343130102E+01 0.53470972071E+01 0.55112299940E+01 0.57210094249E+01
 0.59666092311E+01 0.62621567293E+01 0.66279669225E+01 0.70349343898E+01 0.73810151742E+01
 0.77216015269E+01 0.75971953975E+01 0.72908945210E+01 0.69390844672E+01 0.66279669225E+01
 0.63489721228E+01 0.60615418445E+01 0.57709228222E+01 0.55277845470E+01 0.53660308973E+01
 0.53050781379E+01 0.53660308973E+01 0.55277845470E+01 0.57709228222E+01 0.60615418445E+01
 0.63489721228E+01 0.66279669225E+01 0.69390844672E+01 0.72908945210E+01 0.75971953975E+01
 0.79337103146E+01 0.77335318760E+01 0.73283682786E+01 0.69246715372E+01 0.66657135211E+01
 0.65182692315E+01 0.63487380289E+01 0.60858033301E+01 0.57869029987E+01 0.55586819862E+01
 0.54523445769E+01 0.54972643328E+01 0.56877783156E+01 0.60075241213E+01 0.63975422723E+01
 0.67548114986E+01 0.70349343898E+01 0.72908945210E+01 0.75809975198E+01 0.78483454058E+01
 0.82709971365E+01 0.80765441255E+01 0.75835156752E+01 0.70538915631E+01 0.67417312377E+01
 0.66651735912E+01 0.66275966832E+01 0.64445091597E+01 0.61193161329E+01 0.58030170964E+01
 0.56262213031E+01 0.56230657743E+01 0.58043880564E+01 0.61670981564E+01 0.66431820691E+01
 0.70805160306E+01 0.73810151742E+01 0.75971953975E+01 0.78483454058E+01 0.81330705520E+01
 0.82518560824E+01 0.81326739233E+01 0.76789643572E+01 0.70535758398E+01 0.65438208396E+01
 0.63183981064E+01 0.62965915905E+01 0.62621566784E+01 0.60853548487E+01 0.58187909075E+01
 0.56008800441E+01 0.55124979382E+01 0.55873247906E+01 0.58283785030E+01 0.62317710751E+01
 0.67259965843E+01 0.71852829238E+01 0.75438639006E+01 0.78362933870E+01 0.80989466768E+01
 0.81326739233E+01 0.82705133258E+01 0.80764636945E+01 0.75834390524E+01 0.70535759447E+01
 0.67417313384E+01 0.66657134859E+01 0.66279667235E+01 0.64443089819E+01 0.61191575889E+01