 vasp.5.3.5 31Mar14 (build Aug 31 2014 21:42:44) complex                        
  
 executed on             LinuxIFC date 2020.11.02  11:43:38
 running on   16 total cores
 distrk:  each k-point on   16 cores,    1 groups
 distr:  one band on NCORES_PER_BAND=   1 cores,   16 groups


--------------------------------------------------------------------------------------------------------


 INCAR:
 POTCAR:    PAW W                                 

 ----------------------------------------------------------------------------- 
|                                                                             |
|           W    W    AA    RRRRR   N    N  II  N    N   GGGG   !!!           |
|           W    W   A  A   R    R  NN   N  II  NN   N  G    G  !!!           |
|           W    W  A    A  R    R  N N  N  II  N N  N  G       !!!           |
|           W WW W  AAAAAA  RRRRR   N  N N  II  N  N N  G  GGG   !            |
|           WW  WW  A    A  R   R   N   NN  II  N   NN  G    G                |
|           W    W  A    A  R    R  N    N  II  N    N   GGGG   !!!           |
|                                                                             |
|      For optimal performance we recommend to set                            |
|        NCORE= 4 - approx SQRT( number of cores)                             |
|      NCORE specifies how many cores store one orbital (NPAR=cpu/NCORE).     |
|      This setting can  greatly improve the performance of VASP for DFT.     |
|      The default, NPAR=number of cores might be grossly inefficient         |
|      on modern multi-core architectures or massively parallel machines.     |
|      Do your own testing !!!!                                               |
|      Unfortunately you need to use the default for GW and RPA calculations. |
|      (for HF NCORE is supported but not extensively tested yet)             |
|                                                                             |
 ----------------------------------------------------------------------------- 

 POTCAR:    PAW W                                 
   VRHFIN =W: 5p6s5d                                                            
   LEXCH  = CA                                                                  
   EATOM  =   206.5370 eV,   15.1800 Ry                                         
                                                                                
   TITEL  = PAW W                                                               
   LULTRA =        F    use ultrasoft PP ?                                      
   IUNSCR =        1    unscreen: 0-lin 1-nonlin 2-no                           
   RPACOR =    2.330    partial core radius                                     
   POMASS =  183.850; ZVAL   =    6.000    mass and valenz                      
   RCORE  =    2.750    outmost cutoff radius                                   
   RWIGS  =    2.750; RWIGS  =    1.455    wigner-seitz radius (au A)           
   ENMAX  =  223.126; ENMIN  =  167.344 eV                                      
   RCLOC  =    2.147    cutoff for local pot                                    
   LCOR   =        T    correct aug charges                                     
   LPAW   =        T    paw PP                                                  
   EAUG   =  373.438                                                            
   DEXC   =    -.048                                                            
   RMAX   =    3.087    core radius for proj-oper                               
   RAUG   =    1.300    factor for augmentation sphere                          
   RDEP   =    2.886    radius for radial grids                                 
   QCUT   =   -4.050; QGAM   =    8.099    optimization parameters              
                                                                                
   Description                                                                  
     l     E      TYP  RCUT    TYP  RCUT                                        
     2   .000     23  2.500                                                     
     2   .000     23  2.500                                                     
     0   .000     23  2.500                                                     
     0   .000     23  2.500                                                     
     1   .200     23  2.750                                                     
     1  2.000     23  2.750                                                     
     3   .000      7   .000                                                     
  local pseudopotential read in
  partial core-charges read in
  atomic valenz-charges read in
  non local Contribution for L=           2  read in
    real space projection operators read in
  non local Contribution for L=           2  read in
    real space projection operators read in
  non local Contribution for L=           0  read in
    real space projection operators read in
  non local Contribution for L=           0  read in
    real space projection operators read in
  non local Contribution for L=           1  read in
    real space projection operators read in
  non local Contribution for L=           1  read in
    real space projection operators read in
    PAW grid and wavefunctions read in
 
   number of l-projection  operators is LMAX  =           6
   number of lm-projection operators is LMMAX =          18
 
  PAW W                                 :
 energy of atom  1       EATOM= -206.5370
 kinetic energy error for atom=    0.0168 (will be added to EATOM!!)
 
 
 POSCAR: BCC W Bulk                              
  positions in direct lattice
  No initial velocities read in
 exchange correlation table for  LEXCH =        2
   RHO(1)=    0.500       N(1)  =     2000
   RHO(2)=  100.500       N(2)  =     4000
 


--------------------------------------------------------------------------------------------------------


 ion  position               nearest neighbor table
   1  0.000  0.000  0.000-
 
  LATTYP: Found a body centered cubic cell.
 ALAT       =     2.7600000000
  
  Lattice vectors:
  
 A1 = (  -1.3800000000,   1.3800000000,   1.3800000000)
 A2 = (   1.3800000000,  -1.3800000000,   1.3800000000)
 A3 = (   1.3800000000,   1.3800000000,  -1.3800000000)


Analysis of symmetry for initial positions (statically):
=====================================================================
 Subroutine PRICEL returns:
 Original cell was already a primitive cell.
 

 Routine SETGRP: Setting up the symmetry group for a 
 body centered cubic supercell.


 Subroutine GETGRP returns: Found 48 space group operations
 (whereof 48 operations were pure point group operations)
 out of a pool of 48 trial point group operations.


The static configuration has the point symmetry O_h .


Analysis of symmetry for dynamics (positions and initial velocities):
=====================================================================
 Subroutine PRICEL returns:
 Original cell was already a primitive cell.
 

 Routine SETGRP: Setting up the symmetry group for a 
 body centered cubic supercell.


 Subroutine GETGRP returns: Found 48 space group operations
 (whereof 48 operations were pure point group operations)
 out of a pool of 48 trial point group operations.


The dynamic configuration has the point symmetry O_h .
 
 
 KPOINTS: k-points for bandstructure G-H-N-P-G-N  
  interpolating k-points between supplied coordinates
  k-points in cartesian coordinates
Space group operators:
 irot       det(A)        alpha          n_x          n_y          n_z        tau_x        tau_y        tau_z
    1     1.000000     0.000001     1.000000     0.000000     0.000000     0.000000     0.000000     0.000000
    2    -1.000000     0.000001     1.000000     0.000000     0.000000     0.000000     0.000000     0.000000
    3     1.000000   120.000000    -0.577350    -0.577350    -0.577350     0.000000     0.000000     0.000000
    4    -1.000000   120.000000    -0.577350    -0.577350    -0.577350     0.000000     0.000000     0.000000
    5     1.000000   120.000000     0.577350     0.577350     0.577350     0.000000     0.000000     0.000000
    6    -1.000000   120.000000     0.577350     0.577350     0.577350     0.000000     0.000000     0.000000
    7     1.000000    90.000000     0.000000     0.000000    -1.000000     0.000000     0.000000     0.000000
    8    -1.000000    90.000000     0.000000     0.000000    -1.000000     0.000000     0.000000     0.000000
    9     1.000000   180.000000     0.000000     0.707107     0.707107     0.000000     0.000000     0.000000
   10    -1.000000   180.000000     0.000000     0.707107     0.707107     0.000000     0.000000     0.000000
   11     1.000000    90.000000     0.000000     1.000000     0.000000     0.000000     0.000000     0.000000
   12    -1.000000    90.000000     0.000000     1.000000     0.000000     0.000000     0.000000     0.000000
   13     1.000000   180.000000     0.000000     0.000000     1.000000     0.000000     0.000000     0.000000
   14    -1.000000   180.000000     0.000000     0.000000     1.000000     0.000000     0.000000     0.000000
   15     1.000000   120.000000    -0.577350     0.577350     0.577350     0.000000     0.000000     0.000000
   16    -1.000000   120.000000    -0.577350     0.577350     0.577350     0.000000     0.000000     0.000000
   17     1.000000   120.000000    -0.577350     0.577350    -0.577350     0.000000     0.000000     0.000000
   18    -1.000000   120.000000    -0.577350     0.577350    -0.577350     0.000000     0.000000     0.000000
   19     1.000000    90.000000     0.000000     0.000000     1.000000     0.000000     0.000000     0.000000
   20    -1.000000    90.000000     0.000000     0.000000     1.000000     0.000000     0.000000     0.000000
   21     1.000000    90.000000    -1.000000     0.000000     0.000000     0.000000     0.000000     0.000000
   22    -1.000000    90.000000    -1.000000     0.000000     0.000000     0.000000     0.000000     0.000000
   23     1.000000   180.000000     0.707107     0.000000     0.707107     0.000000     0.000000     0.000000
   24    -1.000000   180.000000     0.707107     0.000000     0.707107     0.000000     0.000000     0.000000
   25     1.000000   120.000000     0.577350    -0.577350     0.577350     0.000000     0.000000     0.000000
   26    -1.000000   120.000000     0.577350    -0.577350     0.577350     0.000000     0.000000     0.000000
   27     1.000000   120.000000    -0.577350    -0.577350     0.577350     0.000000     0.000000     0.000000
   28    -1.000000   120.000000    -0.577350    -0.577350     0.577350     0.000000     0.000000     0.000000
   29     1.000000   180.000000     1.000000     0.000000     0.000000     0.000000     0.000000     0.000000
   30    -1.000000   180.000000     1.000000     0.000000     0.000000     0.000000     0.000000     0.000000
   31     1.000000    90.000000     0.000000    -1.000000     0.000000     0.000000     0.000000     0.000000
   32    -1.000000    90.000000     0.000000    -1.000000     0.000000     0.000000     0.000000     0.000000
   33     1.000000   180.000000     0.707107     0.707107     0.000000     0.000000     0.000000     0.000000
   34    -1.000000   180.000000     0.707107     0.707107     0.000000     0.000000     0.000000     0.000000
   35     1.000000    90.000000     1.000000     0.000000     0.000000     0.000000     0.000000     0.000000
   36    -1.000000    90.000000     1.000000     0.000000     0.000000     0.000000     0.000000     0.000000
   37     1.000000   120.000000     0.577350    -0.577350    -0.577350     0.000000     0.000000     0.000000
   38    -1.000000   120.000000     0.577350    -0.577350    -0.577350     0.000000     0.000000     0.000000
   39     1.000000   180.000000     0.000000     1.000000     0.000000     0.000000     0.000000     0.000000
   40    -1.000000   180.000000     0.000000     1.000000     0.000000     0.000000     0.000000     0.000000
   41     1.000000   120.000000     0.577350     0.577350    -0.577350     0.000000     0.000000     0.000000
   42    -1.000000   120.000000     0.577350     0.577350    -0.577350     0.000000     0.000000     0.000000
   43     1.000000   180.000000     0.000000    -0.707107     0.707107     0.000000     0.000000     0.000000
   44    -1.000000   180.000000     0.000000    -0.707107     0.707107     0.000000     0.000000     0.000000
   45     1.000000   180.000000     0.707107    -0.707107     0.000000     0.000000     0.000000     0.000000
   46    -1.000000   180.000000     0.707107    -0.707107     0.000000     0.000000     0.000000     0.000000
   47     1.000000   180.000000     0.707107     0.000000    -0.707107     0.000000     0.000000     0.000000
   48    -1.000000   180.000000     0.707107     0.000000    -0.707107     0.000000     0.000000     0.000000


--------------------------------------------------------------------------------------------------------




 Dimension of arrays:
   k-points           NKPTS =    250   k-points in BZ     NKDIM =    250   number of bands    NBANDS=     16
   number of dos      NEDOS =    301   number of ions     NIONS =      1
   non local maximal  LDIM  =      6   non local SUM 2l+1 LMDIM =     18
   total plane-waves  NPLWV =   1000
   max r-space proj   IRMAX =      1   max aug-charges    IRDMAX=   5629
   dimension x,y,z NGX =    10 NGY =   10 NGZ =   10
   dimension x,y,z NGXF=    20 NGYF=   20 NGZF=   20
   support grid    NGXF=    20 NGYF=   20 NGZF=   20
   ions per type =               1
 NGX,Y,Z   is equivalent  to a cutoff of   6.96,  6.96,  6.96 a.u.
 NGXF,Y,Z  is equivalent  to a cutoff of  13.91, 13.91, 13.91 a.u.


 I would recommend the setting:
   dimension x,y,z NGX =    10 NGY =   10 NGZ =   10
 SYSTEM =  unknown system                          
 POSCAR =  BCC W Bulk                              

 Startparameter for this run:
   NWRITE =      2    write-flag & timer
   PREC   = normal    normal or accurate (medium, high low for compatibility)
   ISTART =      0    job   : 0-new  1-cont  2-samecut
   ICHARG =     11    charge: 1-file 2-atom 10-const
   ISPIN  =      1    spin polarized calculation?
   LNONCOLLINEAR =      F non collinear calculations
   LSORBIT =      F    spin-orbit coupling
   INIWAV =      1    electr: 0-lowe 1-rand  2-diag
   LASPH  =      F    aspherical Exc in radial PAW
   METAGGA=      F    non-selfconsistent MetaGGA calc.

 Electronic Relaxation 1
   ENCUT  =  300.0 eV  22.05 Ry    4.70 a.u.   3.38  3.38  3.38*2*pi/ulx,y,z
   ENINI  =  300.0     initial cutoff
   ENAUG  =  373.4 eV  augmentation charge cutoff
   NELM   =     60;   NELMIN=  2; NELMDL= -5     # of ELM steps 
   EDIFF  = 0.1E-05   stopping-criterion for ELM
   LREAL  =      F    real-space projection
   NLSPLINE    = F    spline interpolate recip. space projectors
   LCOMPAT=      F    compatible to vasp.4.4
   GGA_COMPAT  = T    GGA compatible to vasp.4.4-vasp.4.6
   LMAXPAW     = -100 max onsite density
   LMAXMIX     =    2 max onsite mixed and CHGCAR
   VOSKOWN=      0    Vosko Wilk Nusair interpolation
   ROPT   =    0.00000
 Ionic relaxation
   EDIFFG = 0.1E-04   stopping-criterion for IOM
   NSW    =      0    number of steps for IOM
   NBLOCK =      1;   KBLOCK =      1    inner block; outer block 
   IBRION =     -1    ionic relax: 0-MD 1-quasi-New 2-CG
   NFREE  =      0    steps in history (QN), initial steepest desc. (CG)
   ISIF   =      2    stress and relaxation
   IWAVPR =     10    prediction:  0-non 1-charg 2-wave 3-comb
   ISYM   =      2    0-nonsym 1-usesym 2-fastsym
   LCORR  =      T    Harris-Foulkes like correction to forces

   POTIM  = 0.5000    time-step for ionic-motion
   TEIN   =    0.0    initial temperature
   TEBEG  =    0.0;   TEEND  =   0.0 temperature during run
   SMASS  =  -3.00    Nose mass-parameter (am)
   estimated Nose-frequenzy (Omega)   =  0.10E-29 period in steps =****** mass=  -0.131E-27a.u.
   SCALEE = 1.0000    scale energy and forces
   NPACO  =    256;   APACO  = 16.0  distance and # of slots for P.C.
   PSTRESS=    0.0 pullay stress

  Mass of Ions in am
   POMASS = 183.85
  Ionic Valenz
   ZVAL   =   6.00
  Atomic Wigner-Seitz radii
   RWIGS  =  -1.00
  virtual crystal weights 
   VCA    =   1.00
   NELECT =       6.0000    total number of electrons
   NUPDOWN=      -1.0000    fix difference up-down

 DOS related values:
   EMIN   =  10.00;   EMAX   =-10.00  energy-range for DOS
   EFERMI =   0.00
   ISMEAR =     0;   SIGMA  =   0.05  broadening in eV -4-tet -1-fermi 0-gaus

 Electronic relaxation 2 (details)
   IALGO  =     38    algorithm
   LDIAG  =      T    sub-space diagonalisation (order eigenvalues)
   LSUBROT=      F    optimize rotation matrix (better conditioning)
   TURBO    =      0    0=normal 1=particle mesh
   IRESTART =      0    0=no restart 2=restart with 2 vectors
   NREBOOT  =      0    no. of reboots
   NMIN     =      0    reboot dimension
   EREF     =   0.00    reference energy to select bands
   IMIX   =      4    mixing-type and parameters
     AMIX     =   0.40;   BMIX     =  1.00
     AMIX_MAG =   1.60;   BMIX_MAG =  1.00
     AMIN     =   0.10
     WC   =   100.;   INIMIX=   1;  MIXPRE=   1;  MAXMIX= -45

 Intra band minimization:
   WEIMIN = 0.0000     energy-eigenvalue tresh-hold
   EBREAK =  0.16E-07  absolut break condition
   DEPER  =   0.30     relativ break condition  

   TIME   =   0.40     timestep for ELM

  volume/ion in A,a.u.               =      10.51        70.94
  Fermi-wavevector in a.u.,A,eV,Ry     =   1.357978  2.566207 25.090573  1.844105
  Thomas-Fermi vector in A             =   2.484851
 
 Write flags
   LWAVE  =      T    write WAVECAR
   LCHARG =      F    write CHGCAR
   LVTOT  =      F    write LOCPOT, total local potential
   LVHAR  =      F    write LOCPOT, Hartree potential only
   LELF   =      F    write electronic localiz. function (ELF)
   LORBIT =     10    0 simple, 1 ext, 2 COOP (PROOUT)


 Dipole corrections
   LMONO  =      F    monopole corrections only (constant potential shift)
   LDIPOL =      F    correct potential (dipole corrections)
   IDIPOL =      0    1-x, 2-y, 3-z, 4-all directions 
   EPSILON=  1.0000000 bulk dielectric constant

 Exchange correlation treatment:
   GGA     =    --    GGA type
   LEXCH   =     2    internal setting for exchange type
   VOSKOWN=      0    Vosko Wilk Nusair interpolation
   LHFCALC =     F    Hartree Fock is set to
   LHFONE  =     F    Hartree Fock one center treatment
   AEXX    =    0.0000 exact exchange contribution

 Linear response parameters
   LEPSILON=     F    determine dielectric tensor
   LRPA    =     F    only Hartree local field effects (RPA)
   LNABLA  =     F    use nabla operator in PAW spheres
   LVEL    =     F    velocity operator in full k-point grid
   LINTERFAST=   F  fast interpolation
   KINTER  =     0    interpolate to denser k-point grid
   CSHIFT  =0.1000    complex shift for real part using Kramers Kronig
   OMEGAMAX=  -1.0    maximum frequency
   DEG_THRESHOLD= 0.2000000E-02 threshold for treating states as degnerate
   RTIME   =    0.100 relaxation time in fs

 Orbital magnetization related:
   ORBITALMAG=     F  switch on orbital magnetization
   LCHIMAG   =     F  perturbation theory with respect to B field
   DQ        =  0.001000  dq finite difference perturbation B field



--------------------------------------------------------------------------------------------------------


 Static calculation
 charge density and potential remain constant during run
 non-spin polarized calculation
 Variant of blocked Davidson
 Davidson routine will perform the subspace rotation
 perform sub-space diagonalisation
    after iterative eigenvector-optimisation
 no mixing
 using additional bands           13
 reciprocal scheme for non local part
 use partial core corrections
 calculate Harris-corrections to forces 
   (improved forces if not selfconsistent)
 use of overlap-Matrix (Vanderbilt PP)
 Gauss-broadening in eV      SIGMA  =   0.05


--------------------------------------------------------------------------------------------------------


  energy-cutoff  :      300.00
  volume of cell :       10.51
      direct lattice vectors                 reciprocal lattice vectors
    -1.380000000  1.380000000  1.380000000     0.000000000  0.362318841  0.362318841
     1.380000000 -1.380000000  1.380000000     0.362318841  0.000000000  0.362318841
     1.380000000  1.380000000 -1.380000000     0.362318841  0.362318841  0.000000000

  length of vectors
     2.390230114  2.390230114  2.390230114     0.512396218  0.512396218  0.512396218


 
 k-points in units of 2pi/SCALE and weight: k-points for bandstructure G-H-N-P-G-N  
   0.00000000  0.00000000  0.00000000       0.004
   0.00000000  0.02040816  0.00000000       0.004
   0.00000000  0.04081633  0.00000000       0.004
   0.00000000  0.06122449  0.00000000       0.004
   0.00000000  0.08163265  0.00000000       0.004
   0.00000000  0.10204082  0.00000000       0.004
   0.00000000  0.12244898  0.00000000       0.004
   0.00000000  0.14285714  0.00000000       0.004
   0.00000000  0.16326531  0.00000000       0.004
   0.00000000  0.18367347  0.00000000       0.004
   0.00000000  0.20408163  0.00000000       0.004
   0.00000000  0.22448980  0.00000000       0.004
   0.00000000  0.24489796  0.00000000       0.004
   0.00000000  0.26530612  0.00000000       0.004
   0.00000000  0.28571429  0.00000000       0.004
   0.00000000  0.30612245  0.00000000       0.004
   0.00000000  0.32653061  0.00000000       0.004
   0.00000000  0.34693878  0.00000000       0.004
   0.00000000  0.36734694  0.00000000       0.004
   0.00000000  0.38775510  0.00000000       0.004
   0.00000000  0.40816327  0.00000000       0.004
   0.00000000  0.42857143  0.00000000       0.004
   0.00000000  0.44897959  0.00000000       0.004
   0.00000000  0.46938776  0.00000000       0.004
   0.00000000  0.48979592  0.00000000       0.004
   0.00000000  0.51020408  0.00000000       0.004
   0.00000000  0.53061224  0.00000000       0.004
   0.00000000  0.55102041  0.00000000       0.004
   0.00000000  0.57142857  0.00000000       0.004
   0.00000000  0.59183673  0.00000000       0.004
   0.00000000  0.61224490  0.00000000       0.004
   0.00000000  0.63265306  0.00000000       0.004
   0.00000000  0.65306122  0.00000000       0.004
   0.00000000  0.67346939  0.00000000       0.004
   0.00000000  0.69387755  0.00000000       0.004
   0.00000000  0.71428571  0.00000000       0.004
   0.00000000  0.73469388  0.00000000       0.004
   0.00000000  0.75510204  0.00000000       0.004
   0.00000000  0.77551020  0.00000000       0.004
   0.00000000  0.79591837  0.00000000       0.004
   0.00000000  0.81632653  0.00000000       0.004
   0.00000000  0.83673469  0.00000000       0.004
   0.00000000  0.85714286  0.00000000       0.004
   0.00000000  0.87755102  0.00000000       0.004
   0.00000000  0.89795918  0.00000000       0.004
   0.00000000  0.91836735  0.00000000       0.004
   0.00000000  0.93877551  0.00000000       0.004
   0.00000000  0.95918367  0.00000000       0.004
   0.00000000  0.97959184  0.00000000       0.004
   0.00000000  1.00000000  0.00000000       0.004
   0.00000000  1.00000000  0.00000000       0.004
   0.01020408  0.98979592  0.00000000       0.004
   0.02040816  0.97959184  0.00000000       0.004
   0.03061224  0.96938776  0.00000000       0.004
   0.04081633  0.95918367  0.00000000       0.004
   0.05102041  0.94897959  0.00000000       0.004
   0.06122449  0.93877551  0.00000000       0.004
   0.07142857  0.92857143  0.00000000       0.004
   0.08163265  0.91836735  0.00000000       0.004
   0.09183673  0.90816327  0.00000000       0.004
   0.10204082  0.89795918  0.00000000       0.004
   0.11224490  0.88775510  0.00000000       0.004
   0.12244898  0.87755102  0.00000000       0.004
   0.13265306  0.86734694  0.00000000       0.004
   0.14285714  0.85714286  0.00000000       0.004
   0.15306122  0.84693878  0.00000000       0.004
   0.16326531  0.83673469  0.00000000       0.004
   0.17346939  0.82653061  0.00000000       0.004
   0.18367347  0.81632653  0.00000000       0.004
   0.19387755  0.80612245  0.00000000       0.004
   0.20408163  0.79591837  0.00000000       0.004
   0.21428571  0.78571429  0.00000000       0.004
   0.22448980  0.77551020  0.00000000       0.004
   0.23469388  0.76530612  0.00000000       0.004
   0.24489796  0.75510204  0.00000000       0.004
   0.25510204  0.74489796  0.00000000       0.004
   0.26530612  0.73469388  0.00000000       0.004
   0.27551020  0.72448980  0.00000000       0.004
   0.28571429  0.71428571  0.00000000       0.004
   0.29591837  0.70408163  0.00000000       0.004
   0.30612245  0.69387755  0.00000000       0.004
   0.31632653  0.68367347  0.00000000       0.004
   0.32653061  0.67346939  0.00000000       0.004
   0.33673469  0.66326531  0.00000000       0.004
   0.34693878  0.65306122  0.00000000       0.004
   0.35714286  0.64285714  0.00000000       0.004
   0.36734694  0.63265306  0.00000000       0.004
   0.37755102  0.62244898  0.00000000       0.004
   0.38775510  0.61224490  0.00000000       0.004
   0.39795918  0.60204082  0.00000000       0.004
   0.40816327  0.59183673  0.00000000       0.004
   0.41836735  0.58163265  0.00000000       0.004
   0.42857143  0.57142857  0.00000000       0.004
   0.43877551  0.56122449  0.00000000       0.004
   0.44897959  0.55102041  0.00000000       0.004
   0.45918367  0.54081633  0.00000000       0.004
   0.46938776  0.53061224  0.00000000       0.004
   0.47959184  0.52040816  0.00000000       0.004
   0.48979592  0.51020408  0.00000000       0.004
   0.50000000  0.50000000  0.00000000       0.004
   0.50000000  0.50000000  0.00000000       0.004
   0.50000000  0.50000000  0.01020408       0.004
   0.50000000  0.50000000  0.02040816       0.004
   0.50000000  0.50000000  0.03061224       0.004
   0.50000000  0.50000000  0.04081633       0.004
   0.50000000  0.50000000  0.05102041       0.004
   0.50000000  0.50000000  0.06122449       0.004
   0.50000000  0.50000000  0.07142857       0.004
   0.50000000  0.50000000  0.08163265       0.004
   0.50000000  0.50000000  0.09183673       0.004
   0.50000000  0.50000000  0.10204082       0.004
   0.50000000  0.50000000  0.11224490       0.004
   0.50000000  0.50000000  0.12244898       0.004
   0.50000000  0.50000000  0.13265306       0.004
   0.50000000  0.50000000  0.14285714       0.004
   0.50000000  0.50000000  0.15306122       0.004
   0.50000000  0.50000000  0.16326531       0.004
   0.50000000  0.50000000  0.17346939       0.004
   0.50000000  0.50000000  0.18367347       0.004
   0.50000000  0.50000000  0.19387755       0.004
   0.50000000  0.50000000  0.20408163       0.004
   0.50000000  0.50000000  0.21428571       0.004
   0.50000000  0.50000000  0.22448980       0.004
   0.50000000  0.50000000  0.23469388       0.004
   0.50000000  0.50000000  0.24489796       0.004
   0.50000000  0.50000000  0.25510204       0.004
   0.50000000  0.50000000  0.26530612       0.004
   0.50000000  0.50000000  0.27551020       0.004
   0.50000000  0.50000000  0.28571429       0.004
   0.50000000  0.50000000  0.29591837       0.004
   0.50000000  0.50000000  0.30612245       0.004
   0.50000000  0.50000000  0.31632653       0.004
   0.50000000  0.50000000  0.32653061       0.004
   0.50000000  0.50000000  0.33673469       0.004
   0.50000000  0.50000000  0.34693878       0.004
   0.50000000  0.50000000  0.35714286       0.004
   0.50000000  0.50000000  0.36734694       0.004
   0.50000000  0.50000000  0.37755102       0.004
   0.50000000  0.50000000  0.38775510       0.004
   0.50000000  0.50000000  0.39795918       0.004
   0.50000000  0.50000000  0.40816327       0.004
   0.50000000  0.50000000  0.41836735       0.004
   0.50000000  0.50000000  0.42857143       0.004
   0.50000000  0.50000000  0.43877551       0.004
   0.50000000  0.50000000  0.44897959       0.004
   0.50000000  0.50000000  0.45918367       0.004
   0.50000000  0.50000000  0.46938776       0.004
   0.50000000  0.50000000  0.47959184       0.004
   0.50000000  0.50000000  0.48979592       0.004
   0.50000000  0.50000000  0.50000000       0.004
   0.50000000  0.50000000  0.50000000       0.004
   0.48979592  0.48979592  0.48979592       0.004
   0.47959184  0.47959184  0.47959184       0.004
   0.46938776  0.46938776  0.46938776       0.004
   0.45918367  0.45918367  0.45918367       0.004
   0.44897959  0.44897959  0.44897959       0.004
   0.43877551  0.43877551  0.43877551       0.004
   0.42857143  0.42857143  0.42857143       0.004
   0.41836735  0.41836735  0.41836735       0.004
   0.40816327  0.40816327  0.40816327       0.004
   0.39795918  0.39795918  0.39795918       0.004
   0.38775510  0.38775510  0.38775510       0.004
   0.37755102  0.37755102  0.37755102       0.004
   0.36734694  0.36734694  0.36734694       0.004
   0.35714286  0.35714286  0.35714286       0.004
   0.34693878  0.34693878  0.34693878       0.004
   0.33673469  0.33673469  0.33673469       0.004
   0.32653061  0.32653061  0.32653061       0.004
   0.31632653  0.31632653  0.31632653       0.004
   0.30612245  0.30612245  0.30612245       0.004
   0.29591837  0.29591837  0.29591837       0.004
   0.28571429  0.28571429  0.28571429       0.004
   0.27551020  0.27551020  0.27551020       0.004
   0.26530612  0.26530612  0.26530612       0.004
   0.25510204  0.25510204  0.25510204       0.004
   0.24489796  0.24489796  0.24489796       0.004
   0.23469388  0.23469388  0.23469388       0.004
   0.22448980  0.22448980  0.22448980       0.004
   0.21428571  0.21428571  0.21428571       0.004
   0.20408163  0.20408163  0.20408163       0.004
   0.19387755  0.19387755  0.19387755       0.004
   0.18367347  0.18367347  0.18367347       0.004
   0.17346939  0.17346939  0.17346939       0.004
   0.16326531  0.16326531  0.16326531       0.004
   0.15306122  0.15306122  0.15306122       0.004
   0.14285714  0.14285714  0.14285714       0.004
   0.13265306  0.13265306  0.13265306       0.004
   0.12244898  0.12244898  0.12244898       0.004
   0.11224490  0.11224490  0.11224490       0.004
   0.10204082  0.10204082  0.10204082       0.004
   0.09183673  0.09183673  0.09183673       0.004
   0.08163265  0.08163265  0.08163265       0.004
   0.07142857  0.07142857  0.07142857       0.004
   0.06122449  0.06122449  0.06122449       0.004
   0.05102041  0.05102041  0.05102041       0.004
   0.04081633  0.04081633  0.04081633       0.004
   0.03061224  0.03061224  0.03061224       0.004
   0.02040816  0.02040816  0.02040816       0.004
   0.01020408  0.01020408  0.01020408       0.004
   0.00000000  0.00000000  0.00000000       0.004
   0.00000000  0.00000000  0.00000000       0.004
   0.01020408  0.01020408  0.00000000       0.004
   0.02040816  0.02040816  0.00000000       0.004
   0.03061224  0.03061224  0.00000000       0.004
   0.04081633  0.04081633  0.00000000       0.004
   0.05102041  0.05102041  0.00000000       0.004
   0.06122449  0.06122449  0.00000000       0.004
   0.07142857  0.07142857  0.00000000       0.004
   0.08163265  0.08163265  0.00000000       0.004
   0.09183673  0.09183673  0.00000000       0.004
   0.10204082  0.10204082  0.00000000       0.004
   0.11224490  0.11224490  0.00000000       0.004
   0.12244898  0.12244898  0.00000000       0.004
   0.13265306  0.13265306  0.00000000       0.004
   0.14285714  0.14285714  0.00000000       0.004
   0.15306122  0.15306122  0.00000000       0.004
   0.16326531  0.16326531  0.00000000       0.004
   0.17346939  0.17346939  0.00000000       0.004
   0.18367347  0.18367347  0.00000000       0.004
   0.19387755  0.19387755  0.00000000       0.004
   0.20408163  0.20408163  0.00000000       0.004
   0.21428571  0.21428571  0.00000000       0.004
   0.22448980  0.22448980  0.00000000       0.004
   0.23469388  0.23469388  0.00000000       0.004
   0.24489796  0.24489796  0.00000000       0.004
   0.25510204  0.25510204  0.00000000       0.004
   0.26530612  0.26530612  0.00000000       0.004
   0.27551020  0.27551020  0.00000000       0.004
   0.28571429  0.28571429  0.00000000       0.004
   0.29591837  0.29591837  0.00000000       0.004
   0.30612245  0.30612245  0.00000000       0.004
   0.31632653  0.31632653  0.00000000       0.004
   0.32653061  0.32653061  0.00000000       0.004
   0.33673469  0.33673469  0.00000000       0.004
   0.34693878  0.34693878  0.00000000       0.004
   0.35714286  0.35714286  0.00000000       0.004
   0.36734694  0.36734694  0.00000000       0.004
   0.37755102  0.37755102  0.00000000       0.004
   0.38775510  0.38775510  0.00000000       0.004
   0.39795918  0.39795918  0.00000000       0.004
   0.40816327  0.40816327  0.00000000       0.004
   0.41836735  0.41836735  0.00000000       0.004
   0.42857143  0.42857143  0.00000000       0.004
   0.43877551  0.43877551  0.00000000       0.004
   0.44897959  0.44897959  0.00000000       0.004
   0.45918367  0.45918367  0.00000000       0.004
   0.46938776  0.46938776  0.00000000       0.004
   0.47959184  0.47959184  0.00000000       0.004
   0.48979592  0.48979592  0.00000000       0.004
   0.50000000  0.50000000  0.00000000       0.004
 
 k-points in reciprocal lattice and weights: k-points for bandstructure G-H-N-P-G-N  
   0.00000000  0.00000000  0.00000000       0.004
   0.01020408 -0.01020408  0.01020408       0.004
   0.02040816 -0.02040816  0.02040816       0.004
   0.03061224 -0.03061224  0.03061224       0.004
   0.04081633 -0.04081633  0.04081633       0.004
   0.05102041 -0.05102041  0.05102041       0.004
   0.06122449 -0.06122449  0.06122449       0.004
   0.07142857 -0.07142857  0.07142857       0.004
   0.08163265 -0.08163265  0.08163265       0.004
   0.09183673 -0.09183673  0.09183673       0.004
   0.10204082 -0.10204082  0.10204082       0.004
   0.11224490 -0.11224490  0.11224490       0.004
   0.12244898 -0.12244898  0.12244898       0.004
   0.13265306 -0.13265306  0.13265306       0.004
   0.14285714 -0.14285714  0.14285714       0.004
   0.15306122 -0.15306122  0.15306122       0.004
   0.16326531 -0.16326531  0.16326531       0.004
   0.17346939 -0.17346939  0.17346939       0.004
   0.18367347 -0.18367347  0.18367347       0.004
   0.19387755 -0.19387755  0.19387755       0.004
   0.20408163 -0.20408163  0.20408163       0.004
   0.21428571 -0.21428571  0.21428571       0.004
   0.22448980 -0.22448980  0.22448980       0.004
   0.23469388 -0.23469388  0.23469388       0.004
   0.24489796 -0.24489796  0.24489796       0.004
   0.25510204 -0.25510204  0.25510204       0.004
   0.26530612 -0.26530612  0.26530612       0.004
   0.27551020 -0.27551020  0.27551020       0.004
   0.28571429 -0.28571429  0.28571429       0.004
   0.29591837 -0.29591837  0.29591837       0.004
   0.30612245 -0.30612245  0.30612245       0.004
   0.31632653 -0.31632653  0.31632653       0.004
   0.32653061 -0.32653061  0.32653061       0.004
   0.33673469 -0.33673469  0.33673469       0.004
   0.34693878 -0.34693878  0.34693878       0.004
   0.35714286 -0.35714286  0.35714286       0.004
   0.36734694 -0.36734694  0.36734694       0.004
   0.37755102 -0.37755102  0.37755102       0.004
   0.38775510 -0.38775510  0.38775510       0.004
   0.39795918 -0.39795918  0.39795918       0.004
   0.40816327 -0.40816327  0.40816327       0.004
   0.41836735 -0.41836735  0.41836735       0.004
   0.42857143 -0.42857143  0.42857143       0.004
   0.43877551 -0.43877551  0.43877551       0.004
   0.44897959 -0.44897959  0.44897959       0.004
   0.45918367 -0.45918367  0.45918367       0.004
   0.46938776 -0.46938776  0.46938776       0.004
   0.47959184 -0.47959184  0.47959184       0.004
   0.48979592 -0.48979592  0.48979592       0.004
   0.50000000 -0.50000000  0.50000000       0.004
   0.50000000 -0.50000000  0.50000000       0.004
   0.48979592 -0.48979592  0.50000000       0.004
   0.47959184 -0.47959184  0.50000000       0.004
   0.46938776 -0.46938776  0.50000000       0.004
   0.45918367 -0.45918367  0.50000000       0.004
   0.44897959 -0.44897959  0.50000000       0.004
   0.43877551 -0.43877551  0.50000000       0.004
   0.42857143 -0.42857143  0.50000000       0.004
   0.41836735 -0.41836735  0.50000000       0.004
   0.40816327 -0.40816327  0.50000000       0.004
   0.39795918 -0.39795918  0.50000000       0.004
   0.38775510 -0.38775510  0.50000000       0.004
   0.37755102 -0.37755102  0.50000000       0.004
   0.36734694 -0.36734694  0.50000000       0.004
   0.35714286 -0.35714286  0.50000000       0.004
   0.34693878 -0.34693878  0.50000000       0.004
   0.33673469 -0.33673469  0.50000000       0.004
   0.32653061 -0.32653061  0.50000000       0.004
   0.31632653 -0.31632653  0.50000000       0.004
   0.30612245 -0.30612245  0.50000000       0.004
   0.29591837 -0.29591837  0.50000000       0.004
   0.28571429 -0.28571429  0.50000000       0.004
   0.27551020 -0.27551020  0.50000000       0.004
   0.26530612 -0.26530612  0.50000000       0.004
   0.25510204 -0.25510204  0.50000000       0.004
   0.24489796 -0.24489796  0.50000000       0.004
   0.23469388 -0.23469388  0.50000000       0.004
   0.22448980 -0.22448980  0.50000000       0.004
   0.21428571 -0.21428571  0.50000000       0.004
   0.20408163 -0.20408163  0.50000000       0.004
   0.19387755 -0.19387755  0.50000000       0.004
   0.18367347 -0.18367347  0.50000000       0.004
   0.17346939 -0.17346939  0.50000000       0.004
   0.16326531 -0.16326531  0.50000000       0.004
   0.15306122 -0.15306122  0.50000000       0.004
   0.14285714 -0.14285714  0.50000000       0.004
   0.13265306 -0.13265306  0.50000000       0.004
   0.12244898 -0.12244898  0.50000000       0.004
   0.11224490 -0.11224490  0.50000000       0.004
   0.10204082 -0.10204082  0.50000000       0.004
   0.09183673 -0.09183673  0.50000000       0.004
   0.08163265 -0.08163265  0.50000000       0.004
   0.07142857 -0.07142857  0.50000000       0.004
   0.06122449 -0.06122449  0.50000000       0.004
   0.05102041 -0.05102041  0.50000000       0.004
   0.04081633 -0.04081633  0.50000000       0.004
   0.03061224 -0.03061224  0.50000000       0.004
   0.02040816 -0.02040816  0.50000000       0.004
   0.01020408 -0.01020408  0.50000000       0.004
   0.00000000  0.00000000  0.50000000       0.004
   0.00000000  0.00000000  0.50000000       0.004
   0.00510204  0.00510204  0.49489796       0.004
   0.01020408  0.01020408  0.48979592       0.004
   0.01530612  0.01530612  0.48469388       0.004
   0.02040816  0.02040816  0.47959184       0.004
   0.02551020  0.02551020  0.47448980       0.004
   0.03061224  0.03061224  0.46938776       0.004
   0.03571429  0.03571429  0.46428571       0.004
   0.04081633  0.04081633  0.45918367       0.004
   0.04591837  0.04591837  0.45408163       0.004
   0.05102041  0.05102041  0.44897959       0.004
   0.05612245  0.05612245  0.44387755       0.004
   0.06122449  0.06122449  0.43877551       0.004
   0.06632653  0.06632653  0.43367347       0.004
   0.07142857  0.07142857  0.42857143       0.004
   0.07653061  0.07653061  0.42346939       0.004
   0.08163265  0.08163265  0.41836735       0.004
   0.08673469  0.08673469  0.41326531       0.004
   0.09183673  0.09183673  0.40816327       0.004
   0.09693878  0.09693878  0.40306122       0.004
   0.10204082  0.10204082  0.39795918       0.004
   0.10714286  0.10714286  0.39285714       0.004
   0.11224490  0.11224490  0.38775510       0.004
   0.11734694  0.11734694  0.38265306       0.004
   0.12244898  0.12244898  0.37755102       0.004
   0.12755102  0.12755102  0.37244898       0.004
   0.13265306  0.13265306  0.36734694       0.004
   0.13775510  0.13775510  0.36224490       0.004
   0.14285714  0.14285714  0.35714286       0.004
   0.14795918  0.14795918  0.35204082       0.004
   0.15306122  0.15306122  0.34693878       0.004
   0.15816327  0.15816327  0.34183673       0.004
   0.16326531  0.16326531  0.33673469       0.004
   0.16836735  0.16836735  0.33163265       0.004
   0.17346939  0.17346939  0.32653061       0.004
   0.17857143  0.17857143  0.32142857       0.004
   0.18367347  0.18367347  0.31632653       0.004
   0.18877551  0.18877551  0.31122449       0.004
   0.19387755  0.19387755  0.30612245       0.004
   0.19897959  0.19897959  0.30102041       0.004
   0.20408163  0.20408163  0.29591837       0.004
   0.20918367  0.20918367  0.29081633       0.004
   0.21428571  0.21428571  0.28571429       0.004
   0.21938776  0.21938776  0.28061224       0.004
   0.22448980  0.22448980  0.27551020       0.004
   0.22959184  0.22959184  0.27040816       0.004
   0.23469388  0.23469388  0.26530612       0.004
   0.23979592  0.23979592  0.26020408       0.004
   0.24489796  0.24489796  0.25510204       0.004
   0.25000000  0.25000000  0.25000000       0.004
   0.25000000  0.25000000  0.25000000       0.004
   0.24489796  0.24489796  0.24489796       0.004
   0.23979592  0.23979592  0.23979592       0.004
   0.23469388  0.23469388  0.23469388       0.004
   0.22959184  0.22959184  0.22959184       0.004
   0.22448980  0.22448980  0.22448980       0.004
   0.21938776  0.21938776  0.21938776       0.004
   0.21428571  0.21428571  0.21428571       0.004
   0.20918367  0.20918367  0.20918367       0.004
   0.20408163  0.20408163  0.20408163       0.004
   0.19897959  0.19897959  0.19897959       0.004
   0.19387755  0.19387755  0.19387755       0.004
   0.18877551  0.18877551  0.18877551       0.004
   0.18367347  0.18367347  0.18367347       0.004
   0.17857143  0.17857143  0.17857143       0.004
   0.17346939  0.17346939  0.17346939       0.004
   0.16836735  0.16836735  0.16836735       0.004
   0.16326531  0.16326531  0.16326531       0.004
   0.15816327  0.15816327  0.15816327       0.004
   0.15306122  0.15306122  0.15306122       0.004
   0.14795918  0.14795918  0.14795918       0.004
   0.14285714  0.14285714  0.14285714       0.004
   0.13775510  0.13775510  0.13775510       0.004
   0.13265306  0.13265306  0.13265306       0.004
   0.12755102  0.12755102  0.12755102       0.004
   0.12244898  0.12244898  0.12244898       0.004
   0.11734694  0.11734694  0.11734694       0.004
   0.11224490  0.11224490  0.11224490       0.004
   0.10714286  0.10714286  0.10714286       0.004
   0.10204082  0.10204082  0.10204082       0.004
   0.09693878  0.09693878  0.09693878       0.004
   0.09183673  0.09183673  0.09183673       0.004
   0.08673469  0.08673469  0.08673469       0.004
   0.08163265  0.08163265  0.08163265       0.004
   0.07653061  0.07653061  0.07653061       0.004
   0.07142857  0.07142857  0.07142857       0.004
   0.06632653  0.06632653  0.06632653       0.004
   0.06122449  0.06122449  0.06122449       0.004
   0.05612245  0.05612245  0.05612245       0.004
   0.05102041  0.05102041  0.05102041       0.004
   0.04591837  0.04591837  0.04591837       0.004
   0.04081633  0.04081633  0.04081633       0.004
   0.03571429  0.03571429  0.03571429       0.004
   0.03061224  0.03061224  0.03061224       0.004
   0.02551020  0.02551020  0.02551020       0.004
   0.02040816  0.02040816  0.02040816       0.004
   0.01530612  0.01530612  0.01530612       0.004
   0.01020408  0.01020408  0.01020408       0.004
   0.00510204  0.00510204  0.00510204       0.004
   0.00000000  0.00000000  0.00000000       0.004
   0.00000000  0.00000000  0.00000000       0.004
   0.00000000  0.00000000  0.01020408       0.004
   0.00000000  0.00000000  0.02040816       0.004
   0.00000000  0.00000000  0.03061224       0.004
   0.00000000  0.00000000  0.04081633       0.004
   0.00000000  0.00000000  0.05102041       0.004
   0.00000000  0.00000000  0.06122449       0.004
   0.00000000  0.00000000  0.07142857       0.004
   0.00000000  0.00000000  0.08163265       0.004
   0.00000000  0.00000000  0.09183673       0.004
   0.00000000  0.00000000  0.10204082       0.004
   0.00000000  0.00000000  0.11224490       0.004
   0.00000000  0.00000000  0.12244898       0.004
   0.00000000  0.00000000  0.13265306       0.004
   0.00000000  0.00000000  0.14285714       0.004
   0.00000000  0.00000000  0.15306122       0.004
   0.00000000  0.00000000  0.16326531       0.004
   0.00000000  0.00000000  0.17346939       0.004
   0.00000000  0.00000000  0.18367347       0.004
   0.00000000  0.00000000  0.19387755       0.004
   0.00000000  0.00000000  0.20408163       0.004
   0.00000000  0.00000000  0.21428571       0.004
   0.00000000  0.00000000  0.22448980       0.004
   0.00000000  0.00000000  0.23469388       0.004
   0.00000000  0.00000000  0.24489796       0.004
   0.00000000  0.00000000  0.25510204       0.004
   0.00000000  0.00000000  0.26530612       0.004
   0.00000000  0.00000000  0.27551020       0.004
   0.00000000  0.00000000  0.28571429       0.004
   0.00000000  0.00000000  0.29591837       0.004
   0.00000000  0.00000000  0.30612245       0.004
   0.00000000  0.00000000  0.31632653       0.004
   0.00000000  0.00000000  0.32653061       0.004
   0.00000000  0.00000000  0.33673469       0.004
   0.00000000  0.00000000  0.34693878       0.004
   0.00000000  0.00000000  0.35714286       0.004
   0.00000000  0.00000000  0.36734694       0.004
   0.00000000  0.00000000  0.37755102       0.004
   0.00000000  0.00000000  0.38775510       0.004
   0.00000000  0.00000000  0.39795918       0.004
   0.00000000  0.00000000  0.40816327       0.004
   0.00000000  0.00000000  0.41836735       0.004
   0.00000000  0.00000000  0.42857143       0.004
   0.00000000  0.00000000  0.43877551       0.004
   0.00000000  0.00000000  0.44897959       0.004
   0.00000000  0.00000000  0.45918367       0.004
   0.00000000  0.00000000  0.46938776       0.004
   0.00000000  0.00000000  0.47959184       0.004
   0.00000000  0.00000000  0.48979592       0.004
   0.00000000  0.00000000  0.50000000       0.004
 
 position of ions in fractional coordinates (direct lattice) 
   0.00000000  0.00000000  0.00000000
 
 position of ions in cartesian coordinates  (Angst):
   0.00000000  0.00000000  0.00000000
 


--------------------------------------------------------------------------------------------------------


 k-point  1 :   0.0000 0.0000 0.0000  plane waves:     135
 k-point  2 :   0.0102-0.0102 0.0102  plane waves:     135
 k-point  3 :   0.0204-0.0204 0.0204  plane waves:     135
 k-point  4 :   0.0306-0.0306 0.0306  plane waves:     135
 k-point  5 :   0.0408-0.0408 0.0408  plane waves:     135
 k-point  6 :   0.0510-0.0510 0.0510  plane waves:     135
 k-point  7 :   0.0612-0.0612 0.0612  plane waves:     136
 k-point  8 :   0.0714-0.0714 0.0714  plane waves:     136
 k-point  9 :   0.0816-0.0816 0.0816  plane waves:     136
 k-point 10 :   0.0918-0.0918 0.0918  plane waves:     136
 k-point 11 :   0.1020-0.1020 0.1020  plane waves:     128
 k-point 12 :   0.1122-0.1122 0.1122  plane waves:     128
 k-point 13 :   0.1224-0.1224 0.1224  plane waves:     128
 k-point 14 :   0.1327-0.1327 0.1327  plane waves:     128
 k-point 15 :   0.1429-0.1429 0.1429  plane waves:     120
 k-point 16 :   0.1531-0.1531 0.1531  plane waves:     120
 k-point 17 :   0.1633-0.1633 0.1633  plane waves:     120
 k-point 18 :   0.1735-0.1735 0.1735  plane waves:     120
 k-point 19 :   0.1837-0.1837 0.1837  plane waves:     120
 k-point 20 :   0.1939-0.1939 0.1939  plane waves:     124
 k-point 21 :   0.2041-0.2041 0.2041  plane waves:     124
 k-point 22 :   0.2143-0.2143 0.2143  plane waves:     124
 k-point 23 :   0.2245-0.2245 0.2245  plane waves:     124
 k-point 24 :   0.2347-0.2347 0.2347  plane waves:     124
 k-point 25 :   0.2449-0.2449 0.2449  plane waves:     116
 k-point 26 :   0.2551-0.2551 0.2551  plane waves:     116
 k-point 27 :   0.2653-0.2653 0.2653  plane waves:     120
 k-point 28 :   0.2755-0.2755 0.2755  plane waves:     120
 k-point 29 :   0.2857-0.2857 0.2857  plane waves:     120
 k-point 30 :   0.2959-0.2959 0.2959  plane waves:     120
 k-point 31 :   0.3061-0.3061 0.3061  plane waves:     120
 k-point 32 :   0.3163-0.3163 0.3163  plane waves:     120
 k-point 33 :   0.3265-0.3265 0.3265  plane waves:     120
 k-point 34 :   0.3367-0.3367 0.3367  plane waves:     124
 k-point 35 :   0.3469-0.3469 0.3469  plane waves:     120
 k-point 36 :   0.3571-0.3571 0.3571  plane waves:     120
 k-point 37 :   0.3673-0.3673 0.3673  plane waves:     120
 k-point 38 :   0.3776-0.3776 0.3776  plane waves:     120
 k-point 39 :   0.3878-0.3878 0.3878  plane waves:     116
 k-point 40 :   0.3980-0.3980 0.3980  plane waves:     116
 k-point 41 :   0.4082-0.4082 0.4082  plane waves:     116
 k-point 42 :   0.4184-0.4184 0.4184  plane waves:     116
 k-point 43 :   0.4286-0.4286 0.4286  plane waves:     116
 k-point 44 :   0.4388-0.4388 0.4388  plane waves:     116
 k-point 45 :   0.4490-0.4490 0.4490  plane waves:     116
 k-point 46 :   0.4592-0.4592 0.4592  plane waves:     116
 k-point 47 :   0.4694-0.4694 0.4694  plane waves:     116
 k-point 48 :   0.4796-0.4796 0.4796  plane waves:     116
 k-point 49 :   0.4898-0.4898 0.4898  plane waves:     116
 k-point 50 :   0.5000-0.5000 0.5000  plane waves:     116
 k-point 51 :   0.5000-0.5000 0.5000  plane waves:     116
 k-point 52 :   0.4898-0.4898 0.5000  plane waves:     116
 k-point 53 :   0.4796-0.4796 0.5000  plane waves:     116
 k-point 54 :   0.4694-0.4694 0.5000  plane waves:     116
 k-point 55 :   0.4592-0.4592 0.5000  plane waves:     116
 k-point 56 :   0.4490-0.4490 0.5000  plane waves:     116
 k-point 57 :   0.4388-0.4388 0.5000  plane waves:     116
 k-point 58 :   0.4286-0.4286 0.5000  plane waves:     116
 k-point 59 :   0.4184-0.4184 0.5000  plane waves:     116
 k-point 60 :   0.4082-0.4082 0.5000  plane waves:     116
 k-point 61 :   0.3980-0.3980 0.5000  plane waves:     116
 k-point 62 :   0.3878-0.3878 0.5000  plane waves:     116
 k-point 63 :   0.3776-0.3776 0.5000  plane waves:     116
 k-point 64 :   0.3673-0.3673 0.5000  plane waves:     116
 k-point 65 :   0.3571-0.3571 0.5000  plane waves:     116
 k-point 66 :   0.3469-0.3469 0.5000  plane waves:     116
 k-point 67 :   0.3367-0.3367 0.5000  plane waves:     116
 k-point 68 :   0.3265-0.3265 0.5000  plane waves:     116
 k-point 69 :   0.3163-0.3163 0.5000  plane waves:     116
 k-point 70 :   0.3061-0.3061 0.5000  plane waves:     122
 k-point 71 :   0.2959-0.2959 0.5000  plane waves:     122
 k-point 72 :   0.2857-0.2857 0.5000  plane waves:     120
 k-point 73 :   0.2755-0.2755 0.5000  plane waves:     120
 k-point 74 :   0.2653-0.2653 0.5000  plane waves:     120
 k-point 75 :   0.2551-0.2551 0.5000  plane waves:     126
 k-point 76 :   0.2449-0.2449 0.5000  plane waves:     126
 k-point 77 :   0.2347-0.2347 0.5000  plane waves:     126
 k-point 78 :   0.2245-0.2245 0.5000  plane waves:     126
 k-point 79 :   0.2143-0.2143 0.5000  plane waves:     126
 k-point 80 :   0.2041-0.2041 0.5000  plane waves:     126
 k-point 81 :   0.1939-0.1939 0.5000  plane waves:     126
 k-point 82 :   0.1837-0.1837 0.5000  plane waves:     126
 k-point 83 :   0.1735-0.1735 0.5000  plane waves:     126
 k-point 84 :   0.1633-0.1633 0.5000  plane waves:     124
 k-point 85 :   0.1531-0.1531 0.5000  plane waves:     126
 k-point 86 :   0.1429-0.1429 0.5000  plane waves:     126
 k-point 87 :   0.1327-0.1327 0.5000  plane waves:     126
 k-point 88 :   0.1224-0.1224 0.5000  plane waves:     126
 k-point 89 :   0.1122-0.1122 0.5000  plane waves:     126
 k-point 90 :   0.1020-0.1020 0.5000  plane waves:     126
 k-point 91 :   0.0918-0.0918 0.5000  plane waves:     126
 k-point 92 :   0.0816-0.0816 0.5000  plane waves:     126
 k-point 93 :   0.0714-0.0714 0.5000  plane waves:     126
 k-point 94 :   0.0612-0.0612 0.5000  plane waves:     126
 k-point 95 :   0.0510-0.0510 0.5000  plane waves:     122
 k-point 96 :   0.0408-0.0408 0.5000  plane waves:     122
 k-point 97 :   0.0306-0.0306 0.5000  plane waves:     118
 k-point 98 :   0.0204-0.0204 0.5000  plane waves:     118
 k-point 99 :   0.0102-0.0102 0.5000  plane waves:     118
 k-point ** :   0.0000 0.0000 0.5000  plane waves:     118
 k-point ** :   0.0000 0.0000 0.5000  plane waves:     118
 k-point ** :   0.0051 0.0051 0.4949  plane waves:     118
 k-point ** :   0.0102 0.0102 0.4898  plane waves:     118
 k-point ** :   0.0153 0.0153 0.4847  plane waves:     118
 k-point ** :   0.0204 0.0204 0.4796  plane waves:     118
 k-point ** :   0.0255 0.0255 0.4745  plane waves:     118
 k-point ** :   0.0306 0.0306 0.4694  plane waves:     122
 k-point ** :   0.0357 0.0357 0.4643  plane waves:     122
 k-point ** :   0.0408 0.0408 0.4592  plane waves:     122
 k-point ** :   0.0459 0.0459 0.4541  plane waves:     122
 k-point ** :   0.0510 0.0510 0.4490  plane waves:     122
 k-point ** :   0.0561 0.0561 0.4439  plane waves:     122
 k-point ** :   0.0612 0.0612 0.4388  plane waves:     122
 k-point ** :   0.0663 0.0663 0.4337  plane waves:     122
 k-point ** :   0.0714 0.0714 0.4286  plane waves:     122
 k-point ** :   0.0765 0.0765 0.4235  plane waves:     122
 k-point ** :   0.0816 0.0816 0.4184  plane waves:     122
 k-point ** :   0.0867 0.0867 0.4133  plane waves:     128
 k-point ** :   0.0918 0.0918 0.4082  plane waves:     128
 k-point ** :   0.0969 0.0969 0.4031  plane waves:     128
 k-point ** :   0.1020 0.1020 0.3980  plane waves:     128
 k-point ** :   0.1071 0.1071 0.3929  plane waves:     128
 k-point ** :   0.1122 0.1122 0.3878  plane waves:     128
 k-point ** :   0.1173 0.1173 0.3827  plane waves:     128
 k-point ** :   0.1224 0.1224 0.3776  plane waves:     128
 k-point ** :   0.1276 0.1276 0.3724  plane waves:     128
 k-point ** :   0.1327 0.1327 0.3673  plane waves:     128
 k-point ** :   0.1378 0.1378 0.3622  plane waves:     126
 k-point ** :   0.1429 0.1429 0.3571  plane waves:     126
 k-point ** :   0.1480 0.1480 0.3520  plane waves:     126
 k-point ** :   0.1531 0.1531 0.3469  plane waves:     126
 k-point ** :   0.1582 0.1582 0.3418  plane waves:     126
 k-point ** :   0.1633 0.1633 0.3367  plane waves:     126
 k-point ** :   0.1684 0.1684 0.3316  plane waves:     126
 k-point ** :   0.1735 0.1735 0.3265  plane waves:     126
 k-point ** :   0.1786 0.1786 0.3214  plane waves:     126
 k-point ** :   0.1837 0.1837 0.3163  plane waves:     132
 k-point ** :   0.1888 0.1888 0.3112  plane waves:     132
 k-point ** :   0.1939 0.1939 0.3061  plane waves:     132
 k-point ** :   0.1990 0.1990 0.3010  plane waves:     132
 k-point ** :   0.2041 0.2041 0.2959  plane waves:     132
 k-point ** :   0.2092 0.2092 0.2908  plane waves:     136
 k-point ** :   0.2143 0.2143 0.2857  plane waves:     136
 k-point ** :   0.2194 0.2194 0.2806  plane waves:     140
 k-point ** :   0.2245 0.2245 0.2755  plane waves:     140
 k-point ** :   0.2296 0.2296 0.2704  plane waves:     140
 k-point ** :   0.2347 0.2347 0.2653  plane waves:     140
 k-point ** :   0.2398 0.2398 0.2602  plane waves:     140
 k-point ** :   0.2449 0.2449 0.2551  plane waves:     140
 k-point ** :   0.2500 0.2500 0.2500  plane waves:     140
 k-point ** :   0.2500 0.2500 0.2500  plane waves:     140
 k-point ** :   0.2449 0.2449 0.2449  plane waves:     140
 k-point ** :   0.2398 0.2398 0.2398  plane waves:     140
 k-point ** :   0.2347 0.2347 0.2347  plane waves:     140
 k-point ** :   0.2296 0.2296 0.2296  plane waves:     137
 k-point ** :   0.2245 0.2245 0.2245  plane waves:     131
 k-point ** :   0.2194 0.2194 0.2194  plane waves:     131
 k-point ** :   0.2143 0.2143 0.2143  plane waves:     131
 k-point ** :   0.2092 0.2092 0.2092  plane waves:     131
 k-point ** :   0.2041 0.2041 0.2041  plane waves:     125
 k-point ** :   0.1990 0.1990 0.1990  plane waves:     125
 k-point ** :   0.1939 0.1939 0.1939  plane waves:     125
 k-point ** :   0.1888 0.1888 0.1888  plane waves:     125
 k-point ** :   0.1837 0.1837 0.1837  plane waves:     125
 k-point ** :   0.1786 0.1786 0.1786  plane waves:     125
 k-point ** :   0.1735 0.1735 0.1735  plane waves:     125
 k-point ** :   0.1684 0.1684 0.1684  plane waves:     125
 k-point ** :   0.1633 0.1633 0.1633  plane waves:     125
 k-point ** :   0.1582 0.1582 0.1582  plane waves:     125
 k-point ** :   0.1531 0.1531 0.1531  plane waves:     125
 k-point ** :   0.1480 0.1480 0.1480  plane waves:     125
 k-point ** :   0.1429 0.1429 0.1429  plane waves:     125
 k-point ** :   0.1378 0.1378 0.1378  plane waves:     125
 k-point ** :   0.1327 0.1327 0.1327  plane waves:     125
 k-point ** :   0.1276 0.1276 0.1276  plane waves:     125
 k-point ** :   0.1224 0.1224 0.1224  plane waves:     126
 k-point ** :   0.1173 0.1173 0.1173  plane waves:     126
 k-point ** :   0.1122 0.1122 0.1122  plane waves:     126
 k-point ** :   0.1071 0.1071 0.1071  plane waves:     126
 k-point ** :   0.1020 0.1020 0.1020  plane waves:     126
 k-point ** :   0.0969 0.0969 0.0969  plane waves:     126
 k-point ** :   0.0918 0.0918 0.0918  plane waves:     126
 k-point ** :   0.0867 0.0867 0.0867  plane waves:     126
 k-point ** :   0.0816 0.0816 0.0816  plane waves:     126
 k-point ** :   0.0765 0.0765 0.0765  plane waves:     126
 k-point ** :   0.0714 0.0714 0.0714  plane waves:     126
 k-point ** :   0.0663 0.0663 0.0663  plane waves:     132
 k-point ** :   0.0612 0.0612 0.0612  plane waves:     132
 k-point ** :   0.0561 0.0561 0.0561  plane waves:     132
 k-point ** :   0.0510 0.0510 0.0510  plane waves:     129
 k-point ** :   0.0459 0.0459 0.0459  plane waves:     135
 k-point ** :   0.0408 0.0408 0.0408  plane waves:     135
 k-point ** :   0.0357 0.0357 0.0357  plane waves:     135
 k-point ** :   0.0306 0.0306 0.0306  plane waves:     135
 k-point ** :   0.0255 0.0255 0.0255  plane waves:     135
 k-point ** :   0.0204 0.0204 0.0204  plane waves:     135
 k-point ** :   0.0153 0.0153 0.0153  plane waves:     135
 k-point ** :   0.0102 0.0102 0.0102  plane waves:     135
 k-point ** :   0.0051 0.0051 0.0051  plane waves:     135
 k-point ** :   0.0000 0.0000 0.0000  plane waves:     135
 k-point ** :   0.0000 0.0000 0.0000  plane waves:     135
 k-point ** :   0.0000 0.0000 0.0102  plane waves:     135
 k-point ** :   0.0000 0.0000 0.0204  plane waves:     135
 k-point ** :   0.0000 0.0000 0.0306  plane waves:     135
 k-point ** :   0.0000 0.0000 0.0408  plane waves:     135
 k-point ** :   0.0000 0.0000 0.0510  plane waves:     135
 k-point ** :   0.0000 0.0000 0.0612  plane waves:     135
 k-point ** :   0.0000 0.0000 0.0714  plane waves:     135
 k-point ** :   0.0000 0.0000 0.0816  plane waves:     135
 k-point ** :   0.0000 0.0000 0.0918  plane waves:     135
 k-point ** :   0.0000 0.0000 0.1020  plane waves:     135
 k-point ** :   0.0000 0.0000 0.1122  plane waves:     137
 k-point ** :   0.0000 0.0000 0.1224  plane waves:     133
 k-point ** :   0.0000 0.0000 0.1327  plane waves:     133
 k-point ** :   0.0000 0.0000 0.1429  plane waves:     133
 k-point ** :   0.0000 0.0000 0.1531  plane waves:     129
 k-point ** :   0.0000 0.0000 0.1633  plane waves:     129
 k-point ** :   0.0000 0.0000 0.1735  plane waves:     129
 k-point ** :   0.0000 0.0000 0.1837  plane waves:     129
 k-point ** :   0.0000 0.0000 0.1939  plane waves:     125
 k-point ** :   0.0000 0.0000 0.2041  plane waves:     125
 k-point ** :   0.0000 0.0000 0.2143  plane waves:     125
 k-point ** :   0.0000 0.0000 0.2245  plane waves:     125
 k-point ** :   0.0000 0.0000 0.2347  plane waves:     125
 k-point ** :   0.0000 0.0000 0.2449  plane waves:     126
 k-point ** :   0.0000 0.0000 0.2551  plane waves:     126
 k-point ** :   0.0000 0.0000 0.2653  plane waves:     122
 k-point ** :   0.0000 0.0000 0.2755  plane waves:     122
 k-point ** :   0.0000 0.0000 0.2857  plane waves:     122
 k-point ** :   0.0000 0.0000 0.2959  plane waves:     122
 k-point ** :   0.0000 0.0000 0.3061  plane waves:     126
 k-point ** :   0.0000 0.0000 0.3163  plane waves:     126
 k-point ** :   0.0000 0.0000 0.3265  plane waves:     126
 k-point ** :   0.0000 0.0000 0.3367  plane waves:     126
 k-point ** :   0.0000 0.0000 0.3469  plane waves:     126
 k-point ** :   0.0000 0.0000 0.3571  plane waves:     126
 k-point ** :   0.0000 0.0000 0.3673  plane waves:     124
 k-point ** :   0.0000 0.0000 0.3776  plane waves:     124
 k-point ** :   0.0000 0.0000 0.3878  plane waves:     124
 k-point ** :   0.0000 0.0000 0.3980  plane waves:     124
 k-point ** :   0.0000 0.0000 0.4082  plane waves:     124
 k-point ** :   0.0000 0.0000 0.4184  plane waves:     124
 k-point ** :   0.0000 0.0000 0.4286  plane waves:     116
 k-point ** :   0.0000 0.0000 0.4388  plane waves:     118
 k-point ** :   0.0000 0.0000 0.4490  plane waves:     118
 k-point ** :   0.0000 0.0000 0.4592  plane waves:     118
 k-point ** :   0.0000 0.0000 0.4694  plane waves:     118
 k-point ** :   0.0000 0.0000 0.4796  plane waves:     118
 k-point ** :   0.0000 0.0000 0.4898  plane waves:     118
 k-point ** :   0.0000 0.0000 0.5000  plane waves:     118

 maximum and minimum number of plane-waves per node :       140      116

 maximum number of plane-waves:       140
 maximum index in each direction: 
   IXMAX=    3   IYMAX=    3   IZMAX=    3
   IXMIN=   -3   IYMIN=   -3   IZMIN=   -3

 WARNING: aliasing errors must be expected set NGX to  14 to avoid them
 WARNING: aliasing errors must be expected set NGY to  14 to avoid them
 WARNING: aliasing errors must be expected set NGZ to  14 to avoid them
 aliasing errors are usually negligible using standard VASP settings
 and one can safely disregard these warnings

 serial   3D FFT for wavefunctions
 parallel 3D FFT for charge:
    minimum data exchange during FFTs selected (reduces bandwidth)


 total amount of memory used by VASP on root node    36056. kBytes
========================================================================

   base      :      30000. kBytes
   nonl-proj :       5186. kBytes
   fftplans  :         55. kBytes
   grid      :         96. kBytes
   one-center:         15. kBytes
   wavefun   :        704. kBytes
 
     INWAV:  cpu time    0.00: real time    0.00
 initial charge density was supplied:
 number of electron       6.0000012 magnetization 
 keeping initial charge density in first step


--------------------------------------------------------------------------------------------------------


 Maximum index for augmentation-charges          616 (set IRDMAX)


--------------------------------------------------------------------------------------------------------


 First call to EWALD:  gamma=   0.809
 Maximum number of real-space cells 3x 3x 3
 Maximum number of reciprocal cells 3x 3x 3

 FEWALD executed in parallel
    FEWALD:  cpu time    0.00: real time    0.00


----------------------------------------- Iteration    1(   1)  ---------------------------------------


    POTLOK:  cpu time    0.00: real time    0.00
    SETDIJ:  cpu time    0.00: real time    0.00
     EDDAV:  cpu time    1.55: real time    1.55
       DOS:  cpu time    0.00: real time    0.00
    --------------------------------------------
      LOOP:  cpu time    1.55: real time    1.56

 eigenvalue-minimisations  : 10784
 total energy-change (2. order) :-0.8287289E+01  (-0.2494482E+03)
 number of electron       6.0000012 magnetization 
 augmentation part        6.0000012 magnetization 

 Free energy of the ion-electron system (eV)
  ---------------------------------------------------
  alpha Z        PSCENC =        66.40147416
  Ewald energy   TEWEN  =      -341.76643772
  -Hartree energ DENC   =        -0.74640027
  -exchange      EXHF   =         0.00000000
  -V(xc)+E(xc)   XCENC  =       -46.30370087
  PAW double counting   =       380.10621885     -325.36182574
  entropy T*S    EENTRO =        -0.00020213
  eigenvalues    EBANDS =        52.86338980
  atomic energy  EATOM  =       206.52019513
  ---------------------------------------------------
  free energy    TOTEN  =        -8.28728879 eV

  energy without entropy =       -8.28708666  energy(sigma->0) =       -8.28718772


--------------------------------------------------------------------------------------------------------




----------------------------------------- Iteration    1(   2)  ---------------------------------------


     EDDAV:  cpu time    1.39: real time    1.39
       DOS:  cpu time    0.00: real time    0.00
    --------------------------------------------
      LOOP:  cpu time    1.39: real time    1.39

 eigenvalue-minimisations  :  9840
 total energy-change (2. order) :-0.4101079E+01  (-0.3842774E+01)
 number of electron       6.0000012 magnetization 
 augmentation part        6.0000012 magnetization 

 Free energy of the ion-electron system (eV)
  ---------------------------------------------------
  alpha Z        PSCENC =        66.40147416
  Ewald energy   TEWEN  =      -341.76643772
  -Hartree energ DENC   =        -0.74640027
  -exchange      EXHF   =         0.00000000
  -V(xc)+E(xc)   XCENC  =       -46.30370087
  PAW double counting   =       380.10621885     -325.36182574
  entropy T*S    EENTRO =        -0.00049470
  eigenvalues    EBANDS =        48.76260320
  atomic energy  EATOM  =       206.52019513
  ---------------------------------------------------
  free energy    TOTEN  =       -12.38836796 eV

  energy without entropy =      -12.38787326  energy(sigma->0) =      -12.38812061


--------------------------------------------------------------------------------------------------------




----------------------------------------- Iteration    1(   3)  ---------------------------------------


     EDDAV:  cpu time    1.54: real time    1.54
       DOS:  cpu time    0.00: real time    0.00
    --------------------------------------------
      LOOP:  cpu time    1.54: real time    1.54

 eigenvalue-minimisations  : 10400
 total energy-change (2. order) :-0.2617821E-02  (-0.2617808E-02)
 number of electron       6.0000012 magnetization 
 augmentation part        6.0000012 magnetization 

 Free energy of the ion-electron system (eV)
  ---------------------------------------------------
  alpha Z        PSCENC =        66.40147416
  Ewald energy   TEWEN  =      -341.76643772
  -Hartree energ DENC   =        -0.74640027
  -exchange      EXHF   =         0.00000000
  -V(xc)+E(xc)   XCENC  =       -46.30370087
  PAW double counting   =       380.10621885     -325.36182574
  entropy T*S    EENTRO =        -0.00049371
  eigenvalues    EBANDS =        48.75998439
  atomic energy  EATOM  =       206.52019513
  ---------------------------------------------------
  free energy    TOTEN  =       -12.39098578 eV

  energy without entropy =      -12.39049207  energy(sigma->0) =      -12.39073893


--------------------------------------------------------------------------------------------------------




----------------------------------------- Iteration    1(   4)  ---------------------------------------


     EDDAV:  cpu time    1.39: real time    1.39
       DOS:  cpu time    0.00: real time    0.00
    --------------------------------------------
      LOOP:  cpu time    1.39: real time    1.39

 eigenvalue-minimisations  :  9824
 total energy-change (2. order) :-0.7042632E-07  (-0.7119606E-07)
 number of electron       6.0000012 magnetization 
 augmentation part        6.0000012 magnetization 

 Free energy of the ion-electron system (eV)
  ---------------------------------------------------
  alpha Z        PSCENC =        66.40147416
  Ewald energy   TEWEN  =      -341.76643772
  -Hartree energ DENC   =        -0.74640027
  -exchange      EXHF   =         0.00000000
  -V(xc)+E(xc)   XCENC  =       -46.30370087
  PAW double counting   =       380.10621885     -325.36182574
  entropy T*S    EENTRO =        -0.00049371
  eigenvalues    EBANDS =        48.75998432
  atomic energy  EATOM  =       206.52019513
  ---------------------------------------------------
  free energy    TOTEN  =       -12.39098585 eV

  energy without entropy =      -12.39049214  energy(sigma->0) =      -12.39073900


--------------------------------------------------------------------------------------------------------




----------------------------------------- Iteration    1(   5)  ---------------------------------------


     EDDAV:  cpu time    1.46: real time    1.46
       DOS:  cpu time    0.00: real time    0.00
    --------------------------------------------
      LOOP:  cpu time    1.46: real time    1.46

 eigenvalue-minimisations  : 10112
 total energy-change (2. order) :-0.1424496E-09  (-0.5581619E-11)
 number of electron       6.0000012 magnetization 
 augmentation part        6.0000012 magnetization 

 Free energy of the ion-electron system (eV)
  ---------------------------------------------------
  alpha Z        PSCENC =        66.40147416
  Ewald energy   TEWEN  =      -341.76643772
  -Hartree energ DENC   =        -0.74640027
  -exchange      EXHF   =         0.00000000
  -V(xc)+E(xc)   XCENC  =       -46.30370087
  PAW double counting   =       380.10621885     -325.36182574
  entropy T*S    EENTRO =        -0.00049371
  eigenvalues    EBANDS =        48.75998432
  atomic energy  EATOM  =       206.52019513
  ---------------------------------------------------
  free energy    TOTEN  =       -12.39098585 eV

  energy without entropy =      -12.39049214  energy(sigma->0) =      -12.39073900


--------------------------------------------------------------------------------------------------------




----------------------------------------- Iteration    1(   6)  ---------------------------------------


     EDDAV:  cpu time    0.88: real time    0.88
       DOS:  cpu time    0.00: real time    0.00
    --------------------------------------------
      LOOP:  cpu time    0.88: real time    0.88

 eigenvalue-minimisations  :  6544
 total energy-change (2. order) :-0.1635158E-08  (-0.7598808E-14)
 number of electron       6.0000012 magnetization 
 augmentation part        6.0000012 magnetization 

 Free energy of the ion-electron system (eV)
  ---------------------------------------------------
  alpha Z        PSCENC =        66.40147416
  Ewald energy   TEWEN  =      -341.76643772
  -Hartree energ DENC   =        -0.74640027
  -exchange      EXHF   =         0.00000000
  -V(xc)+E(xc)   XCENC  =       -46.30370087
  PAW double counting   =       380.10621885     -325.36182574
  entropy T*S    EENTRO =        -0.00049371
  eigenvalues    EBANDS =        48.75998432
  atomic energy  EATOM  =       206.52019513
  ---------------------------------------------------
  free energy    TOTEN  =       -12.39098585 eV

  energy without entropy =      -12.39049214  energy(sigma->0) =      -12.39073900


--------------------------------------------------------------------------------------------------------




 average (electrostatic) potential at core
  the test charge radii are     1.1823
  (the norm of the test charge is              1.0000)
       1 -31.6808
 
 
 
 E-fermi :  13.9294     XC(G=0): -15.4229     alpha+bet :-22.1909


 k-point     1 :       0.0000    0.0000    0.0000
  band No.  band energies     occupation 
      1       1.8656      2.00000
      2      10.9685      2.00000
      3      10.9685      2.00000
      4      10.9685      2.00000
      5      16.4218      0.00000
      6      16.4218      0.00000
      7      29.7071      0.00000
      8      29.7071      0.00000
      9      29.7071      0.00000
     10      45.6636      0.00000
     11      48.3411      0.00000
     12      48.3413      0.00000
     13      48.3413      0.00000
     14      48.9808      0.00000
     15      48.9808      0.00000
     16      56.1640      0.00000

 k-point     2 :       0.0102   -0.0102    0.0102
  band No.  band energies     occupation 
      1       1.8828      2.00000
      2      10.9666      2.00000
      3      10.9666      2.00000
      4      10.9759      2.00000
      5      16.3867      0.00000
      6      16.4327      0.00000
      7      29.7347      0.00000
      8      29.7347      0.00000
      9      29.7510      0.00000
     10      45.6623      0.00000
     11      48.2869      0.00000
     12      48.3415      0.00000
     13      48.3416      0.00000
     14      48.8369      0.00000
     15      48.9944      0.00000
     16      56.1654      0.00000

 k-point     3 :       0.0204   -0.0204    0.0204
  band No.  band energies     occupation 
      1       1.9343      2.00000
      2      10.9614      2.00000
      3      10.9614      2.00000
      4      10.9983      2.00000
      5      16.2827      0.00000
      6      16.4652      0.00000
      7      29.8174      0.00000
      8      29.8174      0.00000
      9      29.8812      0.00000
     10      45.6576      0.00000
     11      47.9660      0.00000
     12      48.3425      0.00000
     13      48.3426      0.00000
     14      48.6140      0.00000
     15      49.0350      0.00000
     16      56.1695      0.00000

 k-point     4 :       0.0306   -0.0306    0.0306
  band No.  band energies     occupation 
      1       2.0196      2.00000
      2      10.9532      2.00000
      3      10.9532      2.00000
      4      11.0355      2.00000
      5      16.1142      0.00000
      6      16.5193      0.00000
      7      29.9545      0.00000
      8      29.9545      0.00000
      9      30.0933      0.00000
     10      45.6451      0.00000
     11      47.2588      0.00000
     12      48.3441      0.00000
     13      48.3442      0.00000
     14      48.5400      0.00000
     15      49.1029      0.00000
     16      56.1755      0.00000

 k-point     5 :       0.0408   -0.0408    0.0408
  band No.  band energies     occupation 
      1       2.1380      2.00000
      2      10.9428      2.00000
      3      10.9428      2.00000
      4      11.0876      2.00000
      5      15.8874      0.00000
      6      16.5948      0.00000
      7      30.1452      0.00000
      8      30.1452      0.00000
      9      30.3807      0.00000
     10      45.5965      0.00000
     11      46.3818      0.00000
     12      48.3462      0.00000
     13      48.3463      0.00000
     14      48.5206      0.00000
     15      49.1984      0.00000
     16      56.1822      0.00000

 k-point     6 :       0.0510   -0.0510    0.0510
  band No.  band energies     occupation 
      1       2.2884      2.00000
      2      10.9313      2.00000
      3      10.9313      2.00000
      4      11.1545      2.00000
      5      15.6099      0.00000
      6      16.6911      0.00000
      7      30.3881      0.00000
      8      30.3881      0.00000
      9      30.7353      0.00000
     10      45.1536      0.00000
     11      45.7975      0.00000
     12      48.3488      0.00000
     13      48.3489      0.00000
     14      48.5160      0.00000
     15      49.3218      0.00000
     16      56.1875      0.00000

 k-point     7 :       0.0612   -0.0612    0.0612
  band No.  band energies     occupation 
      1       2.4694      2.00000
      2      10.9199      2.00000
      3      10.9199      2.00000
      4      11.2361      2.00000
      5      15.2896      0.00000
      6      16.8079      0.00000
      7      30.6817      0.00000
      8      30.6817      0.00000
      9      31.1486      0.00000
     10      44.1499      0.00000
     11      45.7217      0.00000
     12      48.3518      0.00000
     13      48.3518      0.00000
     14      48.5149      0.00000
     15      49.4736      0.00000
     16      56.1886      0.00000

 k-point     8 :       0.0714   -0.0714    0.0714
  band No.  band energies     occupation 
      1       2.6794      2.00000
      2      10.9100      2.00000
      3      10.9100      2.00000
      4      11.3324      2.00000
      5      14.9343      0.00000
      6      16.9446      0.00000
      7      31.0242      0.00000
      8      31.0242      0.00000
      9      31.6123      0.00000
     10      43.0659      0.00000
     11      45.7046      0.00000
     12      48.3550      0.00000
     13      48.3550      0.00000
     14      48.5193      0.00000
     15      49.6544      0.00000
     16      56.1820      0.00000

 k-point     9 :       0.0816   -0.0816    0.0816
  band No.  band energies     occupation 
      1       2.9166      2.00000
      2      10.9032      2.00000
      3      10.9032      2.00000
      4      11.4433      2.00000
      5      14.5511      0.00000
      6      17.1001      0.00000
      7      31.4137      0.00000
      8      31.4137      0.00000
      9      32.1183      0.00000
     10      41.9689      0.00000
     11      45.6969      0.00000
     12      48.3582      0.00000
     13      48.3583      0.00000
     14      48.5259      0.00000
     15      49.8650      0.00000
     16      56.1625      0.00000

 k-point    10 :       0.0918   -0.0918    0.0918
  band No.  band energies     occupation 
      1       3.1786      2.00000
      2      10.9011      2.00000
      3      10.9011      2.00000
      4      11.5687      2.00000
      5      14.1463      0.00000
      6      17.2733      0.00000
      7      31.8480      0.00000
      8      31.8480      0.00000
      9      32.6593      0.00000
     10      40.8787      0.00000
     11      45.6921      0.00000
     12      48.3614      0.00000
     13      48.3614      0.00000
     14      48.5340      0.00000
     15      50.1060      0.00000
     16      56.1237      0.00000

 k-point    11 :       0.1020   -0.1020    0.1020
  band No.  band energies     occupation 
      1       3.4638      2.00000
      2      10.9054      2.00000
      3      10.9054      2.00000
      4      11.7084      2.00000
      5      13.7255      2.00000
      6      17.4628      0.00000
      7      32.3250      0.00000
      8      32.3250      0.00000
      9      33.2288      0.00000
     10      39.8083      0.00000
     11      45.6893      0.00000
     12      48.3662      0.00000
     13      48.3662      0.00000
     14      48.5502      0.00000
     15      50.3798      0.00000
     16      56.0583      0.00000

 k-point    12 :       0.1122   -0.1122    0.1122
  band No.  band energies     occupation 
      1       3.7679      2.00000
      2      10.9174      2.00000
      3      10.9174      2.00000
      4      11.8623      2.00000
      5      13.2933      2.00000
      6      17.6666      0.00000
      7      32.8421      0.00000
      8      32.8421      0.00000
      9      33.8209      0.00000
     10      38.7650      0.00000
     11      45.6860      0.00000
     12      48.3681      0.00000
     13      48.3681      0.00000
     14      48.5608      0.00000
     15      50.6846      0.00000
     16      55.9540      0.00000

 k-point    13 :       0.1224   -0.1224    0.1224
  band No.  band energies     occupation 
      1       4.0886      2.00000
      2      10.9387      2.00000
      3      10.9387      2.00000
      4      12.0303      2.00000
      5      12.8537      2.00000
      6      17.8821      0.00000
      7      33.3968      0.00000
      8      33.3968      0.00000
      9      34.4302      0.00000
     10      37.7581      0.00000
     11      45.6829      0.00000
     12      48.3687      0.00000
     13      48.3687      0.00000
     14      48.5724      0.00000
     15      51.0229      0.00000
     16      55.7992      0.00000

 k-point    14 :       0.1327   -0.1327    0.1327
  band No.  band energies     occupation 
      1       4.4226      2.00000
      2      10.9708      2.00000
      3      10.9708      2.00000
      4      12.2122      2.00000
      5      12.4102      2.00000
      6      18.1063      0.00000
      7      33.9867      0.00000
      8      33.9867      0.00000
      9      35.0521      0.00000
     10      36.7957      0.00000
     11      45.6796      0.00000
     12      48.3673      0.00000
     13      48.3673      0.00000
     14      48.5845      0.00000
     15      51.3957      0.00000
     16      55.5803      0.00000

 k-point    15 :       0.1429   -0.1429    0.1429
  band No.  band energies     occupation 
      1       4.7668      2.00000
[...]

 k-point   236 :       0.0000    0.0000    0.3571
  band No.  band energies     occupation 
      1       4.3624      2.00000
      2       7.5673      2.00000
      3      13.4672      2.00000
      4      16.8621      0.00000
      5      17.5305      0.00000
      6      20.1003      0.00000
      7      28.9541      0.00000
      8      34.4905      0.00000
      9      42.6647      0.00000
     10      43.7072      0.00000
     11      43.8937      0.00000
     12      45.4680      0.00000
     13      46.7435      0.00000
     14      48.4844      0.00000
     15      49.0241      0.00000
     16      49.0780      0.00000

 k-point   237 :       0.0000    0.0000    0.3673
  band No.  band energies     occupation 
      1       4.2861      2.00000
      2       7.4887      2.00000
      3      13.7742      1.99999
      4      16.9744      0.00000
      5      17.6225      0.00000
      6      20.5228      0.00000
      7      28.6725      0.00000
      8      34.2715      0.00000
      9      43.0761      0.00000
     10      43.2752      0.00000
     11      44.4152      0.00000
     12      45.3436      0.00000
     13      46.3597      0.00000
     14      48.4863      0.00000
     15      48.9975      0.00000
     16      49.1361      0.00000

 k-point   238 :       0.0000    0.0000    0.3776
  band No.  band energies     occupation 
      1       4.2111      2.00000
      2       7.4154      2.00000
      3      14.0794      0.00002
      4      17.0773      0.00000
      5      17.7150      0.00000
      6      20.9406      0.00000
      7      28.3998      0.00000
      8      34.0697      0.00000
      9      42.4573      0.00000
     10      43.8904      0.00000
     11      44.9554      0.00000
     12      45.0847      0.00000
     13      46.0912      0.00000
     14      48.4894      0.00000
     15      48.9779      0.00000
     16      49.1624      0.00000

 k-point   239 :       0.0000    0.0000    0.3878
  band No.  band energies     occupation 
      1       4.1387      2.00000
      2       7.3474      2.00000
      3      14.3806      0.00000
      4      17.1687      0.00000
      5      17.8070      0.00000
      6      21.3512      0.00000
      7      28.1383      0.00000
      8      33.8871      0.00000
      9      41.8574      0.00000
     10      44.5088      0.00000
     11      44.6964      0.00000
     12      45.5122      0.00000
     13      45.9548      0.00000
     14      48.4940      0.00000
     15      48.9635      0.00000
     16      49.1757      0.00000

 k-point   240 :       0.0000    0.0000    0.3980
  band No.  band energies     occupation 
      1       4.0699      2.00000
      2       7.2850      2.00000
      3      14.6760      0.00000
      4      17.2468      0.00000
      5      17.8974      0.00000
      6      21.7514      0.00000
      7      27.8902      0.00000
      8      33.7247      0.00000
      9      41.2813      0.00000
     10      44.2504      0.00000
     11      45.1285      0.00000
     12      45.8912      0.00000
     13      46.0828      0.00000
     14      48.5015      0.00000
     15      48.9528      0.00000
     16      49.1837      0.00000

 k-point   241 :       0.0000    0.0000    0.4082
  band No.  band energies     occupation 
      1       4.0057      2.00000
      2       7.2283      2.00000
      3      14.9636      0.00000
      4      17.3094      0.00000
      5      17.9853      0.00000
      6      22.1377      0.00000
      7      27.6576      0.00000
      8      33.5832      0.00000
      9      40.7340      0.00000
     10      43.7971      0.00000
     11      45.7468      0.00000
     12      45.8591      0.00000
     13      46.6628      0.00000
     14      48.5146      0.00000
     15      48.9447      0.00000
     16      49.1896      0.00000

 k-point   242 :       0.0000    0.0000    0.4184
  band No.  band energies     occupation 
      1       3.9467      2.00000
      2       7.1772      2.00000
      3      15.2417      0.00000
      4      17.3549      0.00000
      5      18.0692      0.00000
      6      22.5058      0.00000
      7      27.4424      0.00000
      8      33.4625      0.00000
      9      40.2203      0.00000
     10      43.3604      0.00000
     11      45.8411      0.00000
     12      46.3603      0.00000
     13      47.2429      0.00000
     14      48.5411      0.00000
     15      48.9387      0.00000
     16      49.1945      0.00000

 k-point   243 :       0.0000    0.0000    0.4286
  band No.  band energies     occupation 
      1       3.8936      2.00000
      2       7.1327      2.00000
      3      15.5088      0.00000
      4      17.3815      0.00000
      5      18.1479      0.00000
      6      22.8510      0.00000
      7      27.2467      0.00000
      8      33.3635      0.00000
      9      39.7463      0.00000
     10      42.9540      0.00000
     11      45.8305      0.00000
     12      46.9705      0.00000
     13      47.7917      0.00000
     14      48.6182      0.00000
     15      48.9374      0.00000
     16      49.2006      0.00000

 k-point   244 :       0.0000    0.0000    0.4388
  band No.  band energies     occupation 
      1       3.8458      2.00000
      2       7.0934      2.00000
      3      15.7628      0.00000
      4      17.3878      0.00000
      5      18.2199      0.00000
      6      23.1681      0.00000
      7      27.0722      0.00000
      8      33.2821      0.00000
      9      39.3163      0.00000
     10      42.5847      0.00000
     11      45.8228      0.00000
     12      47.5589      0.00000
     13      48.1886      0.00000
     14      48.8479      0.00000
     15      48.9341      0.00000
     16      49.2007      0.00000

 k-point   245 :       0.0000    0.0000    0.4490
  band No.  band energies     occupation 
      1       3.8053      2.00000
      2       7.0600      2.00000
      3      16.0027      0.00000
      4      17.3729      0.00000
      5      18.2839      0.00000
      6      23.4512      0.00000
      7      26.9209      0.00000
      8      33.2188      0.00000
      9      38.9372      0.00000
     10      42.2604      0.00000
     11      45.8185      0.00000
     12      48.1212      0.00000
     13      48.3379      0.00000
     14      48.9318      0.00000
     15      49.2041      0.00000
     16      49.3313      0.00000

 k-point   246 :       0.0000    0.0000    0.4592
  band No.  band energies     occupation 
      1       3.7719      2.00000
      2       7.0326      2.00000
      3      16.2265      0.00000
      4      17.3361      0.00000
      5      18.3385      0.00000
      6      23.6942      0.00000
      7      26.7943      0.00000
      8      33.1713      0.00000
      9      38.6154      0.00000
     10      41.9866      0.00000
     11      45.8156      0.00000
     12      48.3850      0.00000
     13      48.6429      0.00000
     14      48.9301      0.00000
     15      49.2069      0.00000
     16      49.9157      0.00000

 k-point   247 :       0.0000    0.0000    0.4694
  band No.  band energies     occupation 
      1       3.7456      2.00000
      2       7.0113      2.00000
      3      16.4326      0.00000
      4      17.2773      0.00000
      5      18.3825      0.00000
      6      23.8912      0.00000
      7      26.6942      0.00000
      8      33.1374      0.00000
      9      38.3570      0.00000
     10      41.7680      0.00000
     11      45.8137      0.00000
     12      48.4045      0.00000
     13      48.9289      0.00000
     14      49.1030      0.00000
     15      49.2091      0.00000
     16      50.5138      0.00000

 k-point   248 :       0.0000    0.0000    0.4796
  band No.  band energies     occupation 
      1       3.7266      2.00000
      2       6.9960      2.00000
      3      16.6186      0.00000
      4      17.1976      0.00000
      5      18.4148      0.00000
      6      24.0365      0.00000
      7      26.6217      0.00000
      8      33.1150      0.00000
      9      38.1677      0.00000
     10      41.6088      0.00000
     11      45.8125      0.00000
     12      48.4140      0.00000
     13      48.9281      0.00000
     14      49.2107      0.00000
     15      49.4724      0.00000
     16      51.0794      0.00000

 k-point   249 :       0.0000    0.0000    0.4898
  band No.  band energies     occupation 
      1       3.7152      2.00000
      2       6.9868      2.00000
      3      16.7784      0.00000
      4      17.1020      0.00000
      5      18.4345      0.00000
      6      24.1258      0.00000
      7      26.5777      0.00000
      8      33.1024      0.00000
      9      38.0520      0.00000
     10      41.5119      0.00000
     11      45.8119      0.00000
     12      48.4186      0.00000
     13      48.9277      0.00000
     14      49.2118      0.00000
     15      49.7161      0.00000
     16      51.5364      0.00000

 k-point   250 :       0.0000    0.0000    0.5000
  band No.  band energies     occupation 
      1       3.7114      2.00000
      2       6.9838      2.00000
      3      16.8683      0.00000
      4      17.0335      0.00000
      5      18.4411      0.00000
      6      24.1559      0.00000
      7      26.5630      0.00000
      8      33.0983      0.00000
      9      38.0131      0.00000
     10      41.4794      0.00000
     11      45.8117      0.00000
     12      48.4200      0.00000
     13      48.9276      0.00000
     14      49.2122      0.00000
     15      49.8018      0.00000
     16      51.7290      0.00000


--------------------------------------------------------------------------------------------------------


 soft charge-density along one line, spin component           1
         0         1         2         3         4         5         6         7         8         9
 total charge-density along one line
 
 pseudopotential strength for first ion, spin component:           1
 -5.671   0.000   0.000   0.000   0.000   0.000   0.000   0.000   0.000   0.000   0.224   0.000   0.000   0.000   0.000   0.000
  0.000   0.000  -5.671   0.000   0.000   0.000   0.000   0.000   0.000   0.000   0.000   0.000   0.224   0.000   0.000   0.000
  0.000   0.000   0.000   0.000  -5.648   0.000   0.000   0.000   0.000   0.000   0.000   0.000   0.000   0.000   0.226   0.000
  0.000   0.000   0.000   0.000   0.000   0.000  -5.671   0.000   0.000   0.000   0.000   0.000   0.000   0.000   0.000   0.000
  0.000   0.000   0.000   0.000   0.000   0.000   0.000   0.000  -5.648   0.000   0.000   0.000   0.000   0.000   0.000   0.000
  0.224   0.000   0.000   0.000   0.000   0.000   0.000   0.000   0.000   0.000   0.092   0.000   0.000   0.000   0.000   0.000
  0.000   0.000   0.224   0.000   0.000   0.000   0.000   0.000   0.000   0.000   0.000   0.000   0.092   0.000   0.000   0.000
  0.000   0.000   0.000   0.000   0.226   0.000   0.000   0.000   0.000   0.000   0.000   0.000   0.000   0.000   0.092   0.000
  0.000   0.000   0.000   0.000   0.000   0.000   0.224   0.000   0.000   0.000   0.000   0.000   0.000   0.000   0.000   0.000
  0.000   0.000   0.000   0.000   0.000   0.000   0.000   0.000   0.226   0.000   0.000   0.000   0.000   0.000   0.000   0.000
  0.000   0.000   0.000   0.000   0.000   0.000   0.000   0.000   0.000   0.000   0.000   0.000   0.000   0.000   0.000   0.000
  0.000   0.000   0.000   0.000   0.000   0.000   0.000   0.000   0.000   0.000   0.000   0.000   0.000   0.000   0.000   0.000
  0.000   0.000   0.000   0.000   0.000   0.000   0.000   0.000   0.000   0.000   0.000   0.000   0.000   0.000   0.000   0.000
  0.000   0.000   0.000   0.000   0.000   0.000   0.000   0.000   0.000   0.000   0.000   0.000   0.000   0.000   0.000   0.000
  0.000   0.000   0.000   0.000   0.000   0.000   0.000   0.000   0.000   0.000   0.000   0.000   0.000   0.000   0.000   0.000
  0.000   0.000   0.000   0.000   0.000   0.000   0.000   0.000   0.000   0.000   0.000   0.000   0.000   0.000   0.000   0.000
  0.000   0.000   0.000   0.000   0.000   0.000   0.000   0.000   0.000   0.000   0.000   0.000   0.000   0.000   0.000   0.000
  0.000   0.000   0.000   0.000   0.000   0.000   0.000   0.000   0.000   0.000   0.000   0.000   0.000   0.000   0.000   0.000
 total augmentation occupancy for first ion, spin component:           1
  1.000   0.000   0.000   0.000   0.000   0.000   0.000   0.000   0.000   0.000   0.000   0.000   0.000   0.000   0.000   0.000
  0.000   1.000   0.000   0.000   0.000   0.000   0.000   0.000   0.000   0.000   0.000   0.000   0.000   0.000   0.000   0.000
  0.000   0.000   1.000   0.000   0.000   0.000   0.000   0.000   0.000   0.000   0.000   0.000   0.000   0.000   0.000   0.000
  0.000   0.000   0.000   1.000   0.000   0.000   0.000   0.000   0.000   0.000   0.000   0.000   0.000   0.000   0.000   0.000
  0.000   0.000   0.000   0.000   1.000   0.000   0.000   0.000   0.000   0.000   0.000   0.000   0.000   0.000   0.000   0.000
  0.000   0.000   0.000   0.000   0.000   0.000   0.000   0.000   0.000   0.000   0.000   0.000   0.000   0.000   0.000   0.000
  0.000   0.000   0.000   0.000   0.000   0.000   0.000   0.000   0.000   0.000   0.000   0.000   0.000   0.000   0.000   0.000
  0.000   0.000   0.000   0.000   0.000   0.000   0.000   0.000   0.000   0.000   0.000   0.000   0.000   0.000   0.000   0.000
  0.000   0.000   0.000   0.000   0.000   0.000   0.000   0.000   0.000   0.000   0.000   0.000   0.000   0.000   0.000   0.000
  0.000   0.000   0.000   0.000   0.000   0.000   0.000   0.000   0.000   0.000   0.000   0.000   0.000   0.000   0.000   0.000
  0.000   0.000   0.000   0.000   0.000   0.000   0.000   0.000   0.000   0.000   1.000   0.000   0.000   0.000   0.000   0.000
  0.000   0.000   0.000   0.000   0.000   0.000   0.000   0.000   0.000   0.000   0.000   0.000   0.000   0.000   0.000   0.000
  0.000   0.000   0.000   0.000   0.000   0.000   0.000   0.000   0.000   0.000   0.000   0.000   0.000   0.000   0.000   0.000
  0.000   0.000   0.000   0.000   0.000   0.000   0.000   0.000   0.000   0.000   0.000   0.000   0.000   0.000   0.000   0.000
  0.000   0.000   0.000   0.000   0.000   0.000   0.000   0.000   0.000   0.000   0.000   0.000   0.000   0.000   0.000   0.000
  0.000   0.000   0.000   0.000   0.000   0.000   0.000   0.000   0.000   0.000   0.000   0.000   0.000   0.000   0.000   0.000
  0.000   0.000   0.000   0.000   0.000   0.000   0.000   0.000   0.000   0.000   0.000   0.000   0.000   0.000   0.000   0.000
  0.000   0.000   0.000   0.000   0.000   0.000   0.000   0.000   0.000   0.000   0.000   0.000   0.000   0.000   0.000   0.000


------------------------ aborting loop because EDIFF is reached ----------------------------------------


 


 total charge     
 
# of ion     s       p       d       tot
----------------------------------------
  1        1.138   0.853   5.671   7.662
 
    CHARGE:  cpu time    0.01: real time    0.01
    FORLOC:  cpu time    0.00: real time    0.00
    FORNL :  cpu time    0.01: real time    0.01
    STRESS:  cpu time    0.17: real time    0.17
    FORCOR:  cpu time    0.00: real time    0.00
    FORHAR:  cpu time    0.00: real time    0.00
    OFIELD:  cpu time    0.00: real time    0.00

  FORCE on cell =-STRESS in cart. coord.  units (eV):
  Direction    XX          YY          ZZ          XY          YZ          ZX
  --------------------------------------------------------------------------------------
  Alpha Z    66.40147    66.40147    66.40147
  Ewald    -113.92214  -113.92214  -113.92214     0.00000     0.00000     0.00000
  Hartree     0.51608     0.51608     0.51608     0.00000     0.00000     0.00000
  E(xc)     -31.75939   -31.75939   -31.75939     0.00000     0.00000     0.00000
  Local       8.55433     8.55433     8.55433     0.00000     0.00000     0.00000
  n-local   -12.35823   -12.79154    -8.08431    -6.29678    -1.40190    -1.40190
  augment     5.47539     5.47539     5.47539     0.00000     0.00000     0.00000
  Kinetic    89.72494    87.48235   101.67096     0.83901     0.91808     0.91808
  Fock        0.00000     0.00000     0.00000     0.00000     0.00000     0.00000
  -------------------------------------------------------------------------------------
  Total      17.14715    17.14715    17.14715     0.00000     0.00000     0.00000
  in kB    2613.39604  2613.39604  2613.39604     0.00000     0.00000     0.00000
  external pressure =     2613.40 kB  Pullay stress =        0.00 kB


 VOLUME and BASIS-vectors are now :
 -----------------------------------------------------------------------------
  energy-cutoff  :      300.00
  volume of cell :       10.51
      direct lattice vectors                 reciprocal lattice vectors
    -1.380000000  1.380000000  1.380000000     0.000000000  0.362318841  0.362318841
     1.380000000 -1.380000000  1.380000000     0.362318841  0.000000000  0.362318841
     1.380000000  1.380000000 -1.380000000     0.362318841  0.362318841  0.000000000

  length of vectors
     2.390230114  2.390230114  2.390230114     0.512396218  0.512396218  0.512396218


 FORCES acting on ions
    electron-ion (+dipol)            ewald-force                    non-local-force                 convergence-correction
 -----------------------------------------------------------------------------------------------
   -.607E-15 -.194E-14 -.255E-14   -.571E-15 -.128E-14 -.531E-16   -.263E-26 0.162E-26 -.808E-27   0.134E-15 0.402E-16 0.273E-16
 -----------------------------------------------------------------------------------------------
   -.607E-15 -.194E-14 -.255E-14   -.571E-15 -.128E-14 -.531E-16   -.263E-26 0.162E-26 -.808E-27   0.134E-15 0.402E-16 0.273E-16
 
 
 POSITION                                       TOTAL-FORCE (eV/Angst)
 -----------------------------------------------------------------------------------
      0.00000      0.00000      0.00000         0.000000      0.000000      0.000000
 -----------------------------------------------------------------------------------
    total drift:                                0.000000      0.000000      0.000000


--------------------------------------------------------------------------------------------------------



  FREE ENERGIE OF THE ION-ELECTRON SYSTEM (eV)
  ---------------------------------------------------
  free  energy   TOTEN  =       -12.39098585 eV

  energy  without entropy=      -12.39049214  energy(sigma->0) =      -12.39073900
 


--------------------------------------------------------------------------------------------------------


    POTLOK:  cpu time    0.00: real time    0.00


--------------------------------------------------------------------------------------------------------


 writing wavefunctions
     LOOP+:  cpu time    8.51: real time    8.70
    4ORBIT:  cpu time    0.00: real time    0.00
 


 total charge     
 
# of ion     s       p       d       tot
----------------------------------------
  1        1.138   0.853   5.671   7.662
 

 total amount of memory used by VASP on root node    36056. kBytes
========================================================================

   base      :      30000. kBytes
   nonl-proj :       5186. kBytes
   fftplans  :         55. kBytes
   grid      :         96. kBytes
   one-center:         15. kBytes
   wavefun   :        704. kBytes
 
  
  
 General timing and accounting informations for this job:
 ========================================================
  
                  Total CPU time used (sec):        9.095
                            User time (sec):        8.977
                          System time (sec):        0.118
                         Elapsed time (sec):       10.504
  
                   Maximum memory used (kb):       28496.
                   Average memory used (kb):           0.
  
                          Minor page faults:         9833
                          Major page faults:           14
                 Voluntary context switches:         4687
