   2   2   0   0
  0.1798157E+02  0.3300800E-09  0.3300800E-09  0.3300800E-09  0.5000000E-15
  1.000000000000000E-004
  CAR 
 Nb tetrahedron                          
     51.05338214    -29.73957126  301      4.83776826      1.00000000
    -29.740  0.0000E+00  0.0000E+00
    -29.470  0.0000E+00  0.0000E+00
    -29.201  0.0000E+00  0.0000E+00
    -28.932  0.0000E+00  0.0000E+00
    -28.662  0.0000E+00  0.0000E+00
    -28.393  0.0000E+00  0.0000E+00
    -28.124  0.0000E+00  0.0000E+00
    -27.854  0.0000E+00  0.0000E+00
    -27.585  0.0000E+00  0.0000E+00
    -27.316  0.0000E+00  0.0000E+00
    -27.046  0.0000E+00  0.0000E+00
    -26.777  0.0000E+00  0.0000E+00
    -26.508  0.0000E+00  0.0000E+00
    -26.239  0.0000E+00  0.0000E+00
    -25.969  0.4269E+01  0.2638E+00
    -25.700  0.7335E+01  0.2705E+01
    -25.431  0.7073E+01  0.4284E+01
    -25.161  0.1058E+02  0.6586E+01
    -24.892  0.1241E+02  0.9270E+01
    -24.623  0.0000E+00  0.1200E+02
    -24.353  0.0000E+00  0.1200E+02
    -24.084  0.0000E+00  0.1200E+02
    -23.815  0.0000E+00  0.1200E+02
    -23.545  0.0000E+00  0.1200E+02
    -23.276  0.0000E+00  0.1200E+02
    -23.007  0.0000E+00  0.1200E+02
    -22.738  0.0000E+00  0.1200E+02
    -22.468  0.0000E+00  0.1200E+02
    -22.199  0.0000E+00  0.1200E+02
    -21.930  0.0000E+00  0.1200E+02
    -21.660  0.0000E+00  0.1200E+02
    -21.391  0.0000E+00  0.1200E+02
    -21.122  0.0000E+00  0.1200E+02
    -20.852  0.0000E+00  0.1200E+02
    -20.583  0.0000E+00  0.1200E+02
    -20.314  0.0000E+00  0.1200E+02
    -20.044  0.0000E+00  0.1200E+02
    -19.775  0.0000E+00  0.1200E+02
    -19.506  0.0000E+00  0.1200E+02
    -19.236  0.0000E+00  0.1200E+02
    -18.967  0.0000E+00  0.1200E+02
    -18.698  0.0000E+00  0.1200E+02
    -18.429  0.0000E+00  0.1200E+02
    -18.159  0.0000E+00  0.1200E+02
    -17.890  0.0000E+00  0.1200E+02
    -17.621  0.0000E+00  0.1200E+02
    -17.351  0.0000E+00  0.1200E+02
    -17.082  0.0000E+00  0.1200E+02
    -16.813  0.0000E+00  0.1200E+02
    -16.543  0.0000E+00  0.1200E+02
    -16.274  0.0000E+00  0.1200E+02
    -16.005  0.0000E+00  0.1200E+02
    -15.735  0.0000E+00  0.1200E+02
    -15.466  0.0000E+00  0.1200E+02
    -15.197  0.0000E+00  0.1200E+02
    -14.928  0.0000E+00  0.1200E+02
    -14.658  0.0000E+00  0.1200E+02
    -14.389  0.0000E+00  0.1200E+02
    -14.120  0.0000E+00  0.1200E+02
    -13.850  0.0000E+00  0.1200E+02
    -13.581  0.0000E+00  0.1200E+02
    -13.312  0.0000E+00  0.1200E+02
    -13.042  0.0000E+00  0.1200E+02
    -12.773  0.0000E+00  0.1200E+02
    -12.504  0.0000E+00  0.1200E+02
    -12.234  0.0000E+00  0.1200E+02
    -11.965  0.0000E+00  0.1200E+02
    -11.696  0.0000E+00  0.1200E+02
    -11.427  0.0000E+00  0.1200E+02
    -11.157  0.0000E+00  0.1200E+02
    -10.888  0.0000E+00  0.1200E+02
    -10.619  0.0000E+00  0.1200E+02
    -10.349  0.0000E+00  0.1200E+02
    -10.080  0.0000E+00  0.1200E+02
     -9.811  0.0000E+00  0.1200E+02
     -9.541  0.0000E+00  0.1200E+02
     -9.272  0.0000E+00  0.1200E+02
     -9.003  0.0000E+00  0.1200E+02
     -8.733  0.0000E+00  0.1200E+02
     -8.464  0.0000E+00  0.1200E+02
     -8.195  0.0000E+00  0.1200E+02
     -7.925  0.0000E+00  0.1200E+02
     -7.656  0.0000E+00  0.1200E+02
     -7.387  0.0000E+00  0.1200E+02
     -7.118  0.0000E+00  0.1200E+02
     -6.848  0.0000E+00  0.1200E+02
     -6.579  0.0000E+00  0.1200E+02
     -6.310  0.0000E+00  0.1200E+02
     -6.040  0.0000E+00  0.1200E+02
     -5.771  0.0000E+00  0.1200E+02
     -5.502  0.0000E+00  0.1200E+02
     -5.232  0.0000E+00  0.1200E+02
     -4.963  0.0000E+00  0.1200E+02
     -4.694  0.0000E+00  0.1200E+02
     -4.424  0.0000E+00  0.1200E+02
     -4.155  0.0000E+00  0.1200E+02
     -3.886  0.0000E+00  0.1200E+02
     -3.617  0.0000E+00  0.1200E+02
     -3.347  0.0000E+00  0.1200E+02
     -3.078  0.0000E+00  0.1200E+02
     -2.809  0.0000E+00  0.1200E+02
     -2.539  0.0000E+00  0.1200E+02
     -2.270  0.0000E+00  0.1200E+02
     -2.001  0.0000E+00  0.1200E+02
     -1.731  0.0000E+00  0.1200E+02
     -1.462  0.0000E+00  0.1200E+02
     -1.193  0.0000E+00  0.1200E+02
     -0.923  0.4629E-01  0.1200E+02
     -0.654  0.8793E-01  0.1202E+02
     -0.385  0.1224E+00  0.1205E+02
     -0.115  0.1602E+00  0.1209E+02
      0.154  0.1953E+00  0.1214E+02
      0.423  0.2435E+00  0.1220E+02
      0.692  0.3004E+00  0.1227E+02
      0.962  0.3891E+00  0.1236E+02
      1.231  0.1315E+01  0.1254E+02
      1.500  0.1970E+01  0.1303E+02
      1.770  0.2235E+01  0.1360E+02
      2.039  0.2749E+01  0.1425E+02
      2.308  0.2561E+01  0.1503E+02
      2.578  0.2737E+01  0.1580E+02
      2.847  0.1092E+01  0.1624E+02
      3.116  0.8383E+00  0.1649E+02
      3.386  0.4651E+01  0.1737E+02
      3.655  0.2914E+01  0.1859E+02
      3.924  0.2272E+01  0.1919E+02
      4.193  0.2023E+01  0.1982E+02
      4.463  0.3024E+01  0.2047E+02
      4.732  0.3994E+01  0.2164E+02
      5.001  0.2598E+01  0.2245E+02
      5.271  0.1209E+01  0.2294E+02
      5.540  0.1005E+01  0.2324E+02
      5.809  0.8148E+00  0.2350E+02
      6.079  0.1025E+01  0.2375E+02
      6.348  0.1115E+01  0.2404E+02
      6.617  0.1319E+01  0.2431E+02
      6.887  0.1973E+01  0.2477E+02
      7.156  0.2014E+01  0.2530E+02
      7.425  0.2420E+01  0.2590E+02
      7.694  0.2713E+01  0.2658E+02
      7.964  0.2877E+01  0.2731E+02
      8.233  0.2671E+01  0.2812E+02
      8.502  0.2798E+01  0.2882E+02
      8.772  0.4376E+01  0.2974E+02
      9.041  0.2921E+01  0.3116E+02
      9.310  0.1654E+01  0.3171E+02
      9.580  0.1521E+01  0.3219E+02
      9.849  0.1360E+01  0.3258E+02
     10.118  0.1159E+01  0.3291E+02
     10.388  0.1307E+01  0.3323E+02
     10.657  0.8340E+00  0.3351E+02
     10.926  0.6365E+00  0.3370E+02
     11.196  0.8006E+00  0.3388E+02
     11.465  0.6966E+00  0.3409E+02
     11.734  0.6499E+00  0.3427E+02
     12.003  0.6296E+00  0.3444E+02
     12.273  0.6114E+00  0.3461E+02
     12.542  0.5912E+00  0.3477E+02
     12.811  0.5755E+00  0.3493E+02
     13.081  0.5547E+00  0.3508E+02
     13.350  0.5549E+00  0.3523E+02
     13.619  0.5223E+00  0.3537E+02
     13.889  0.4984E+00  0.3551E+02
     14.158  0.4333E+00  0.3563E+02
     14.427  0.3613E+00  0.3574E+02
     14.697  0.5941E+00  0.3585E+02
     14.966  0.2855E+00  0.3597E+02
     15.235  0.2078E+00  0.3604E+02
     15.504  0.6422E+00  0.3616E+02
     15.774  0.9152E+00  0.3637E+02
     16.043  0.1061E+01  0.3663E+02
     16.312  0.1052E+01  0.3691E+02
     16.582  0.1163E+01  0.3720E+02
     16.851  0.1261E+01  0.3753E+02
     17.120  0.1113E+01  0.3785E+02
     17.390  0.1068E+01  0.3814E+02
     17.659  0.1276E+01  0.3847E+02
     17.928  0.1494E+01  0.3884E+02
     18.198  0.1725E+01  0.3930E+02
     18.467  0.1704E+01  0.3978E+02
     18.736  0.1639E+01  0.4024E+02
     19.006  0.1554E+01  0.4067E+02
     19.275  0.1542E+01  0.4108E+02
     19.544  0.1403E+01  0.4148E+02
     19.813  0.1324E+01  0.4184E+02
     20.083  0.1322E+01  0.4220E+02
     20.352  0.1139E+01  0.4254E+02
     20.621  0.1223E+01  0.4285E+02
     20.891  0.1417E+01  0.4319E+02
     21.160  0.1565E+01  0.4361E+02
     21.429  0.1567E+01  0.4403E+02
     21.699  0.1837E+01  0.4449E+02
     21.968  0.1927E+01  0.4503E+02
     22.237  0.1371E+01  0.4548E+02
     22.507  0.1422E+01  0.4586E+02
     22.776  0.1388E+01  0.4624E+02
     23.045  0.1119E+01  0.4657E+02
     23.314  0.6427E+00  0.4680E+02
     23.584  0.8230E+00  0.4699E+02
     23.853  0.9530E+00  0.4724E+02
     24.122  0.1155E+01  0.4752E+02
     24.392  0.1327E+01  0.4789E+02
     24.661  0.1509E+01  0.4823E+02
     24.930  0.2008E+01  0.4867E+02
     25.200  0.1595E+01  0.4921E+02
     25.469  0.1392E+01  0.4960E+02
     25.738  0.1278E+01  0.4996E+02
     26.008  0.1164E+01  0.5030E+02
     26.277  0.1150E+01  0.5061E+02
     26.546  0.1137E+01  0.5092E+02
     26.815  0.1065E+01  0.5122E+02
     27.085  0.8466E+00  0.5146E+02
     27.354  0.9038E+00  0.5169E+02
     27.623  0.1230E+01  0.5196E+02
     27.893  0.1344E+01  0.5234E+02
     28.162  0.1220E+01  0.5270E+02
     28.431  0.1078E+01  0.5298E+02
     28.701  0.1402E+01  0.5336E+02
     28.970  0.1554E+01  0.5379E+02
     29.239  0.1617E+01  0.5419E+02
     29.509  0.1450E+01  0.5460E+02
     29.778  0.1606E+01  0.5501E+02
     30.047  0.2164E+01  0.5550E+02
     30.317  0.9077E+00  0.5581E+02
     30.586  0.1010E+01  0.5607E+02
     30.855  0.1337E+01  0.5639E+02
     31.124  0.1741E+01  0.5682E+02
     31.394  0.1360E+01  0.5721E+02
     31.663  0.1189E+01  0.5755E+02
     31.932  0.1300E+01  0.5788E+02
     32.202  0.1578E+01  0.5828E+02
     32.471  0.1844E+01  0.5875E+02
     32.740  0.1867E+01  0.5926E+02
     33.010  0.1587E+01  0.5974E+02
     33.279  0.1769E+01  0.6021E+02
     33.548  0.1754E+01  0.6071E+02
     33.818  0.1516E+01  0.6116E+02
     34.087  0.1664E+01  0.6161E+02
     34.356  0.1687E+01  0.6206E+02
     34.625  0.1765E+01  0.6254E+02
     34.895  0.1508E+01  0.6299E+02
     35.164  0.1331E+01  0.6337E+02
     35.433  0.1272E+01  0.6373E+02
     35.703  0.9940E+00  0.6403E+02
     35.972  0.1105E+01  0.6431E+02
     36.241  0.1104E+01  0.6461E+02
     36.511  0.1252E+01  0.6492E+02
     36.780  0.1470E+01  0.6529E+02
     37.049  0.1842E+01  0.6573E+02
     37.319  0.2253E+01  0.6626E+02
     37.588  0.2185E+01  0.6683E+02
     37.857  0.2020E+01  0.6740E+02
     38.127  0.1973E+01  0.6792E+02
     38.396  0.1691E+01  0.6842E+02
     38.665  0.1357E+01  0.6883E+02
     38.934  0.1182E+01  0.6916E+02
     39.204  0.1702E+01  0.6956E+02
     39.473  0.1349E+01  0.7000E+02
     39.742  0.1653E+01  0.7039E+02
     40.012  0.2026E+01  0.7085E+02
     40.281  0.1691E+01  0.7130E+02
     40.550  0.1643E+01  0.7174E+02
     40.820  0.1692E+01  0.7219E+02
     41.089  0.1755E+01  0.7266E+02
     41.358  0.2275E+01  0.7319E+02
     41.628  0.2909E+01  0.7392E+02
     41.897  0.3704E+01  0.7476E+02
     42.166  0.1070E+02  0.7638E+02
     42.435  0.3178E+01  0.7788E+02
     42.705  0.2308E+01  0.7861E+02
     42.974  0.1756E+01  0.7915E+02
     43.243  0.9853E+00  0.7950E+02
     43.513  0.4595E+00  0.7968E+02
     43.782  0.3377E+00  0.7979E+02
     44.051  0.2558E+00  0.7986E+02
     44.321  0.1628E+00  0.7992E+02
     44.590  0.7095E-01  0.7995E+02
     44.859  0.2596E-01  0.7996E+02
     45.129  0.2290E-01  0.7997E+02
     45.398  0.2000E-01  0.7998E+02
     45.667  0.1727E-01  0.7998E+02
     45.936  0.1504E-01  0.7999E+02
     46.206  0.1216E-01  0.7999E+02
     46.475  0.9945E-02  0.7999E+02
     46.744  0.7920E-02  0.8000E+02
     47.014  0.6082E-02  0.8000E+02
     47.283  0.4431E-02  0.8000E+02
     47.552  0.0000E+00  0.8000E+02
     47.822  0.0000E+00  0.8000E+02
     48.091  0.0000E+00  0.8000E+02
     48.360  0.0000E+00  0.8000E+02
     48.630  0.0000E+00  0.8000E+02
     48.899  0.0000E+00  0.8000E+02
     49.168  0.0000E+00  0.8000E+02
     49.438  0.0000E+00  0.8000E+02
     49.707  0.0000E+00  0.8000E+02
     49.976  0.0000E+00  0.8000E+02
     50.245  0.0000E+00  0.8000E+02
     50.515  0.0000E+00  0.8000E+02
     50.784  0.0000E+00  0.8000E+02
     51.053  0.0000E+00  0.8000E+02
