    2    2    1    1
  0.1798157E+02  0.3300800E-09  0.3300800E-09  0.3300800E-09  0.5000000E-15
  1.000000000000000E-004
  CAR 
 Nb tetrahedron                          
     22    120     40
 
  0.3125000E-01  0.3125000E-01  0.3125000E-01  0.1953125E-02
    1      -25.639991   1.000000
    2      -25.639991   1.000000
    3      -25.620946   1.000000
    4      -24.715591   1.000000
    5      -24.693988   1.000000
    6      -24.693988   1.000000
    7       -1.026444   1.000000
    8        1.125699   1.000000
    9        1.125699   1.000000
   10        5.136284   0.000000
   11        5.136284   0.000000
   12        5.233156   0.000000
   13        8.050148   0.000000
   14        8.050148   0.000000
   15       10.074895   0.000000
   16       10.372447   0.000000
   17       10.372447   0.000000
   18       14.310295   0.000000
   19       14.310295   0.000000
   20       14.448001   0.000000
   21       20.445163   0.000000
   22       20.527059   0.000000
   23       20.527059   0.000000
   24       23.547066   0.000000
   25       25.875914   0.000000
   26       25.875914   0.000000
   27       30.096062   0.000000
   28       30.096062   0.000000
   29       30.141814   0.000000
   30       33.888735   0.000000
   31       34.705584   0.000000
   32       34.705584   0.000000
   33       40.700873   0.000000
   34       40.976818   0.000000
   35       40.976818   0.000000
   36       41.210955   0.000000
   37       41.676069   0.000000
   38       41.983832   0.000000
   39       41.983832   0.000000
   40       42.222781   0.000000
 
  0.9375000E-01  0.3125000E-01  0.3125000E-01  0.5859375E-02
    1      -25.652286   1.000000
    2      -25.621295   1.000000
    3      -25.592613   1.000000
    4      -24.764408   1.000000
    5      -24.711544   1.000000
    6      -24.702270   1.000000
    7       -0.864434   1.000000
    8        1.213465   1.000000
    9        1.266786   1.000000
   10        5.076357  -0.017760
   11        5.117660  -0.000001
   12        5.354364   0.000000
   13        7.825754   0.000000
   14        8.136287   0.000000
   15        9.488577   0.000000
   16        9.840673   0.000000
   17       10.357300   0.000000
   18       13.873842   0.000000
   19       15.017411   0.000000
   20       15.062614   0.000000
   21       20.605631   0.000000
   22       20.792656   0.000000
   23       20.831123   0.000000
   24       23.908783   0.000000
   25       25.773279   0.000000
   26       25.796175   0.000000
   27       28.654962   0.000000
   28       30.364933   0.000000
   29       30.371281   0.000000
   30       33.431799   0.000000
   31       34.403731   0.000000
   32       35.926197   0.000000
   33       40.237508   0.000000
   34       40.254088   0.000000
   35       40.723012   0.000000
   36       40.813214   0.000000
   37       41.072053   0.000000
   38       41.909570   0.000000
   39       41.954565   0.000000
   40       42.545909   0.000000
 
  0.1562500E+00  0.3125000E-01  0.3125000E-01  0.5859375E-02
    1      -25.659779   1.000000
    2      -25.584629   1.000000
    3      -25.551480   1.000000
    4      -24.844449   1.000000
    5      -24.745940   1.000000
    6      -24.731284   1.000000
    7       -0.551088   1.000000
    8        1.388645   1.000000
    9        1.529831   1.000000
   10        5.033373  -0.067008
   11        5.092200  -0.005721
   12        5.530748   0.000000
   13        7.412228   0.000000
   14        8.300203   0.000000
   15        8.765229   0.000000
   16        9.099801   0.000000
   17       10.132161   0.000000
   18       13.125609   0.000000
   19       16.080075   0.000000
   20       16.106108   0.000000
   21       20.952884   0.000000
   22       21.299052   0.000000
   23       21.356530   0.000000
   24       23.882566   0.000000
   25       25.643758   0.000000
   26       26.243754   0.000000
   27       26.808197   0.000000
   28       30.793538   0.000000
   29       30.896481   0.000000
   30       32.841657   0.000000
   31       33.814290   0.000000
   32       36.928247   0.000000
   33       39.016476   0.000000
   34       39.644263   0.000000
   35       39.907979   0.000000
   36       40.417800   0.000000
   37       40.506024   0.000000
   38       41.587404   0.000000
   39       42.105786   0.000000
   40       42.780325   0.000000
 
  0.2187500E+00  0.3125000E-01  0.3125000E-01  0.5859375E-02
    1      -25.660579   1.000000
    2      -25.531531   1.000000
    3      -25.496711   1.000000
    4      -24.949513   1.000000
    5      -24.796077   1.000000
    6      -24.777820   1.000000
    7       -0.107587   1.000000
    8        1.648866   1.000000
    9        1.874995   1.000000
   10        5.018523  -0.035207
   11        5.073534  -0.014730
   12        5.768055   0.000000
   13        6.866161   0.000000
   14        8.030974   0.000000
   15        8.338089   0.000000
   16        8.524955   0.000000
   17        9.772300   0.000000
   18       12.255181   0.000000
   19       17.300202   0.000000
   20       17.380799   0.000000
   21       21.416301   0.000000
   22       21.976242   0.000000
   23       22.078468   0.000000
   24       23.196774   0.000000
   25       25.016195   0.000000
   26       25.419346   0.000000
   27       27.525784   0.000000
   28       31.395743   0.000000
   29       31.483861   0.000000
   30       31.986954   0.000000
   31       33.160333   0.000000
   32       37.508000   0.000000
   33       37.547285   0.000000
   34       37.959625   0.000000
   35       39.561692   0.000000
   36       40.153139   0.000000
   37       40.443584   0.000000
   38       41.159426   0.000000
   39       42.218598   0.000000
   40       42.845195   0.000000
 
  0.2812500E+00  0.3125000E-01  0.3125000E-01  0.5859375E-02
    1      -25.650569   1.000000
    2      -25.464137   1.000000
    3      -25.429220   1.000000
    4      -25.070314   1.000000
    5      -24.860252   1.000000
    6      -24.839090   1.000000
    7        0.434361   1.000000
    8        1.991379   1.000000
    9        2.238092   1.000000
   10        5.047333  -0.010621
   11        5.069069  -0.029592
   12        6.068100   0.000000
   13        6.255733   0.000000
   14        7.350588   0.000000
   15        7.628295   0.000000
   16        8.783839   0.000000
   17        9.326281   0.000000
   18       11.395820   0.000000
   19       18.615529   0.000000
   20       18.756763   0.000000
   21       21.927615   0.000000
   22       22.326340   0.000000
   23       22.442774   0.000000
   24       22.940865   0.000000
   25       23.760030   0.000000
   26       25.133094   0.000000
   27       29.192871   0.000000
   28       30.932595   0.000000
   29       31.195558   0.000000
   30       32.122088   0.000000
   31       33.492786   0.000000
   32       35.918547   0.000000
   33       36.159190   0.000000
   34       37.814410   0.000000
   35       38.864469   0.000000
   36       40.363474   0.000000
   37       40.589521   0.000000
   38       40.746984   0.000000
   39       42.244306   0.000000
   40       42.832165   0.000000
 
  0.3437500E+00  0.3125000E-01  0.3125000E-01  0.5859375E-02
    1      -25.625127   1.000000
    2      -25.385244   1.000000
    3      -25.351137   1.000000
    4      -25.196176   1.000000
    5      -24.936295   1.000000
    6      -24.912482   1.000000
    7        1.031575   1.000000
    8        2.411537   1.000000
    9        2.527126   1.000000
   10        5.020790   0.195131
   11        5.136283  -0.054994
   12        5.705674   0.000000
   13        6.428709   0.000000
   14        6.756189   0.000000
   15        7.000219   0.000000
   16        8.830449   0.000000
   17        9.042459   0.000000
   18       10.645915   0.000000
   19       19.872728   0.000000
   20       20.181062   0.000000
   21       21.610433   0.000000
   22       21.617102   0.000000
   23       22.443429   0.000000
   24       23.801755   0.000000
   25       24.084147   0.000000
   26       24.793056   0.000000
   27       29.886715   0.000000
   28       30.269822   0.000000
   29       31.064971   0.000000
   30       32.828307   0.000000
   31       34.342002   0.000000
   32       34.342647   0.000000
   33       34.769914   0.000000
   34       37.836030   0.000000
   35       38.211883   0.000000
   36       40.352055   0.000000
   37       40.635789   0.000000
   38       40.933234   0.000000
   39       41.990899   0.000000
   40       42.782076   0.000000
 
  0.4062500E+00  0.3125000E-01  0.3125000E-01  0.5859375E-02
    1      -25.580136   1.000000
    2      -25.317031   1.000000
    3      -25.297895   1.000000
    4      -25.265216   1.000000
    5      -25.021345   1.000000
    6      -24.995040   1.000000
    7        1.627199   1.000000
    8        2.640169   1.000000
    9        2.903649   1.000000
   10        4.648590   0.990950
   11        5.298328  -0.027607
   12        5.549578   0.000000
   13        6.260695   0.000000
   14        6.468295   0.000000
   15        6.844169   0.000000
   16        8.314610   0.000000
   17        9.271306   0.000000
   18       10.076635   0.000000
   19       20.311621   0.000000
   20       20.699193   0.000000
   21       21.592947   0.000000
   22       21.911047   0.000000
   23       22.933144   0.000000
   24       24.329524   0.000000
   25       24.417700   0.000000
   26       24.516195   0.000000
   27       29.275193   0.000000
   28       29.664217   0.000000
   29       32.210976   0.000000
   30       32.601002   0.000000
   31       33.082753   0.000000
   32       34.183303   0.000000
   33       36.400903   0.000000
   34       36.993173   0.000000
   35       38.179824   0.000000
   36       39.969784   0.000000
   37       39.991521   0.000000
   38       41.456505   0.000000
   39       41.724618   0.000000
   40       42.308508   0.000000
 
  0.4687500E+00  0.3125000E-01  0.3125000E-01  0.5859375E-02
    1      -25.513213   1.000000
    2      -25.424543   1.000000
    3      -25.205630   1.000000
    4      -25.174827   1.000000
    5      -25.112285   1.000000
    6      -25.083622   1.000000
    7        2.148505   1.000000
    8        2.510070   1.000000
    9        3.457778   1.000000
   10        4.055729   1.000000
   11        5.539304  -0.000076
   12        5.724067   0.000000
   13        5.858961   0.000000
   14        6.040706   0.000000
   15        7.305615   0.000000
   16        7.800861   0.000000
   17        9.471457   0.000000
   18        9.706092   0.000000
   19       20.105570   0.000000
   20       20.182925   0.000000
   21       22.859559   0.000000
   22       23.097510   0.000000
   23       23.322535   0.000000
   24       24.052793   0.000000
   25       24.137866   0.000000
   26       24.141886   0.000000
   27       29.621822   0.000000
   28       29.946427   0.000000
   29       30.767246   0.000000
   30       31.057906   0.000000
   31       35.034266   0.000000
   32       35.177738   0.000000
   33       36.027595   0.000000
   34       37.121788   0.000000
   35       38.263027   0.000000
   36       39.398637   0.000000
   37       39.614883   0.000000
   38       40.280705   0.000000
   39       42.138910   0.000000
   40       42.179219   0.000000
 
  0.9375000E-01  0.9375000E-01  0.3125000E-01  0.5859375E-02
    1      -25.673722   1.000000
    2      -25.610806   1.000000
    3      -25.548416   1.000000
    4      -24.828825   1.000000
    5      -24.726023   1.000000
    6      -24.695033   1.000000
    7       -0.708043   1.000000
    8        1.322322   1.000000
    9        1.383873   1.000000
   10        4.945007   0.005880
   11        5.074440  -0.012333
   12        5.561907   0.000000
   13        7.801357   0.000000
   14        8.067603   0.000000
   15        8.843550   0.000000
   16        9.492477   0.000000
   17       10.427500   0.000000
   18       14.207563   0.000000
   19       14.869761   0.000000
   20       15.515992   0.000000
   21       20.671831   0.000000
   22       21.057462   0.000000
   23       21.133079   0.000000
   24       24.332586   0.000000
   25       25.572675   0.000000
   26       25.784346   0.000000
   27       28.435073   0.000000
   28       29.555204   0.000000
   29       30.579953   0.000000
   30       32.761424   0.000000
   31       34.631146   0.000000
   32       36.983457   0.000000
   33       39.141105   0.000000
   34       39.511010   0.000000
   35       40.445025   0.000000
   36       40.736619   0.000000
   37       40.929797   0.000000
   38       42.036700   0.000000
   39       42.247146   0.000000
   40       42.857840   0.000000
 
  0.1562500E+00  0.9375000E-01  0.3125000E-01  0.1171875E-01
    1      -25.695858   1.000000
    2      -25.576009   1.000000
    3      -25.493999   1.000000
    4      -24.922197   1.000000
    5      -24.758886   1.000000
    6      -24.706713   1.000000
    7       -0.406605   1.000000
    8        1.495745   1.000000
    9        1.640881   1.000000
   10        4.824701   0.612302
   11        5.020446  -0.022852
   12        5.822627   0.000000
   13        7.505622   0.000000
   14        8.123513   0.000000
   15        8.193499   0.000000
   16        8.817415   0.000000
   17       10.365037   0.000000
   18       13.617732   0.000000
   19       15.666646   0.000000
   20       16.372773   0.000000
   21       20.901141   0.000000
   22       21.532604   0.000000
   23       21.603924   0.000000
   24       24.257795   0.000000
   25       25.450306   0.000000
   26       26.316293   0.000000
   27       27.029368   0.000000
   28       29.707401   0.000000
   29       30.986322   0.000000
   30       32.185876   0.000000
   31       34.210982   0.000000
   32       37.919898   0.000000
   33       37.979411   0.000000
   34       39.181436   0.000000
   35       39.645706   0.000000
   36       40.147572   0.000000
   37       40.810220   0.000000
   38       42.119228   0.000000
   39       42.132597   0.000000
   40       43.317628   0.000000
 
  0.2187500E+00  0.9375000E-01  0.3125000E-01  0.1171875E-01
    1      -25.709409   1.000000
    2      -25.524128   1.000000
    3      -25.429944   1.000000
    4      -25.035570   1.000000
    5      -24.807125   1.000000
    6      -24.739184   1.000000
    7        0.017676   1.000000
    8        1.741938   1.000000
    9        1.985876   1.000000
   10        4.747435   0.904390
   11        4.960673   0.025153
   12        6.128823   0.000000
   13        7.054057   0.000000
   14        7.421863   0.000000
   15        8.107572   0.000000
   16        8.429073   0.000000
   17       10.110321   0.000000
   18       12.722466   0.000000
   19       16.790698   0.000000
   20       17.492604   0.000000
   21       21.243093   0.000000
   22       21.990130   0.000000
   23       22.293363   0.000000
   24       23.526959   0.000000
   25       25.265202   0.000000
   26       25.514972   0.000000
   27       27.663231   0.000000
   28       30.138509   0.000000
   29       31.471015   0.000000
   30       31.538971   0.000000
   31       33.681536   0.000000
   32       36.748845   0.000000
   33       37.677311   0.000000
   34       38.138814   0.000000
   35       39.778095   0.000000
   36       39.954049   0.000000
   37       40.739575   0.000000
   38       41.787195   0.000000
   39       42.218519   0.000000
   40       43.215558   0.000000
 
  0.2812500E+00  0.9375000E-01  0.3125000E-01  0.1171875E-01
    1      -25.709794   1.000000
    2      -25.458018   1.000000
    3      -25.356884   1.000000
    4      -25.160262   1.000000
    5      -24.869096   1.000000
    6      -24.789495   1.000000
    7        0.531808   1.000000
    8        2.057085   1.000000
    9        2.350178   1.000000
   10        4.725517   0.925386
   11        4.893615   0.281411
   12        6.479968   0.000000
   13        6.565268   0.000000
   14        6.789158   0.000000
   15        7.457703   0.000000
   16        8.703686   0.000000
   17        9.723558   0.000000
   18       11.805002   0.000000
   19       17.968577   0.000000
   20       18.769763   0.000000
   21       21.540949   0.000000
   22       22.086369   0.000000
   23       22.706250   0.000000
   24       23.135560   0.000000
   25       24.700446   0.000000
   26       25.013427   0.000000
   27       29.335581   0.000000
   28       29.967290   0.000000
   29       30.809285   0.000000
   30       32.146382   0.000000
   31       33.633400   0.000000
   32       35.433632   0.000000
   33       36.490471   0.000000
   34       37.435815   0.000000
   35       39.166910   0.000000
   36       40.497171   0.000000
   37       41.090235   0.000000
   38       41.216928   0.000000
   39       42.351098   0.000000
   40       42.913847   0.000000
 
  0.3437500E+00  0.9375000E-01  0.3125000E-01  0.1171875E-01
    1      -25.692792   1.000000
    2      -25.380624   1.000000
    3      -25.286677   1.000000
    4      -25.276190   1.000000
    5      -24.942665   1.000000
    6      -24.854336   1.000000
    7        1.092493   1.000000
    8        2.409038   1.000000
    9        2.661903   1.000000
   10        4.711934   0.959237
   11        4.824407   0.549722
   12        6.155231   0.000000
   13        6.251156   0.000000
   14        6.882631   0.000000
   15        6.916041   0.000000
   16        8.978476   0.000000
   17        9.263770   0.000000
   18       10.967255   0.000000
   19       19.012935   0.000000
   20       20.124755   0.000000
   21       21.088919   0.000000
   22       22.121188   0.000000
   23       22.228277   0.000000
   24       23.960173   0.000000
   25       24.730473   0.000000
   26       24.851564   0.000000
   27       29.157079   0.000000
   28       30.193224   0.000000
   29       31.147328   0.000000
   30       32.509410   0.000000
   31       34.091615   0.000000
   32       34.467556   0.000000
   33       35.086774   0.000000
   34       37.408460   0.000000
   35       38.385873   0.000000
   36       40.539864   0.000000
   37       40.864495   0.000000
   38       41.335639   0.000000
   39       42.644117   0.000000
   40       42.690896   0.000000
 
  0.4062500E+00  0.9375000E-01  0.3125000E-01  0.1171875E-01
    1      -25.654803   1.000000
    2      -25.405754   1.000000
    3      -25.295078   1.000000
    4      -25.190150   1.000000
    5      -25.025226   1.000000
    6      -24.930316   1.000000
    7        1.646761   1.000000
    8        2.604970   1.000000
    9        3.003341   1.000000
   10        4.433753   1.015151
   11        4.933995   0.204537
   12        5.807452   0.000000
   13        5.975889   0.000000
   14        6.508991   0.000000
   15        7.324156   0.000000
   16        8.776195   0.000000
   17        9.229826   0.000000
   18       10.282361   0.000000
   19       19.569632   0.000000
   20       20.325290   0.000000
   21       21.462062   0.000000
   22       22.210369   0.000000
   23       22.562243   0.000000
   24       24.432422   0.000000
   25       24.466991   0.000000
   26       25.034233   0.000000
   27       28.716676   0.000000
   28       29.800447   0.000000
   29       31.686257   0.000000
   30       32.645054   0.000000
   31       33.192114   0.000000
   32       34.909449   0.000000
   33       35.732332   0.000000
   34       37.272581   0.000000
   35       37.750739   0.000000
   36       39.882181   0.000000
   37       40.532812   0.000000
   38       41.568239   0.000000
   39       41.879926   0.000000
   40       42.735181   0.000000
 
  0.4687500E+00  0.9375000E-01  0.3125000E-01  0.1171875E-01
    1      -25.593812   1.000000
    2      -25.509861   1.000000
    3      -25.204907   1.000000
    4      -25.113771   1.000000
    5      -25.101688   1.000000
    6      -25.013922   1.000000
    7        2.133232   1.000000
    8        2.480712   1.000000
    9        3.474435   1.000000
   10        3.979397   1.000000
   11        5.147490  -0.036961
   12        5.441124   0.000000
   13        6.032425   0.000000
   14        6.223513   0.000000
   15        7.796571   0.000000
   16        8.284446   0.000000
   17        9.474523   0.000000
   18        9.793663   0.000000
   19       19.662355   0.000000
   20       19.832146   0.000000
   21       22.466956   0.000000
   22       22.758162   0.000000
   23       23.087660   0.000000
   24       24.107861   0.000000
   25       24.360239   0.000000
   26       24.656110   0.000000
   27       29.256664   0.000000
   28       30.158940   0.000000
   29       30.428974   0.000000
   30       31.226079   0.000000
   31       34.999734   0.000000
   32       35.595810   0.000000
   33       36.289578   0.000000
   34       36.438123   0.000000
   35       38.172549   0.000000
   36       39.228810   0.000000
   37       39.793958   0.000000
   38       40.322538   0.000000
   39       42.167524   0.000000
   40       42.579287   0.000000
 
  0.1562500E+00  0.1562500E+00  0.3125000E-01  0.5859375E-02
    1      -25.735481   1.000000
    2      -25.543927   1.000000
    3      -25.425462   1.000000
    4      -25.029627   1.000000
    5      -24.788562   1.000000
    6      -24.696951   1.000000
    7       -0.130447   1.000000
    8        1.662640   1.000000
    9        1.888156   1.000000
   10        4.616397   1.036033
   11        4.926858   0.078330
   12        6.181846   0.000000
   13        7.422539   0.000000
   14        7.551625   0.000000
   15        8.111661   0.000000
   16        8.229838   0.000000
   17       10.529580   0.000000
   18       13.943160   0.000000
   19       15.403503   0.000000
   20       16.947795   0.000000
   21       20.907032   0.000000
   22       21.867307   0.000000
   23       22.038605   0.000000
   24       24.307702   0.000000
   25       25.190796   0.000000
   26       26.920932   0.000000
   27       27.044762   0.000000
   28       28.643262   0.000000
   29       31.341442   0.000000
   30       31.581521   0.000000
   31       34.018107   0.000000
   32       36.895872   0.000000
   33       37.952578   0.000000
   34       39.272636   0.000000
   35       39.648034   0.000000
   36       39.988627   0.000000
   37       41.023733   0.000000
   38       42.153971   0.000000
   39       42.200658   0.000000
   40       43.165599   0.000000
 
  0.2187500E+00  0.1562500E+00  0.3125000E-01  0.1171875E-01
    1      -25.766257   1.000000
    2      -25.495467   1.000000
    3      -25.349943   1.000000
    4      -25.153136   1.000000
    5      -24.832316   1.000000
    6      -24.708975   1.000000
    7        0.251948   1.000000
    8        1.870893   1.000000
    9        2.240741   1.000000
   10        4.459200   1.000000
   11        4.830938   0.672387
   12        6.578703   0.000000
   13        6.754565   0.000000
   14        7.332251   0.000000
   15        7.613353   0.000000
   16        8.273301   0.000000
   17       10.475464   0.000000
   18       13.312245   0.000000
   19       16.091279   0.000000
   20       17.805277   0.000000
   21       20.952248   0.000000
   22       22.019383   0.000000
   23       22.731911   0.000000
   24       23.674289   0.000000
   25       25.068736   0.000000
   26       26.244101   0.000000
   27       28.157709   0.000000
   28       28.791523   0.000000
   29       30.799515   0.000000
   30       31.791846   0.000000
   31       33.628337   0.000000
   32       35.853035   0.000000
   33       37.292938   0.000000
   34       38.350995   0.000000
   35       39.892348   0.000000
   36       40.371080   0.000000
   37       41.603051   0.000000
   38       42.074669   0.000000
   39       42.225807   0.000000
   40       42.876468   0.000000
 
  0.2812500E+00  0.1562500E+00  0.3125000E-01  0.1171875E-01
    1      -25.782387   1.000000
    2      -25.433622   1.000000
    3      -25.283288   1.000000
    4      -25.268951   1.000000
    5      -24.888739   1.000000
    6      -24.741394   1.000000
    7        0.704085   1.000000
    8        2.108143   1.000000
    9        2.629740   1.000000
   10        4.368705   1.000000
   11        4.741687   1.009248
   12        6.162664  -0.001432
   13        6.968443   0.000000
   14        7.033309   0.000000
   15        7.088556   0.000000
   16        8.557543   0.000000
   17       10.222414   0.000000
   18       12.374133   0.000000
   19       17.083182   0.000000
   20       18.881712   0.000000
   21       20.886018   0.000000
   22       21.886452   0.000000
   23       22.875022   0.000000
   24       23.562293   0.000000
   25       24.934604   0.000000
   26       25.770443   0.000000
   27       28.913209   0.000000
   28       29.709681   0.000000
   29       30.122855   0.000000
   30       32.206157   0.000000
   31       33.359217   0.000000
   32       34.819637   0.000000
   33       37.058647   0.000000
   34       37.111857   0.000000
   35       39.520062   0.000000
   36       40.623937   0.000000
   37       41.617939   0.000000
   38       41.978161   0.000000
   39       42.856726   0.000000
   40       42.957392   0.000000
 
  0.3437500E+00  0.1562500E+00  0.3125000E-01  0.1171875E-01
    1      -25.779286   1.000000
    2      -25.410855   1.000000
    3      -25.361220   1.000000
    4      -25.184151   1.000000
    5      -24.955945   1.000000
    6      -24.791237   1.000000
    7        1.181541   1.000000
    8        2.324097   1.000000
    9        2.993561   1.000000
   10        4.348762   1.000000
   11        4.636093   1.035733
   12        5.662194  -0.028096
   13        6.690999   0.000000
   14        6.732185   0.000000
   15        7.474650   0.000000
   16        8.856486   0.000000
   17        9.836898   0.000000
   18       11.442170   0.000000
   19       18.011453   0.000000
   20       20.091891   0.000000
   21       20.420847   0.000000
   22       21.782690   0.000000
   23       22.224220   0.000000
   24       24.357669   0.000000
   25       24.818063   0.000000
   26       25.848985   0.000000
   27       28.319111   0.000000
   28       29.864995   0.000000
   29       31.236596   0.000000
   30       32.384235   0.000000
   31       33.646451   0.000000
   32       33.765373   0.000000
   33       36.128327   0.000000
   34       37.263526   0.000000
   35       38.865856   0.000000
   36       40.670509   0.000000
   37       41.015526   0.000000
   38       41.888369   0.000000
   39       42.534208   0.000000
   40       43.053415   0.000000
 
  0.4062500E+00  0.1562500E+00  0.3125000E-01  0.1171875E-01
    1      -25.753255   1.000000
    2      -25.527418   1.000000
    3      -25.281443   1.000000
    4      -25.097560   1.000000
    5      -25.031750   1.000000
    6      -24.855277   1.000000
    7        1.637931   1.000000
    8        2.416844   1.000000
    9        3.332866   1.000000
   10        4.318091   1.000000
   11        4.540518   1.037023
   12        5.247351  -0.055786
   13        6.531632   0.000000
   14        6.570450   0.000000
   15        7.958083   0.000000
   16        9.147282   0.000000
   17        9.385646   0.000000
   18       10.613532   0.000000
   19       18.665482   0.000000
   20       19.772988   0.000000
   21       21.271732   0.000000
   22       21.833196   0.000000
   23       22.028021   0.000000
   24       24.681163   0.000000
   25       24.803279   0.000000
   26       25.778543   0.000000
   27       28.152629   0.000000
   28       29.815569   0.000000
   29       31.239945   0.000000
   30       32.519670   0.000000
   31       33.412437   0.000000
   32       34.385288   0.000000
   33       35.966376   0.000000
   34       37.732606   0.000000
   35       38.149342   0.000000
   36       39.682422   0.000000
   37       41.304676   0.000000
   38       41.643529   0.000000
   39       42.000148   0.000000
   40       42.775144   0.000000
 
  0.4687500E+00  0.1562500E+00  0.3125000E-01  0.1171875E-01
    1      -25.702174   1.000000
    2      -25.626155   1.000000
    3      -25.197668   1.000000
    4      -25.113327   1.000000
    5      -25.011799   1.000000
    6      -24.929932   1.000000
    7        2.029446   1.000000
    8        2.309152   1.000000
    9        3.692397   1.000000
   10        4.053863   1.000000
   11        4.661404   0.930113
   12        4.910900   0.207943
   13        6.507797   0.000000
   14        6.528389   0.000000
   15        8.445225   0.000000
   16        8.918620   0.000000
   17        9.477272   0.000000
   18        9.948817   0.000000
   19       19.002208   0.000000
   20       19.291629   0.000000
   21       21.741710   0.000000
   22       21.853208   0.000000
   23       22.891933   0.000000
   24       24.044074   0.000000
   25       24.992008   0.000000
   26       25.376502   0.000000
   27       28.953486   0.000000
   28       30.139351   0.000000
   29       30.317862   0.000000
   30       31.322215   0.000000
   31       34.639298   0.000000
   32       34.960781   0.000000
   33       36.432868   0.000000
   34       37.162085   0.000000
   35       38.606271   0.000000
   36       39.031780   0.000000
   37       40.612724   0.000000
   38       40.981024   0.000000
   39       42.170823   0.000000
   40       42.562204   0.000000
 
  0.2187500E+00  0.2187500E+00  0.3125000E-01  0.5859375E-02
    1      -25.815116   1.000000
    2      -25.451957   1.000000
    3      -25.283778   1.000000
    4      -25.264890   1.000000
    5      -24.869651   1.000000
    6      -24.699482   1.000000
    7        0.563730   1.000000
    8        2.003844   1.000000
    9        2.617591   1.000000
   10        4.225041   1.000000
   11        4.737638   1.011210
   12        6.122983  -0.006125
   13        7.063249   0.000000
   14        7.117279   0.000000
   15        7.519504   0.000000
   16        8.196090   0.000000
   17       10.661063   0.000000
   18       13.433827   0.000000
   19       15.846342   0.000000
   20       18.353103   0.000000
   21       20.646669   0.000000