       N       E                     dE             d eps       ncg     rms          rms(c)
DAV:   1    -0.214962853762E+01   -0.21496E+01   -0.11147E+04 10240   0.406E+02
DAV:   2    -0.222462338323E+02   -0.20097E+02   -0.19656E+02 12280   0.547E+01
DAV:   3    -0.222736237105E+02   -0.27390E-01   -0.27388E-01 12120   0.214E+00
DAV:   4    -0.222736339958E+02   -0.10285E-04   -0.10292E-04 16080   0.375E-02
DAV:   5    -0.222736339957E+02    0.11096E-09   -0.19574E-10 12080   0.442E-05
DAV:   6    -0.222736339959E+02   -0.25420E-09   -0.48220E-13 15960   0.472E-07
   1 F= -.22273634E+02 E0= -.22273634E+02  d E =0.000000E+00
