 vasp.5.4.4.18Apr17-6-g9f103f2a35 (build May 20 2018 16:52:39) complex          
  
 executed on             LinuxIFC date 2022.11.17  22:01:41
 running on   40 total cores
 distrk:  each k-point on   40 cores,    1 groups
 distr:  one band on NCORES_PER_BAND=   1 cores,   40 groups


--------------------------------------------------------------------------------------------------------


 INCAR:
 POTCAR:    PAW Nb_pv 09Jan2002                   

 ----------------------------------------------------------------------------- 
|                                                                             |
|           W    W    AA    RRRRR   N    N  II  N    N   GGGG   !!!           |
|           W    W   A  A   R    R  NN   N  II  NN   N  G    G  !!!           |
|           W    W  A    A  R    R  N N  N  II  N N  N  G       !!!           |
|           W WW W  AAAAAA  RRRRR   N  N N  II  N  N N  G  GGG   !            |
|           WW  WW  A    A  R   R   N   NN  II  N   NN  G    G                |
|           W    W  A    A  R    R  N    N  II  N    N   GGGG   !!!           |
|                                                                             |
|      For optimal performance we recommend to set                            |
|        NCORE= 4 - approx SQRT( number of cores)                             |
|      NCORE specifies how many cores store one orbital (NPAR=cpu/NCORE).     |
|      This setting can  greatly improve the performance of VASP for DFT.     |
|      The default,   NCORE=1            might be grossly inefficient         |
|      on modern multi-core architectures or massively parallel machines.     |
|      Do your own testing !!!!                                               |
|      Unfortunately you need to use the default for GW and RPA calculations. |
|      (for HF NCORE is supported but not extensively tested yet)             |
|                                                                             |
 ----------------------------------------------------------------------------- 

 POTCAR:    PAW Nb_pv 09Jan2002                   
   VRHFIN =Nb: s1d4                                                             
   LEXCH  = CA                                                                  
   EATOM  =  1046.3740 eV,   76.9063 Ry                                         
                                                                                
   TITEL  = PAW Nb_pv 09Jan2002                                                 
   LULTRA =        F    use ultrasoft PP ?                                      
   IUNSCR =        1    unscreen: 0-lin 1-nonlin 2-no                           
   RPACOR =    2.200    partial core radius                                     
   POMASS =   92.910; ZVAL   =   11.000    mass and valenz                      
   RCORE  =    2.750    outmost cutoff radius                                   
   RWIGS  =    2.840; RWIGS  =    1.503    wigner-seitz radius (au A)           
   ENMAX  =  207.263; ENMIN  =  155.447 eV                                      
   RCLOC  =    2.209    cutoff for local pot                                    
   LCOR   =        T    correct aug charges                                     
   LPAW   =        T    paw PP                                                  
   EAUG   =  352.745                                                            
   DEXC   =    0.000                                                            
   RMAX   =    2.814    core radius for proj-oper                               
   RAUG   =    1.300    factor for augmentation sphere                          
   RDEP   =    2.785    radius for radial grids                                 
   RDEPT  =    2.205    core radius for aug-charge                              
                                                                                
   Atomic configuration                                                         
   11 entries                                                                   
     n  l   j            E        occ.                                          
     1  0  0.50    -18704.9804   2.0000                                         
     2  0  0.50     -2619.6337   2.0000                                         
     2  1  1.50     -2343.2033   6.0000                                         
     3  0  0.50      -436.6391   2.0000                                         
     3  1  1.50      -345.9106   6.0000                                         
     3  2  2.50      -196.5794  10.0000                                         
     4  0  0.50       -58.2950   2.0000                                         
     4  1  1.50       -34.5590   6.0000                                         
     4  2  2.50        -3.2208   4.0000                                         
     5  0  0.50        -4.1880   1.0000                                         
     4  3  2.50        -1.3606   0.0000                                         
   Description                                                                  
     l       E           TYP  RCUT    TYP  RCUT                                 
     1    -34.5590103     23  2.600                                             
     1     -1.3605826     23  2.600                                             
     2     -3.2207521     23  2.600                                             
     2     -1.6263194     23  2.600                                             
     0     -4.1879630     23  2.750                                             
     0     20.4087390     23  2.750                                             
  local pseudopotential read in
  partial core-charges read in
  partial kinetic energy density read in
  atomic valenz-charges read in
  non local Contribution for L=           1  read in
    real space projection operators read in
  non local Contribution for L=           1  read in
    real space projection operators read in
  non local Contribution for L=           2  read in
    real space projection operators read in
  non local Contribution for L=           2  read in
    real space projection operators read in
  non local Contribution for L=           0  read in
    real space projection operators read in
  non local Contribution for L=           0  read in
    real space projection operators read in
    PAW grid and wavefunctions read in
 
   number of l-projection  operators is LMAX  =           6
   number of lm-projection operators is LMMAX =          18
 
  PAW Nb_pv 09Jan2002                   :
 energy of atom  1       EATOM=-1046.3740
 kinetic energy error for atom=    0.0109 (will be added to EATOM!!)
 
 
 POSCAR: sic2 Nb                                 
  positions in direct lattice
  No initial velocities read in
 exchange correlation table for  LEXCH =        2
   RHO(1)=    0.500       N(1)  =     2000
   RHO(2)=  100.500       N(2)  =     4000
 


--------------------------------------------------------------------------------------------------------


 ion  position               nearest neighbor table
   1  0.000  0.000  0.000-   2 2.86   2 2.86   2 2.86   2 2.86   2 2.86   2 2.86   2 2.86   2 2.86

   2  0.500  0.500  0.500-   1 2.86   1 2.86   1 2.86   1 2.86   1 2.86   1 2.86   1 2.86   1 2.86

 
  LATTYP: Found a simple cubic cell.
 ALAT       =     3.3008000000
  
  Lattice vectors:
  
 A1 = (   3.3008000000,   0.0000000000,   0.0000000000)
 A2 = (   0.0000000000,   3.3008000000,   0.0000000000)
 A3 = (   0.0000000000,   0.0000000000,   3.3008000000)


Analysis of symmetry for initial positions (statically):
=====================================================================
 Subroutine PRICEL returns following result:
 
  LATTYP: Found a body centered cubic cell.
 ALAT       =     3.3008000000
  
  Lattice vectors:
  
 A1 = (   1.6504000000,   1.6504000000,   1.6504000000)
 A2 = (   1.6504000000,  -1.6504000000,  -1.6504000000)
 A3 = (  -1.6504000000,   1.6504000000,  -1.6504000000)
 
   2 primitive cells build up your supercell.
 

 Routine SETGRP: Setting up the symmetry group for a 
 simple cubic supercell.


 Subroutine GETGRP returns: Found 48 space group operations
 (whereof 48 operations were pure point group operations)
 out of a pool of 48 trial point group operations.


The static configuration has the point symmetry O_h .


Analysis of symmetry for dynamics (positions and initial velocities):
=====================================================================
 Subroutine PRICEL returns following result:
 
  LATTYP: Found a body centered cubic cell.
 ALAT       =     3.3008000000
  
  Lattice vectors:
  
 A1 = (   1.6504000000,   1.6504000000,   1.6504000000)
 A2 = (   1.6504000000,  -1.6504000000,  -1.6504000000)
 A3 = (  -1.6504000000,   1.6504000000,  -1.6504000000)
 
   2 primitive cells build up your supercell.
 

 Routine SETGRP: Setting up the symmetry group for a 
 simple cubic supercell.


 Subroutine GETGRP returns: Found 48 space group operations
 (whereof 48 operations were pure point group operations)
 out of a pool of 48 trial point group operations.


The dynamic configuration has the point symmetry O_h .


 Subroutine INISYM returns: Found 48 space group operations
 (whereof 48 operations are pure point group operations),
 and found     2 'primitive' translations

 
 
 KPOINTS: 16*16*16                                

Automatic generation of k-mesh.
Space group operators:
 irot       det(A)        alpha          n_x          n_y          n_z        tau_x        tau_y        tau_z
    1     1.000000     0.000000     1.000000     0.000000     0.000000     0.000000     0.000000     0.000000
    2    -1.000000     0.000000     1.000000     0.000000     0.000000     0.000000     0.000000     0.000000
    3     1.000000   120.000000    -0.577350    -0.577350    -0.577350     0.000000     0.000000     0.000000
    4    -1.000000   120.000000    -0.577350    -0.577350    -0.577350     0.000000     0.000000     0.000000
    5     1.000000   120.000000     0.577350     0.577350     0.577350     0.000000     0.000000     0.000000
    6    -1.000000   120.000000     0.577350     0.577350     0.577350     0.000000     0.000000     0.000000
    7     1.000000    90.000000     0.000000     0.000000    -1.000000     0.000000     0.000000     0.000000
    8    -1.000000    90.000000     0.000000     0.000000    -1.000000     0.000000     0.000000     0.000000
    9     1.000000   180.000000     0.000000     0.707107     0.707107     0.000000     0.000000     0.000000
   10    -1.000000   180.000000     0.000000     0.707107     0.707107     0.000000     0.000000     0.000000
   11     1.000000    90.000000     0.000000     1.000000     0.000000     0.000000     0.000000     0.000000
   12    -1.000000    90.000000     0.000000     1.000000     0.000000     0.000000     0.000000     0.000000
   13     1.000000   180.000000     0.000000     0.000000     1.000000     0.000000     0.000000     0.000000
   14    -1.000000   180.000000     0.000000     0.000000     1.000000     0.000000     0.000000     0.000000
   15     1.000000   120.000000    -0.577350     0.577350     0.577350     0.000000     0.000000     0.000000
   16    -1.000000   120.000000    -0.577350     0.577350     0.577350     0.000000     0.000000     0.000000
   17     1.000000   120.000000    -0.577350     0.577350    -0.577350     0.000000     0.000000     0.000000
   18    -1.000000   120.000000    -0.577350     0.577350    -0.577350     0.000000     0.000000     0.000000
   19     1.000000    90.000000     0.000000     0.000000     1.000000     0.000000     0.000000     0.000000
   20    -1.000000    90.000000     0.000000     0.000000     1.000000     0.000000     0.000000     0.000000
   21     1.000000    90.000000    -1.000000     0.000000     0.000000     0.000000     0.000000     0.000000
   22    -1.000000    90.000000    -1.000000     0.000000     0.000000     0.000000     0.000000     0.000000
   23     1.000000   180.000000     0.707107     0.000000     0.707107     0.000000     0.000000     0.000000
   24    -1.000000   180.000000     0.707107     0.000000     0.707107     0.000000     0.000000     0.000000
   25     1.000000   120.000000     0.577350    -0.577350     0.577350     0.000000     0.000000     0.000000
   26    -1.000000   120.000000     0.577350    -0.577350     0.577350     0.000000     0.000000     0.000000
   27     1.000000   120.000000    -0.577350    -0.577350     0.577350     0.000000     0.000000     0.000000
   28    -1.000000   120.000000    -0.577350    -0.577350     0.577350     0.000000     0.000000     0.000000
   29     1.000000   180.000000     1.000000     0.000000     0.000000     0.000000     0.000000     0.000000
   30    -1.000000   180.000000     1.000000     0.000000     0.000000     0.000000     0.000000     0.000000
   31     1.000000    90.000000     0.000000    -1.000000     0.000000     0.000000     0.000000     0.000000
   32    -1.000000    90.000000     0.000000    -1.000000     0.000000     0.000000     0.000000     0.000000
   33     1.000000   180.000000     0.707107     0.707107     0.000000     0.000000     0.000000     0.000000
   34    -1.000000   180.000000     0.707107     0.707107     0.000000     0.000000     0.000000     0.000000
   35     1.000000    90.000000     1.000000     0.000000     0.000000     0.000000     0.000000     0.000000
   36    -1.000000    90.000000     1.000000     0.000000     0.000000     0.000000     0.000000     0.000000
   37     1.000000   120.000000     0.577350    -0.577350    -0.577350     0.000000     0.000000     0.000000
   38    -1.000000   120.000000     0.577350    -0.577350    -0.577350     0.000000     0.000000     0.000000
   39     1.000000   180.000000     0.000000     1.000000     0.000000     0.000000     0.000000     0.000000
   40    -1.000000   180.000000     0.000000     1.000000     0.000000     0.000000     0.000000     0.000000
   41     1.000000   120.000000     0.577350     0.577350    -0.577350     0.000000     0.000000     0.000000
   42    -1.000000   120.000000     0.577350     0.577350    -0.577350     0.000000     0.000000     0.000000
   43     1.000000   180.000000     0.000000    -0.707107     0.707107     0.000000     0.000000     0.000000
   44    -1.000000   180.000000     0.000000    -0.707107     0.707107     0.000000     0.000000     0.000000
   45     1.000000   180.000000     0.707107    -0.707107     0.000000     0.000000     0.000000     0.000000
   46    -1.000000   180.000000     0.707107    -0.707107     0.000000     0.000000     0.000000     0.000000
   47     1.000000   180.000000     0.707107     0.000000    -0.707107     0.000000     0.000000     0.000000
   48    -1.000000   180.000000     0.707107     0.000000    -0.707107     0.000000     0.000000     0.000000
 
 Subroutine IBZKPT returns following result:
 ===========================================
 
 Found    120 irreducible k-points:
 
 Following reciprocal coordinates:
            Coordinates               Weight
  0.031250  0.031250  0.031250      8.000000
  0.093750  0.031250  0.031250     24.000000
  0.156250  0.031250  0.031250     24.000000
  0.218750  0.031250  0.031250     24.000000
  0.281250  0.031250  0.031250     24.000000
  0.343750  0.031250  0.031250     24.000000
  0.406250  0.031250  0.031250     24.000000
  0.468750  0.031250  0.031250     24.000000
  0.093750  0.093750  0.031250     24.000000
  0.156250  0.093750  0.031250     48.000000
  0.218750  0.093750  0.031250     48.000000
  0.281250  0.093750  0.031250     48.000000
  0.343750  0.093750  0.031250     48.000000
  0.406250  0.093750  0.031250     48.000000
  0.468750  0.093750  0.031250     48.000000
  0.156250  0.156250  0.031250     24.000000
  0.218750  0.156250  0.031250     48.000000
  0.281250  0.156250  0.031250     48.000000
  0.343750  0.156250  0.031250     48.000000
  0.406250  0.156250  0.031250     48.000000
  0.468750  0.156250  0.031250     48.000000
  0.218750  0.218750  0.031250     24.000000
  0.281250  0.218750  0.031250     48.000000
  0.343750  0.218750  0.031250     48.000000
  0.406250  0.218750  0.031250     48.000000
  0.468750  0.218750  0.031250     48.000000
  0.281250  0.281250  0.031250     24.000000
  0.343750  0.281250  0.031250     48.000000
  0.406250  0.281250  0.031250     48.000000
  0.468750  0.281250  0.031250     48.000000
  0.343750  0.343750  0.031250     24.000000
  0.406250  0.343750  0.031250     48.000000
  0.468750  0.343750  0.031250     48.000000
  0.406250  0.406250  0.031250     24.000000
  0.468750  0.406250  0.031250     48.000000
  0.468750  0.468750  0.031250     24.000000
  0.093750  0.093750  0.093750      8.000000
  0.156250  0.093750  0.093750     24.000000
  0.218750  0.093750  0.093750     24.000000
  0.281250  0.093750  0.093750     24.000000
  0.343750  0.093750  0.093750     24.000000
  0.406250  0.093750  0.093750     24.000000
  0.468750  0.093750  0.093750     24.000000
  0.156250  0.156250  0.093750     24.000000
  0.218750  0.156250  0.093750     48.000000
  0.281250  0.156250  0.093750     48.000000
  0.343750  0.156250  0.093750     48.000000
  0.406250  0.156250  0.093750     48.000000
  0.468750  0.156250  0.093750     48.000000
  0.218750  0.218750  0.093750     24.000000
  0.281250  0.218750  0.093750     48.000000
  0.343750  0.218750  0.093750     48.000000
  0.406250  0.218750  0.093750     48.000000
  0.468750  0.218750  0.093750     48.000000
  0.281250  0.281250  0.093750     24.000000
  0.343750  0.281250  0.093750     48.000000
  0.406250  0.281250  0.093750     48.000000
  0.468750  0.281250  0.093750     48.000000
  0.343750  0.343750  0.093750     24.000000
  0.406250  0.343750  0.093750     48.000000
  0.468750  0.343750  0.093750     48.000000
  0.406250  0.406250  0.093750     24.000000
  0.468750  0.406250  0.093750     48.000000
  0.468750  0.468750  0.093750     24.000000
  0.156250  0.156250  0.156250      8.000000
  0.218750  0.156250  0.156250     24.000000
  0.281250  0.156250  0.156250     24.000000
  0.343750  0.156250  0.156250     24.000000
  0.406250  0.156250  0.156250     24.000000
  0.468750  0.156250  0.156250     24.000000
  0.218750  0.218750  0.156250     24.000000
  0.281250  0.218750  0.156250     48.000000
  0.343750  0.218750  0.156250     48.000000
  0.406250  0.218750  0.156250     48.000000
  0.468750  0.218750  0.156250     48.000000
  0.281250  0.281250  0.156250     24.000000
  0.343750  0.281250  0.156250     48.000000
  0.406250  0.281250  0.156250     48.000000
  0.468750  0.281250  0.156250     48.000000
  0.343750  0.343750  0.156250     24.000000
  0.406250  0.343750  0.156250     48.000000
  0.468750  0.343750  0.156250     48.000000
  0.406250  0.406250  0.156250     24.000000
  0.468750  0.406250  0.156250     48.000000
  0.468750  0.468750  0.156250     24.000000
  0.218750  0.218750  0.218750      8.000000
  0.281250  0.218750  0.218750     24.000000
  0.343750  0.218750  0.218750     24.000000
  0.406250  0.218750  0.218750     24.000000
  0.468750  0.218750  0.218750     24.000000
  0.281250  0.281250  0.218750     24.000000
  0.343750  0.281250  0.218750     48.000000
  0.406250  0.281250  0.218750     48.000000
  0.468750  0.281250  0.218750     48.000000
  0.343750  0.343750  0.218750     24.000000
  0.406250  0.343750  0.218750     48.000000
  0.468750  0.343750  0.218750     48.000000
  0.406250  0.406250  0.218750     24.000000
  0.468750  0.406250  0.218750     48.000000
  0.468750  0.468750  0.218750     24.000000
  0.281250  0.281250  0.281250      8.000000
  0.343750  0.281250  0.281250     24.000000
  0.406250  0.281250  0.281250     24.000000
  0.468750  0.281250  0.281250     24.000000
  0.343750  0.343750  0.281250     24.000000
  0.406250  0.343750  0.281250     48.000000
  0.468750  0.343750  0.281250     48.000000
  0.406250  0.406250  0.281250     24.000000
  0.468750  0.406250  0.281250     48.000000
  0.468750  0.468750  0.281250     24.000000
  0.343750  0.343750  0.343750      8.000000
  0.406250  0.343750  0.343750     24.000000
  0.468750  0.343750  0.343750     24.000000
  0.406250  0.406250  0.343750     24.000000
  0.468750  0.406250  0.343750     48.000000
  0.468750  0.468750  0.343750     24.000000
  0.406250  0.406250  0.406250      8.000000
  0.468750  0.406250  0.406250     24.000000
  0.468750  0.468750  0.406250     24.000000
  0.468750  0.468750  0.468750      8.000000
 
 Following cartesian coordinates:
            Coordinates               Weight
  0.031250  0.031250  0.031250      8.000000
  0.093750  0.031250  0.031250     24.000000
  0.156250  0.031250  0.031250     24.000000
  0.218750  0.031250  0.031250     24.000000
  0.281250  0.031250  0.031250     24.000000
  0.343750  0.031250  0.031250     24.000000
  0.406250  0.031250  0.031250     24.000000
  0.468750  0.031250  0.031250     24.000000
  0.093750  0.093750  0.031250     24.000000
  0.156250  0.093750  0.031250     48.000000
  0.218750  0.093750  0.031250     48.000000
  0.281250  0.093750  0.031250     48.000000
  0.343750  0.093750  0.031250     48.000000
  0.406250  0.093750  0.031250     48.000000
  0.468750  0.093750  0.031250     48.000000
  0.156250  0.156250  0.031250     24.000000
  0.218750  0.156250  0.031250     48.000000
  0.281250  0.156250  0.031250     48.000000
  0.343750  0.156250  0.031250     48.000000
  0.406250  0.156250  0.031250     48.000000
  0.468750  0.156250  0.031250     48.000000
  0.218750  0.218750  0.031250     24.000000
  0.281250  0.218750  0.031250     48.000000
  0.343750  0.218750  0.031250     48.000000
  0.406250  0.218750  0.031250     48.000000
  0.468750  0.218750  0.031250     48.000000
  0.281250  0.281250  0.031250     24.000000
  0.343750  0.281250  0.031250     48.000000
  0.406250  0.281250  0.031250     48.000000
  0.468750  0.281250  0.031250     48.000000
  0.343750  0.343750  0.031250     24.000000
  0.406250  0.343750  0.031250     48.000000
  0.468750  0.343750  0.031250     48.000000
  0.406250  0.406250  0.031250     24.000000
  0.468750  0.406250  0.031250     48.000000
  0.468750  0.468750  0.031250     24.000000
  0.093750  0.093750  0.093750      8.000000
  0.156250  0.093750  0.093750     24.000000
  0.218750  0.093750  0.093750     24.000000
  0.281250  0.093750  0.093750     24.000000
  0.343750  0.093750  0.093750     24.000000
  0.406250  0.093750  0.093750     24.000000
  0.468750  0.093750  0.093750     24.000000
  0.156250  0.156250  0.093750     24.000000
  0.218750  0.156250  0.093750     48.000000
  0.281250  0.156250  0.093750     48.000000
  0.343750  0.156250  0.093750     48.000000
  0.406250  0.156250  0.093750     48.000000
  0.468750  0.156250  0.093750     48.000000
  0.218750  0.218750  0.093750     24.000000
  0.281250  0.218750  0.093750     48.000000
  0.343750  0.218750  0.093750     48.000000
  0.406250  0.218750  0.093750     48.000000
  0.468750  0.218750  0.093750     48.000000
  0.281250  0.281250  0.093750     24.000000
  0.343750  0.281250  0.093750     48.000000
  0.406250  0.281250  0.093750     48.000000
  0.468750  0.281250  0.093750     48.000000
  0.343750  0.343750  0.093750     24.000000
  0.406250  0.343750  0.093750     48.000000
  0.468750  0.343750  0.093750     48.000000
  0.406250  0.406250  0.093750     24.000000
  0.468750  0.406250  0.093750     48.000000
  0.468750  0.468750  0.093750     24.000000
  0.156250  0.156250  0.156250      8.000000
  0.218750  0.156250  0.156250     24.000000
  0.281250  0.156250  0.156250     24.000000
  0.343750  0.156250  0.156250     24.000000
  0.406250  0.156250  0.156250     24.000000
  0.468750  0.156250  0.156250     24.000000
  0.218750  0.218750  0.156250     24.000000
  0.281250  0.218750  0.156250     48.000000
  0.343750  0.218750  0.156250     48.000000
  0.406250  0.218750  0.156250     48.000000
  0.468750  0.218750  0.156250     48.000000
  0.281250  0.281250  0.156250     24.000000
  0.343750  0.281250  0.156250     48.000000
  0.406250  0.281250  0.156250     48.000000
  0.468750  0.281250  0.156250     48.000000
  0.343750  0.343750  0.156250     24.000000
  0.406250  0.343750  0.156250     48.000000
  0.468750  0.343750  0.156250     48.000000
  0.406250  0.406250  0.156250     24.000000
  0.468750  0.406250  0.156250     48.000000
  0.468750  0.468750  0.156250     24.000000
  0.218750  0.218750  0.218750      8.000000
  0.281250  0.218750  0.218750     24.000000
  0.343750  0.218750  0.218750     24.000000
  0.406250  0.218750  0.218750     24.000000
  0.468750  0.218750  0.218750     24.000000
  0.281250  0.281250  0.218750     24.000000
  0.343750  0.281250  0.218750     48.000000
  0.406250  0.281250  0.218750     48.000000
  0.468750  0.281250  0.218750     48.000000
  0.343750  0.343750  0.218750     24.000000
  0.406250  0.343750  0.218750     48.000000
  0.468750  0.343750  0.218750     48.000000
  0.406250  0.406250  0.218750     24.000000
  0.468750  0.406250  0.218750     48.000000
  0.468750  0.468750  0.218750     24.000000
  0.281250  0.281250  0.281250      8.000000
  0.343750  0.281250  0.281250     24.000000
  0.406250  0.281250  0.281250     24.000000
  0.468750  0.281250  0.281250     24.000000
  0.343750  0.343750  0.281250     24.000000
  0.406250  0.343750  0.281250     48.000000
  0.468750  0.343750  0.281250     48.000000
  0.406250  0.406250  0.281250     24.000000
  0.468750  0.406250  0.281250     48.000000
  0.468750  0.468750  0.281250     24.000000
  0.343750  0.343750  0.343750      8.000000
  0.406250  0.343750  0.343750     24.000000
  0.468750  0.343750  0.343750     24.000000
  0.406250  0.406250  0.343750     24.000000
  0.468750  0.406250  0.343750     48.000000
  0.468750  0.468750  0.343750     24.000000
  0.406250  0.406250  0.406250      8.000000
  0.468750  0.406250  0.406250     24.000000
  0.468750  0.468750  0.406250     24.000000
  0.468750  0.468750  0.468750      8.000000
 
 TETIRR: Found   1993 inequivalent tetrahedra from    24576


--------------------------------------------------------------------------------------------------------




 Dimension of arrays:
   k-points           NKPTS =    120   k-points in BZ     NKDIM =    120   number of bands    NBANDS=     40
   number of dos      NEDOS =    301   number of ions     NIONS =      2
   non local maximal  LDIM  =      6   non local SUM 2l+1 LMDIM =     18
   total plane-waves  NPLWV =   2744
   max r-space proj   IRMAX =      1   max aug-charges    IRDMAX=   4943
   dimension x,y,z NGX =    14 NGY =   14 NGZ =   14
   dimension x,y,z NGXF=    28 NGYF=   28 NGZF=   28
   support grid    NGXF=    28 NGYF=   28 NGZF=   28
   ions per type =               2
   NGX,Y,Z   is equivalent  to a cutoff of   7.05,  7.05,  7.05 a.u.
   NGXF,Y,Z  is equivalent  to a cutoff of  14.10, 14.10, 14.10 a.u.

 SYSTEM =  Nb tetrahedron                          
 POSCAR =  sic2 Nb                                 

 Startparameter for this run:
   NWRITE =      2    write-flag & timer
   PREC   = normal    normal or accurate (medium, high low for compatibility)
   ISTART =      0    job   : 0-new  1-cont  2-samecut
   ICHARG =     11    charge: 1-file 2-atom 10-const
   ISPIN  =      1    spin polarized calculation?
   LNONCOLLINEAR =      F non collinear calculations
   LSORBIT =      F    spin-orbit coupling
   INIWAV =      1    electr: 0-lowe 1-rand  2-diag
   LASPH  =      F    aspherical Exc in radial PAW
   METAGGA=      F    non-selfconsistent MetaGGA calc.

 Electronic Relaxation 1
   ENCUT  =  300.0 eV  22.05 Ry    4.70 a.u.   4.66  4.66  4.66*2*pi/ulx,y,z
   ENINI  =  300.0     initial cutoff
   ENAUG  =  352.7 eV  augmentation charge cutoff
   NELM   =     60;   NELMIN=  2; NELMDL= -5     # of ELM steps 
   EDIFF  = 0.1E-06   stopping-criterion for ELM
   LREAL  =      F    real-space projection
   NLSPLINE    = F    spline interpolate recip. space projectors
   LCOMPAT=      F    compatible to vasp.4.4
   GGA_COMPAT  = T    GGA compatible to vasp.4.4-vasp.4.6
   LMAXPAW     = -100 max onsite density
   LMAXMIX     =    2 max onsite mixed and CHGCAR
   VOSKOWN=      0    Vosko Wilk Nusair interpolation
   ROPT   =    0.00000
 Ionic relaxation
   EDIFFG = 0.1E-05   stopping-criterion for IOM
   NSW    =      0    number of steps for IOM
   NBLOCK =      1;   KBLOCK =      1    inner block; outer block 
   IBRION =     -1    ionic relax: 0-MD 1-quasi-New 2-CG
   NFREE  =      0    steps in history (QN), initial steepest desc. (CG)
   ISIF   =      2    stress and relaxation
   IWAVPR =     10    prediction:  0-non 1-charg 2-wave 3-comb
   ISYM   =      2    0-nonsym 1-usesym 2-fastsym
   LCORR  =      T    Harris-Foulkes like correction to forces

   POTIM  = 0.5000    time-step for ionic-motion
   TEIN   =    0.0    initial temperature
   TEBEG  =    0.0;   TEEND  =   0.0 temperature during run
   SMASS  =  -3.00    Nose mass-parameter (am)
   estimated Nose-frequenzy (Omega)   =  0.10E-29 period in steps =****** mass=  -0.249E-27a.u.
   SCALEE = 1.0000    scale energy and forces
   NPACO  =    256;   APACO  = 16.0  distance and # of slots for P.C.
   PSTRESS=    0.0 pullay stress

  Mass of Ions in am
   POMASS =  92.91
  Ionic Valenz
   ZVAL   =  11.00
  Atomic Wigner-Seitz radii
   RWIGS  =  -1.00
  virtual crystal weights 
   VCA    =   1.00
   NELECT =      22.0000    total number of electrons
   NUPDOWN=      -1.0000    fix difference up-down

 DOS related values:
   EMIN   =  10.00;   EMAX   =-10.00  energy-range for DOS
   EFERMI =   0.00
   ISMEAR =    -5;   SIGMA  =   0.20  broadening in eV -4-tet -1-fermi 0-gaus

 Electronic relaxation 2 (details)
   IALGO  =     38    algorithm
   LDIAG  =      T    sub-space diagonalisation (order eigenvalues)
   LSUBROT=      F    optimize rotation matrix (better conditioning)
   TURBO    =      0    0=normal 1=particle mesh
   IRESTART =      0    0=no restart 2=restart with 2 vectors
   NREBOOT  =      0    no. of reboots
   NMIN     =      0    reboot dimension
   EREF     =   0.00    reference energy to select bands
   IMIX   =      4    mixing-type and parameters
     AMIX     =   0.40;   BMIX     =  1.00
     AMIX_MAG =   1.60;   BMIX_MAG =  1.00
     AMIN     =   0.10
     WC   =   100.;   INIMIX=   1;  MIXPRE=   1;  MAXMIX= -45

 Intra band minimization:
   WEIMIN = 0.0000     energy-eigenvalue tresh-hold
   EBREAK =  0.63E-09  absolut break condition
   DEPER  =   0.30     relativ break condition  

   TIME   =   0.40     timestep for ELM

  volume/ion in A,a.u.               =      17.98       121.35
  Fermi-wavevector in a.u.,A,eV,Ry     =   1.389728  2.626205 26.277534  1.931344
  Thomas-Fermi vector in A             =   2.513731
 
 Write flags
   LWAVE        =      T    write WAVECAR
   LDOWNSAMPLE  =      F    k-point downsampling of WAVECAR
   LCHARG       =      F    write CHGCAR
   LVTOT        =      F    write LOCPOT, total local potential
   LVHAR        =      F    write LOCPOT, Hartree potential only
   LELF         =      F    write electronic localiz. function (ELF)
   LORBIT       =      0    0 simple, 1 ext, 2 COOP (PROOUT), +10 PAW based schemes


 Dipole corrections
   LMONO  =      F    monopole corrections only (constant potential shift)
   LDIPOL =      F    correct potential (dipole corrections)
   IDIPOL =      0    1-x, 2-y, 3-z, 4-all directions 
   EPSILON=  1.0000000 bulk dielectric constant

 Exchange correlation treatment:
   GGA     =    --    GGA type
   LEXCH   =     2    internal setting for exchange type
   VOSKOWN=      0    Vosko Wilk Nusair interpolation
   LHFCALC =     F    Hartree Fock is set to
   LHFONE  =     F    Hartree Fock one center treatment
   AEXX    =    0.0000 exact exchange contribution

 Linear response parameters
   LEPSILON=     F    determine dielectric tensor
   LRPA    =     F    only Hartree local field effects (RPA)
   LNABLA  =     F    use nabla operator in PAW spheres
   LVEL    =     F    velocity operator in full k-point grid
   LINTERFAST=   F  fast interpolation
   KINTER  =     0    interpolate to denser k-point grid
   CSHIFT  =0.1000    complex shift for real part using Kramers Kronig
   OMEGAMAX=  -1.0    maximum frequency
   DEG_THRESHOLD= 0.2000000E-02 threshold for treating states as degnerate
   RTIME   =   -0.100 relaxation time in fs
  (WPLASMAI=    0.000 imaginary part of plasma frequency in eV, 0.658/RTIME)
   DFIELD  = 0.0000000 0.0000000 0.0000000 field for delta impulse in time
 
 Orbital magnetization related:
   ORBITALMAG=     F  switch on orbital magnetization
   LCHIMAG   =     F  perturbation theory with respect to B field
   DQ        =  0.001000  dq finite difference perturbation B field
   LLRAUG    =     F  two centre corrections for induced B field



--------------------------------------------------------------------------------------------------------


 Static calculation
 charge density and potential remain constant during run
 non-spin polarized calculation
 Variant of blocked Davidson
 Davidson routine will perform the subspace rotation
 perform sub-space diagonalisation
    after iterative eigenvector-optimisation
 no mixing
 using additional bands           29
 reciprocal scheme for non local part
 use partial core corrections
 calculate Harris-corrections to forces 
   (improved forces if not selfconsistent)
 use of overlap-Matrix (Vanderbilt PP)
 Fermi weights with tetrahedron method with Bloechl corrections


--------------------------------------------------------------------------------------------------------


  energy-cutoff  :      300.00
  volume of cell :       35.96
      direct lattice vectors                 reciprocal lattice vectors
     3.300800000  0.000000000  0.000000000     0.302956859  0.000000000  0.000000000
     0.000000000  3.300800000  0.000000000     0.000000000  0.302956859  0.000000000
     0.000000000  0.000000000  3.300800000     0.000000000  0.000000000  0.302956859

  length of vectors
     3.300800000  3.300800000  3.300800000     0.302956859  0.302956859  0.302956859


 
 k-points in units of 2pi/SCALE and weight: 16*16*16                                
   0.03125000  0.03125000  0.03125000       0.002
   0.09375000  0.03125000  0.03125000       0.006
   0.15625000  0.03125000  0.03125000       0.006
   0.21875000  0.03125000  0.03125000       0.006
   0.28125000  0.03125000  0.03125000       0.006
   0.34375000  0.03125000  0.03125000       0.006
   0.40625000  0.03125000  0.03125000       0.006
   0.46875000  0.03125000  0.03125000       0.006
   0.09375000  0.09375000  0.03125000       0.006
   0.15625000  0.09375000  0.03125000       0.012
   0.21875000  0.09375000  0.03125000       0.012
   0.28125000  0.09375000  0.03125000       0.012
   0.34375000  0.09375000  0.03125000       0.012
   0.40625000  0.09375000  0.03125000       0.012
   0.46875000  0.09375000  0.03125000       0.012
   0.15625000  0.15625000  0.03125000       0.006
   0.21875000  0.15625000  0.03125000       0.012
   0.28125000  0.15625000  0.03125000       0.012
   0.34375000  0.15625000  0.03125000       0.012
   0.40625000  0.15625000  0.03125000       0.012
   0.46875000  0.15625000  0.03125000       0.012
   0.21875000  0.21875000  0.03125000       0.006
   0.28125000  0.21875000  0.03125000       0.012
   0.34375000  0.21875000  0.03125000       0.012
   0.40625000  0.21875000  0.03125000       0.012
   0.46875000  0.21875000  0.03125000       0.012
   0.28125000  0.28125000  0.03125000       0.006
   0.34375000  0.28125000  0.03125000       0.012
   0.40625000  0.28125000  0.03125000       0.012
   0.46875000  0.28125000  0.03125000       0.012
   0.34375000  0.34375000  0.03125000       0.006
   0.40625000  0.34375000  0.03125000       0.012
   0.46875000  0.34375000  0.03125000       0.012
   0.40625000  0.40625000  0.03125000       0.006
   0.46875000  0.40625000  0.03125000       0.012
   0.46875000  0.46875000  0.03125000       0.006
   0.09375000  0.09375000  0.09375000       0.002
   0.15625000  0.09375000  0.09375000       0.006
   0.21875000  0.09375000  0.09375000       0.006
   0.28125000  0.09375000  0.09375000       0.006
   0.34375000  0.09375000  0.09375000       0.006
   0.40625000  0.09375000  0.09375000       0.006
   0.46875000  0.09375000  0.09375000       0.006
   0.15625000  0.15625000  0.09375000       0.006
   0.21875000  0.15625000  0.09375000       0.012
   0.28125000  0.15625000  0.09375000       0.012
   0.34375000  0.15625000  0.09375000       0.012
   0.40625000  0.15625000  0.09375000       0.012
   0.46875000  0.15625000  0.09375000       0.012
   0.21875000  0.21875000  0.09375000       0.006
   0.28125000  0.21875000  0.09375000       0.012
   0.34375000  0.21875000  0.09375000       0.012
   0.40625000  0.21875000  0.09375000       0.012
   0.46875000  0.21875000  0.09375000       0.012
   0.28125000  0.28125000  0.09375000       0.006
   0.34375000  0.28125000  0.09375000       0.012
   0.40625000  0.28125000  0.09375000       0.012
   0.46875000  0.28125000  0.09375000       0.012
   0.34375000  0.34375000  0.09375000       0.006
   0.40625000  0.34375000  0.09375000       0.012
   0.46875000  0.34375000  0.09375000       0.012
   0.40625000  0.40625000  0.09375000       0.006
   0.46875000  0.40625000  0.09375000       0.012
   0.46875000  0.46875000  0.09375000       0.006
   0.15625000  0.15625000  0.15625000       0.002
   0.21875000  0.15625000  0.15625000       0.006
   0.28125000  0.15625000  0.15625000       0.006
   0.34375000  0.15625000  0.15625000       0.006
   0.40625000  0.15625000  0.15625000       0.006
   0.46875000  0.15625000  0.15625000       0.006
   0.21875000  0.21875000  0.15625000       0.006
   0.28125000  0.21875000  0.15625000       0.012
   0.34375000  0.21875000  0.15625000       0.012
   0.40625000  0.21875000  0.15625000       0.012
   0.46875000  0.21875000  0.15625000       0.012
   0.28125000  0.28125000  0.15625000       0.006
   0.34375000  0.28125000  0.15625000       0.012
   0.40625000  0.28125000  0.15625000       0.012
   0.46875000  0.28125000  0.15625000       0.012
   0.34375000  0.34375000  0.15625000       0.006
   0.40625000  0.34375000  0.15625000       0.012
   0.46875000  0.34375000  0.15625000       0.012
   0.40625000  0.40625000  0.15625000       0.006
   0.46875000  0.40625000  0.15625000       0.012
   0.46875000  0.46875000  0.15625000       0.006
   0.21875000  0.21875000  0.21875000       0.002
   0.28125000  0.21875000  0.21875000       0.006
   0.34375000  0.21875000  0.21875000       0.006
   0.40625000  0.21875000  0.21875000       0.006
   0.46875000  0.21875000  0.21875000       0.006
   0.28125000  0.28125000  0.21875000       0.006
   0.34375000  0.28125000  0.21875000       0.012
   0.40625000  0.28125000  0.21875000       0.012
   0.46875000  0.28125000  0.21875000       0.012
   0.34375000  0.34375000  0.21875000       0.006
   0.40625000  0.34375000  0.21875000       0.012
   0.46875000  0.34375000  0.21875000       0.012
   0.40625000  0.40625000  0.21875000       0.006
   0.46875000  0.40625000  0.21875000       0.012
   0.46875000  0.46875000  0.21875000       0.006
   0.28125000  0.28125000  0.28125000       0.002
   0.34375000  0.28125000  0.28125000       0.006
   0.40625000  0.28125000  0.28125000       0.006
   0.46875000  0.28125000  0.28125000       0.006
   0.34375000  0.34375000  0.28125000       0.006
   0.40625000  0.34375000  0.28125000       0.012
   0.46875000  0.34375000  0.28125000       0.012
   0.40625000  0.40625000  0.28125000       0.006
   0.46875000  0.40625000  0.28125000       0.012
   0.46875000  0.46875000  0.28125000       0.006
   0.34375000  0.34375000  0.34375000       0.002
   0.40625000  0.34375000  0.34375000       0.006
   0.46875000  0.34375000  0.34375000       0.006
   0.40625000  0.40625000  0.34375000       0.006
   0.46875000  0.40625000  0.34375000       0.012
   0.46875000  0.46875000  0.34375000       0.006
   0.40625000  0.40625000  0.40625000       0.002
   0.46875000  0.40625000  0.40625000       0.006
   0.46875000  0.46875000  0.40625000       0.006
   0.46875000  0.46875000  0.46875000       0.002
 
 k-points in reciprocal lattice and weights: 16*16*16                                
   0.03125000  0.03125000  0.03125000       0.002
   0.09375000  0.03125000  0.03125000       0.006
   0.15625000  0.03125000  0.03125000       0.006
   0.21875000  0.03125000  0.03125000       0.006
   0.28125000  0.03125000  0.03125000       0.006
   0.34375000  0.03125000  0.03125000       0.006
   0.40625000  0.03125000  0.03125000       0.006
   0.46875000  0.03125000  0.03125000       0.006
   0.09375000  0.09375000  0.03125000       0.006
   0.15625000  0.09375000  0.03125000       0.012
   0.21875000  0.09375000  0.03125000       0.012
   0.28125000  0.09375000  0.03125000       0.012
   0.34375000  0.09375000  0.03125000       0.012
   0.40625000  0.09375000  0.03125000       0.012
   0.46875000  0.09375000  0.03125000       0.012
   0.15625000  0.15625000  0.03125000       0.006
   0.21875000  0.15625000  0.03125000       0.012
   0.28125000  0.15625000  0.03125000       0.012
   0.34375000  0.15625000  0.03125000       0.012
   0.40625000  0.15625000  0.03125000       0.012
   0.46875000  0.15625000  0.03125000       0.012
   0.21875000  0.21875000  0.03125000       0.006
   0.28125000  0.21875000  0.03125000       0.012
   0.34375000  0.21875000  0.03125000       0.012
   0.40625000  0.21875000  0.03125000       0.012
   0.46875000  0.21875000  0.03125000       0.012
   0.28125000  0.28125000  0.03125000       0.006
   0.34375000  0.28125000  0.03125000       0.012
   0.40625000  0.28125000  0.03125000       0.012
   0.46875000  0.28125000  0.03125000       0.012
   0.34375000  0.34375000  0.03125000       0.006
   0.40625000  0.34375000  0.03125000       0.012
   0.46875000  0.34375000  0.03125000       0.012
   0.40625000  0.40625000  0.03125000       0.006
   0.46875000  0.40625000  0.03125000       0.012
   0.46875000  0.46875000  0.03125000       0.006
   0.09375000  0.09375000  0.09375000       0.002
   0.15625000  0.09375000  0.09375000       0.006
   0.21875000  0.09375000  0.09375000       0.006
   0.28125000  0.09375000  0.09375000       0.006
   0.34375000  0.09375000  0.09375000       0.006
   0.40625000  0.09375000  0.09375000       0.006
   0.46875000  0.09375000  0.09375000       0.006
   0.15625000  0.15625000  0.09375000       0.006
   0.21875000  0.15625000  0.09375000       0.012
   0.28125000  0.15625000  0.09375000       0.012
   0.34375000  0.15625000  0.09375000       0.012
   0.40625000  0.15625000  0.09375000       0.012
   0.46875000  0.15625000  0.09375000       0.012
   0.21875000  0.21875000  0.09375000       0.006
   0.28125000  0.21875000  0.09375000       0.012
   0.34375000  0.21875000  0.09375000       0.012
   0.40625000  0.21875000  0.09375000       0.012
   0.46875000  0.21875000  0.09375000       0.012
   0.28125000  0.28125000  0.09375000       0.006
   0.34375000  0.28125000  0.09375000       0.012
   0.40625000  0.28125000  0.09375000       0.012
   0.46875000  0.28125000  0.09375000       0.012
   0.34375000  0.34375000  0.09375000       0.006
   0.40625000  0.34375000  0.09375000       0.012
   0.46875000  0.34375000  0.09375000       0.012
   0.40625000  0.40625000  0.09375000       0.006
   0.46875000  0.40625000  0.09375000       0.012
   0.46875000  0.46875000  0.09375000       0.006
   0.15625000  0.15625000  0.15625000       0.002
   0.21875000  0.15625000  0.15625000       0.006
   0.28125000  0.15625000  0.15625000       0.006
   0.34375000  0.15625000  0.15625000       0.006
   0.40625000  0.15625000  0.15625000       0.006
   0.46875000  0.15625000  0.15625000       0.006
   0.21875000  0.21875000  0.15625000       0.006
   0.28125000  0.21875000  0.15625000       0.012
   0.34375000  0.21875000  0.15625000       0.012
   0.40625000  0.21875000  0.15625000       0.012
   0.46875000  0.21875000  0.15625000       0.012
   0.28125000  0.28125000  0.15625000       0.006
   0.34375000  0.28125000  0.15625000       0.012
   0.40625000  0.28125000  0.15625000       0.012
   0.46875000  0.28125000  0.15625000       0.012
   0.34375000  0.34375000  0.15625000       0.006
   0.40625000  0.34375000  0.15625000       0.012
   0.46875000  0.34375000  0.15625000       0.012
   0.40625000  0.40625000  0.15625000       0.006
   0.46875000  0.40625000  0.15625000       0.012
   0.46875000  0.46875000  0.15625000       0.006
   0.21875000  0.21875000  0.21875000       0.002
   0.28125000  0.21875000  0.21875000       0.006
   0.34375000  0.21875000  0.21875000       0.006
   0.40625000  0.21875000  0.21875000       0.006
   0.46875000  0.21875000  0.21875000       0.006
   0.28125000  0.28125000  0.21875000       0.006
   0.34375000  0.28125000  0.21875000       0.012
   0.40625000  0.28125000  0.21875000       0.012
   0.46875000  0.28125000  0.21875000       0.012
   0.34375000  0.34375000  0.21875000       0.006
   0.40625000  0.34375000  0.21875000       0.012
   0.46875000  0.34375000  0.21875000       0.012
   0.40625000  0.40625000  0.21875000       0.006
   0.46875000  0.40625000  0.21875000       0.012
   0.46875000  0.46875000  0.21875000       0.006
   0.28125000  0.28125000  0.28125000       0.002
   0.34375000  0.28125000  0.28125000       0.006
   0.40625000  0.28125000  0.28125000       0.006
   0.46875000  0.28125000  0.28125000       0.006
   0.34375000  0.34375000  0.28125000       0.006
   0.40625000  0.34375000  0.28125000       0.012
   0.46875000  0.34375000  0.28125000       0.012
   0.40625000  0.40625000  0.28125000       0.006
   0.46875000  0.40625000  0.28125000       0.012
   0.46875000  0.46875000  0.28125000       0.006
   0.34375000  0.34375000  0.34375000       0.002
   0.40625000  0.34375000  0.34375000       0.006
   0.46875000  0.34375000  0.34375000       0.006
   0.40625000  0.40625000  0.34375000       0.006
   0.46875000  0.40625000  0.34375000       0.012
   0.46875000  0.46875000  0.34375000       0.006
   0.40625000  0.40625000  0.40625000       0.002
   0.46875000  0.40625000  0.40625000       0.006
   0.46875000  0.46875000  0.40625000       0.006
   0.46875000  0.46875000  0.46875000       0.002
 
 position of ions in fractional coordinates (direct lattice) 
   0.00000000  0.00000000  0.00000000
   0.50000000  0.50000000  0.50000000
 
 position of ions in cartesian coordinates  (Angst):
   0.00000000  0.00000000  0.00000000
   1.65040000  1.65040000  1.65040000
 


--------------------------------------------------------------------------------------------------------


 k-point  1 :   0.0312 0.0312 0.0312  plane waves:     440
 k-point  2 :   0.0938 0.0312 0.0312  plane waves:     442
 k-point  3 :   0.1563 0.0312 0.0312  plane waves:     436
 k-point  4 :   0.2188 0.0312 0.0312  plane waves:     431
 k-point  5 :   0.2812 0.0312 0.0312  plane waves:     426
 k-point  6 :   0.3438 0.0312 0.0312  plane waves:     428
 k-point  7 :   0.4063 0.0312 0.0312  plane waves:     426
 k-point  8 :   0.4688 0.0312 0.0312  plane waves:     418
 k-point  9 :   0.0938 0.0938 0.0312  plane waves:     435
 k-point 10 :   0.1563 0.0938 0.0312  plane waves:     432
 k-point 11 :   0.2188 0.0938 0.0312  plane waves:     430
 k-point 12 :   0.2812 0.0938 0.0312  plane waves:     428
 k-point 13 :   0.3438 0.0938 0.0312  plane waves:     427
 k-point 14 :   0.4063 0.0938 0.0312  plane waves:     426
 k-point 15 :   0.4688 0.0938 0.0312  plane waves:     429
 k-point 16 :   0.1563 0.1563 0.0312  plane waves:     425
 k-point 17 :   0.2188 0.1563 0.0312  plane waves:     425
 k-point 18 :   0.2812 0.1563 0.0312  plane waves:     428
 k-point 19 :   0.3438 0.1563 0.0312  plane waves:     427
 k-point 20 :   0.4063 0.1563 0.0312  plane waves:     429
 k-point 21 :   0.4688 0.1563 0.0312  plane waves:     429
 k-point 22 :   0.2188 0.2188 0.0312  plane waves:     422
 k-point 23 :   0.2812 0.2188 0.0312  plane waves:     424
 k-point 24 :   0.3438 0.2188 0.0312  plane waves:     424
 k-point 25 :   0.4063 0.2188 0.0312  plane waves:     425
 k-point 26 :   0.4688 0.2188 0.0312  plane waves:     429
 k-point 27 :   0.2812 0.2812 0.0312  plane waves:     422
 k-point 28 :   0.3438 0.2812 0.0312  plane waves:     419
 k-point 29 :   0.4063 0.2812 0.0312  plane waves:     421
 k-point 30 :   0.4688 0.2812 0.0312  plane waves:     424
 k-point 31 :   0.3438 0.3438 0.0312  plane waves:     417
 k-point 32 :   0.4063 0.3438 0.0312  plane waves:     417
 k-point 33 :   0.4688 0.3438 0.0312  plane waves:     420
 k-point 34 :   0.4063 0.4063 0.0312  plane waves:     418
 k-point 35 :   0.4688 0.4063 0.0312  plane waves:     415
 k-point 36 :   0.4688 0.4688 0.0312  plane waves:     417
 k-point 37 :   0.0938 0.0938 0.0938  plane waves:     437
 k-point 38 :   0.1563 0.0938 0.0938  plane waves:     433
 k-point 39 :   0.2188 0.0938 0.0938  plane waves:     429
 k-point 40 :   0.2812 0.0938 0.0938  plane waves:     427
 k-point 41 :   0.3438 0.0938 0.0938  plane waves:     428
 k-point 42 :   0.4063 0.0938 0.0938  plane waves:     427
 k-point 43 :   0.4688 0.0938 0.0938  plane waves:     427
 k-point 44 :   0.1563 0.1563 0.0938  plane waves:     429
 k-point 45 :   0.2188 0.1563 0.0938  plane waves:     429
 k-point 46 :   0.2812 0.1563 0.0938  plane waves:     424
 k-point 47 :   0.3438 0.1563 0.0938  plane waves:     426
 k-point 48 :   0.4063 0.1563 0.0938  plane waves:     424
 k-point 49 :   0.4688 0.1563 0.0938  plane waves:     427
 k-point 50 :   0.2188 0.2188 0.0938  plane waves:     425
 k-point 51 :   0.2812 0.2188 0.0938  plane waves:     422
 k-point 52 :   0.3438 0.2188 0.0938  plane waves:     421
 k-point 53 :   0.4063 0.2188 0.0938  plane waves:     424
 k-point 54 :   0.4688 0.2188 0.0938  plane waves:     426
 k-point 55 :   0.2812 0.2812 0.0938  plane waves:     418
 k-point 56 :   0.3438 0.2812 0.0938  plane waves:     419
 k-point 57 :   0.4063 0.2812 0.0938  plane waves:     423
 k-point 58 :   0.4688 0.2812 0.0938  plane waves:     424
 k-point 59 :   0.3438 0.3438 0.0938  plane waves:     419
 k-point 60 :   0.4063 0.3438 0.0938  plane waves:     420
 k-point 61 :   0.4688 0.3438 0.0938  plane waves:     418
 k-point 62 :   0.4063 0.4063 0.0938  plane waves:     419
 k-point 63 :   0.4688 0.4063 0.0938  plane waves:     421
 k-point 64 :   0.4688 0.4688 0.0938  plane waves:     416
 k-point 65 :   0.1563 0.1563 0.1563  plane waves:     428
 k-point 66 :   0.2188 0.1563 0.1563  plane waves:     424
 k-point 67 :   0.2812 0.1563 0.1563  plane waves:     422
 k-point 68 :   0.3438 0.1563 0.1563  plane waves:     427
 k-point 69 :   0.4063 0.1563 0.1563  plane waves:     426
 k-point 70 :   0.4688 0.1563 0.1563  plane waves:     424
 k-point 71 :   0.2188 0.2188 0.1563  plane waves:     423
 k-point 72 :   0.2812 0.2188 0.1563  plane waves:     423
 k-point 73 :   0.3438 0.2188 0.1563  plane waves:     423
 k-point 74 :   0.4063 0.2188 0.1563  plane waves:     427
 k-point 75 :   0.4688 0.2188 0.1563  plane waves:     427
 k-point 76 :   0.2812 0.2812 0.1563  plane waves:     420
 k-point 77 :   0.3438 0.2812 0.1563  plane waves:     419
 k-point 78 :   0.4063 0.2812 0.1563  plane waves:     424
 k-point 79 :   0.4688 0.2812 0.1563  plane waves:     423
 k-point 80 :   0.3438 0.3438 0.1563  plane waves:     419
 k-point 81 :   0.4063 0.3438 0.1563  plane waves:     421
 k-point 82 :   0.4688 0.3438 0.1563  plane waves:     421
 k-point 83 :   0.4063 0.4063 0.1563  plane waves:     422
 k-point 84 :   0.4688 0.4063 0.1563  plane waves:     420
 k-point 85 :   0.4688 0.4688 0.1563  plane waves:     419
 k-point 86 :   0.2188 0.2188 0.2188  plane waves:     425
 k-point 87 :   0.2812 0.2188 0.2188  plane waves:     423
 k-point 88 :   0.3438 0.2188 0.2188  plane waves:     424
 k-point 89 :   0.4063 0.2188 0.2188  plane waves:     425
 k-point 90 :   0.4688 0.2188 0.2188  plane waves:     430
 k-point 91 :   0.2812 0.2812 0.2188  plane waves:     426
 k-point 92 :   0.3438 0.2812 0.2188  plane waves:     424
 k-point 93 :   0.4063 0.2812 0.2188  plane waves:     426
 k-point 94 :   0.4688 0.2812 0.2188  plane waves:     425
 k-point 95 :   0.3438 0.3438 0.2188  plane waves:     425
 k-point 96 :   0.4063 0.3438 0.2188  plane waves:     424
 k-point 97 :   0.4688 0.3438 0.2188  plane waves:     421
 k-point 98 :   0.4063 0.4063 0.2188  plane waves:     420
 k-point 99 :   0.4688 0.4063 0.2188  plane waves:     420
 k-point ** :   0.4688 0.4688 0.2188  plane waves:     418
 k-point ** :   0.2812 0.2812 0.2812  plane waves:     422
 k-point ** :   0.3438 0.2812 0.2812  plane waves:     427
 k-point ** :   0.4063 0.2812 0.2812  plane waves:     428
 k-point ** :   0.4688 0.2812 0.2812  plane waves:     428
 k-point ** :   0.3438 0.3438 0.2812  plane waves:     422
 k-point ** :   0.4063 0.3438 0.2812  plane waves:     423
 k-point ** :   0.4688 0.3438 0.2812  plane waves:     426
 k-point ** :   0.4063 0.4063 0.2812  plane waves:     426
 k-point ** :   0.4688 0.4063 0.2812  plane waves:     421
 k-point ** :   0.4688 0.4688 0.2812  plane waves:     420
 k-point ** :   0.3438 0.3438 0.3438  plane waves:     426
 k-point ** :   0.4063 0.3438 0.3438  plane waves:     423
 k-point ** :   0.4688 0.3438 0.3438  plane waves:     424
 k-point ** :   0.4063 0.4063 0.3438  plane waves:     428
 k-point ** :   0.4688 0.4063 0.3438  plane waves:     426
 k-point ** :   0.4688 0.4688 0.3438  plane waves:     428
 k-point ** :   0.4063 0.4063 0.4063  plane waves:     429
 k-point ** :   0.4688 0.4063 0.4063  plane waves:     426
 k-point ** :   0.4688 0.4688 0.4063  plane waves:     432
 k-point ** :   0.4688 0.4688 0.4688  plane waves:     432

 maximum and minimum number of plane-waves per node :       442      415

 maximum number of plane-waves:       442
 maximum index in each direction: 
   IXMAX=    4   IYMAX=    4   IZMAX=    4
   IXMIN=   -5   IYMIN=   -5   IZMIN=   -5


 serial   3D FFT for wavefunctions
 parallel 3D FFT for charge:
    minimum data exchange during FFTs selected (reduces bandwidth)


 total amount of memory used by VASP MPI-rank0    39567. kBytes
=======================================================================

   base      :      30000. kBytes
   nonl-proj :       8309. kBytes
   fftplans  :         79. kBytes
   grid      :        150. kBytes
   one-center:         31. kBytes
   wavefun   :        998. kBytes
 
     INWAV:  cpu time    0.0000: real time    0.0000
 initial charge density was supplied:
 number of electron      22.0000104 magnetization 
 keeping initial charge density in first step


--------------------------------------------------------------------------------------------------------


 Maximum index for augmentation-charges          341 (set IRDMAX)


--------------------------------------------------------------------------------------------------------


 First call to EWALD:  gamma=   0.537
 Maximum number of real-space cells 3x 3x 3
 Maximum number of reciprocal cells 3x 3x 3

    FEWALD:  cpu time    0.0017: real time    0.0024


--------------------------------------- Iteration      1(   1)  ---------------------------------------


    POTLOK:  cpu time    0.0154: real time    0.0219
    SETDIJ:  cpu time    0.0053: real time    0.0079
     EDDAV:  cpu time    1.2146: real time    1.2349
 BZINTS: Fermi energy:  6.515623; 22.000000 electrons
         Band energy:-252.724811;  BLOECHL correction: -0.200848
       DOS:  cpu time    0.1398: real time    0.1445
    --------------------------------------------
      LOOP:  cpu time    1.3750: real time    1.4093

 eigenvalue-minimisations  : 10240
 total energy-change (2. order) :-0.2149629E+01  (-0.1114712E+04)
 number of electron      22.0000104 magnetization 
 augmentation part       22.0000104 magnetization 

 Free energy of the ion-electron system (eV)
  ---------------------------------------------------
  alpha Z        PSCENC =       249.60523850
  Ewald energy   TEWEN  =     -1921.02116984
  -Hartree energ DENC   =      -240.24205806
  -exchange      EXHF   =         0.00000000
  -V(xc)+E(xc)   XCENC  =        52.87349298
  PAW double counting   =      2997.92383772    -2981.29043777
  entropy T*S    EENTRO =         0.00000000
  eigenvalues    EBANDS =      -252.72481055
  atomic energy  EATOM  =      2092.72627849
  Solvation  Ediel_sol  =         0.00000000
  ---------------------------------------------------
  free energy    TOTEN  =        -2.14962854 eV

  energy without entropy =       -2.14962854  energy(sigma->0) =       -2.14962854


--------------------------------------------------------------------------------------------------------




--------------------------------------- Iteration      1(   2)  ---------------------------------------


     EDDAV:  cpu time    1.6731: real time    1.6807
 BZINTS: Fermi energy:  4.840392; 22.000000 electrons
         Band energy:-272.821416;  BLOECHL correction: -0.051849
       DOS:  cpu time    0.1392: real time    0.1395
    --------------------------------------------
      LOOP:  cpu time    1.8122: real time    1.8203

 eigenvalue-minimisations  : 12280
 total energy-change (2. order) :-0.2009661E+02  (-0.1965556E+02)
 number of electron      22.0000104 magnetization 
 augmentation part       22.0000104 magnetization 

 Free energy of the ion-electron system (eV)
  ---------------------------------------------------
  alpha Z        PSCENC =       249.60523850
  Ewald energy   TEWEN  =     -1921.02116984
  -Hartree energ DENC   =      -240.24205806
  -exchange      EXHF   =         0.00000000
  -V(xc)+E(xc)   XCENC  =        52.87349298
  PAW double counting   =      2997.92383772    -2981.29043777
  entropy T*S    EENTRO =         0.00000000
  eigenvalues    EBANDS =      -272.82141585
  atomic energy  EATOM  =      2092.72627849
  Solvation  Ediel_sol  =         0.00000000
  ---------------------------------------------------
  free energy    TOTEN  =       -22.24623383 eV

  energy without entropy =      -22.24623383  energy(sigma->0) =      -22.24623383


--------------------------------------------------------------------------------------------------------




--------------------------------------- Iteration      1(   3)  ---------------------------------------


     EDDAV:  cpu time    1.7624: real time    1.7722
 BZINTS: Fermi energy:  4.837769; 22.000000 electrons
         Band energy:-272.848806;  BLOECHL correction: -0.051828
       DOS:  cpu time    0.1391: real time    0.1395
    --------------------------------------------
      LOOP:  cpu time    1.9016: real time    1.9116

 eigenvalue-minimisations  : 12120
 total energy-change (2. order) :-0.2738988E-01  (-0.2738833E-01)
 number of electron      22.0000104 magnetization 
 augmentation part       22.0000104 magnetization 

 Free energy of the ion-electron system (eV)
  ---------------------------------------------------
  alpha Z        PSCENC =       249.60523850
  Ewald energy   TEWEN  =     -1921.02116984
  -Hartree energ DENC   =      -240.24205806
  -exchange      EXHF   =         0.00000000
  -V(xc)+E(xc)   XCENC  =        52.87349298
  PAW double counting   =      2997.92383772    -2981.29043777
  entropy T*S    EENTRO =         0.00000000
  eigenvalues    EBANDS =      -272.84880573
  atomic energy  EATOM  =      2092.72627849
  Solvation  Ediel_sol  =         0.00000000
  ---------------------------------------------------
  free energy    TOTEN  =       -22.27362371 eV

  energy without entropy =      -22.27362371  energy(sigma->0) =      -22.27362371


--------------------------------------------------------------------------------------------------------




--------------------------------------- Iteration      1(   4)  ---------------------------------------


     EDDAV:  cpu time    2.8847: real time    2.8989
 BZINTS: Fermi energy:  4.837768; 22.000000 electrons
         Band energy:-272.848816;  BLOECHL correction: -0.051828
       DOS:  cpu time    0.1467: real time    0.1471
    --------------------------------------------
      LOOP:  cpu time    3.0314: real time    3.0460

 eigenvalue-minimisations  : 16080
 total energy-change (2. order) :-0.1028528E-04  (-0.1029181E-04)
 number of electron      22.0000104 magnetization 
 augmentation part       22.0000104 magnetization 

 Free energy of the ion-electron system (eV)
  ---------------------------------------------------
  alpha Z        PSCENC =       249.60523850
  Ewald energy   TEWEN  =     -1921.02116984
  -Hartree energ DENC   =      -240.24205806
  -exchange      EXHF   =         0.00000000
  -V(xc)+E(xc)   XCENC  =        52.87349298
  PAW double counting   =      2997.92383772    -2981.29043777
  entropy T*S    EENTRO =         0.00000000
  eigenvalues    EBANDS =      -272.84881601
  atomic energy  EATOM  =      2092.72627849
  Solvation  Ediel_sol  =         0.00000000
  ---------------------------------------------------
  free energy    TOTEN  =       -22.27363400 eV

  energy without entropy =      -22.27363400  energy(sigma->0) =      -22.27363400


--------------------------------------------------------------------------------------------------------




--------------------------------------- Iteration      1(   5)  ---------------------------------------


     EDDAV:  cpu time    1.7485: real time    1.7588
 BZINTS: Fermi energy:  4.837768; 22.000000 electrons
         Band energy:-272.848816;  BLOECHL correction: -0.051828
       DOS:  cpu time    0.1432: real time    0.1436
    --------------------------------------------
      LOOP:  cpu time    1.8917: real time    1.9023

 eigenvalue-minimisations  : 12080
 total energy-change (2. order) : 0.1109584E-09  (-0.1957382E-10)
 number of electron      22.0000104 magnetization 
 augmentation part       22.0000104 magnetization 

 Free energy of the ion-electron system (eV)
  ---------------------------------------------------
  alpha Z        PSCENC =       249.60523850
  Ewald energy   TEWEN  =     -1921.02116984
  -Hartree energ DENC   =      -240.24205806
  -exchange      EXHF   =         0.00000000
  -V(xc)+E(xc)   XCENC  =        52.87349298
  PAW double counting   =      2997.92383772    -2981.29043777
  entropy T*S    EENTRO =         0.00000000
  eigenvalues    EBANDS =      -272.84881601
  atomic energy  EATOM  =      2092.72627849
  Solvation  Ediel_sol  =         0.00000000
  ---------------------------------------------------
  free energy    TOTEN  =       -22.27363400 eV

  energy without entropy =      -22.27363400  energy(sigma->0) =      -22.27363400


--------------------------------------------------------------------------------------------------------




--------------------------------------- Iteration      1(   6)  ---------------------------------------


     EDDAV:  cpu time    2.8410: real time    2.8746
 BZINTS: Fermi energy:  4.837768; 22.000000 electrons
         Band energy:-272.848816;  BLOECHL correction: -0.051828
       DOS:  cpu time    0.1391: real time    0.1397
    --------------------------------------------
      LOOP:  cpu time    2.9801: real time    3.0143

 eigenvalue-minimisations  : 15960
 total energy-change (2. order) :-0.2542038E-09  (-0.4821997E-13)
 number of electron      22.0000104 magnetization 
 augmentation part       22.0000104 magnetization 

 Free energy of the ion-electron system (eV)
  ---------------------------------------------------
  alpha Z        PSCENC =       249.60523850
  Ewald energy   TEWEN  =     -1921.02116984
  -Hartree energ DENC   =      -240.24205806
  -exchange      EXHF   =         0.00000000
  -V(xc)+E(xc)   XCENC  =        52.87349298
  PAW double counting   =      2997.92383772    -2981.29043777
  entropy T*S    EENTRO =         0.00000000
  eigenvalues    EBANDS =      -272.84881601
  atomic energy  EATOM  =      2092.72627849
  Solvation  Ediel_sol  =         0.00000000
  ---------------------------------------------------
  free energy    TOTEN  =       -22.27363400 eV

  energy without entropy =      -22.27363400  energy(sigma->0) =      -22.27363400


--------------------------------------------------------------------------------------------------------




 average (electrostatic) potential at core
  the test charge radii are     1.2165
  (the norm of the test charge is              1.0000)
       1 -34.9060       2 -34.9060
 
 
 
 E-fermi :   4.8378     XC(G=0): -12.6480     alpha+bet :-12.9149


 k-point     1 :       0.0312    0.0312    0.0312
  band No.  band energies     occupation 
      1     -25.6400      2.00000
      2     -25.6400      2.00000
      3     -25.6209      2.00000
      4     -24.7156      2.00000
      5     -24.6940      2.00000
      6     -24.6940      2.00000
      7      -1.0264      2.00000
      8       1.1257      2.00000
      9       1.1257      2.00000
     10       5.1363      0.00000
     11       5.1363      0.00000
     12       5.2332      0.00000
     13       8.0501      0.00000
     14       8.0501      0.00000
     15      10.0749      0.00000
     16      10.3724      0.00000
     17      10.3724      0.00000
     18      14.3103      0.00000
     19      14.3103      0.00000
     20      14.4480      0.00000
     21      20.4452      0.00000
     22      20.5271      0.00000
     23      20.5271      0.00000
     24      23.5471      0.00000
     25      25.8759      0.00000
     26      25.8759      0.00000
     27      30.0961      0.00000
     28      30.0961      0.00000
     29      30.1418      0.00000
     30      33.8887      0.00000
     31      34.7056      0.00000
     32      34.7056      0.00000
     33      40.7009      0.00000
     34      40.9768      0.00000
     35      40.9768      0.00000
     36      41.2110      0.00000
     37      41.6761      0.00000
     38      41.9838      0.00000
     39      41.9838      0.00000
     40      42.2228      0.00000

 k-point     2 :       0.0938    0.0312    0.0312
  band No.  band energies     occupation 
      1     -25.6523      2.00000
      2     -25.6213      2.00000
      3     -25.5926      2.00000
      4     -24.7644      2.00000
      5     -24.7115      2.00000
      6     -24.7023      2.00000
      7      -0.8644      2.00000
      8       1.2135      2.00000
      9       1.2668      2.00000
     10       5.0764     -0.03552
     11       5.1177     -0.00000
     12       5.3544      0.00000
     13       7.8258      0.00000
     14       8.1363      0.00000
     15       9.4886      0.00000
     16       9.8407      0.00000
     17      10.3573      0.00000
     18      13.8738      0.00000
     19      15.0174      0.00000
     20      15.0626      0.00000
     21      20.6056      0.00000
     22      20.7927      0.00000
     23      20.8311      0.00000
     24      23.9088      0.00000
     25      25.7733      0.00000
     26      25.7962      0.00000
     27      28.6550      0.00000
     28      30.3649      0.00000
     29      30.3713      0.00000
     30      33.4318      0.00000
     31      34.4037      0.00000
     32      35.9262      0.00000
     33      40.2375      0.00000
     34      40.2541      0.00000
     35      40.7230      0.00000
     36      40.8132      0.00000
     37      41.0721      0.00000
     38      41.9096      0.00000
     39      41.9546      0.00000
     40      42.5459      0.00000

 k-point     3 :       0.1563    0.0312    0.0312
  band No.  band energies     occupation 
      1     -25.6598      2.00000
      2     -25.5846      2.00000
      3     -25.5515      2.00000
      4     -24.8444      2.00000
      5     -24.7459      2.00000
      6     -24.7313      2.00000
      7      -0.5511      2.00000
      8       1.3886      2.00000
      9       1.5298      2.00000
     10       5.0334     -0.13402
     11       5.0922     -0.01144
     12       5.5307      0.00000
     13       7.4122      0.00000
     14       8.3002      0.00000
     15       8.7652      0.00000
     16       9.0998      0.00000
     17      10.1322      0.00000
     18      13.1256      0.00000
     19      16.0801      0.00000
     20      16.1061      0.00000
     21      20.9529      0.00000
     22      21.2991      0.00000
     23      21.3565      0.00000
     24      23.8826      0.00000
     25      25.6438      0.00000
     26      26.2438      0.00000
     27      26.8082      0.00000
     28      30.7935      0.00000
     29      30.8965      0.00000
     30      32.8417      0.00000
     31      33.8143      0.00000
     32      36.9282      0.00000
     33      39.0165      0.00000
     34      39.6443      0.00000
     35      39.9080      0.00000
     36      40.4178      0.00000
     37      40.5060      0.00000
     38      41.5874      0.00000
     39      42.1058      0.00000
     40      42.7803      0.00000

 k-point     4 :       0.2188    0.0312    0.0312
  band No.  band energies     occupation 
      1     -25.6606      2.00000
      2     -25.5315      2.00000
      3     -25.4967      2.00000
      4     -24.9495      2.00000
      5     -24.7961      2.00000
      6     -24.7778      2.00000
      7      -0.1076      2.00000
      8       1.6489      2.00000
      9       1.8750      2.00000
     10       5.0185     -0.07041
     11       5.0735     -0.02946
     12       5.7681      0.00000
     13       6.8662      0.00000
     14       8.0310      0.00000
     15       8.3381      0.00000
     16       8.5250      0.00000
     17       9.7723      0.00000
     18      12.2552      0.00000
     19      17.3002      0.00000
     20      17.3808      0.00000
     21      21.4163      0.00000
     22      21.9762      0.00000
     23      22.0785      0.00000
     24      23.1968      0.00000
     25      25.0162      0.00000
     26      25.4193      0.00000
     27      27.5258      0.00000
     28      31.3957      0.00000
     29      31.4839      0.00000
     30      31.9870      0.00000
     31      33.1603      0.00000
     32      37.5080      0.00000
     33      37.5473      0.00000
     34      37.9596      0.00000
     35      39.5617      0.00000
     36      40.1531      0.00000
     37      40.4436      0.00000
     38      41.1594      0.00000
     39      42.2186      0.00000
     40      42.8452      0.00000

 k-point     5 :       0.2812    0.0312    0.0312
  band No.  band energies     occupation 
      1     -25.6506      2.00000
      2     -25.4641      2.00000
      3     -25.4292      2.00000
      4     -25.0703      2.00000
      5     -24.8603      2.00000
      6     -24.8391      2.00000
      7       0.4344      2.00000
      8       1.9914      2.00000
      9       2.2381      2.00000
     10       5.0473     -0.02124
     11       5.0691     -0.05918
     12       6.0681      0.00000
     13       6.2557      0.00000
     14       7.3506      0.00000
     15       7.6283      0.00000
     16       8.7838      0.00000
     17       9.3263      0.00000
     18      11.3958      0.00000
     19      18.6155      0.00000
     20      18.7568      0.00000
     21      21.9276      0.00000
     22      22.3263      0.00000
     23      22.4428      0.00000
     24      22.9409      0.00000
     25      23.7600      0.00000
     26      25.1331      0.00000
     27      29.1929      0.00000
     28      30.9326      0.00000
     29      31.1956      0.00000
     30      32.1221      0.00000
     31      33.4928      0.00000
     32      35.9185      0.00000
     33      36.1592      0.00000
     34      37.8144      0.00000
     35      38.8645      0.00000
     36      40.3635      0.00000
     37      40.5895      0.00000
     38      40.7470      0.00000
     39      42.2443      0.00000
     40      42.8322      0.00000

 k-point     6 :       0.3438    0.0312    0.0312
  band No.  band energies     occupation 
      1     -25.6251      2.00000
      2     -25.3852      2.00000
      3     -25.3511      2.00000
      4     -25.1962      2.00000
      5     -24.9363      2.00000
      6     -24.9125      2.00000
      7       1.0316      2.00000
      8       2.4115      2.00000
      9       2.5271      2.00000
     10       5.0208      0.39026
     11       5.1363     -0.10999
     12       5.7057      0.00000
     13       6.4287      0.00000
     14       6.7562      0.00000
     15       7.0002      0.00000
     16       8.8304      0.00000
     17       9.0425      0.00000
     18      10.6459      0.00000
     19      19.8727      0.00000
     20      20.1811      0.00000
     21      21.6104      0.00000
     22      21.6171      0.00000
     23      22.4434      0.00000
     24      23.8018      0.00000
     25      24.0841      0.00000
     26      24.7931      0.00000
     27      29.8867      0.00000
     28      30.2698      0.00000
     29      31.0650      0.00000
     30      32.8283      0.00000
     31      34.3420      0.00000
     32      34.3426      0.00000
     33      34.7699      0.00000
     34      37.8360      0.00000
     35      38.2119      0.00000
     36      40.3521      0.00000
     37      40.6358      0.00000
     38      40.9332      0.00000
     39      41.9909      0.00000
     40      42.7821      0.00000

 k-point     7 :       0.4063    0.0312    0.0312
  band No.  band energies     occupation 
      1     -25.5801      2.00000
      2     -25.3170      2.00000
      3     -25.2979      2.00000
      4     -25.2652      2.00000
      5     -25.0213      2.00000
      6     -24.9950      2.00000
      7       1.6272      2.00000
      8       2.6402      2.00000
      9       2.9036      2.00000
     10       4.6486      1.98190
     11       5.2983     -0.05521
     12       5.5496      0.00000
     13       6.2607      0.00000
     14       6.4683      0.00000
     15       6.8442      0.00000
     16       8.3146      0.00000
     17       9.2713      0.00000
     18      10.0766      0.00000
     19      20.3116      0.00000
     20      20.6992      0.00000
     21      21.5929      0.00000
     22      21.9110      0.00000
     23      22.9331      0.00000
     24      24.3295      0.00000
     25      24.4177      0.00000
     26      24.5162      0.00000
     27      29.2752      0.00000
     28      29.6642      0.00000
     29      32.2110      0.00000
     30      32.6010      0.00000
     31      33.0828      0.00000
     32      34.1833      0.00000
     33      36.4009      0.00000
     34      36.9932      0.00000
     35      38.1798      0.00000
     36      39.9698      0.00000
     37      39.9915      0.00000
     38      41.4565      0.00000
     39      41.7246      0.00000
     40      42.3085      0.00000

 k-point     8 :       0.4688    0.0312    0.0312
  band No.  band energies     occupation 
      1     -25.5132      2.00000
      2     -25.4245      2.00000
      3     -25.2056      2.00000
      4     -25.1748      2.00000
      5     -25.1123      2.00000
      6     -25.0836      2.00000
      7       2.1485      2.00000
      8       2.5101      2.00000
      9       3.4578      2.00000
     10       4.0557      2.00000
     11       5.5393     -0.00015
     12       5.7241      0.00000
     13       5.8590      0.00000
     14       6.0407      0.00000
     15       7.3056      0.00000
     16       7.8009      0.00000
     17       9.4715      0.00000
     18       9.7061      0.00000
     19      20.1056      0.00000
     20      20.1829      0.00000
     21      22.8596      0.00000
     22      23.0975      0.00000
     23      23.3225      0.00000
     24      24.0528      0.00000
     25      24.1379      0.00000
     26      24.1419      0.00000
     27      29.6218      0.00000
     28      29.9464      0.00000
     29      30.7672      0.00000
     30      31.0579      0.00000
     31      35.0343      0.00000
     32      35.1777      0.00000
     33      36.0276      0.00000
     34      37.1218      0.00000
     35      38.2630      0.00000
     36      39.3986      0.00000
     37      39.6149      0.00000
     38      40.2807      0.00000
     39      42.1389      0.00000
     40      42.1792      0.00000

 k-point     9 :       0.0938    0.0938    0.0312
  band No.  band energies     occupation 
      1     -25.6737      2.00000
      2     -25.6108      2.00000
      3     -25.5484      2.00000
      4     -24.8288      2.00000
      5     -24.7260      2.00000
      6     -24.6950      2.00000
      7      -0.7080      2.00000
      8       1.3223      2.00000
      9       1.3839      2.00000
     10       4.9450      0.01176
     11       5.0744     -0.02467
     12       5.5619      0.00000
     13       7.8014      0.00000
     14       8.0676      0.00000
     15       8.8435      0.00000
     16       9.4925      0.00000
     17      10.4275      0.00000
     18      14.2076      0.00000
     19      14.8698      0.00000
     20      15.5160      0.00000
     21      20.6718      0.00000
     22      21.0575      0.00000
     23      21.1331      0.00000
     24      24.3326      0.00000
     25      25.5727      0.00000
     26      25.7843      0.00000
     27      28.4351      0.00000
     28      29.5552      0.00000
     29      30.5800      0.00000
     30      32.7614      0.00000
     31      34.6311      0.00000
     32      36.9835      0.00000
     33      39.1411      0.00000
     34      39.5110      0.00000
     35      40.4450      0.00000
     36      40.7366      0.00000
     37      40.9298      0.00000
     38      42.0367      0.00000
     39      42.2471      0.00000
     40      42.8578      0.00000

 k-point    10 :       0.1563    0.0938    0.0312
  band No.  band energies     occupation 
      1     -25.6959      2.00000
      2     -25.5760      2.00000
      3     -25.4940      2.00000
      4     -24.9222      2.00000
      5     -24.7589      2.00000
      6     -24.7067      2.00000
      7      -0.4066      2.00000
      8       1.4957      2.00000
      9       1.6409      2.00000
     10       4.8247      1.22460
     11       5.0204     -0.04570
     12       5.8226      0.00000
     13       7.5056      0.00000
     14       8.1235      0.00000
     15       8.1935      0.00000
     16       8.8174      0.00000
     17      10.3650      0.00000
     18      13.6177      0.00000
     19      15.6666      0.00000
     20      16.3728      0.00000
     21      20.9011      0.00000
     22      21.5326      0.00000
     23      21.6039      0.00000
     24      24.2578      0.00000
     25      25.4503      0.00000
     26      26.3163      0.00000
     27      27.0294      0.00000
     28      29.7074      0.00000
     29      30.9863      0.00000
     30      32.1859      0.00000
     31      34.2110      0.00000
     32      37.9199      0.00000
     33      37.9794      0.00000
     34      39.1814      0.00000
     35      39.6457      0.00000
     36      40.1476      0.00000
     37      40.8102      0.00000
     38      42.1192      0.00000
     39      42.1326      0.00000
     40      43.3176      0.00000

 k-point    11 :       0.2188    0.0938    0.0312
  band No.  band energies     occupation 
      1     -25.7094      2.00000
      2     -25.5241      2.00000
      3     -25.4299      2.00000
      4     -25.0356      2.00000
      5     -24.8071      2.00000
      6     -24.7392      2.00000
      7       0.0177      2.00000
      8       1.7419      2.00000
      9       1.9859      2.00000
     10       4.7474      1.80878
     11       4.9607      0.05031
     12       6.1288      0.00000
     13       7.0541      0.00000
     14       7.4219      0.00000
     15       8.1076      0.00000
     16       8.4291      0.00000
     17      10.1103      0.00000
     18      12.7225      0.00000
     19      16.7907      0.00000
     20      17.4926      0.00000
     21      21.2431      0.00000
     22      21.9901      0.00000
     23      22.2934      0.00000
     24      23.5270      0.00000
     25      25.2652      0.00000
     26      25.5150      0.00000
     27      27.6632      0.00000
     28      30.1385      0.00000
[...]
     18      15.0640      0.00000
     19      15.3219      0.00000
     20      16.3100      0.00000
     21      16.8225      0.00000
     22      18.6061      0.00000
     23      18.6201      0.00000
     24      20.2786      0.00000
     25      26.5834      0.00000
     26      27.4736      0.00000
     27      28.0725      0.00000
     28      30.9765      0.00000
     29      32.3847      0.00000
     30      32.7430      0.00000
     31      34.1046      0.00000
     32      34.2276      0.00000
     33      36.6126      0.00000
     34      36.7483      0.00000
     35      37.9364      0.00000
     36      38.1415      0.00000
     37      41.1212      0.00000
     38      41.8098      0.00000
     39      41.8493      0.00000
     40      42.1227      0.00000

 k-point   115 :       0.4688    0.4063    0.3438
  band No.  band energies     occupation 
      1     -25.7485      2.00000
      2     -25.7185      2.00000
      3     -25.4037      2.00000
      4     -25.2933      2.00000
      5     -25.0399      2.00000
      6     -24.9967      2.00000
      7       2.7715      2.00000
      8       2.9508      2.00000
      9       3.3851      2.00000
     10       3.5765      2.00000
     11       4.4451      2.04358
     12       4.5502      2.02774
     13       8.6386      0.00000
     14       8.6555      0.00000
     15       8.8513      0.00000
     16       8.8596      0.00000
     17      14.3416      0.00000
     18      14.8065      0.00000
     19      15.2901      0.00000
     20      15.6882      0.00000
     21      17.3844      0.00000
     22      18.0243      0.00000
     23      18.9089      0.00000
     24      19.5149      0.00000
     25      27.2363      0.00000
     26      27.5753      0.00000
     27      29.1088      0.00000
     28      30.2703      0.00000
     29      32.2950      0.00000
     30      32.9712      0.00000
     31      33.0868      0.00000
     32      33.6701      0.00000
     33      36.6436      0.00000
     34      37.0541      0.00000
     35      37.1555      0.00000
     36      37.5113      0.00000
     37      41.9940      0.00000
     38      42.0081      0.00000
     39      42.4852      0.00000
     40      43.3437      0.00000

 k-point   116 :       0.4688    0.4688    0.3438
  band No.  band energies     occupation 
      1     -25.7262      2.00000
      2     -25.7135      2.00000
      3     -25.3637      2.00000
      4     -25.3171      2.00000
      5     -25.0688      2.00000
      6     -25.0475      2.00000
      7       2.9145      2.00000
      8       3.0462      2.00000
      9       3.2377      2.00000
     10       3.3749      2.00000
     11       4.6512      1.90173
     12       4.6887      1.79670
     13       8.7015      0.00000
     14       8.7093      0.00000
     15       8.8815      0.00000
     16       8.8856      0.00000
     17      14.6956      0.00000
     18      14.9585      0.00000
     19      15.0471      0.00000
     20      15.2818      0.00000
     21      17.7047      0.00000
     22      18.2530      0.00000
     23      18.3070      0.00000
     24      18.8372      0.00000
     25      27.8839      0.00000
     26      28.0572      0.00000
     27      29.7639      0.00000
     28      30.5145      0.00000
     29      31.4283      0.00000
     30      31.9540      0.00000
     31      33.1883      0.00000
     32      33.4238      0.00000
     33      36.2929      0.00000
     34      36.5090      0.00000
     35      36.9508      0.00000
     36      37.1044      0.00000
     37      42.0667      0.00000
     38      42.0791      0.00000
     39      44.0172      0.00000
     40      44.7166      0.00000

 k-point   117 :       0.4063    0.4063    0.4063
  band No.  band energies     occupation 
      1     -25.7230      2.00000
      2     -25.5686      2.00000
      3     -25.5686      2.00000
      4     -25.1804      2.00000
      5     -25.1804      2.00000
      6     -25.0140      2.00000
      7       2.8080      2.00000
      8       3.3739      2.00000
      9       3.3739      2.00000
     10       4.0135      2.00000
     11       4.0912      2.00000
     12       4.0912      2.00000
     13       8.7809      0.00000
     14       8.7809      0.00000
     15       8.7897      0.00000
     16       8.7897      0.00000
     17      14.4242      0.00000
     18      14.8647      0.00000
     19      15.8605      0.00000
     20      16.1611      0.00000
     21      16.1611      0.00000
     22      18.2335      0.00000
     23      18.2335      0.00000
     24      19.6330      0.00000
     25      27.1809      0.00000
     26      28.2685      0.00000
     27      28.2685      0.00000
     28      31.6432      0.00000
     29      32.1159      0.00000
     30      32.1159      0.00000
     31      34.1928      0.00000
     32      34.1928      0.00000
     33      34.8345      0.00000
     34      36.1330      0.00000
     35      36.9335      0.00000
     36      36.9335      0.00000
     37      42.0180      0.00000
     38      42.0796      0.00000
     39      42.9276      0.00000
     40      42.9276      0.00000

 k-point   118 :       0.4688    0.4063    0.4063
  band No.  band energies     occupation 
      1     -25.6763      2.00000
      2     -25.6265      2.00000
      3     -25.4403      2.00000
      4     -25.3092      2.00000
      5     -25.1395      2.00000
      6     -25.0807      2.00000
      7       2.9807      2.00000
      8       3.1965      2.00000
      9       3.5489      2.00000
     10       3.7900      2.00000
     11       4.1966      2.00000
     12       4.2560      2.00000
     13       8.7803      0.00000
     14       8.7863      0.00000
     15       8.8672      0.00000
     16       8.8684      0.00000
     17      14.7719      0.00000
     18      14.8288      0.00000
     19      15.5396      0.00000
     20      15.6679      0.00000
     21      16.9502      0.00000
     22      17.6577      0.00000
     23      18.4037      0.00000
     24      18.9482      0.00000
     25      27.8491      0.00000
     26      28.2414      0.00000
     27      29.4291      0.00000
     28      30.7440      0.00000
     29      32.2631      0.00000
     30      32.6676      0.00000
     31      33.0666      0.00000
     32      33.5385      0.00000
     33      35.0430      0.00000
     34      35.8712      0.00000
     35      36.1212      0.00000
     36      36.3961      0.00000
     37      42.0519      0.00000
     38      42.0656      0.00000
     39      44.1288      0.00000
     40      44.7475      0.00000

 k-point   119 :       0.4688    0.4688    0.4063
  band No.  band energies     occupation 
      1     -25.6196      2.00000
      2     -25.5904      2.00000
      3     -25.4127      2.00000
      4     -25.3390      2.00000
      5     -25.1934      2.00000
      6     -25.1567      2.00000
      7       3.1863      2.00000
      8       3.3803      2.00000
      9       3.4556      2.00000
     10       3.6630      2.00000
     11       4.2356      2.00000
     12       4.2528      2.00000
     13       8.8338      0.00000
     14       8.8366      0.00000
     15       8.8983      0.00000
     16       8.8988      0.00000
     17      14.7215      0.00000
     18      14.7561      0.00000
     19      15.6903      0.00000
     20      15.8357      0.00000
     21      17.1136      0.00000
     22      17.5859      0.00000
     23      17.9751      0.00000
     24      18.3431      0.00000
     25      28.5426      0.00000
     26      28.7891      0.00000
     27      30.0161      0.00000
     28      31.1371      0.00000
     29      31.3262      0.00000
     30      32.1699      0.00000
     31      33.0957      0.00000
     32      33.7192      0.00000
     33      34.3111      0.00000
     34      34.9491      0.00000
     35      35.7092      0.00000
     36      35.7896      0.00000
     37      42.0580      0.00000
     38      42.0612      0.00000
     39      45.7969      0.00000
     40      45.9911      0.00000

 k-point   120 :       0.4688    0.4688    0.4688
  band No.  band energies     occupation 
      1     -25.5242      2.00000
      2     -25.4593      2.00000
      3     -25.4593      2.00000
      4     -25.3253      2.00000
      5     -25.3253      2.00000
      6     -25.2587      2.00000
      7       3.4152      2.00000
      8       3.5952      2.00000
      9       3.5952      2.00000
     10       3.8863      2.00000
     11       3.8863      2.00000
     12       3.9861      2.00000
     13       8.9069      0.00000
     14       8.9069      0.00000
     15       8.9075      0.00000
     16       8.9075      0.00000
     17      14.5528      0.00000
     18      14.5725      0.00000
     19      16.2978      0.00000
     20      16.6661      0.00000
     21      16.6661      0.00000
     22      17.4018      0.00000
     23      17.4018      0.00000
     24      17.7910      0.00000
     25      29.4197      0.00000
     26      29.9399      0.00000
     27      29.9399      0.00000
     28      31.2158      0.00000
     29      31.2158      0.00000
     30      31.9725      0.00000
     31      32.9769      0.00000
     32      33.6299      0.00000
     33      33.6299      0.00000
     34      34.5495      0.00000
     35      34.5495      0.00000
     36      34.7713      0.00000
     37      42.0497      0.00000
     38      42.0502      0.00000
     39      47.3158      0.00000
     40      47.3810      0.00000


--------------------------------------------------------------------------------------------------------


 soft charge-density along one line, spin component           1
         0         1         2         3         4         5         6         7         8         9
 total charge-density along one line
 
 pseudopotential strength for first ion, spin component:           1
-27.829   0.000  -0.000   0.000  -0.000   0.000   5.816   0.000   0.000   0.000   0.000   0.000  -0.000   0.000  -0.000   0.000
 -0.000   0.000 -27.829   0.000   0.000   0.000   0.000   0.000   5.816   0.000  -0.000   0.000   0.000   0.000  -0.000   0.000
 -0.000   0.000   0.000   0.000 -27.829   0.000   0.000   0.000  -0.000   0.000   5.816   0.000  -0.000   0.000   0.000   0.000
  5.816   0.000   0.000   0.000   0.000   0.000   4.386   0.000  -0.000   0.000  -0.000   0.000  -0.000   0.000   0.000   0.000
  0.000   0.000   5.816   0.000  -0.000   0.000  -0.000   0.000   4.386   0.000   0.000   0.000  -0.000   0.000   0.000   0.000
  0.000   0.000  -0.000   0.000   5.816   0.000  -0.000   0.000   0.000   0.000   4.386   0.000   0.000   0.000  -0.000   0.000
 -0.000   0.000   0.000   0.000  -0.000   0.000  -0.000   0.000  -0.000   0.000   0.000   0.000  -6.228   0.000   0.000   0.000
 -0.000   0.000  -0.000   0.000   0.000   0.000   0.000   0.000   0.000   0.000  -0.000   0.000   0.000   0.000  -6.228   0.000
  0.000   0.000  -0.000   0.000   0.000   0.000  -0.000   0.000   0.000   0.000  -0.000   0.000   0.000   0.000  -0.000   0.000
  0.000   0.000  -0.000   0.000  -0.000   0.000  -0.000   0.000   0.000   0.000   0.000   0.000  -0.000   0.000  -0.000   0.000
  0.000   0.000   0.000   0.000  -0.000   0.000  -0.000   0.000  -0.000   0.000   0.000   0.000  -0.000   0.000   0.000   0.000
 -0.000   0.000   0.000   0.000  -0.000   0.000   0.000   0.000  -0.000   0.000   0.000   0.000  -7.057   0.000   0.000   0.000
 -0.000   0.000  -0.000   0.000   0.000   0.000   0.000   0.000   0.000   0.000  -0.000   0.000   0.000   0.000  -7.057   0.000
  0.000   0.000  -0.000   0.000   0.000   0.000  -0.000   0.000   0.000   0.000  -0.000   0.000   0.000   0.000  -0.000   0.000
  0.000   0.000  -0.000   0.000  -0.000   0.000  -0.000   0.000   0.000   0.000   0.000   0.000  -0.000   0.000  -0.000   0.000
  0.000   0.000   0.000   0.000  -0.000   0.000  -0.000   0.000  -0.000   0.000   0.000   0.000  -0.000   0.000   0.000   0.000
  0.000   0.000   0.000   0.000   0.000   0.000  -0.000   0.000  -0.000   0.000  -0.000   0.000   0.000   0.000   0.000   0.000
 -0.000   0.000  -0.000   0.000  -0.000   0.000  -0.000   0.000  -0.000   0.000  -0.000   0.000  -0.000   0.000  -0.000   0.000
 total augmentation occupancy for first ion, spin component:           1
  2.000   0.000   0.000   0.000   0.000   0.000   0.000   0.000   0.000   0.000   0.000   0.000   0.000   0.000   0.000   0.000
  0.000   2.000   0.000   0.000   0.000   0.000   0.000   0.000   0.000   0.000   0.000   0.000   0.000   0.000   0.000   0.000
  0.000   0.000   2.000   0.000   0.000   0.000   0.000   0.000   0.000   0.000   0.000   0.000   0.000   0.000   0.000   0.000
  0.000   0.000   0.000   0.000   0.000   0.000   0.000   0.000   0.000   0.000   0.000   0.000   0.000   0.000   0.000   0.000
  0.000   0.000   0.000   0.000   0.000   0.000   0.000   0.000   0.000   0.000   0.000   0.000   0.000   0.000   0.000   0.000
  0.000   0.000   0.000   0.000   0.000   0.000   0.000   0.000   0.000   0.000   0.000   0.000   0.000   0.000   0.000   0.000
  0.000   0.000   0.000   0.000   0.000   0.000   0.800   0.000   0.000   0.000   0.000   0.000   0.000   0.000   0.000   0.000
  0.000   0.000   0.000   0.000   0.000   0.000   0.000   0.800   0.000   0.000   0.000   0.000   0.000   0.000   0.000   0.000
  0.000   0.000   0.000   0.000   0.000   0.000   0.000   0.000   0.800   0.000   0.000   0.000   0.000   0.000   0.000   0.000
  0.000   0.000   0.000   0.000   0.000   0.000   0.000   0.000   0.000   0.800   0.000   0.000   0.000   0.000   0.000   0.000
  0.000   0.000   0.000   0.000   0.000   0.000   0.000   0.000   0.000   0.000   0.800   0.000   0.000   0.000   0.000   0.000
  0.000   0.000   0.000   0.000   0.000   0.000   0.000   0.000   0.000   0.000   0.000   0.000   0.000   0.000   0.000   0.000
  0.000   0.000   0.000   0.000   0.000   0.000   0.000   0.000   0.000   0.000   0.000   0.000   0.000   0.000   0.000   0.000
  0.000   0.000   0.000   0.000   0.000   0.000   0.000   0.000   0.000   0.000   0.000   0.000   0.000   0.000   0.000   0.000
  0.000   0.000   0.000   0.000   0.000   0.000   0.000   0.000   0.000   0.000   0.000   0.000   0.000   0.000   0.000   0.000
  0.000   0.000   0.000   0.000   0.000   0.000   0.000   0.000   0.000   0.000   0.000   0.000   0.000   0.000   0.000   0.000
  0.000   0.000   0.000   0.000   0.000   0.000   0.000   0.000   0.000   0.000   0.000   0.000   0.000   0.000   0.000   0.000
  0.000   0.000   0.000   0.000   0.000   0.000   0.000   0.000   0.000   0.000   0.000   0.000   0.000   0.000   0.000   0.000


------------------------ aborting loop because EDIFF is reached ----------------------------------------


    CHARGE:  cpu time    0.0068: real time    0.0118
    FORLOC:  cpu time    0.0002: real time    0.0010
    FORNL :  cpu time    0.0195: real time    0.0220
    STRESS:  cpu time    0.1755: real time    0.1792
    FORCOR:  cpu time    0.0010: real time    0.0027
    FORHAR:  cpu time    0.0006: real time    0.0017
    OFIELD:  cpu time    0.0002: real time    0.0010

  FORCE on cell =-STRESS in cart. coord.  units (eV):
  Direction    XX          YY          ZZ          XY          YZ          ZX
  --------------------------------------------------------------------------------------
  Alpha Z   249.60524   249.60524   249.60524
  Ewald    -640.34034  -640.34034  -640.34034    -0.00000     0.00000    -0.00000
  Hartree    80.08810    80.08810    80.08810    -0.00000    -0.00000    -0.00000
  E(xc)     -93.76978   -93.76978   -93.76978    -0.00000    -0.00000    -0.00000
  Local     205.56321   205.56321   205.56321    -0.00000    -0.00000     0.00000
  n-local   -89.26432   -84.35374   -77.71457     2.27340    -0.97675     0.41881
  augment    52.35097    52.35097    52.35097     0.00000     0.00000     0.00000
  Kinetic   219.45261   225.02391   241.83408     3.27953    -2.12081     1.19963
  Fock        0.00000     0.00000     0.00000     0.00000     0.00000     0.00000
  -------------------------------------------------------------------------------------
  Total      -1.50995    -1.50995    -1.50995     0.00000    -0.00000    -0.00000
  in kB     -67.26890   -67.26890   -67.26890     0.00000    -0.00000    -0.00000
  external pressure =      -67.27 kB  Pullay stress =        0.00 kB


 VOLUME and BASIS-vectors are now :
 -----------------------------------------------------------------------------
  energy-cutoff  :      300.00
  volume of cell :       35.96
      direct lattice vectors                 reciprocal lattice vectors
     3.300800000  0.000000000  0.000000000     0.302956859  0.000000000  0.000000000
     0.000000000  3.300800000  0.000000000     0.000000000  0.302956859  0.000000000
     0.000000000  0.000000000  3.300800000     0.000000000  0.000000000  0.302956859

  length of vectors
     3.300800000  3.300800000  3.300800000     0.302956859  0.302956859  0.302956859


 FORCES acting on ions
    electron-ion (+dipol)            ewald-force                    non-local-force                 convergence-correction
 -----------------------------------------------------------------------------------------------
   -.252E-13 -.239E-13 -.168E-13   0.268E-14 -.614E-14 -.437E-14   0.000E+00 0.000E+00 0.000E+00   -.140E-14 0.609E-14 0.854E-14
   0.110E-12 0.125E-12 0.124E-12   -.201E-14 0.363E-14 0.345E-14   0.757E-28 0.000E+00 0.000E+00   -.531E-13 -.645E-13 -.659E-13
 -----------------------------------------------------------------------------------------------
   0.844E-13 0.101E-12 0.107E-12   0.666E-15 -.251E-14 -.919E-15   0.757E-28 0.000E+00 0.000E+00   -.545E-13 -.584E-13 -.573E-13
 
 
 POSITION                                       TOTAL-FORCE (eV/Angst)
 -----------------------------------------------------------------------------------
      0.00000      0.00000      0.00000        -0.000000      0.000000      0.000000
      1.65040      1.65040      1.65040         0.000000      0.000000      0.000000
 -----------------------------------------------------------------------------------
    total drift:                                0.000000      0.000000      0.000000


--------------------------------------------------------------------------------------------------------



  FREE ENERGIE OF THE ION-ELECTRON SYSTEM (eV)
  ---------------------------------------------------
  free  energy   TOTEN  =       -22.27363400 eV

  energy  without entropy=      -22.27363400  energy(sigma->0) =      -22.27363400
 


--------------------------------------------------------------------------------------------------------


    POTLOK:  cpu time    0.0040: real time    0.0056


--------------------------------------------------------------------------------------------------------


 writing wavefunctions
     LOOP+:  cpu time   13.4476: real time   13.6462
    4ORBIT:  cpu time    0.0000: real time    0.0000
 BZINTS: Fermi energy:  4.837768; 22.000000 electrons
         Band energy:-272.848816;  BLOECHL correction: -0.051828

 total amount of memory used by VASP MPI-rank0    39567. kBytes
=======================================================================

   base      :      30000. kBytes
   nonl-proj :       8309. kBytes
   fftplans  :         79. kBytes
   grid      :        150. kBytes
   one-center:         31. kBytes
   wavefun   :        998. kBytes
 
  
  
 General timing and accounting informations for this job:
 ========================================================
  
                  Total CPU time used (sec):       15.786
                            User time (sec):       13.813
                          System time (sec):        1.974
                         Elapsed time (sec):       16.229
  
                   Maximum memory used (kb):       60860.
                   Average memory used (kb):           0.
  
                          Minor page faults:        24939
                          Major page faults:           51
                 Voluntary context switches:         1322
