   4   4   0   0
  0.6446043E+02  0.2459946E-09  0.2459946E-09  0.4920000E-08  0.5000000E-15
  1.000000000000000E-004
  CAR 
 graphene (bilayer)                      
     10.02283117    -24.62440047  301     -3.00582881      1.00000000
    -24.624  0.0000E+00  0.0000E+00
    -24.509  0.0000E+00  0.0000E+00
    -24.393  0.0000E+00  0.0000E+00
    -24.278  0.0000E+00  0.0000E+00
    -24.162  0.0000E+00  0.0000E+00
    -24.047  0.0000E+00  0.0000E+00
    -23.931  0.0000E+00  0.0000E+00
    -23.816  0.0000E+00  0.0000E+00
    -23.700  0.7982E-14  0.9219E-15
    -23.585  0.3342E-11  0.3869E-12
    -23.469  0.7322E-09  0.8494E-10
    -23.354  0.8425E-07  0.9815E-08
    -23.239  0.5124E-05  0.6016E-06
    -23.123  0.1662E-03  0.1980E-04
    -23.008  0.2913E-02  0.3562E-03
    -22.892  0.2811E-01  0.3603E-02
    -22.777  0.1537E+00  0.2135E-01
    -22.661  0.4945E+00  0.7846E-01
    -22.546  0.9861E+00  0.1923E+00
    -22.430  0.1303E+01  0.3429E+00
    -22.315  0.1260E+01  0.4884E+00
    -22.199  0.1035E+01  0.6079E+00
    -22.084  0.8400E+00  0.7049E+00
    -21.968  0.7196E+00  0.7880E+00
    -21.853  0.6434E+00  0.8623E+00
    -21.737  0.5892E+00  0.9304E+00
    -21.622  0.5476E+00  0.9936E+00
    -21.506  0.5141E+00  0.1053E+01
    -21.391  0.4864E+00  0.1109E+01
    -21.275  0.4629E+00  0.1163E+01
    -21.160  0.4427E+00  0.1214E+01
    -21.044  0.4251E+00  0.1263E+01
    -20.929  0.4095E+00  0.1310E+01
    -20.813  0.3956E+00  0.1356E+01
    -20.698  0.3832E+00  0.1400E+01
    -20.582  0.3719E+00  0.1443E+01
    -20.467  0.3617E+00  0.1485E+01
    -20.351  0.3523E+00  0.1525E+01
    -20.236  0.3437E+00  0.1565E+01
    -20.120  0.3358E+00  0.1604E+01
    -20.005  0.3286E+00  0.1642E+01
    -19.889  0.3218E+00  0.1679E+01
    -19.774  0.3157E+00  0.1716E+01
    -19.658  0.3125E+00  0.1752E+01
    -19.543  0.3300E+00  0.1790E+01
    -19.427  0.4332E+00  0.1840E+01
    -19.312  0.7044E+00  0.1921E+01
    -19.196  0.1059E+01  0.2043E+01
    -19.081  0.1236E+01  0.2186E+01
    -18.965  0.1154E+01  0.2320E+01
    -18.850  0.9855E+00  0.2433E+01
    -18.734  0.8589E+00  0.2533E+01
    -18.619  0.7814E+00  0.2623E+01
    -18.503  0.7303E+00  0.2707E+01
    -18.388  0.6932E+00  0.2787E+01
    -18.272  0.6648E+00  0.2864E+01
    -18.157  0.6426E+00  0.2938E+01
    -18.041  0.6256E+00  0.3010E+01
    -17.926  0.6133E+00  0.3081E+01
    -17.810  0.6065E+00  0.3151E+01
    -17.695  0.6086E+00  0.3222E+01
    -17.579  0.6280E+00  0.3294E+01
    -17.464  0.6688E+00  0.3371E+01
    -17.348  0.6871E+00  0.3451E+01
    -17.233  0.6015E+00  0.3520E+01
    -17.118  0.4352E+00  0.3570E+01
    -17.002  0.3084E+00  0.3606E+01
    -16.887  0.2600E+00  0.3636E+01
    -16.771  0.2498E+00  0.3665E+01
    -16.656  0.2489E+00  0.3694E+01
    -16.540  0.2558E+00  0.3723E+01
    -16.425  0.2946E+00  0.3757E+01
    -16.309  0.4049E+00  0.3804E+01
    -16.194  0.5590E+00  0.3869E+01
    -16.078  0.6434E+00  0.3943E+01
    -15.963  0.6277E+00  0.4015E+01
    -15.847  0.5982E+00  0.4084E+01
    -15.732  0.6179E+00  0.4156E+01
    -15.616  0.6850E+00  0.4235E+01
    -15.501  0.7802E+00  0.4325E+01
    -15.385  0.9232E+00  0.4432E+01
    -15.270  0.1092E+01  0.4558E+01
    -15.154  0.1142E+01  0.4690E+01
    -15.039  0.1014E+01  0.4807E+01
    -14.923  0.8433E+00  0.4904E+01
    -14.808  0.7287E+00  0.4988E+01
    -14.692  0.6652E+00  0.5065E+01
    -14.577  0.6265E+00  0.5137E+01
    -14.461  0.5990E+00  0.5207E+01
    -14.346  0.5780E+00  0.5273E+01
    -14.230  0.5611E+00  0.5338E+01
    -14.115  0.5474E+00  0.5401E+01
    -13.999  0.5369E+00  0.5463E+01
    -13.884  0.5370E+00  0.5525E+01
    -13.768  0.5802E+00  0.5592E+01
    -13.653  0.7140E+00  0.5675E+01
    -13.537  0.8952E+00  0.5778E+01
    -13.422  0.9803E+00  0.5892E+01
    -13.306  0.9401E+00  0.6000E+01
    -13.191  0.8739E+00  0.6101E+01
    -13.075  0.8392E+00  0.6198E+01
    -12.960  0.8394E+00  0.6295E+01
    -12.844  0.8673E+00  0.6395E+01
    -12.729  0.8804E+00  0.6497E+01
    -12.613  0.8016E+00  0.6589E+01
    -12.498  0.6436E+00  0.6664E+01
    -12.382  0.5168E+00  0.6723E+01
    -12.267  0.4641E+00  0.6777E+01
    -12.151  0.4494E+00  0.6829E+01
    -12.036  0.4439E+00  0.6880E+01
    -11.920  0.4399E+00  0.6931E+01
    -11.805  0.4365E+00  0.6981E+01
    -11.689  0.4335E+00  0.7031E+01
    -11.574  0.4317E+00  0.7081E+01
    -11.458  0.4381E+00  0.7132E+01
    -11.343  0.4943E+00  0.7189E+01
    -11.227  0.7011E+00  0.7270E+01
    -11.112  0.1084E+01  0.7395E+01
    -10.996  0.1399E+01  0.7557E+01
    -10.881  0.1419E+01  0.7720E+01
    -10.766  0.1265E+01  0.7866E+01
    -10.650  0.1131E+01  0.7997E+01
    -10.535  0.1072E+01  0.8121E+01
    -10.419  0.1114E+01  0.8250E+01
    -10.304  0.1300E+01  0.8400E+01
    -10.188  0.1531E+01  0.8577E+01
    -10.073  0.1604E+01  0.8762E+01
     -9.957  0.1517E+01  0.8937E+01
     -9.842  0.1422E+01  0.9101E+01
     -9.726  0.1396E+01  0.9262E+01
     -9.611  0.1480E+01  0.9433E+01
     -9.495  0.1726E+01  0.9633E+01
     -9.380  0.2044E+01  0.9869E+01
     -9.264  0.2167E+01  0.1012E+02
     -9.149  0.1987E+01  0.1035E+02
     -9.033  0.1641E+01  0.1054E+02
     -8.918  0.1322E+01  0.1069E+02
     -8.802  0.1138E+01  0.1082E+02
     -8.687  0.1059E+01  0.1094E+02
     -8.571  0.1021E+01  0.1106E+02
     -8.456  0.9947E+00  0.1118E+02
     -8.340  0.9745E+00  0.1129E+02
     -8.225  0.9587E+00  0.1140E+02
     -8.109  0.9465E+00  0.1151E+02
     -7.994  0.9373E+00  0.1162E+02
     -7.878  0.9308E+00  0.1173E+02
     -7.763  0.9270E+00  0.1183E+02
     -7.647  0.9261E+00  0.1194E+02
     -7.532  0.9313E+00  0.1205E+02
     -7.416  0.9629E+00  0.1216E+02
     -7.301  0.1071E+01  0.1228E+02
     -7.185  0.1266E+01  0.1243E+02
     -7.070  0.1425E+01  0.1259E+02
     -6.954  0.1443E+01  0.1276E+02
     -6.839  0.1393E+01  0.1292E+02
     -6.723  0.1395E+01  0.1308E+02
     -6.608  0.1524E+01  0.1326E+02
     -6.492  0.1768E+01  0.1346E+02
     -6.377  0.1997E+01  0.1369E+02
     -6.261  0.2160E+01  0.1394E+02
     -6.146  0.2351E+01  0.1421E+02
     -6.030  0.2443E+01  0.1450E+02
     -5.915  0.2121E+01  0.1474E+02
     -5.799  0.1503E+01  0.1491E+02
     -5.684  0.1059E+01  0.1504E+02
     -5.568  0.8989E+00  0.1514E+02
     -5.453  0.8307E+00  0.1524E+02
     -5.337  0.7663E+00  0.1532E+02
     -5.222  0.6659E+00  0.1540E+02
     -5.106  0.4968E+00  0.1546E+02
     -4.991  0.3434E+00  0.1550E+02
     -4.875  0.2730E+00  0.1553E+02
     -4.760  0.2545E+00  0.1556E+02
     -4.644  0.2499E+00  0.1559E+02
     -4.529  0.2474E+00  0.1562E+02
     -4.414  0.2455E+00  0.1565E+02
     -4.298  0.2440E+00  0.1567E+02
     -4.183  0.2429E+00  0.1570E+02
     -4.067  0.2422E+00  0.1573E+02
     -3.952  0.2421E+00  0.1576E+02
     -3.836  0.2426E+00  0.1579E+02
     -3.721  0.2443E+00  0.1581E+02
     -3.605  0.2488E+00  0.1584E+02
     -3.490  0.2588E+00  0.1587E+02
     -3.374  0.2707E+00  0.1590E+02
     -3.259  0.2688E+00  0.1593E+02
     -3.143  0.2579E+00  0.1596E+02
     -3.028  0.2600E+00  0.1599E+02
     -2.912  0.2580E+00  0.1602E+02
     -2.797  0.2497E+00  0.1605E+02
     -2.681  0.2639E+00  0.1608E+02
     -2.566  0.2800E+00  0.1612E+02
     -2.450  0.2751E+00  0.1615E+02
     -2.335  0.2646E+00  0.1618E+02
     -2.219  0.2601E+00  0.1621E+02
     -2.104  0.2600E+00  0.1624E+02
     -1.988  0.2618E+00  0.1627E+02
     -1.873  0.2654E+00  0.1630E+02
     -1.757  0.2753E+00  0.1633E+02
     -1.642  0.3126E+00  0.1637E+02
     -1.526  0.4088E+00  0.1641E+02
     -1.411  0.5409E+00  0.1648E+02
     -1.295  0.6373E+00  0.1655E+02
     -1.180  0.7011E+00  0.1663E+02
     -1.064  0.7500E+00  0.1672E+02
     -0.949  0.7423E+00  0.1680E+02
     -0.833  0.6884E+00  0.1688E+02
     -0.718  0.6395E+00  0.1696E+02
     -0.602  0.6102E+00  0.1703E+02
     -0.487  0.5928E+00  0.1710E+02
     -0.371  0.5814E+00  0.1716E+02
     -0.256  0.5735E+00  0.1723E+02
     -0.140  0.5685E+00  0.1729E+02
     -0.025  0.5684E+00  0.1736E+02
      0.091  0.5905E+00  0.1743E+02
      0.206  0.6906E+00  0.1751E+02
      0.322  0.9136E+00  0.1761E+02
      0.437  0.1155E+01  0.1775E+02
      0.553  0.1291E+01  0.1790E+02
      0.668  0.1425E+01  0.1806E+02
      0.784  0.1622E+01  0.1825E+02
      0.899  0.1704E+01  0.1845E+02
      1.015  0.1655E+01  0.1864E+02
      1.130  0.1726E+01  0.1884E+02
      1.246  0.1942E+01  0.1906E+02
      1.361  0.1999E+01  0.1929E+02
      1.477  0.1788E+01  0.1950E+02
      1.592  0.1509E+01  0.1967E+02
      1.707  0.1311E+01  0.1982E+02
      1.823  0.1189E+01  0.1996E+02
      1.938  0.1107E+01  0.2009E+02
      2.054  0.1045E+01  0.2021E+02
      2.169  0.9952E+00  0.2032E+02
      2.285  0.9542E+00  0.2043E+02
      2.400  0.9196E+00  0.2054E+02
      2.516  0.8899E+00  0.2064E+02
      2.631  0.8646E+00  0.2074E+02
      2.747  0.8436E+00  0.2084E+02
      2.862  0.8271E+00  0.2094E+02
      2.978  0.8115E+00  0.2103E+02
      3.093  0.7831E+00  0.2112E+02
      3.209  0.7358E+00  0.2120E+02
      3.324  0.6974E+00  0.2129E+02
      3.440  0.6912E+00  0.2136E+02
      3.555  0.6818E+00  0.2144E+02
      3.671  0.6069E+00  0.2151E+02
      3.786  0.4662E+00  0.2157E+02
      3.902  0.3356E+00  0.2161E+02
      4.017  0.2735E+00  0.2164E+02
      4.133  0.2999E+00  0.2167E+02
      4.248  0.4811E+00  0.2173E+02
      4.364  0.8827E+00  0.2183E+02
      4.479  0.1361E+01  0.2199E+02
      4.595  0.1583E+01  0.2217E+02
      4.710  0.1418E+01  0.2233E+02
      4.826  0.1143E+01  0.2247E+02
      4.941  0.9866E+00  0.2258E+02
      5.057  0.8635E+00  0.2268E+02
      5.172  0.7621E+00  0.2277E+02
      5.288  0.7643E+00  0.2286E+02
      5.403  0.7731E+00  0.2295E+02
      5.519  0.6828E+00  0.2302E+02
      5.634  0.5661E+00  0.2309E+02
      5.750  0.4944E+00  0.2315E+02
      5.865  0.4463E+00  0.2320E+02
      5.981  0.3907E+00  0.2324E+02
      6.096  0.3269E+00  0.2328E+02
      6.212  0.2617E+00  0.2331E+02
      6.327  0.2055E+00  0.2333E+02
      6.443  0.1725E+00  0.2335E+02
      6.558  0.1609E+00  0.2337E+02
      6.674  0.1584E+00  0.2339E+02
      6.789  0.1583E+00  0.2341E+02
      6.905  0.1592E+00  0.2343E+02
      7.020  0.1614E+00  0.2345E+02
      7.136  0.1685E+00  0.2347E+02
      7.251  0.2042E+00  0.2349E+02
      7.367  0.3462E+00  0.2353E+02
      7.482  0.6591E+00  0.2361E+02
      7.598  0.9672E+00  0.2372E+02
      7.713  0.9749E+00  0.2383E+02
      7.829  0.7143E+00  0.2391E+02
      7.944  0.4235E+00  0.2396E+02
      8.059  0.2137E+00  0.2399E+02
      8.175  0.8682E-01  0.2400E+02
      8.290  0.2513E-01  0.2400E+02
      8.406  0.4594E-02  0.2400E+02
      8.521  0.4889E-03  0.2400E+02
      8.637  0.2890E-04  0.2400E+02
      8.752  0.9249E-06  0.2400E+02
      8.868  0.1578E-07  0.2400E+02
      8.983  0.1422E-09  0.2400E+02
      9.099  0.6722E-12  0.2400E+02
      9.214  0.1653E-14  0.2400E+02
      9.330  0.0000E+00  0.2400E+02
      9.445  0.0000E+00  0.2400E+02
      9.561  0.0000E+00  0.2400E+02
      9.676  0.0000E+00  0.2400E+02
      9.792  0.0000E+00  0.2400E+02
      9.907  0.0000E+00  0.2400E+02
     10.023  0.0000E+00  0.2400E+02
