    4    4    1    1
  0.6446043E+02  0.2459946E-09  0.2459946E-09  0.4920000E-08  0.5000000E-15
  1.000000000000000E-004
  CAR 
 graphene (bilayer)                      
     16    300     12
 
  0.0000000E+00  0.0000000E+00  0.0000000E+00  0.3333333E-02
    1      -22.624400   1.000000
    2      -22.505755   1.000000
    3      -11.090132   1.000000
    4      -10.255020   1.000000
    5       -6.023819   1.000000
    6       -6.017251   1.000000
    7       -5.953255   1.000000
    8       -5.946598   1.000000
    9        0.351387   0.000000
   10        0.725261   0.000000
   11        1.181268   0.000000
   12        1.265686   0.000000
 
  0.3366970E-02  0.6734040E-02  0.0000000E+00  0.3333333E-02
    1      -22.623581   1.000000
    2      -22.504949   1.000000
    3      -11.089153   1.000000
    4      -10.254054   1.000000
    5       -6.026818   1.000000
    6       -6.020224   1.000000
    7       -5.955466   1.000000
    8       -5.948788   1.000000
    9        0.352473   0.000000
   10        0.726363   0.000000
   11        1.182395   0.000000
   12        1.266810   0.000000
 
  0.6733939E-02  0.1346808E-01  0.0000000E+00  0.3333333E-02
    1      -22.621146   1.000000
    2      -22.502531   1.000000
    3      -11.086213   1.000000
    4      -10.251196   1.000000
    5       -6.035878   1.000000
    6       -6.029209   1.000000
    7       -5.962011   1.000000
    8       -5.955274   1.000000
    9        0.355729   0.000000
   10        0.729669   0.000000
   11        1.185775   0.000000
   12        1.270188   0.000000
 
  0.1010091E-01  0.2020212E-01  0.0000000E+00  0.3333333E-02
    1      -22.617091   1.000000
    2      -22.498501   1.000000
    3      -11.081315   1.000000
    4      -10.246444   1.000000
    5       -6.051161   1.000000
    6       -6.044378   1.000000
    7       -5.972665   1.000000
    8       -5.965842   1.000000
    9        0.361156   0.000000
   10        0.735178   0.000000
   11        1.191409   0.000000
   12        1.275818   0.000000
 
  0.1346788E-01  0.2693616E-01  0.0000000E+00  0.3333333E-02
    1      -22.611406   1.000000
    2      -22.492858   1.000000
    3      -11.074456   1.000000
    4      -10.239772   1.000000
    5       -6.072846   1.000000
    6       -6.065927   1.000000
    7       -5.987126   1.000000
    8       -5.980214   1.000000
    9        0.368754   0.000000
   10        0.742892   0.000000
   11        1.199296   0.000000
   12        1.283700   0.000000
 
  0.1683485E-01  0.3367020E-01  0.0000000E+00  0.3333333E-02
    1      -22.604101   1.000000
    2      -22.485607   1.000000
    3      -11.065652   1.000000
    4      -10.231203   1.000000
    5       -6.101057   1.000000
    6       -6.094005   1.000000
    7       -6.005134   1.000000
    8       -5.998152   1.000000
    9        0.378523   0.000000
   10        0.752808   0.000000
   11        1.209438   0.000000
   12        1.293835   0.000000
 
  0.2020182E-01  0.4040424E-01  0.0000000E+00  0.3333333E-02
    1      -22.595168   1.000000
    2      -22.476742   1.000000
    3      -11.054875   1.000000
    4      -10.220711   1.000000
    5       -6.135809   1.000000
    6       -6.128606   1.000000
    7       -6.026503   1.000000
    8       -6.019464   1.000000
    9        0.390463   0.000000
   10        0.764929   0.000000
   11        1.221832   0.000000
   12        1.306219   0.000000
 
  0.2356879E-01  0.4713828E-01  0.0000000E+00  0.3333333E-02
    1      -22.584614   1.000000
    2      -22.466266   1.000000
    3      -11.042145   1.000000
    4      -10.208331   1.000000
    5       -6.177011   1.000000
    6       -6.169658   1.000000
    7       -6.051132   1.000000
    8       -6.044050   1.000000
    9        0.404575   0.000000
   10        0.779252   0.000000
   11        1.236480   0.000000
   12        1.320856   0.000000
 
  0.2693576E-01  0.5387232E-01  0.0000000E+00  0.3333333E-02
    1      -22.572437   1.000000
    2      -22.454178   1.000000
    3      -11.027459   1.000000
    4      -10.194048   1.000000
    5       -6.224468   1.000000
    6       -6.216956   1.000000
    7       -6.078981   1.000000
    8       -6.071860   1.000000
    9        0.420858   0.000000
   10        0.795779   0.000000
   11        1.253382   0.000000
   12        1.337746   0.000000
 
  0.3030273E-01  0.6060636E-01  0.0000000E+00  0.3333333E-02
    1      -22.558641   1.000000
    2      -22.440487   1.000000
    3      -11.010836   1.000000
    4      -10.177872   1.000000
    5       -6.277977   1.000000
    6       -6.270300   1.000000
    7       -6.110053   1.000000
    8       -6.102901   1.000000
    9        0.439312   0.000000
   10        0.814508   0.000000
   11        1.272538   0.000000
   12        1.356886   0.000000
 
  0.3366970E-01  0.6734040E-01  0.0000000E+00  0.3333333E-02
    1      -22.543223   1.000000
    2      -22.425183   1.000000
    3      -10.992248   1.000000
    4      -10.159799   1.000000
    5       -6.337270   1.000000
    6       -6.329403   1.000000
    7       -6.144334   1.000000
    8       -6.137142   1.000000
    9        0.459939   0.000000
   10        0.835440   0.000000
   11        1.293947   0.000000
   12        1.378280   0.000000
 
  0.3703667E-01  0.7407444E-01  0.0000000E+00  0.3333333E-02
    1      -22.526189   1.000000
    2      -22.408270   1.000000
    3      -10.971709   1.000000
    4      -10.139829   1.000000
    5       -6.402046   1.000000
    6       -6.393979   1.000000
    7       -6.181811   1.000000
    8       -6.174575   1.000000
    9        0.482738   0.000000
   10        0.858574   0.000000
   11        1.317609   0.000000
   12        1.401924   0.000000
 
  0.4040364E-01  0.8080848E-01  0.0000000E+00  0.3333333E-02
    1      -22.507540   1.000000
    2      -22.389751   1.000000
    3      -10.949220   1.000000
    4      -10.117983   1.000000
    5       -6.472068   1.000000
    6       -6.463791   1.000000
    7       -6.222474   1.000000
    8       -6.215188   1.000000
    9        0.507709   0.000000
   10        0.883910   0.000000
   11        1.343525   0.000000
   12        1.427822   0.000000
 
  0.4377061E-01  0.8754253E-01  0.0000000E+00  0.3333333E-02
    1      -22.487264   1.000000
    2      -22.369623   1.000000
    3      -10.924785   1.000000
    4      -10.094230   1.000000
    5       -6.547022   1.000000
    6       -6.538519   1.000000
    7       -6.266286   1.000000
    8       -6.258937   1.000000
    9        0.534853   0.000000
   10        0.911447   0.000000
   11        1.371695   0.000000
   12        1.455971   0.000000
 
  0.4713758E-01  0.9427657E-01  0.0000000E+00  0.3333333E-02
    1      -22.465369   1.000000
    2      -22.347891   1.000000
    3      -10.898411   1.000000
    4      -10.068592   1.000000
    5       -6.626654   1.000000
    6       -6.617895   1.000000
    7       -6.313204   1.000000
    8       -6.305777   1.000000
    9        0.564170   0.000000
   10        0.941185   0.000000
   11        1.402119   0.000000
   12        1.486370   0.000000
 
  0.5050455E-01  0.1010106E+00  0.0000000E+00  0.3333333E-02
    1      -22.441858   1.000000
    2      -22.324555   1.000000
    3      -10.870095   1.000000
    4      -10.041067   1.000000
    5       -6.710683   1.000000
    6       -6.701652   1.000000
    7       -6.363188   1.000000
    8       -6.355678   1.000000
    9        0.595659   0.000000
   10        0.973123   0.000000
   11        1.434796   0.000000
   12        1.519021   0.000000
 
  0.5387152E-01  0.1077446E+00  0.0000000E+00  0.3333333E-02
    1      -22.416736   1.000000
    2      -22.299617   1.000000
    3      -10.839847   1.000000
    4      -10.011675   1.000000
    5       -6.798819   1.000000
    6       -6.789529   1.000000
    7       -6.416182   1.000000
    8       -6.408587   1.000000
    9        0.629322   0.000000
   10        1.007261   0.000000
   11        1.469726   0.000000
   12        1.553925   0.000000
 
  0.5723848E-01  0.1144787E+00  0.0000000E+00  0.3333333E-02
    1      -22.390002   1.000000
    2      -22.273078   1.000000
    3      -10.807670   1.000000
    4       -9.980413   1.000000
    5       -6.890817   1.000000
    6       -6.881244   1.000000
    7       -6.472122   1.000000
    8       -6.464427   1.000000
    9        0.665156   0.000000
   10        1.043597   0.000000
   11        1.506910   0.000000
   12        1.591081   0.000000
 
  0.6060545E-01  0.1212127E+00  0.0000000E+00  0.3333333E-02
    1      -22.361653   1.000000
    2      -22.244941   1.000000
    3      -10.773562   1.000000
    4       -9.947278   1.000000
    5       -6.986418   1.000000
    6       -6.976542   1.000000
    7       -6.530951   1.000000
    8       -6.523145   1.000000
    9        0.703164   0.000000
   10        1.082131   0.000000
   11        1.546348   0.000000
   12        1.630489   0.000000
 
  0.6397242E-01  0.1279468E+00  0.0000000E+00  0.3333333E-02
    1      -22.331703   1.000000
    2      -22.215213   1.000000
    3      -10.737531   1.000000
    4       -9.912281   1.000000
    5       -7.085398   1.000000
    6       -7.075218   1.000000
    7       -6.592596   1.000000
    8       -6.584671   1.000000
    9        0.743343   0.000000
   10        1.122861   0.000000
   11        1.588039   0.000000
   12        1.672148   0.000000
 
  0.6733939E-01  0.1346808E+00  0.0000000E+00  0.3333333E-02
    1      -22.300141   1.000000
    2      -22.183883   1.000000
    3      -10.699581   1.000000
    4       -9.875422   1.000000
    5       -7.187426   1.000000
    6       -7.176945   1.000000
    7       -6.656972   1.000000
    8       -6.648915   1.000000
    9        0.785694   0.000000
   10        1.165788   0.000000
   11        1.631980   0.000000
   12        1.716058   0.000000
 
  0.7070636E-01  0.1414148E+00  0.0000000E+00  0.3333333E-02
    1      -22.266975   1.000000
    2      -22.150952   1.000000
    3      -10.659711   1.000000
    4       -9.836716   1.000000
    5       -7.292292   1.000000
    6       -7.281516   1.000000
    7       -6.724004   1.000000
    8       -6.715813   1.000000
    9        0.830217   0.000000
   10        1.210910   0.000000
   11        1.678178   0.000000
   12        1.762221   0.000000
 
  0.7407333E-01  0.1481489E+00  0.0000000E+00  0.3333333E-02
    1      -22.232207   1.000000
    2      -22.116437   1.000000
    3      -10.617946   1.000000
    4       -9.796167   1.000000
    5       -7.399811   1.000000
    6       -7.388726   1.000000
    7       -6.793619   1.000000
    8       -6.785279   1.000000
    9        0.876911   0.000000
   10        1.258225   0.000000
   11        1.726631   0.000000
   12        1.810635   0.000000
 
  0.7744030E-01  0.1548829E+00  0.0000000E+00  0.3333333E-02
    1      -22.195828   1.000000
    2      -22.080328   1.000000
    3      -10.574255   1.000000
    4       -9.753764   1.000000
    5       -7.509733   1.000000
    6       -7.498317   1.000000
    7       -6.865739   1.000000
    8       -6.857242   1.000000
    9        0.925776   0.000000
   10        1.307733   0.000000
   11        1.777337   0.000000
   12        1.861301   0.000000
 
  0.8080727E-01  0.1616170E+00  0.0000000E+00  0.3333333E-02
    1      -22.157843   1.000000
    2      -22.042624   1.000000
    3      -10.528659   1.000000
    4       -9.709518   1.000000
    5       -7.621853   1.000000
    6       -7.610097   1.000000
    7       -6.940269   1.000000
    8       -6.931606   1.000000
    9        0.976811   0.000000
   10        1.359431   0.000000
   11        1.830296   0.000000
   12        1.914219   0.000000
 
  0.8417424E-01  0.1683510E+00  0.0000000E+00  0.3333333E-02
    1      -22.118260   1.000000
    2      -22.003338   1.000000
    3      -10.481183   1.000000
    4       -9.663456   1.000000
    5       -7.735983   1.000000
    6       -7.723874   1.000000
    7       -7.017128   1.000000
    8       -7.008290   1.000000
    9        1.030015   0.000000
   10        1.413319   0.000000
   11        1.885510   0.000000
   12        1.969388   0.000000
 
  0.8754121E-01  0.1750851E+00  0.0000000E+00  0.3333333E-02
    1      -22.077080   1.000000
    2      -21.962464   1.000000
    3      -10.431810   1.000000
    4       -9.615567   1.000000
    5       -7.851926   1.000000
    6       -7.839462   1.000000
    7       -7.096223   1.000000
    8       -7.087198   1.000000
    9        1.085387   0.000000
   10        1.469394   0.000000
   11        1.942976   0.000000
   12        2.026809   0.000000
 
  0.9090818E-01  0.1818191E+00  0.0000000E+00  0.3333333E-02
    1      -22.034307   1.000000
    2      -21.920012   1.000000
    3      -10.380555   1.000000
    4       -9.565866   1.000000
    5       -7.969495   1.000000
    6       -7.956670   1.000000
    7       -7.177488   1.000000
    8       -7.168263   1.000000
    9        1.142927   0.000000
   10        1.527655   0.000000
   11        2.002700   0.000000
   12        2.086482   0.000000
 
  0.9427515E-01  0.1885531E+00  0.0000000E+00  0.3333333E-02
    1      -21.989942   1.000000
    2      -21.875982   1.000000
    3      -10.327431   1.000000
    4       -9.514358   1.000000
    5       -8.088532   1.000000
    6       -8.075357   1.000000
    7       -7.260807   1.000000
    8       -7.251382   1.000000
    9        1.202632   0.000000
   10        1.588099   0.000000
   11        2.064674   0.000000
   12        2.148405   0.000000
 
  0.9764212E-01  0.1952872E+00  0.0000000E+00  0.3333333E-02
    1      -21.943987   1.000000
    2      -21.830365   1.000000
    3      -10.272440   1.000000
    4       -9.461061   1.000000
    5       -8.208861   1.000000
    6       -8.195329   1.000000
    7       -7.346098   1.000000
    8       -7.336467   1.000000
    9        1.264502   0.000000
   10        1.650724   0.000000
   11        2.128901   0.000000
   12        2.212580   0.000000
 
  0.1010091E+00  0.2020212E+00  0.0000000E+00  0.3333333E-02
    1      -21.896448   1.000000
    2      -21.783176   1.000000
    3      -10.215571   1.000000
    4       -9.405975   1.000000
    5       -8.330362   1.000000
    6       -8.316480   1.000000
    7       -7.433275   1.000000
    8       -7.423431   1.000000
    9        1.328536   0.000000
   10        1.715528   0.000000
   11        2.195382   0.000000
   12        2.279006   0.000000
 
  0.1043761E+00  0.2087553E+00  0.0000000E+00  0.3333333E-02
    1      -21.847342   1.000000
    2      -21.734431   1.000000
    3      -10.156868   1.000000
    4       -9.349121   1.000000
    5       -8.452885   1.000000
    6       -8.438623   1.000000
    7       -7.522290   1.000000
    8       -7.512195   1.000000
    9        1.394731   0.000000
   10        1.782508   0.000000
   11        2.264116   0.000000
   12        2.347685   0.000000
 
  0.1077430E+00  0.2154893E+00  0.0000000E+00  0.3333333E-02
    1      -21.796647   1.000000
    2      -21.684107   1.000000
    3      -10.096321   1.000000
    4       -9.290498   1.000000
    5       -8.576255   1.000000
    6       -8.561652   1.000000
    7       -7.612991   1.000000
    8       -7.602671   1.000000
    9        1.463085   0.000000
   10        1.851662   0.000000
   11        2.335104   0.000000
   12        2.418612   0.000000
 
  0.1111100E+00  0.2222233E+00  0.0000000E+00  0.3333333E-02
    1      -21.744371   1.000000
    2      -21.632213   1.000000
    3      -10.033939   1.000000
    4       -9.230122   1.000000
    5       -8.700362   1.000000
    6       -8.685394   1.000000
    7       -7.705292   1.000000
    8       -7.694749   1.000000
    9        1.533598   0.000000
   10        1.922986   0.000000
   11        2.408346   0.000000
   12        2.491792   0.000000
 
  0.1144770E+00  0.2289574E+00  0.0000000E+00  0.3333333E-02
    1      -21.690535   1.000000
    2      -21.578766   1.000000
    3       -9.969740   1.000000
    4       -9.168026   1.000000
    5       -8.825107   1.000000
    6       -8.809782   1.000000
    7       -7.799128   1.000000
    8       -7.788361   1.000000
    9        1.606266   0.000000
   10        1.996476   0.000000
   11        2.483841   0.000000
   12        2.567222   0.000000
 
  0.1178439E+00  0.2356914E+00  0.0000000E+00  0.3333333E-02
    1      -21.635122   1.000000
    2      -21.523766   1.000000
    3       -9.903718   1.000000
    4       -9.104257   1.000000
    5       -8.950350   1.000000
    6       -8.934594   1.000000
    7       -7.894398   1.000000
    8       -7.883389   1.000000
    9        1.681088   0.000000
   10        2.072131   0.000000
   11        2.561610   0.000000
   12        2.644907   0.000000
 
  0.1212109E+00  0.2424255E+00  0.0000000E+00  0.3333333E-02
    1      -21.578134   1.000000
    2      -21.467196   1.000000
    3       -9.835890   1.000000
    4       -9.076031   1.000000
    5       -9.061397   1.000000
    6       -9.037059   1.000000
    7       -7.991000   1.000000
    8       -7.979738   1.000000
    9        1.758062   0.000000
   10        2.149945   0.000000
   11        2.641611   0.000000
   12        2.724841   0.000000
 
  0.1245779E+00  0.2491595E+00  0.0000000E+00  0.3333333E-02
    1      -21.519594   1.000000
    2      -21.409081   1.000000
    3       -9.766279   1.000000
    4       -9.201920   1.000000
    5       -9.185815   1.000000
    6       -8.971001   1.000000
    7       -8.088870   1.000000
    8       -8.077354   1.000000
    9        1.837184   0.000000
   10        2.229912   0.000000
   11        2.723867   0.000000
   12        2.807022   0.000000
 
  0.1279448E+00  0.2558935E+00  0.0000000E+00  0.3333333E-02
    1      -21.459489   1.000000
    2      -21.349417   1.000000
    3       -9.694889   1.000000
    4       -9.328034   1.000000
    5       -9.311552   1.000000
    6       -8.902071   1.000000
    7       -8.187924   1.000000
    8       -8.176148   1.000000
    9        1.918452   0.000000
   10        2.312030   0.000000
   11        2.808375   0.000000
   12        2.891454   0.000000
 
  0.1313118E+00  0.2626276E+00  0.0000000E+00  0.3333333E-02
    1      -21.397836   1.000000
    2      -21.288212   1.000000
    3       -9.621817   1.000000
    4       -9.454185   1.000000
    5       -9.437459   1.000000
    6       -8.831407   1.000000
    7       -8.288074   1.000000
    8       -8.276029   1.000000
    9        2.001862   0.000000
   10        2.396293   0.000000
   11        2.895137   0.000000
   12        2.978137   0.000000
 
  0.1346788E+00  0.2693616E+00  0.0000000E+00  0.3333333E-02
    1      -21.334632   1.000000
    2      -21.225473   1.000000
    3       -9.581778   1.000000
    4       -9.563567   1.000000
    5       -9.545434   1.000000
    6       -8.759072   1.000000
    7       -8.389229   1.000000
    8       -8.376906   1.000000
    9        2.087412   0.000000
   10        2.482695   0.000000
   11        2.984153   0.000000
   12        3.067071   0.000000
 
  0.1380458E+00  0.2760957E+00  0.0000000E+00  0.3333333E-02
    1      -21.269896   1.000000
    2      -21.161220   1.000000
    3       -9.707135   1.000000
    4       -9.689362   1.000000
    5       -9.469786   1.000000
    6       -8.685088   1.000000
    7       -8.491320   1.000000
    8       -8.478716   1.000000
    9        2.175098   0.000000
   10        2.571229   0.000000
   11        3.075422   0.000000
   12        3.158255   0.000000
 
  0.1414127E+00  0.2828297E+00  0.0000000E+00  0.3333333E-02
    1      -21.203612   1.000000
    2      -21.095423   1.000000
    3       -9.833192   1.000000
    4       -9.815147   1.000000
    5       -9.391441   1.000000
    6       -8.609615   1.000000
    7       -8.594105   1.000000
    8       -8.581366   1.000000
    9        2.264915   0.000000
   10        2.661889   0.000000
   11        3.168947   0.000000
   12        3.251704   0.000000
 
  0.1447797E+00  0.2895637E+00  0.0000000E+00  0.3333333E-02
    1      -21.135795   1.000000
    2      -21.028104   1.000000
    3       -9.959108   1.000000
    4       -9.940754   1.000000
    5       -9.311318   1.000000
    6       -8.697987   1.000000
    7       -8.684760   1.000000
    8       -8.532161   1.000000
    9        2.356861   0.000000
   10        2.754664   0.000000
   11        3.264724   0.000000
   12        3.347382   0.000000
 
  0.1481467E+00  0.2962978E+00  0.0000000E+00  0.3333333E-02
    1      -21.066451   1.000000
    2      -20.959270   1.000000
    3      -10.084794   1.000000
    4      -10.066107   1.000000
    5       -9.229482   1.000000
    6       -8.802395   1.000000
    7       -8.788866   1.000000
    8       -8.453311   1.000000
    9        2.450928   0.000000
   10        2.849547   0.000000
   11        3.362757   0.000000
   12        3.445297   0.000000
 
  0.1515136E+00  0.3030318E+00  0.0000000E+00  0.3333333E-02
    1      -20.995586   1.000000
    2      -20.888922   1.000000
    3      -10.210183   1.000000
    4      -10.191148   1.000000
    5       -9.145941   1.000000
    6       -8.907398   1.000000
    7       -8.893574   1.000000
    8       -8.372874   1.000000
    9        2.547113   0.000000
   10        2.946520   0.000000
   11        3.463012   0.000000
   12        3.545583   0.000000
 
  0.1548806E+00  0.3097659E+00  0.0000000E+00  0.3333333E-02
    1      -20.923203   1.000000
    2      -20.817070   1.000000
    3      -10.335197   1.000000
    4      -10.315808   1.000000
    5       -9.060764   1.000000
    6       -9.012964   1.000000
    7       -8.998805   1.000000
    8       -8.290873   1.000000
    9        2.645408   0.000000
   10        3.045569   0.000000
   11        3.565547   0.000000
   12        3.648086   0.000000
 
  0.1582476E+00  0.3164999E+00  0.0000000E+00  0.3333333E-02
    1      -20.849318   1.000000
    2      -20.743739   1.000000
    3      -10.459758   1.000000
    4      -10.440021   1.000000
    5       -9.118975   1.000000
    6       -9.104567   1.000000
    7       -8.973853   1.000000
    8       -8.207328   1.000000
    9        2.745801   0.000000
   10        3.146658   0.000000
   11        3.670320   0.000000
   12        3.694977   0.000000
 
  0.1616145E+00  0.3232339E+00  0.0000000E+00  0.3333333E-02
    1      -20.773926   1.000000
    2      -20.668897   1.000000
    3      -10.583856   1.000000
    4      -10.563740   1.000000
    5       -9.225401   1.000000
    6       -9.210671   1.000000
    7       -8.885356   1.000000
    8       -8.122261   1.000000
    9        2.848277   0.000000
   10        3.249697   0.000000
   11        3.541857   0.000000
   12        3.736711   0.000000
 
  0.1649815E+00  0.3299680E+00  0.0000000E+00  0.3333333E-02
    1      -20.697051   1.000000
    2      -20.592590   1.000000
    3      -10.707442   1.000000
    4      -10.686948   1.000000
    5       -9.332214   1.000000
    6       -9.317142   1.000000
    7       -8.795245   1.000000
    8       -8.035704   1.000000
    9        2.952786   0.000000
   10        3.354020   0.000000
   11        3.388996   0.000000
   12        3.586873   0.000000
 
  0.1683485E+00  0.3367020E+00  0.0000000E+00  0.3333333E-02
    1      -20.618679   1.000000
    2      -20.514792   1.000000
    3      -10.830355   1.000000
    4      -10.809546   1.000000
    5       -9.439237   1.000000
    6       -9.423852   1.000000
    7       -8.703528   1.000000
    8       -7.947658   1.000000
    9        3.059032   0.000000
   10        3.235783   0.000000
   11        3.426327   0.000000
   12        3.471736   0.000000
 
  0.1717155E+00  0.3434361E+00  0.0000000E+00  0.3333333E-02
    1      -20.538839   1.000000
    2      -20.435546   1.000000
    3      -10.952752   1.000000
    4      -10.931587   1.000000
    5       -9.546465   1.000000
    6       -9.530764   1.000000
    7       -8.610255   1.000000
    8       -7.858177   1.000000
    9        3.080215   0.000000
   10        3.170217   0.000000
   11        3.283188   0.000000
   12        3.573667   0.000000
 
  0.1750824E+00  0.3501701E+00  0.0000000E+00  0.3333333E-02
    1      -20.457520   1.000000
    2      -20.354819   1.000000
    3      -11.074448   1.000000
    4      -11.052956   1.000000
    5       -9.653790   1.000000
    6       -9.637802   1.000000
    7       -8.515394   1.000000
    8       -7.767273   1.000000
    9        2.928357   0.000000
   10        3.133188   0.000000
   11        3.279932   0.000000
   12        3.684589   0.000000
 
  0.1784494E+00  0.3569041E+00  0.0000000E+00  0.3333333E-02
    1      -20.374747   1.000000
    2      -20.272647   1.000000
    3      -11.195483   1.000000
    4      -11.173645   1.000000
    5       -9.761210   1.000000
    6       -9.744931   1.000000
    7       -8.419022   1.000000
    8       -7.674979   1.000000
    9        2.775712   0.000000
   10        2.983061   0.000000
   11        3.392712   0.000000
   12        3.797847   0.000000
 
  0.1818164E+00  0.3636382E+00  0.0000000E+00  0.3333333E-02
    1      -20.290518   1.000000
    2      -20.189042   1.000000
    3      -11.315761   1.000000
    4      -11.293574   1.000000
    5       -9.868612   1.000000
    6       -9.852041   1.000000
    7       -8.321141   1.000000
    8       -7.581310   1.000000
    9        2.623274   0.000000
   10        2.833105   0.000000
   11        3.507661   0.000000
   12        3.913176   0.000000
 
  0.1851833E+00  0.3703722E+00  0.0000000E+00  0.3333333E-02
    1      -20.204845   1.000000
    2      -20.103994   1.000000
    3      -11.435283   1.000000
    4      -11.412749   1.000000
    5       -9.975948   1.000000
    6       -9.959068   1.000000
    7       -8.221780   1.000000
    8       -7.486315   1.000000
    9        2.471180   0.000000
   10        2.683445   0.000000
   11        3.624695   0.000000
   12        4.030499   0.000000
 
  0.1885503E+00  0.3771063E+00  0.0000000E+00  0.3333333E-02
    1      -20.117746   1.000000
    2      -20.017530   1.000000
    3      -11.553992   1.000000
    4      -11.531124   1.000000
    5      -10.083177   1.000000
    6      -10.066020   1.000000
    7       -8.120957   1.000000
    8       -7.390011   1.000000
    9        2.319522   0.000000
   10        2.534169   0.000000
   11        3.743785   0.000000
   12        4.149770   0.000000
 
  0.1919173E+00  0.3838403E+00  0.0000000E+00  0.3333333E-02
    1      -20.029219   1.000000
    2      -19.929651   1.000000
    3      -11.671864   1.000000
    4      -11.648643   1.000000
    5      -10.190219   1.000000
    6      -10.172756   1.000000
    7       -8.018718   1.000000
    8       -7.292449   1.000000
    9        2.168370   0.000000
   10        2.385351   0.000000
   11        3.864915   0.000000
   12        4.270951   0.000000
 
  0.1952842E+00  0.3905743E+00  0.0000000E+00  0.3333333E-02
    1      -19.939292   1.000000
    2      -19.840378   1.000000
    3      -11.788888   1.000000
    4      -11.765325   1.000000
    5      -10.297046   1.000000
    6      -10.279296   1.000000
    7       -7.915084   1.000000
    8       -7.193656   1.000000
    9        2.017787   0.000000
   10        2.237056   0.000000
   11        3.988068   0.000000
   12        4.394004   0.000000
 
  0.1986512E+00  0.3973084E+00  0.0000000E+00  0.3333333E-02
    1      -19.847971   1.000000
    2      -19.749727   1.000000
    3      -11.905027   1.000000
    4      -11.881121   1.000000
    5      -10.403579   1.000000
    6      -10.385539   1.000000
    7       -7.810076   1.000000
    8       -7.093662   1.000000
    9        1.867835   0.000000
   10        2.089346   0.000000
   11        4.113231   0.000000
   12        4.518887   0.000000
 
  0.2020182E+00  0.4040424E+00  0.0000000E+00  0.3333333E-02
    1      -19.755345   1.000000
    2      -19.657708   1.000000
    3      -12.020221   1.000000
    4      -11.995974   1.000000
    5      -10.509775   1.000000
    6      -10.491457   1.000000
    7       -7.703746   1.000000
    8       -6.992518   1.000000
    9        1.718574   0.000000
   10        1.942282   0.000000
   11        4.240387   0.000000
   12        4.645554   0.000000
 
  0.2053852E+00  0.4107765E+00  0.0000000E+00  0.3333333E-02
    1      -19.661330   1.000000
    2      -19.564409   1.000000
    3      -12.134493   1.000000
    4      -12.109910   1.000000
    5      -10.615567   1.000000
    6      -10.596954   1.000000
    7       -7.596127   1.000000
    8       -6.890263   1.000000
    9        1.570055   0.000000
   10        1.795919   0.000000
   11        4.369522   0.000000
   12        4.773951   0.000000
 
  0.2087521E+00  0.4175105E+00  0.0000000E+00  0.3333333E-02
    1      -19.565910   1.000000
    2      -19.469775   1.000000
    3      -12.247812   1.000000
    4      -12.222880   1.000000
    5      -10.720925   1.000000
    6      -10.702018   1.000000
    7       -7.487255   1.000000
    8       -6.786936   1.000000
    9        1.422340   0.000000
   10        1.650314   0.000000
   11        4.500619   0.000000
   12        4.904017   0.000000
 
  0.2121191E+00  0.4242445E+00  0.0000000E+00  0.3333333E-02
    1      -19.469151   1.000000
    2      -19.373768   1.000000
    3      -12.360128   1.000000
    4      -12.334840   1.000000
    5      -10.825784   1.000000
    6      -10.806577   1.000000
    7       -7.377144   1.000000
    8       -6.682575   1.000000
    9        1.275472   0.000000
   10        1.505516   0.000000
   11        4.633659   0.000000
   12        5.035682   0.000000
 
  0.2154861E+00  0.4309786E+00  0.0000000E+00  0.3333333E-02
    1      -19.371093   1.000000
    2      -19.276473   1.000000
    3      -12.471450   1.000000
    4      -12.445821   1.000000
    5      -10.930068   1.000000
    6      -10.910573   1.000000
    7       -7.265845   1.000000
    8       -6.577239   1.000000
    9        1.129502   0.000000
   10        1.361574   0.000000
   11        4.768619   0.000000