<?xml version="1.0" encoding="ISO-8859-1"?>
<modeling>
 <generator>
  <i name="program" type="string">vasp </i>
  <i name="version" type="string">5.4.4.18Apr17-6-g9f103f2a35  </i>
  <i name="subversion" type="string">(build May 20 2018 16:52:39) complex            parallel </i>
  <i name="platform" type="string">LinuxIFC </i>
  <i name="date" type="string">2022 11 15 </i>
  <i name="time" type="string">16:54:10 </i>
 </generator>
 <incar>
  <i type="string" name="SYSTEM"> graphene (bilayer)</i>
  <i type="string" name="PREC">normal</i>
  <i name="EDIFF">      0.00000100</i>
  <i name="ENCUT">    600.00000000</i>
  <i type="int" name="ISMEAR">     0</i>
  <i type="logical" name="LCHARG"> F  </i>
  <v type="int" name="KPOINT_BSE">    -1     0     0     0</v>
 </incar>
 <structure name="primitive_cell" >
  <crystal>
   <varray name="basis" >
    <v>       2.13036000      -1.23000000       0.00000000 </v>
    <v>       2.13036000       1.23000000       0.00000000 </v>
    <v>       0.00000000       0.00000000      49.20000000 </v>
   </varray>
   <i name="volume">    257.84173152 </i>
   <varray name="rec_basis" >
    <v>       0.23470212      -0.40650407       0.00000000 </v>
    <v>       0.23470212       0.40650407       0.00000000 </v>
    <v>       0.00000000       0.00000000       0.02032520 </v>
   </varray>
  </crystal>
  <varray name="positions" >
   <v>       0.00000000       0.00000000       0.00000000 </v>
   <v>      -0.33330000      -0.33330000       0.00000000 </v>
   <v>       0.00000000       0.00000000       0.07032520 </v>
   <v>       0.33330000       0.33330000       0.07032520 </v>
  </varray>
 </structure>
 <varray name="primitive_index" >
  <v type="int" >        1 </v>
  <v type="int" >        2 </v>
  <v type="int" >        3 </v>
  <v type="int" >        4 </v>
 </varray>
 <kpoints>
  <generation param="listgenerated">
   <i name="divisions" type="int">     100 </i>
   <v>       0.00000000       0.00000000       0.00000000 </v>
   <v>       0.33333000       0.66667000       0.00000000 </v>
   <v>       0.50000000       0.00000000       0.00000000 </v>
   <v>       0.00000000       0.00000000       0.00000000 </v>
  </generation>
  <varray name="kpointlist" >
   <v>       0.00000000       0.00000000       0.00000000 </v>
   <v>       0.00336697       0.00673404       0.00000000 </v>
   <v>       0.00673394       0.01346808       0.00000000 </v>
   <v>       0.01010091       0.02020212       0.00000000 </v>
   <v>       0.01346788       0.02693616       0.00000000 </v>
   <v>       0.01683485       0.03367020       0.00000000 </v>
   <v>       0.02020182       0.04040424       0.00000000 </v>
   <v>       0.02356879       0.04713828       0.00000000 </v>
   <v>       0.02693576       0.05387232       0.00000000 </v>
   <v>       0.03030273       0.06060636       0.00000000 </v>
   <v>       0.03366970       0.06734040       0.00000000 </v>
   <v>       0.03703667       0.07407444       0.00000000 </v>
   <v>       0.04040364       0.08080848       0.00000000 </v>
   <v>       0.04377061       0.08754253       0.00000000 </v>
   <v>       0.04713758       0.09427657       0.00000000 </v>
   <v>       0.05050455       0.10101061       0.00000000 </v>
   <v>       0.05387152       0.10774465       0.00000000 </v>
   <v>       0.05723848       0.11447869       0.00000000 </v>
   <v>       0.06060545       0.12121273       0.00000000 </v>
   <v>       0.06397242       0.12794677       0.00000000 </v>
   <v>       0.06733939       0.13468081       0.00000000 </v>
   <v>       0.07070636       0.14141485       0.00000000 </v>
   <v>       0.07407333       0.14814889       0.00000000 </v>
   <v>       0.07744030       0.15488293       0.00000000 </v>
   <v>       0.08080727       0.16161697       0.00000000 </v>
   <v>       0.08417424       0.16835101       0.00000000 </v>
   <v>       0.08754121       0.17508505       0.00000000 </v>
   <v>       0.09090818       0.18181909       0.00000000 </v>
   <v>       0.09427515       0.18855313       0.00000000 </v>
   <v>       0.09764212       0.19528717       0.00000000 </v>
   <v>       0.10100909       0.20202121       0.00000000 </v>
   <v>       0.10437606       0.20875525       0.00000000 </v>
   <v>       0.10774303       0.21548929       0.00000000 </v>
   <v>       0.11111000       0.22222333       0.00000000 </v>
   <v>       0.11447697       0.22895737       0.00000000 </v>
   <v>       0.11784394       0.23569141       0.00000000 </v>
   <v>       0.12121091       0.24242545       0.00000000 </v>
   <v>       0.12457788       0.24915949       0.00000000 </v>
   <v>       0.12794485       0.25589354       0.00000000 </v>
   <v>       0.13131182       0.26262758       0.00000000 </v>
   <v>       0.13467879       0.26936162       0.00000000 </v>
   <v>       0.13804576       0.27609566       0.00000000 </v>
   <v>       0.14141273       0.28282970       0.00000000 </v>
   <v>       0.14477970       0.28956374       0.00000000 </v>
   <v>       0.14814667       0.29629778       0.00000000 </v>
   <v>       0.15151364       0.30303182       0.00000000 </v>
   <v>       0.15488061       0.30976586       0.00000000 </v>
   <v>       0.15824758       0.31649990       0.00000000 </v>
   <v>       0.16161455       0.32323394       0.00000000 </v>
   <v>       0.16498152       0.32996798       0.00000000 </v>
   <v>       0.16834848       0.33670202       0.00000000 </v>
   <v>       0.17171545       0.34343606       0.00000000 </v>
   <v>       0.17508242       0.35017010       0.00000000 </v>
   <v>       0.17844939       0.35690414       0.00000000 </v>
   <v>       0.18181636       0.36363818       0.00000000 </v>
   <v>       0.18518333       0.37037222       0.00000000 </v>
   <v>       0.18855030       0.37710626       0.00000000 </v>
   <v>       0.19191727       0.38384030       0.00000000 </v>
   <v>       0.19528424       0.39057434       0.00000000 </v>
   <v>       0.19865121       0.39730838       0.00000000 </v>
   <v>       0.20201818       0.40404242       0.00000000 </v>
   <v>       0.20538515       0.41077646       0.00000000 </v>
   <v>       0.20875212       0.41751051       0.00000000 </v>
   <v>       0.21211909       0.42424455       0.00000000 </v>
   <v>       0.21548606       0.43097859       0.00000000 </v>
   <v>       0.21885303       0.43771263       0.00000000 </v>
   <v>       0.22222000       0.44444667       0.00000000 </v>
   <v>       0.22558697       0.45118071       0.00000000 </v>
   <v>       0.22895394       0.45791475       0.00000000 </v>
   <v>       0.23232091       0.46464879       0.00000000 </v>
   <v>       0.23568788       0.47138283       0.00000000 </v>
   <v>       0.23905485       0.47811687       0.00000000 </v>
   <v>       0.24242182       0.48485091       0.00000000 </v>
   <v>       0.24578879       0.49158495       0.00000000 </v>
   <v>       0.24915576       0.49831899       0.00000000 </v>
   <v>       0.25252273       0.50505303       0.00000000 </v>
   <v>       0.25588970       0.51178707       0.00000000 </v>
   <v>       0.25925667       0.51852111       0.00000000 </v>
   <v>       0.26262364       0.52525515       0.00000000 </v>
   <v>       0.26599061       0.53198919       0.00000000 </v>
   <v>       0.26935758       0.53872323       0.00000000 </v>
   <v>       0.27272455       0.54545727       0.00000000 </v>
   <v>       0.27609152       0.55219131       0.00000000 </v>
   <v>       0.27945848       0.55892535       0.00000000 </v>
   <v>       0.28282545       0.56565939       0.00000000 </v>
   <v>       0.28619242       0.57239343       0.00000000 </v>
   <v>       0.28955939       0.57912747       0.00000000 </v>
   <v>       0.29292636       0.58586152       0.00000000 </v>
   <v>       0.29629333       0.59259556       0.00000000 </v>
   <v>       0.29966030       0.59932960       0.00000000 </v>
   <v>       0.30302727       0.60606364       0.00000000 </v>
   <v>       0.30639424       0.61279768       0.00000000 </v>
   <v>       0.30976121       0.61953172       0.00000000 </v>
   <v>       0.31312818       0.62626576       0.00000000 </v>
   <v>       0.31649515       0.63299980       0.00000000 </v>
   <v>       0.31986212       0.63973384       0.00000000 </v>
   <v>       0.32322909       0.64646788       0.00000000 </v>
   <v>       0.32659606       0.65320192       0.00000000 </v>
   <v>       0.32996303       0.65993596       0.00000000 </v>
   <v>       0.33333000       0.66667000       0.00000000 </v>
   <v>       0.33333000       0.66667000       0.00000000 </v>
   <v>       0.33501354       0.65993596       0.00000000 </v>
   <v>       0.33669707       0.65320192       0.00000000 </v>
   <v>       0.33838061       0.64646788       0.00000000 </v>
   <v>       0.34006414       0.63973384       0.00000000 </v>
   <v>       0.34174768       0.63299980       0.00000000 </v>
   <v>       0.34343121       0.62626576       0.00000000 </v>
   <v>       0.34511475       0.61953172       0.00000000 </v>
   <v>       0.34679828       0.61279768       0.00000000 </v>
   <v>       0.34848182       0.60606364       0.00000000 </v>
   <v>       0.35016535       0.59932960       0.00000000 </v>
   <v>       0.35184889       0.59259556       0.00000000 </v>
   <v>       0.35353242       0.58586152       0.00000000 </v>
   <v>       0.35521596       0.57912747       0.00000000 </v>
   <v>       0.35689949       0.57239343       0.00000000 </v>
   <v>       0.35858303       0.56565939       0.00000000 </v>
   <v>       0.36026657       0.55892535       0.00000000 </v>
   <v>       0.36195010       0.55219131       0.00000000 </v>
   <v>       0.36363364       0.54545727       0.00000000 </v>
   <v>       0.36531717       0.53872323       0.00000000 </v>
   <v>       0.36700071       0.53198919       0.00000000 </v>
   <v>       0.36868424       0.52525515       0.00000000 </v>
   <v>       0.37036778       0.51852111       0.00000000 </v>
   <v>       0.37205131       0.51178707       0.00000000 </v>
   <v>       0.37373485       0.50505303       0.00000000 </v>
   <v>       0.37541838       0.49831899       0.00000000 </v>
   <v>       0.37710192       0.49158495       0.00000000 </v>
   <v>       0.37878545       0.48485091       0.00000000 </v>
   <v>       0.38046899       0.47811687       0.00000000 </v>
   <v>       0.38215253       0.47138283       0.00000000 </v>
   <v>       0.38383606       0.46464879       0.00000000 </v>
   <v>       0.38551960       0.45791475       0.00000000 </v>
   <v>       0.38720313       0.45118071       0.00000000 </v>
   <v>       0.38888667       0.44444667       0.00000000 </v>
   <v>       0.39057020       0.43771263       0.00000000 </v>
   <v>       0.39225374       0.43097859       0.00000000 </v>
   <v>       0.39393727       0.42424455       0.00000000 </v>
   <v>       0.39562081       0.41751051       0.00000000 </v>
   <v>       0.39730434       0.41077646       0.00000000 </v>
   <v>       0.39898788       0.40404242       0.00000000 </v>
   <v>       0.40067141       0.39730838       0.00000000 </v>
   <v>       0.40235495       0.39057434       0.00000000 </v>
   <v>       0.40403848       0.38384030       0.00000000 </v>
   <v>       0.40572202       0.37710626       0.00000000 </v>
   <v>       0.40740556       0.37037222       0.00000000 </v>
   <v>       0.40908909       0.36363818       0.00000000 </v>
   <v>       0.41077263       0.35690414       0.00000000 </v>
   <v>       0.41245616       0.35017010       0.00000000 </v>
   <v>       0.41413970       0.34343606       0.00000000 </v>
   <v>       0.41582323       0.33670202       0.00000000 </v>
   <v>       0.41750677       0.32996798       0.00000000 </v>
   <v>       0.41919030       0.32323394       0.00000000 </v>
   <v>       0.42087384       0.31649990       0.00000000 </v>
   <v>       0.42255737       0.30976586       0.00000000 </v>
   <v>       0.42424091       0.30303182       0.00000000 </v>
   <v>       0.42592444       0.29629778       0.00000000 </v>
   <v>       0.42760798       0.28956374       0.00000000 </v>
   <v>       0.42929152       0.28282970       0.00000000 </v>
   <v>       0.43097505       0.27609566       0.00000000 </v>
   <v>       0.43265859       0.26936162       0.00000000 </v>
   <v>       0.43434212       0.26262758       0.00000000 </v>
   <v>       0.43602566       0.25589354       0.00000000 </v>
   <v>       0.43770919       0.24915949       0.00000000 </v>
   <v>       0.43939273       0.24242545       0.00000000 </v>
   <v>       0.44107626       0.23569141       0.00000000 </v>
   <v>       0.44275980       0.22895737       0.00000000 </v>
   <v>       0.44444333       0.22222333       0.00000000 </v>
   <v>       0.44612687       0.21548929       0.00000000 </v>
   <v>       0.44781040       0.20875525       0.00000000 </v>
   <v>       0.44949394       0.20202121       0.00000000 </v>
   <v>       0.45117747       0.19528717       0.00000000 </v>
   <v>       0.45286101       0.18855313       0.00000000 </v>
   <v>       0.45454455       0.18181909       0.00000000 </v>
   <v>       0.45622808       0.17508505       0.00000000 </v>
   <v>       0.45791162       0.16835101       0.00000000 </v>
   <v>       0.45959515       0.16161697       0.00000000 </v>
   <v>       0.46127869       0.15488293       0.00000000 </v>
   <v>       0.46296222       0.14814889       0.00000000 </v>
   <v>       0.46464576       0.14141485       0.00000000 </v>
   <v>       0.46632929       0.13468081       0.00000000 </v>
   <v>       0.46801283       0.12794677       0.00000000 </v>
   <v>       0.46969636       0.12121273       0.00000000 </v>
   <v>       0.47137990       0.11447869       0.00000000 </v>
   <v>       0.47306343       0.10774465       0.00000000 </v>
   <v>       0.47474697       0.10101061       0.00000000 </v>
   <v>       0.47643051       0.09427657       0.00000000 </v>
   <v>       0.47811404       0.08754253       0.00000000 </v>
   <v>       0.47979758       0.08080848       0.00000000 </v>
   <v>       0.48148111       0.07407444       0.00000000 </v>
   <v>       0.48316465       0.06734040       0.00000000 </v>
   <v>       0.48484818       0.06060636       0.00000000 </v>
   <v>       0.48653172       0.05387232       0.00000000 </v>
   <v>       0.48821525       0.04713828       0.00000000 </v>
   <v>       0.48989879       0.04040424       0.00000000 </v>
   <v>       0.49158232       0.03367020       0.00000000 </v>
   <v>       0.49326586       0.02693616       0.00000000 </v>
   <v>       0.49494939       0.02020212       0.00000000 </v>
   <v>       0.49663293       0.01346808       0.00000000 </v>
   <v>       0.49831646       0.00673404       0.00000000 </v>
   <v>       0.50000000       0.00000000       0.00000000 </v>
   <v>       0.50000000       0.00000000       0.00000000 </v>
   <v>       0.49494949       0.00000000       0.00000000 </v>
   <v>       0.48989899       0.00000000       0.00000000 </v>
   <v>       0.48484848       0.00000000       0.00000000 </v>
   <v>       0.47979798       0.00000000       0.00000000 </v>
   <v>       0.47474747       0.00000000       0.00000000 </v>
   <v>       0.46969697       0.00000000       0.00000000 </v>
   <v>       0.46464646       0.00000000       0.00000000 </v>
   <v>       0.45959596       0.00000000       0.00000000 </v>
   <v>       0.45454545       0.00000000       0.00000000 </v>
   <v>       0.44949495       0.00000000       0.00000000 </v>
   <v>       0.44444444       0.00000000       0.00000000 </v>
   <v>       0.43939394       0.00000000       0.00000000 </v>
   <v>       0.43434343       0.00000000       0.00000000 </v>
   <v>       0.42929293       0.00000000       0.00000000 </v>
   <v>       0.42424242       0.00000000       0.00000000 </v>
   <v>       0.41919192       0.00000000       0.00000000 </v>
   <v>       0.41414141       0.00000000       0.00000000 </v>
   <v>       0.40909091       0.00000000       0.00000000 </v>
   <v>       0.40404040       0.00000000       0.00000000 </v>
   <v>       0.39898990       0.00000000       0.00000000 </v>
   <v>       0.39393939       0.00000000       0.00000000 </v>
   <v>       0.38888889       0.00000000       0.00000000 </v>
   <v>       0.38383838       0.00000000       0.00000000 </v>
   <v>       0.37878788       0.00000000       0.00000000 </v>
   <v>       0.37373737       0.00000000       0.00000000 </v>
   <v>       0.36868687       0.00000000       0.00000000 </v>
   <v>       0.36363636       0.00000000       0.00000000 </v>
   <v>       0.35858586       0.00000000       0.00000000 </v>
   <v>       0.35353535       0.00000000       0.00000000 </v>
   <v>       0.34848485       0.00000000       0.00000000 </v>
   <v>       0.34343434       0.00000000       0.00000000 </v>
   <v>       0.33838384       0.00000000       0.00000000 </v>
   <v>       0.33333333       0.00000000       0.00000000 </v>
   <v>       0.32828283       0.00000000       0.00000000 </v>
   <v>       0.32323232       0.00000000       0.00000000 </v>
   <v>       0.31818182       0.00000000       0.00000000 </v>
   <v>       0.31313131       0.00000000       0.00000000 </v>
   <v>       0.30808081       0.00000000       0.00000000 </v>
   <v>       0.30303030       0.00000000       0.00000000 </v>
   <v>       0.29797980       0.00000000       0.00000000 </v>
   <v>       0.29292929       0.00000000       0.00000000 </v>
   <v>       0.28787879       0.00000000       0.00000000 </v>
   <v>       0.28282828       0.00000000       0.00000000 </v>
   <v>       0.27777778       0.00000000       0.00000000 </v>
   <v>       0.27272727       0.00000000       0.00000000 </v>
   <v>       0.26767677       0.00000000       0.00000000 </v>
   <v>       0.26262626       0.00000000       0.00000000 </v>
   <v>       0.25757576       0.00000000       0.00000000 </v>
   <v>       0.25252525       0.00000000       0.00000000 </v>
   <v>       0.24747475       0.00000000       0.00000000 </v>
   <v>       0.24242424       0.00000000       0.00000000 </v>
   <v>       0.23737374       0.00000000       0.00000000 </v>
   <v>       0.23232323       0.00000000       0.00000000 </v>
   <v>       0.22727273       0.00000000       0.00000000 </v>
   <v>       0.22222222       0.00000000       0.00000000 </v>
   <v>       0.21717172       0.00000000       0.00000000 </v>
   <v>       0.21212121       0.00000000       0.00000000 </v>
   <v>       0.20707071       0.00000000       0.00000000 </v>
   <v>       0.20202020       0.00000000       0.00000000 </v>
   <v>       0.19696970       0.00000000       0.00000000 </v>
   <v>       0.19191919       0.00000000       0.00000000 </v>
   <v>       0.18686869       0.00000000       0.00000000 </v>
   <v>       0.18181818       0.00000000       0.00000000 </v>
   <v>       0.17676768       0.00000000       0.00000000 </v>
   <v>       0.17171717       0.00000000       0.00000000 </v>
   <v>       0.16666667       0.00000000       0.00000000 </v>
   <v>       0.16161616       0.00000000       0.00000000 </v>
   <v>       0.15656566       0.00000000       0.00000000 </v>
   <v>       0.15151515       0.00000000       0.00000000 </v>
   <v>       0.14646465       0.00000000       0.00000000 </v>
   <v>       0.14141414       0.00000000       0.00000000 </v>
   <v>       0.13636364       0.00000000       0.00000000 </v>
   <v>       0.13131313       0.00000000       0.00000000 </v>
   <v>       0.12626263       0.00000000       0.00000000 </v>
   <v>       0.12121212       0.00000000       0.00000000 </v>
   <v>       0.11616162       0.00000000       0.00000000 </v>
   <v>       0.11111111       0.00000000       0.00000000 </v>
   <v>       0.10606061       0.00000000       0.00000000 </v>
   <v>       0.10101010       0.00000000       0.00000000 </v>
   <v>       0.09595960       0.00000000       0.00000000 </v>
   <v>       0.09090909       0.00000000       0.00000000 </v>
   <v>       0.08585859       0.00000000       0.00000000 </v>
   <v>       0.08080808       0.00000000       0.00000000 </v>
   <v>       0.07575758       0.00000000       0.00000000 </v>
   <v>       0.07070707       0.00000000       0.00000000 </v>
   <v>       0.06565657       0.00000000       0.00000000 </v>
   <v>       0.06060606       0.00000000       0.00000000 </v>
   <v>       0.05555556       0.00000000       0.00000000 </v>
   <v>       0.05050505       0.00000000       0.00000000 </v>
   <v>       0.04545455       0.00000000       0.00000000 </v>
   <v>       0.04040404       0.00000000       0.00000000 </v>
   <v>       0.03535354       0.00000000       0.00000000 </v>
   <v>       0.03030303       0.00000000       0.00000000 </v>
   <v>       0.02525253       0.00000000       0.00000000 </v>
   <v>       0.02020202       0.00000000       0.00000000 </v>
   <v>       0.01515152       0.00000000       0.00000000 </v>
   <v>       0.01010101       0.00000000       0.00000000 </v>
   <v>       0.00505051       0.00000000       0.00000000 </v>
   <v>       0.00000000       0.00000000       0.00000000 </v>
  </varray>
  <varray name="weights" >
   <v>       0.00333333 </v>
   <v>       0.00333333 </v>
   <v>       0.00333333 </v>
   <v>       0.00333333 </v>
   <v>       0.00333333 </v>
   <v>       0.00333333 </v>
   <v>       0.00333333 </v>
   <v>       0.00333333 </v>
   <v>       0.00333333 </v>
   <v>       0.00333333 </v>
   <v>       0.00333333 </v>
   <v>       0.00333333 </v>
   <v>       0.00333333 </v>
   <v>       0.00333333 </v>
   <v>       0.00333333 </v>
   <v>       0.00333333 </v>
   <v>       0.00333333 </v>
   <v>       0.00333333 </v>
   <v>       0.00333333 </v>
   <v>       0.00333333 </v>
   <v>       0.00333333 </v>
   <v>       0.00333333 </v>
   <v>       0.00333333 </v>
   <v>       0.00333333 </v>
   <v>       0.00333333 </v>
   <v>       0.00333333 </v>
   <v>       0.00333333 </v>
   <v>       0.00333333 </v>
   <v>       0.00333333 </v>
   <v>       0.00333333 </v>
   <v>       0.00333333 </v>
   <v>       0.00333333 </v>
   <v>       0.00333333 </v>
   <v>       0.00333333 </v>
   <v>       0.00333333 </v>
   <v>       0.00333333 </v>
   <v>       0.00333333 </v>
   <v>       0.00333333 </v>
   <v>       0.00333333 </v>
   <v>       0.00333333 </v>
   <v>       0.00333333 </v>
   <v>       0.00333333 </v>
   <v>       0.00333333 </v>
   <v>       0.00333333 </v>
   <v>       0.00333333 </v>
   <v>       0.00333333 </v>
   <v>       0.00333333 </v>
   <v>       0.00333333 </v>
   <v>       0.00333333 </v>
   <v>       0.00333333 </v>
   <v>       0.00333333 </v>
   <v>       0.00333333 </v>
   <v>       0.00333333 </v>
   <v>       0.00333333 </v>
   <v>       0.00333333 </v>
   <v>       0.00333333 </v>
   <v>       0.00333333 </v>
   <v>       0.00333333 </v>
   <v>       0.00333333 </v>
   <v>       0.00333333 </v>
   <v>       0.00333333 </v>
   <v>       0.00333333 </v>
   <v>       0.00333333 </v>
   <v>       0.00333333 </v>
   <v>       0.00333333 </v>
   <v>       0.00333333 </v>
   <v>       0.00333333 </v>
   <v>       0.00333333 </v>
   <v>       0.00333333 </v>
   <v>       0.00333333 </v>
   <v>       0.00333333 </v>
   <v>       0.00333333 </v>
   <v>       0.00333333 </v>
   <v>       0.00333333 </v>
   <v>       0.00333333 </v>
   <v>       0.00333333 </v>
   <v>       0.00333333 </v>
   <v>       0.00333333 </v>
   <v>       0.00333333 </v>
   <v>       0.00333333 </v>
   <v>       0.00333333 </v>
   <v>       0.00333333 </v>
   <v>       0.00333333 </v>
   <v>       0.00333333 </v>
   <v>       0.00333333 </v>
   <v>       0.00333333 </v>
   <v>       0.00333333 </v>
   <v>       0.00333333 </v>
   <v>       0.00333333 </v>
   <v>       0.00333333 </v>
   <v>       0.00333333 </v>
   <v>       0.00333333 </v>
   <v>       0.00333333 </v>
   <v>       0.00333333 </v>
   <v>       0.00333333 </v>
   <v>       0.00333333 </v>
   <v>       0.00333333 </v>
   <v>       0.00333333 </v>
   <v>       0.00333333 </v>
   <v>       0.00333333 </v>
   <v>       0.00333333 </v>
   <v>       0.00333333 </v>
   <v>       0.00333333 </v>
   <v>       0.00333333 </v>
   <v>       0.00333333 </v>
   <v>       0.00333333 </v>
   <v>       0.00333333 </v>
   <v>       0.00333333 </v>
   <v>       0.00333333 </v>
   <v>       0.00333333 </v>
   <v>       0.00333333 </v>
   <v>       0.00333333 </v>
   <v>       0.00333333 </v>
   <v>       0.00333333 </v>
   <v>       0.00333333 </v>
   <v>       0.00333333 </v>
   <v>       0.00333333 </v>
   <v>       0.00333333 </v>
   <v>       0.00333333 </v>
   <v>       0.00333333 </v>
   <v>       0.00333333 </v>
   <v>       0.00333333 </v>
   <v>       0.00333333 </v>
   <v>       0.00333333 </v>
   <v>       0.00333333 </v>
   <v>       0.00333333 </v>
   <v>       0.00333333 </v>
   <v>       0.00333333 </v>
   <v>       0.00333333 </v>
   <v>       0.00333333 </v>
   <v>       0.00333333 </v>
   <v>       0.00333333 </v>
   <v>       0.00333333 </v>
   <v>       0.00333333 </v>
   <v>       0.00333333 </v>
   <v>       0.00333333 </v>
   <v>       0.00333333 </v>
   <v>       0.00333333 </v>
   <v>       0.00333333 </v>
   <v>       0.00333333 </v>
   <v>       0.00333333 </v>
   <v>       0.00333333 </v>
   <v>       0.00333333 </v>
   <v>       0.00333333 </v>
   <v>       0.00333333 </v>
   <v>       0.00333333 </v>
   <v>       0.00333333 </v>
   <v>       0.00333333 </v>
   <v>       0.00333333 </v>
   <v>       0.00333333 </v>
   <v>       0.00333333 </v>
   <v>       0.00333333 </v>
   <v>       0.00333333 </v>
   <v>       0.00333333 </v>
   <v>       0.00333333 </v>
   <v>       0.00333333 </v>
   <v>       0.00333333 </v>
   <v>       0.00333333 </v>
   <v>       0.00333333 </v>
   <v>       0.00333333 </v>
   <v>       0.00333333 </v>
   <v>       0.00333333 </v>
   <v>       0.00333333 </v>
   <v>       0.00333333 </v>
   <v>       0.00333333 </v>
   <v>       0.00333333 </v>
   <v>       0.00333333 </v>
   <v>       0.00333333 </v>
   <v>       0.00333333 </v>
   <v>       0.00333333 </v>
   <v>       0.00333333 </v>
   <v>       0.00333333 </v>
   <v>       0.00333333 </v>
   <v>       0.00333333 </v>
   <v>       0.00333333 </v>
   <v>       0.00333333 </v>
   <v>       0.00333333 </v>
   <v>       0.00333333 </v>
   <v>       0.00333333 </v>
   <v>       0.00333333 </v>
   <v>       0.00333333 </v>
   <v>       0.00333333 </v>
   <v>       0.00333333 </v>
   <v>       0.00333333 </v>
   <v>       0.00333333 </v>
   <v>       0.00333333 </v>
   <v>       0.00333333 </v>
   <v>       0.00333333 </v>
   <v>       0.00333333 </v>
   <v>       0.00333333 </v>
   <v>       0.00333333 </v>
   <v>       0.00333333 </v>
   <v>       0.00333333 </v>
   <v>       0.00333333 </v>
   <v>       0.00333333 </v>
   <v>       0.00333333 </v>
   <v>       0.00333333 </v>
   <v>       0.00333333 </v>
   <v>       0.00333333 </v>
   <v>       0.00333333 </v>
   <v>       0.00333333 </v>
   <v>       0.00333333 </v>
   <v>       0.00333333 </v>
   <v>       0.00333333 </v>
   <v>       0.00333333 </v>
   <v>       0.00333333 </v>
   <v>       0.00333333 </v>
   <v>       0.00333333 </v>
   <v>       0.00333333 </v>
   <v>       0.00333333 </v>
   <v>       0.00333333 </v>
   <v>       0.00333333 </v>
   <v>       0.00333333 </v>
   <v>       0.00333333 </v>
   <v>       0.00333333 </v>
   <v>       0.00333333 </v>
   <v>       0.00333333 </v>
   <v>       0.00333333 </v>
   <v>       0.00333333 </v>
   <v>       0.00333333 </v>
   <v>       0.00333333 </v>
   <v>       0.00333333 </v>
   <v>       0.00333333 </v>
   <v>       0.00333333 </v>
   <v>       0.00333333 </v>
   <v>       0.00333333 </v>
   <v>       0.00333333 </v>
   <v>       0.00333333 </v>
   <v>       0.00333333 </v>
   <v>       0.00333333 </v>
   <v>       0.00333333 </v>
   <v>       0.00333333 </v>
   <v>       0.00333333 </v>
   <v>       0.00333333 </v>
   <v>       0.00333333 </v>
   <v>       0.00333333 </v>
   <v>       0.00333333 </v>
   <v>       0.00333333 </v>
   <v>       0.00333333 </v>
   <v>       0.00333333 </v>
   <v>       0.00333333 </v>
   <v>       0.00333333 </v>
   <v>       0.00333333 </v>
   <v>       0.00333333 </v>
   <v>       0.00333333 </v>
   <v>       0.00333333 </v>
   <v>       0.00333333 </v>
   <v>       0.00333333 </v>
   <v>       0.00333333 </v>
   <v>       0.00333333 </v>
   <v>       0.00333333 </v>
   <v>       0.00333333 </v>
   <v>       0.00333333 </v>
   <v>       0.00333333 </v>
   <v>       0.00333333 </v>
   <v>       0.00333333 </v>
   <v>       0.00333333 </v>
   <v>       0.00333333 </v>
   <v>       0.00333333 </v>
   <v>       0.00333333 </v>
   <v>       0.00333333 </v>
   <v>       0.00333333 </v>
   <v>       0.00333333 </v>
   <v>       0.00333333 </v>
   <v>       0.00333333 </v>
   <v>       0.00333333 </v>
   <v>       0.00333333 </v>
   <v>       0.00333333 </v>
   <v>       0.00333333 </v>
   <v>       0.00333333 </v>
   <v>       0.00333333 </v>
   <v>       0.00333333 </v>
   <v>       0.00333333 </v>
   <v>       0.00333333 </v>
   <v>       0.00333333 </v>
   <v>       0.00333333 </v>
   <v>       0.00333333 </v>
   <v>       0.00333333 </v>
   <v>       0.00333333 </v>
   <v>       0.00333333 </v>
   <v>       0.00333333 </v>
   <v>       0.00333333 </v>
   <v>       0.00333333 </v>
   <v>       0.00333333 </v>
   <v>       0.00333333 </v>
   <v>       0.00333333 </v>
   <v>       0.00333333 </v>
   <v>       0.00333333 </v>
   <v>       0.00333333 </v>
   <v>       0.00333333 </v>
   <v>       0.00333333 </v>
   <v>       0.00333333 </v>
   <v>       0.00333333 </v>
   <v>       0.00333333 </v>
   <v>       0.00333333 </v>
   <v>       0.00333333 </v>
   <v>       0.00333333 </v>
   <v>       0.00333333 </v>
   <v>       0.00333333 </v>
   <v>       0.00333333 </v>
  </varray>
 </kpoints>
 <parameters>
  <separator name="general" >
   <i type="string" name="SYSTEM">graphene (bilayer)</i>
   <i type="logical" name="LCOMPAT"> F  </i>
  </separator>
  <separator name="electronic" >
   <i type="string" name="PREC">normal</i>
   <i name="ENMAX">    600.00000000</i>
   <i name="ENAUG">    644.87300000</i>
   <i name="EDIFF">      0.00000100</i>
   <i type="int" name="IALGO">    38</i>
   <i type="int" name="IWAVPR">    10</i>
   <i type="int" name="NBANDS">    12</i>
   <i name="NELECT">     16.00000000</i>
   <i type="int" name="TURBO">     0</i>
   <i type="int" name="IRESTART">     0</i>
   <i type="int" name="NREBOOT">     0</i>
   <i type="int" name="NMIN">     0</i>
   <i name="EREF">      0.00000000</i>
   <separator name="electronic smearing" >
    <i type="int" name="ISMEAR">     0</i>
    <i name="SIGMA">      0.20000000</i>
    <i name="KSPACING">      0.50000000</i>
    <i type="logical" name="KGAMMA"> T  </i>
   </separator>
   <separator name="electronic projectors" >
    <i type="logical" name="LREAL"> F  </i>
    <v name="ROPT">      0.00000000</v>
    <i type="int" name="LMAXPAW">  -100</i>
    <i type="int" name="LMAXMIX">     2</i>
    <i type="logical" name="NLSPLINE"> F  </i>
   </separator>
   <separator name="electronic startup" >
    <i type="int" name="ISTART">     0</i>
    <i type="int" name="ICHARG">     2</i>
    <i type="int" name="INIWAV">     1</i>
   </separator>
   <separator name="electronic spin" >
    <i type="int" name="ISPIN">     1</i>
    <i type="logical" name="LNONCOLLINEAR"> F  </i>
    <v name="MAGMOM">      1.00000000      1.00000000      1.00000000      1.00000000</v>
    <i name="NUPDOWN">     -1.00000000</i>
    <i type="logical" name="LSORBIT"> F  </i>
    <v name="SAXIS">      0.00000000      0.00000000      1.00000000</v>
    <i type="logical" name="LSPIRAL"> F  </i>
    <v name="QSPIRAL">      0.00000000      0.00000000      0.00000000</v>
    <i type="logical" name="LZEROZ"> F  </i>
   </separator>
   <separator name="electronic exchange-correlation" >
    <i type="logical" name="LASPH"> F  </i>
    <i type="logical" name="LMETAGGA"> F  </i>
   </separator>
   <separator name="electronic convergence" >
    <i type="int" name="NELM">    60</i>
    <i type="int" name="NELMDL">    -5</i>
    <i type="int" name="NELMIN">     2</i>
    <i name="ENINI">    600.00000000</i>
    <separator name="electronic convergence detail" >
     <i type="logical" name="LDIAG"> T  </i>
     <i type="logical" name="LSUBROT"> F  </i>
     <i name="WEIMIN">      0.00000000</i>
     <i name="EBREAK">      0.00000002</i>
     <i name="DEPER">      0.30000000</i>
     <i type="int" name="NRMM">     4</i>
     <i name="TIME">      0.40000000</i>
    </separator>
   </separator>
   <separator name="electronic mixer" >
    <i name="AMIX">      0.40000000</i>
    <i name="BMIX">      1.00000000</i>
    <i name="AMIN">      0.10000000</i>
    <i name="AMIX_MAG">      1.60000000</i>
    <i name="BMIX_MAG">      1.00000000</i>
    <separator name="electronic mixer details" >
     <i type="int" name="IMIX">     4</i>
     <i type="logical" name="MIXFIRST"> F  </i>
     <i type="int" name="MAXMIX">   -45</i>
     <i name="WC">    100.00000000</i>
     <i type="int" name="INIMIX">     1</i>
     <i type="int" name="MIXPRE">     1</i>
     <i type="int" name="MREMOVE">     5</i>
    </separator>
   </separator>
   <separator name="electronic dipolcorrection" >
    <i type="logical" name="LDIPOL"> F  </i>
    <i type="logical" name="LMONO"> F  </i>
    <i type="int" name="IDIPOL">     0</i>
    <i name="EPSILON">      1.00000000</i>
    <v name="DIPOL">   -100.00000000   -100.00000000   -100.00000000</v>
    <i name="EFIELD">      0.00000000</i>
   </separator>
  </separator>
  <separator name="grids" >
   <i type="int" name="NGX">    16</i>
   <i type="int" name="NGY">    16</i>
   <i type="int" name="NGZ">   300</i>
   <i type="int" name="NGXF">    32</i>
   <i type="int" name="NGYF">    32</i>
   <i type="int" name="NGZF">   600</i>
   <i type="logical" name="ADDGRID"> F  </i>
  </separator>
  <separator name="ionic" >
   <i type="int" name="NSW">     0</i>
   <i type="int" name="IBRION">    -1</i>
   <i type="int" name="MDALGO">     0</i>
   <i type="int" name="ISIF">     2</i>
   <i name="PSTRESS">      0.00000000</i>
   <i name="EDIFFG">      0.00001000</i>
   <i type="int" name="NFREE">     0</i>
   <i name="POTIM">      0.50000000</i>
   <i name="SMASS">     -3.00000000</i>
   <i name="SCALEE">      1.00000000</i>
  </separator>
  <separator name="ionic md" >
   <i name="TEBEG">      0.00010000</i>
   <i name="TEEND">      0.00010000</i>
   <i type="int" name="NBLOCK">     1</i>
   <i type="int" name="KBLOCK">     1</i>
   <i type="int" name="NPACO">   256</i>
   <i name="APACO">     16.00000000</i>
  </separator>
  <separator name="symmetry" >
   <i type="int" name="ISYM">     2</i>
   <i name="SYMPREC">      0.00001000</i>
  </separator>
  <separator name="dos" >
   <i type="int" name="LORBIT">     0</i>
   <v name="RWIGS">     -1.00000000</v>
   <i type="int" name="NEDOS">   301</i>
   <i name="EMIN">     10.00000000</i>
   <i name="EMAX">    -10.00000000</i>
   <i name="EFERMI">      0.00000000</i>
  </separator>
  <separator name="writing" >
   <i type="int" name="NWRITE">     2</i>
   <i type="logical" name="LWAVE"> T  </i>
   <i type="logical" name="LDOWNSAMPLE"> F  </i>
   <i type="logical" name="LCHARG"> F  </i>
   <i type="logical" name="LPARD"> F  </i>
   <i type="logical" name="LVTOT"> F  </i>
   <i type="logical" name="LVHAR"> F  </i>
   <i type="logical" name="LELF"> F  </i>
   <i type="logical" name="LOPTICS"> F  </i>
   <v name="STM">      0.00000000      0.00000000      0.00000000      0.00000000      0.00000000      0.00000000      0.00000000</v>
  </separator>
  <separator name="performance" >
   <i type="int" name="NPAR">     1</i>
   <i type="int" name="NSIM">     4</i>
   <i type="int" name="NBLK">    -1</i>
   <i type="logical" name="LPLANE"> T  </i>
   <i type="logical" name="LSCALAPACK"> T  </i>
   <i type="logical" name="LSCAAWARE"> F  </i>
   <i type="logical" name="LSCALU"> F  </i>
   <i type="logical" name="LASYNC"> F  </i>
   <i type="logical" name="LORBITALREAL"> F  </i>
  </separator>
  <separator name="miscellaneous" >
   <i type="int" name="IDIOT">     3</i>
   <i type="int" name="ISPECIAL">     0</i>
   <i type="logical" name="LMUSIC"> F  </i>
   <v name="POMASS">     12.01100000</v>
   <v name="DARWINR">      0.00000000</v>
   <v name="DARWINV">      1.00000000</v>
   <i type="logical" name="LCORR"> T  </i>
  </separator>
  <i type="logical" name="GGA_COMPAT"> T  </i>
  <i type="logical" name="LBERRY"> F  </i>
  <i type="int" name="ICORELEVEL">     0</i>
  <i type="logical" name="LDAU"> F  </i>
  <i type="int" name="I_CONSTRAINED_M">     0</i>
  <separator name="electronic exchange-correlation" >
   <i type="string" name="GGA">--</i>
   <i type="int" name="VOSKOWN">     0</i>
   <i type="logical" name="LHFCALC"> F  </i>
   <i type="string" name="PRECFOCK"></i>
   <i type="logical" name="LSYMGRAD"> F  </i>
   <i type="logical" name="LHFONE"> F  </i>
   <i type="logical" name="LRHFCALC"> F  </i>
   <i type="logical" name="LTHOMAS"> F  </i>
   <i type="logical" name="LMODELHF"> F  </i>
   <i name="ENCUT4O">     -1.00000000</i>
   <i type="int" name="EXXOEP">     0</i>
   <i type="int" name="FOURORBIT">     0</i>
   <i name="AEXX">      0.00000000</i>
   <i name="HFALPHA">      0.00000000</i>
   <i name="MCALPHA">      0.00000000</i>
   <i name="ALDAX">      1.00000000</i>
   <i name="AGGAX">      1.00000000</i>
   <i name="ALDAC">      1.00000000</i>
   <i name="AGGAC">      1.00000000</i>
   <i type="int" name="NKREDX">     1</i>
   <i type="int" name="NKREDY">     1</i>
   <i type="int" name="NKREDZ">     1</i>
   <i type="logical" name="SHIFTRED"> F  </i>
   <i type="logical" name="ODDONLY"> F  </i>
   <i type="logical" name="EVENONLY"> F  </i>
   <i type="int" name="LMAXFOCK">     0</i>
   <i type="int" name="NMAXFOCKAE">     0</i>
   <i type="logical" name="LFOCKAEDFT"> F  </i>
   <i name="HFSCREEN">      0.00000000</i>
   <i name="HFSCREENC">      0.00000000</i>
   <i type="int" name="NBANDSGWLOW">     0</i>
  </separator>
  <separator name="vdW DFT" >
   <i type="logical" name="LUSE_VDW"> F  </i>
   <i name="Zab_VDW">     -0.84910000</i>
   <i name="PARAM1">      0.12340000</i>
   <i name="PARAM2">      1.00000000</i>
   <i name="PARAM3">      0.00000000</i>
  </separator>
  <separator name="model GW" >
   <i type="int" name="MODEL_GW">     0</i>
   <i name="MODEL_EPS0">     38.67625973</i>
   <i name="MODEL_ALPHA">      1.00000000</i>
  </separator>
  <separator name="linear response parameters" >
   <i type="logical" name="LEPSILON"> F  </i>
   <i type="logical" name="LRPA"> F  </i>
   <i type="logical" name="LNABLA"> F  </i>
   <i type="logical" name="LVEL"> F  </i>
   <i type="int" name="KINTER">     0</i>
   <i name="CSHIFT">      0.10000000</i>
   <i name="OMEGAMAX">     -1.00000000</i>
   <i name="DEG_THRESHOLD">      0.00200000</i>
   <i name="RTIME">     -0.10000000</i>
   <i name="WPLASMAI">      0.00000000</i>
   <v name="DFIELD">      0.00000000      0.00000000      0.00000000</v>
   <v name="WPLASMA">      0.00000000      0.00000000      0.00000000      0.00000000      0.00000000      0.00000000      0.00000000      0.00000000      0.00000000</v>
  </separator>
  <separator name="orbital magnetization" >
   <i type="logical" name="NUCIND"> F  </i>
   <v name="MAGPOS">      0.00000000      0.00000000      0.00000000</v>
   <i type="logical" name="LNICSALL"> T  </i>
   <i type="logical" name="ORBITALMAG"> F  </i>
   <i type="logical" name="LMAGBLOCH"> F  </i>
   <i type="logical" name="LCHIMAG"> F  </i>
   <i type="logical" name="LGAUGE"> T  </i>
   <i type="int" name="MAGATOM">     0</i>
   <v name="MAGDIPOL">      0.00000000      0.00000000      0.00000000</v>
   <v name="AVECCONST">      0.00000000      0.00000000      0.00000000</v>
  </separator>
  <separator name="response functions" >
   <i type="logical" name="LADDER"> F  </i>
   <i type="logical" name="LRPAFORCE"> F  </i>
   <i type="logical" name="LFXC"> F  </i>
   <i type="logical" name="LHARTREE"> T  </i>
   <i type="int" name="IBSE">     0</i>
   <v type="int" name="KPOINT">    -1     0     0     0</v>
   <i type="logical" name="LTCTE"> F  </i>
   <i type="logical" name="LTETE"> F  </i>
   <i type="logical" name="LTRIPLET"> F  </i>
   <i type="logical" name="LFXCEPS"> F  </i>
   <i type="logical" name="LFXHEG"> F  </i>
   <i type="int" name="NATURALO">     2</i>
   <i type="logical" name="L2ORDER"> F  </i>
   <i type="logical" name="LMP2LT"> F  </i>
   <i type="logical" name="LUSEW"> F  </i>
   <i name="ENCUTGW">     -2.00000000</i>
   <i name="ENCUTGWSOFT">     -2.00000000</i>
   <i name="ENCUTLF">     -1.00000000</i>
   <i type="int" name="LMAXMP2">    -1</i>
   <i name="SCISSOR">      0.00000000</i>
   <i type="int" name="NOMEGA">     0</i>
   <i type="int" name="NOMEGAR">     0</i>
   <i type="int" name="NBANDSGW">    -1</i>
   <i type="int" name="NBANDSO">    -1</i>
   <i type="int" name="NBANDSV">    -1</i>
   <i type="int" name="NELM">     1</i>
   <i type="int" name="NELMHF">     1</i>
   <i type="int" name="DIM">     3</i>
   <i type="int" name="ANTIRES">     0</i>
   <i name="OMEGAMAX">    -30.00000000</i>
   <i name="OMEGAMIN">    -30.00000000</i>
   <i name="OMEGATL">   -200.00000000</i>
   <i type="int" name="OMEGAGRID">   140</i>
   <i name="CSHIFT">     -0.10000000</i>
   <i type="logical" name="SELFENERGY"> F  </i>
   <i type="logical" name="LSPECTRAL"> F  </i>
   <i type="logical" name="LSPECTRALGW"> F  </i>
   <i type="logical" name="LSINGLES"> F  </i>
   <i type="logical" name="LFERMIGW"> F  </i>
   <i type="logical" name="ODDONLYGW"> F  </i>
   <i type="logical" name="EVENONLYGW"> F  </i>
   <i type="int" name="NKREDLFX">     1</i>
   <i type="int" name="NKREDLFY">     1</i>
   <i type="int" name="NKREDLFZ">     1</i>
   <i type="int" name="MAXMEM">  2800</i>
   <i type="int" name="TELESCOPE">     0</i>
   <i type="int" name="TAUPAR">     1</i>
   <i type="int" name="OMEGAPAR">    -1</i>
   <i name="LAMBDA">      1.00000000</i>
  </separator>
  <separator name="External order field" >
   <i name="OFIELD_KAPPA">      0.00000000</i>
   <v name="OFIELD_K">      0.00000000      0.00000000      0.00000000</v>
   <i name="OFIELD_Q6_NEAR">      0.00000000</i>
   <i name="OFIELD_Q6_FAR">      0.00000000</i>
   <i name="OFIELD_A">      0.00000000</i>
  </separator>
 </parameters>
 <atominfo>
  <atoms>       4 </atoms>
  <types>       1 </types>
  <array name="atoms" >
   <dimension dim="1">ion</dimension>
   <field type="string">element</field>
   <field type="int">atomtype</field>
   <set>
    <rc><c>C </c><c>   1</c></rc>
    <rc><c>C </c><c>   1</c></rc>
    <rc><c>C </c><c>   1</c></rc>
    <rc><c>C </c><c>   1</c></rc>
   </set>
  </array>
  <array name="atomtypes" >
   <dimension dim="1">type</dimension>
   <field type="int">atomspertype</field>
   <field type="string">element</field>
   <field>mass</field>
   <field>valence</field>
   <field type="string">pseudopotential</field>
   <set>
    <rc><c>   4</c><c>C </c><c>     12.01100000</c><c>      4.00000000</c><c> PAW_PBE C 08Apr2002                    </c></rc>
   </set>
  </array>
 </atominfo>
 <structure name="initialpos" >
  <crystal>
   <varray name="basis" >
    <v>       2.13036000      -1.23000000       0.00000000 </v>
    <v>       2.13036000       1.23000000       0.00000000 </v>
    <v>       0.00000000       0.00000000      49.20000000 </v>
   </varray>
   <i name="volume">    257.84173152 </i>
   <varray name="rec_basis" >
    <v>       0.23470212      -0.40650407       0.00000000 </v>
    <v>       0.23470212       0.40650407       0.00000000 </v>
    <v>       0.00000000       0.00000000       0.02032520 </v>
   </varray>
  </crystal>
  <varray name="positions" >
   <v>       0.00000000       0.00000000       0.00000000 </v>
   <v>       0.66670000       0.66670000       0.00000000 </v>
   <v>       0.00000000       0.00000000       0.07032520 </v>
   <v>       0.33330000       0.33330000       0.07032520 </v>
  </varray>
 </structure>
 <calculation>
  <scstep>
   <time name="dav">   30.78   30.88</time>
   <time name="total">   31.11   31.22</time>
   <energy>
    <i name="alphaZ">      5.05613508 </i>
    <i name="ewald">  13488.27800016 </i>
    <i name="hartreedc"> -13905.46305676 </i>
    <i name="XCdc">     55.29035329 </i>
    <i name="pawpsdc">    151.32577238 </i>
    <i name="pawaedc">   -155.92769107 </i>
    <i name="eentropy">     -0.01967388 </i>
    <i name="bandstr">   -107.87115820 </i>
    <i name="atom">    588.60115103 </i>
    <i name="e_fr_energy">    119.26983205 </i>
    <i name="e_wo_entrp">    119.28950593 </i>
    <i name="e_0_energy">    119.27966899 </i>
   </energy>
  </scstep>
  <scstep>
   <time name="dav">   39.54   39.65</time>
   <time name="total">   39.55   39.67</time>
   <energy>
    <i name="e_fr_energy">    -15.78200349 </i>
    <i name="e_wo_entrp">    -15.77240598 </i>
    <i name="e_0_energy">    -15.77720474 </i>
   </energy>
  </scstep>
  <scstep>
   <time name="dav">   31.50   31.59</time>
   <time name="total">   31.51   31.60</time>
   <energy>
    <i name="e_fr_energy">    -36.51863507 </i>
    <i name="e_wo_entrp">    -36.51284403 </i>
    <i name="e_0_energy">    -36.51573955 </i>
   </energy>
  </scstep>
  <scstep>
   <time name="dav">   31.23   31.32</time>
   <time name="total">   31.25   31.33</time>
   <energy>
    <i name="e_fr_energy">    -37.99127550 </i>
    <i name="e_wo_entrp">    -37.98581893 </i>
    <i name="e_0_energy">    -37.98854721 </i>
   </energy>
  </scstep>
  <scstep>
   <time name="dav">   31.57   31.66</time>
   <time name="total">   33.54   33.63</time>
   <energy>
    <i name="e_fr_energy">    -38.05700607 </i>
    <i name="e_wo_entrp">    -38.05155854 </i>
    <i name="e_0_energy">    -38.05428231 </i>
   </energy>
  </scstep>
  <scstep>
   <time name="dav">   30.32   30.40</time>
   <time name="total">   32.57   32.66</time>
   <energy>
    <i name="e_fr_energy">    -36.06399984 </i>
    <i name="e_wo_entrp">    -36.05868410 </i>
    <i name="e_0_energy">    -36.06134197 </i>
   </energy>
  </scstep>
  <scstep>
   <time name="dav">   30.39   30.47</time>
   <time name="total">   32.64   32.73</time>
   <energy>
    <i name="e_fr_energy">    -35.36267802 </i>
    <i name="e_wo_entrp">    -35.35743763 </i>
    <i name="e_0_energy">    -35.36005782 </i>
   </energy>
  </scstep>
  <scstep>
   <time name="dav">   32.33   32.43</time>
   <time name="total">   34.59   34.69</time>
   <energy>
    <i name="e_fr_energy">    -35.35941080 </i>
    <i name="e_wo_entrp">    -35.35417515 </i>
    <i name="e_0_energy">    -35.35679297 </i>
   </energy>
  </scstep>
  <scstep>
   <time name="dav">   32.52   32.61</time>
   <time name="total">   34.77   34.87</time>
   <energy>
    <i name="e_fr_energy">    -35.35726179 </i>
    <i name="e_wo_entrp">    -35.35202964 </i>
    <i name="e_0_energy">    -35.35464571 </i>
   </energy>
  </scstep>
  <scstep>
   <time name="dav">   30.90   30.99</time>
   <time name="total">   33.16   33.25</time>
   <energy>
    <i name="e_fr_energy">    -35.35560113 </i>
    <i name="e_wo_entrp">    -35.35037215 </i>
    <i name="e_0_energy">    -35.35298664 </i>
   </energy>
  </scstep>
  <scstep>
   <time name="dav">   30.38   30.47</time>
   <time name="total">   32.64   32.74</time>
   <energy>
    <i name="e_fr_energy">    -35.35554702 </i>
    <i name="e_wo_entrp">    -35.35031809 </i>
    <i name="e_0_energy">    -35.35293256 </i>
   </energy>
  </scstep>
  <scstep>
   <time name="dav">   28.94   29.02</time>
   <time name="total">   31.20   31.29</time>
   <energy>
    <i name="e_fr_energy">    -35.35594500 </i>
    <i name="e_wo_entrp">    -35.35071552 </i>
    <i name="e_0_energy">    -35.35333026 </i>
   </energy>
  </scstep>
  <scstep>
   <time name="dav">   28.72   28.80</time>
   <time name="total">   30.98   31.07</time>
   <energy>
    <i name="e_fr_energy">    -35.35629065 </i>
    <i name="e_wo_entrp">    -35.35106096 </i>
    <i name="e_0_energy">    -35.35367581 </i>
   </energy>
  </scstep>
  <scstep>
   <time name="dav">   28.98   29.06</time>
   <time name="total">   31.24   31.33</time>
   <energy>
    <i name="e_fr_energy">    -35.35669840 </i>
    <i name="e_wo_entrp">    -35.35146891 </i>
    <i name="e_0_energy">    -35.35408365 </i>
   </energy>
  </scstep>
  <scstep>
   <time name="dav">   30.29   30.38</time>
   <time name="total">   32.55   32.65</time>
   <energy>
    <i name="e_fr_energy">    -35.35680140 </i>
    <i name="e_wo_entrp">    -35.35157192 </i>
    <i name="e_0_energy">    -35.35418666 </i>
   </energy>
  </scstep>
  <scstep>
   <time name="dav">   30.24   30.32</time>
   <time name="total">   32.50   32.60</time>
   <energy>
    <i name="e_fr_energy">    -35.35685928 </i>
    <i name="e_wo_entrp">    -35.35162979 </i>
    <i name="e_0_energy">    -35.35424453 </i>
   </energy>
  </scstep>
  <scstep>
   <time name="dav">   28.52   28.60</time>
   <time name="total">   30.79   30.87</time>
   <energy>
    <i name="e_fr_energy">    -35.35689195 </i>
    <i name="e_wo_entrp">    -35.35166242 </i>
    <i name="e_0_energy">    -35.35427718 </i>
   </energy>
  </scstep>
  <scstep>
   <time name="dav">   24.64   24.71</time>
   <time name="total">   26.91   26.98</time>
   <energy>
    <i name="e_fr_energy">    -35.35690274 </i>
    <i name="e_wo_entrp">    -35.35167325 </i>
    <i name="e_0_energy">    -35.35428800 </i>
   </energy>
  </scstep>
  <scstep>
   <time name="dav">   22.23   22.29</time>
   <time name="total">   24.50   24.57</time>
   <energy>
    <i name="e_fr_energy">    -35.35690730 </i>
    <i name="e_wo_entrp">    -35.35167782 </i>
    <i name="e_0_energy">    -35.35429256 </i>
   </energy>
  </scstep>
  <scstep>
   <time name="dav">   22.50   22.56</time>
   <time name="total">   24.77   24.84</time>
   <energy>
    <i name="e_fr_energy">    -35.35691089 </i>
    <i name="e_wo_entrp">    -35.35168138 </i>
    <i name="e_0_energy">    -35.35429614 </i>
   </energy>
  </scstep>
  <scstep>
   <time name="dav">   23.56   23.62</time>
   <time name="total">   23.86   23.93</time>
   <energy>
    <i name="alphaZ">      5.05613508 </i>
    <i name="ewald">  13488.27800016 </i>
    <i name="hartreedc"> -13976.92745807 </i>
    <i name="XCdc">     57.74037293 </i>
    <i name="pawpsdc">    280.97588542 </i>
    <i name="pawaedc">   -286.20135382 </i>
    <i name="eentropy">     -0.00522950 </i>
    <i name="bandstr">   -192.87441457 </i>
    <i name="atom">    588.60115103 </i>
    <i name="e_fr_energy">    -35.35691134 </i>
    <i name="e_wo_entrp">    -35.35168184 </i>
    <i name="e_0_energy">    -35.35429659 </i>
   </energy>
  </scstep>
  <structure>
   <crystal>
    <varray name="basis" >
     <v>       2.13036000      -1.23000000       0.00000000 </v>
     <v>       2.13036000       1.23000000       0.00000000 </v>
     <v>       0.00000000       0.00000000      49.20000000 </v>
    </varray>
    <i name="volume">    257.84173152 </i>
    <varray name="rec_basis" >
     <v>       0.23470212      -0.40650407       0.00000000 </v>
     <v>       0.23470212       0.40650407       0.00000000 </v>
     <v>       0.00000000       0.00000000       0.02032520 </v>
    </varray>
   </crystal>
   <varray name="positions" >
    <v>       0.00000000       0.00000000       0.00000000 </v>
    <v>       0.66670000       0.66670000       0.00000000 </v>
    <v>       0.00000000       0.00000000       0.07032520 </v>
    <v>       0.33330000       0.33330000       0.07032520 </v>
   </varray>
  </structure>
  <varray name="forces" >
   <v>       1.41251829       0.00000000      -0.02225535 </v>
   <v>      -1.40808957       0.00000000      -0.05340373 </v>
   <v>      -1.41251829       0.00000000       0.02225535 </v>
   <v>       1.40808957       0.00000000       0.05340373 </v>
  </varray>
  <varray name="stress" >
   <v>      39.37957378       0.00000000      -0.09505736 </v>
   <v>       0.00000000     -16.26999782       0.00000000 </v>
   <v>      -0.09505736       0.00000000       1.14781091 </v>
  </varray>
  <energy>
   <i name="e_fr_energy">    -35.35691134 </i>
   <i name="e_wo_entrp">    -35.35429659 </i>
   <i name="e_0_energy">     -0.00522950 </i>
  </energy>
  <time name="totalsc">  680.24  682.20</time>
  <eigenvalues>
   <array>
    <dimension dim="1">band</dimension>
    <dimension dim="2">kpoint</dimension>
    <dimension dim="3">spin</dimension>
    <field>eigene</field>
    <field>occ</field>
    <set>
     <set comment="spin 1">
      <set comment="kpoint 1">
       <r>  -22.6244    1.0000 </r>
       <r>  -22.5058    1.0000 </r>
       <r>  -11.0901    1.0000 </r>
       <r>  -10.2550    1.0000 </r>
       <r>   -6.0238    1.0000 </r>
       <r>   -6.0173    1.0000 </r>
       <r>   -5.9533    1.0000 </r>
       <r>   -5.9466    1.0000 </r>
       <r>    0.3514    0.0000 </r>
       <r>    0.7253    0.0000 </r>
       <r>    1.1813    0.0000 </r>
       <r>    1.2657    0.0000 </r>
      </set>
      <set comment="kpoint 2">
       <r>  -22.6236    1.0000 </r>
       <r>  -22.5049    1.0000 </r>
       <r>  -11.0892    1.0000 </r>
       <r>  -10.2541    1.0000 </r>
       <r>   -6.0268    1.0000 </r>
       <r>   -6.0202    1.0000 </r>
       <r>   -5.9555    1.0000 </r>
       <r>   -5.9488    1.0000 </r>
       <r>    0.3525    0.0000 </r>
       <r>    0.7264    0.0000 </r>
       <r>    1.1824    0.0000 </r>
       <r>    1.2668    0.0000 </r>
      </set>
      <set comment="kpoint 3">
       <r>  -22.6211    1.0000 </r>
       <r>  -22.5025    1.0000 </r>
       <r>  -11.0862    1.0000 </r>
       <r>  -10.2512    1.0000 </r>
       <r>   -6.0359    1.0000 </r>
       <r>   -6.0292    1.0000 </r>
       <r>   -5.9620    1.0000 </r>
       <r>   -5.9553    1.0000 </r>
       <r>    0.3557    0.0000 </r>
       <r>    0.7297    0.0000 </r>
       <r>    1.1858    0.0000 </r>
       <r>    1.2702    0.0000 </r>
      </set>
      <set comment="kpoint 4">
       <r>  -22.6171    1.0000 </r>
       <r>  -22.4985    1.0000 </r>
       <r>  -11.0813    1.0000 </r>
       <r>  -10.2464    1.0000 </r>
       <r>   -6.0512    1.0000 </r>
       <r>   -6.0444    1.0000 </r>
       <r>   -5.9727    1.0000 </r>
       <r>   -5.9658    1.0000 </r>
       <r>    0.3612    0.0000 </r>
       <r>    0.7352    0.0000 </r>
       <r>    1.1914    0.0000 </r>
       <r>    1.2758    0.0000 </r>
      </set>
      <set comment="kpoint 5">
       <r>  -22.6114    1.0000 </r>
       <r>  -22.4929    1.0000 </r>
       <r>  -11.0745    1.0000 </r>
       <r>  -10.2398    1.0000 </r>
       <r>   -6.0728    1.0000 </r>
       <r>   -6.0659    1.0000 </r>
       <r>   -5.9871    1.0000 </r>
       <r>   -5.9802    1.0000 </r>
       <r>    0.3688    0.0000 </r>
       <r>    0.7429    0.0000 </r>
       <r>    1.1993    0.0000 </r>
       <r>    1.2837    0.0000 </r>
      </set>
      <set comment="kpoint 6">
       <r>  -22.6041    1.0000 </r>
       <r>  -22.4856    1.0000 </r>
       <r>  -11.0657    1.0000 </r>
       <r>  -10.2312    1.0000 </r>
       <r>   -6.1011    1.0000 </r>
       <r>   -6.0940    1.0000 </r>
       <r>   -6.0051    1.0000 </r>
       <r>   -5.9982    1.0000 </r>
       <r>    0.3785    0.0000 </r>
       <r>    0.7528    0.0000 </r>
       <r>    1.2094    0.0000 </r>
       <r>    1.2938    0.0000 </r>
      </set>
      <set comment="kpoint 7">
       <r>  -22.5952    1.0000 </r>
       <r>  -22.4767    1.0000 </r>
       <r>  -11.0549    1.0000 </r>
       <r>  -10.2207    1.0000 </r>
       <r>   -6.1358    1.0000 </r>
       <r>   -6.1286    1.0000 </r>
       <r>   -6.0265    1.0000 </r>
       <r>   -6.0195    1.0000 </r>
       <r>    0.3905    0.0000 </r>
       <r>    0.7649    0.0000 </r>
       <r>    1.2218    0.0000 </r>
       <r>    1.3062    0.0000 </r>
      </set>
      <set comment="kpoint 8">
       <r>  -22.5846    1.0000 </r>
       <r>  -22.4663    1.0000 </r>
       <r>  -11.0421    1.0000 </r>
       <r>  -10.2083    1.0000 </r>
       <r>   -6.1770    1.0000 </r>
       <r>   -6.1697    1.0000 </r>
       <r>   -6.0511    1.0000 </r>
       <r>   -6.0441    1.0000 </r>
       <r>    0.4046    0.0000 </r>
       <r>    0.7793    0.0000 </r>
       <r>    1.2365    0.0000 </r>
       <r>    1.3209    0.0000 </r>
      </set>
      <set comment="kpoint 9">
       <r>  -22.5724    1.0000 </r>
       <r>  -22.4542    1.0000 </r>
       <r>  -11.0275    1.0000 </r>
       <r>  -10.1940    1.0000 </r>
       <r>   -6.2245    1.0000 </r>
       <r>   -6.2170    1.0000 </r>
       <r>   -6.0790    1.0000 </r>
       <r>   -6.0719    1.0000 </r>
       <r>    0.4209    0.0000 </r>
       <r>    0.7958    0.0000 </r>
       <r>    1.2534    0.0000 </r>
       <r>    1.3377    0.0000 </r>
      </set>
      <set comment="kpoint 10">
       <r>  -22.5586    1.0000 </r>
       <r>  -22.4405    1.0000 </r>
       <r>  -11.0108    1.0000 </r>
       <r>  -10.1779    1.0000 </r>
       <r>   -6.2780    1.0000 </r>
       <r>   -6.2703    1.0000 </r>
       <r>   -6.1101    1.0000 </r>
       <r>   -6.1029    1.0000 </r>
       <r>    0.4393    0.0000 </r>
       <r>    0.8145    0.0000 </r>
       <r>    1.2725    0.0000 </r>
       <r>    1.3569    0.0000 </r>
      </set>
      <set comment="kpoint 11">
       <r>  -22.5432    1.0000 </r>
       <r>  -22.4252    1.0000 </r>
       <r>  -10.9922    1.0000 </r>
       <r>  -10.1598    1.0000 </r>
       <r>   -6.3373    1.0000 </r>
       <r>   -6.3294    1.0000 </r>
       <r>   -6.1443    1.0000 </r>
       <r>   -6.1371    1.0000 </r>
       <r>    0.4599    0.0000 </r>
       <r>    0.8354    0.0000 </r>
       <r>    1.2939    0.0000 </r>
       <r>    1.3783    0.0000 </r>
      </set>
      <set comment="kpoint 12">
       <r>  -22.5262    1.0000 </r>
       <r>  -22.4083    1.0000 </r>
       <r>  -10.9717    1.0000 </r>
       <r>  -10.1398    1.0000 </r>
       <r>   -6.4020    1.0000 </r>
       <r>   -6.3940    1.0000 </r>
       <r>   -6.1818    1.0000 </r>
       <r>   -6.1746    1.0000 </r>
       <r>    0.4827    0.0000 </r>
       <r>    0.8586    0.0000 </r>
       <r>    1.3176    0.0000 </r>
       <r>    1.4019    0.0000 </r>
      </set>
      <set comment="kpoint 13">
       <r>  -22.5075    1.0000 </r>
       <r>  -22.3898    1.0000 </r>
       <r>  -10.9492    1.0000 </r>
       <r>  -10.1180    1.0000 </r>
       <r>   -6.4721    1.0000 </r>
       <r>   -6.4638    1.0000 </r>
       <r>   -6.2225    1.0000 </r>
       <r>   -6.2152    1.0000 </r>
       <r>    0.5077    0.0000 </r>
       <r>    0.8839    0.0000 </r>
       <r>    1.3435    0.0000 </r>
       <r>    1.4278    0.0000 </r>
      </set>
      <set comment="kpoint 14">
       <r>  -22.4873    1.0000 </r>
       <r>  -22.3696    1.0000 </r>
       <r>  -10.9248    1.0000 </r>
       <r>  -10.0942    1.0000 </r>
       <r>   -6.5470    1.0000 </r>
       <r>   -6.5385    1.0000 </r>
       <r>   -6.2663    1.0000 </r>
       <r>   -6.2589    1.0000 </r>
       <r>    0.5349    0.0000 </r>
       <r>    0.9114    0.0000 </r>
       <r>    1.3717    0.0000 </r>
       <r>    1.4560    0.0000 </r>
      </set>
      <set comment="kpoint 15">
       <r>  -22.4654    1.0000 </r>
       <r>  -22.3479    1.0000 </r>
       <r>  -10.8984    1.0000 </r>
       <r>  -10.0686    1.0000 </r>
       <r>   -6.6267    1.0000 </r>
       <r>   -6.6179    1.0000 </r>
       <r>   -6.3132    1.0000 </r>
       <r>   -6.3058    1.0000 </r>
       <r>    0.5642    0.0000 </r>
       <r>    0.9412    0.0000 </r>
       <r>    1.4021    0.0000 </r>
       <r>    1.4864    0.0000 </r>
      </set>
      <set comment="kpoint 16">
       <r>  -22.4419    1.0000 </r>
       <r>  -22.3246    1.0000 </r>
       <r>  -10.8701    1.0000 </r>
       <r>  -10.0411    1.0000 </r>
       <r>   -6.7107    1.0000 </r>
       <r>   -6.7017    1.0000 </r>
       <r>   -6.3632    1.0000 </r>
       <r>   -6.3557    1.0000 </r>
       <r>    0.5957    0.0000 </r>
       <r>    0.9731    0.0000 </r>
       <r>    1.4348    0.0000 </r>
       <r>    1.5190    0.0000 </r>
      </set>
      <set comment="kpoint 17">
       <r>  -22.4167    1.0000 </r>
       <r>  -22.2996    1.0000 </r>
       <r>  -10.8398    1.0000 </r>
       <r>  -10.0117    1.0000 </r>
       <r>   -6.7988    1.0000 </r>
       <r>   -6.7895    1.0000 </r>
       <r>   -6.4162    1.0000 </r>
       <r>   -6.4086    1.0000 </r>
       <r>    0.6293    0.0000 </r>
       <r>    1.0073    0.0000 </r>
       <r>    1.4697    0.0000 </r>
       <r>    1.5539    0.0000 </r>
      </set>
      <set comment="kpoint 18">
       <r>  -22.3900    1.0000 </r>
       <r>  -22.2731    1.0000 </r>
       <r>  -10.8077    1.0000 </r>
       <r>   -9.9804    1.0000 </r>
       <r>   -6.8908    1.0000 </r>
       <r>   -6.8812    1.0000 </r>
       <r>   -6.4721    1.0000 </r>
       <r>   -6.4644    1.0000 </r>
       <r>    0.6652    0.0000 </r>
       <r>    1.0436    0.0000 </r>
       <r>    1.5069    0.0000 </r>
       <r>    1.5911    0.0000 </r>
      </set>
      <set comment="kpoint 19">
       <r>  -22.3617    1.0000 </r>
       <r>  -22.2449    1.0000 </r>
       <r>  -10.7736    1.0000 </r>
       <r>   -9.9473    1.0000 </r>
       <r>   -6.9864    1.0000 </r>
       <r>   -6.9765    1.0000 </r>
       <r>   -6.5310    1.0000 </r>
       <r>   -6.5231    1.0000 </r>
       <r>    0.7032    0.0000 </r>
       <r>    1.0821    0.0000 </r>
       <r>    1.5463    0.0000 </r>
       <r>    1.6305    0.0000 </r>
      </set>
      <set comment="kpoint 20">
       <r>  -22.3317    1.0000 </r>
       <r>  -22.2152    1.0000 </r>
       <r>  -10.7375    1.0000 </r>
       <r>   -9.9123    1.0000 </r>
       <r>   -7.0854    1.0000 </r>
       <r>   -7.0752    1.0000 </r>
       <r>   -6.5926    1.0000 </r>
       <r>   -6.5847    1.0000 </r>
       <r>    0.7433    0.0000 </r>
       <r>    1.1229    0.0000 </r>
       <r>    1.5880    0.0000 </r>
       <r>    1.6721    0.0000 </r>
      </set>
      <set comment="kpoint 21">
       <r>  -22.3001    1.0000 </r>
       <r>  -22.1839    1.0000 </r>
       <r>  -10.6996    1.0000 </r>
       <r>   -9.8754    1.0000 </r>
       <r>   -7.1874    1.0000 </r>
       <r>   -7.1769    1.0000 </r>
       <r>   -6.6570    1.0000 </r>
       <r>   -6.6489    1.0000 </r>
       <r>    0.7857    0.0000 </r>
       <r>    1.1658    0.0000 </r>
       <r>    1.6320    0.0000 </r>
       <r>    1.7161    0.0000 </r>
      </set>
      <set comment="kpoint 22">
       <r>  -22.2670    1.0000 </r>
       <r>  -22.1510    1.0000 </r>
       <r>  -10.6597    1.0000 </r>
       <r>   -9.8367    1.0000 </r>
       <r>   -7.2923    1.0000 </r>
       <r>   -7.2815    1.0000 </r>
       <r>   -6.7240    1.0000 </r>
       <r>   -6.7158    1.0000 </r>
       <r>    0.8302    0.0000 </r>
       <r>    1.2109    0.0000 </r>
       <r>    1.6782    0.0000 </r>
       <r>    1.7622    0.0000 </r>
      </set>
      <set comment="kpoint 23">
       <r>  -22.2322    1.0000 </r>
       <r>  -22.1164    1.0000 </r>
       <r>  -10.6179    1.0000 </r>
       <r>   -9.7962    1.0000 </r>
       <r>   -7.3998    1.0000 </r>
       <r>   -7.3887    1.0000 </r>
       <r>   -6.7936    1.0000 </r>
       <r>   -6.7853    1.0000 </r>
       <r>    0.8769    0.0000 </r>
       <r>    1.2582    0.0000 </r>
       <r>    1.7266    0.0000 </r>
       <r>    1.8106    0.0000 </r>
      </set>
      <set comment="kpoint 24">
       <r>  -22.1958    1.0000 </r>
       <r>  -22.0803    1.0000 </r>
       <r>  -10.5743    1.0000 </r>
       <r>   -9.7538    1.0000 </r>
       <r>   -7.5097    1.0000 </r>
       <r>   -7.4983    1.0000 </r>
       <r>   -6.8657    1.0000 </r>
       <r>   -6.8572    1.0000 </r>
       <r>    0.9258    0.0000 </r>
       <r>    1.3077    0.0000 </r>
       <r>    1.7773    0.0000 </r>
       <r>    1.8613    0.0000 </r>
      </set>
      <set comment="kpoint 25">
       <r>  -22.1578    1.0000 </r>
       <r>  -22.0426    1.0000 </r>
       <r>  -10.5287    1.0000 </r>
       <r>   -9.7095    1.0000 </r>
       <r>   -7.6219    1.0000 </r>
       <r>   -7.6101    1.0000 </r>
       <r>   -6.9403    1.0000 </r>
       <r>   -6.9316    1.0000 </r>
       <r>    0.9768    0.0000 </r>
       <r>    1.3594    0.0000 </r>
       <r>    1.8303    0.0000 </r>
       <r>    1.9142    0.0000 </r>
      </set>
      <set comment="kpoint 26">
       <r>  -22.1183    1.0000 </r>
       <r>  -22.0033    1.0000 </r>
       <r>  -10.4812    1.0000 </r>
       <r>   -9.6635    1.0000 </r>
       <r>   -7.7360    1.0000 </r>
       <r>   -7.7239    1.0000 </r>
       <r>   -7.0171    1.0000 </r>
       <r>   -7.0083    1.0000 </r>
       <r>    1.0300    0.0000 </r>
       <r>    1.4133    0.0000 </r>
       <r>    1.8855    0.0000 </r>
       <r>    1.9694    0.0000 </r>
      </set>
      <set comment="kpoint 27">
       <r>  -22.0771    1.0000 </r>
       <r>  -21.9625    1.0000 </r>
       <r>  -10.4318    1.0000 </r>
       <r>   -9.6156    1.0000 </r>
       <r>   -7.8519    1.0000 </r>
       <r>   -7.8395    1.0000 </r>
       <r>   -7.0962    1.0000 </r>
       <r>   -7.0872    1.0000 </r>
       <r>    1.0854    0.0000 </r>
       <r>    1.4694    0.0000 </r>
       <r>    1.9430    0.0000 </r>
       <r>    2.0268    0.0000 </r>
      </set>
      <set comment="kpoint 28">
       <r>  -22.0343    1.0000 </r>
       <r>  -21.9200    1.0000 </r>
       <r>  -10.3806    1.0000 </r>
       <r>   -9.5659    1.0000 </r>
       <r>   -7.9695    1.0000 </r>
       <r>   -7.9567    1.0000 </r>
       <r>   -7.1775    1.0000 </r>
       <r>   -7.1683    1.0000 </r>
       <r>    1.1429    0.0000 </r>
       <r>    1.5277    0.0000 </r>
       <r>    2.0027    0.0000 </r>
       <r>    2.0865    0.0000 </r>
      </set>
      <set comment="kpoint 29">
       <r>  -21.9899    1.0000 </r>
       <r>  -21.8760    1.0000 </r>
       <r>  -10.3274    1.0000 </r>
       <r>   -9.5144    1.0000 </r>
       <r>   -8.0885    1.0000 </r>
       <r>   -8.0754    1.0000 </r>
       <r>   -7.2608    1.0000 </r>
       <r>   -7.2514    1.0000 </r>
       <r>    1.2026    0.0000 </r>
       <r>    1.5881    0.0000 </r>
       <r>    2.0647    0.0000 </r>
       <r>    2.1484    0.0000 </r>
      </set>
      <set comment="kpoint 30">
       <r>  -21.9440    1.0000 </r>
       <r>  -21.8304    1.0000 </r>
       <r>  -10.2724    1.0000 </r>
       <r>   -9.4611    1.0000 </r>
       <r>   -8.2089    1.0000 </r>
       <r>   -8.1953    1.0000 </r>
       <r>   -7.3461    1.0000 </r>
       <r>   -7.3365    1.0000 </r>
       <r>    1.2645    0.0000 </r>
       <r>    1.6507    0.0000 </r>
       <r>    2.1289    0.0000 </r>
       <r>    2.2126    0.0000 </r>
      </set>
      <set comment="kpoint 31">
       <r>  -21.8964    1.0000 </r>
       <r>  -21.7832    1.0000 </r>
       <r>  -10.2156    1.0000 </r>
       <r>   -9.4060    1.0000 </r>
       <r>   -8.3304    1.0000 </r>
       <r>   -8.3165    1.0000 </r>
       <r>   -7.4333    1.0000 </r>
       <r>   -7.4234    1.0000 </r>
       <r>    1.3285    0.0000 </r>
       <r>    1.7155    0.0000 </r>
       <r>    2.1954    0.0000 </r>
       <r>    2.2790    0.0000 </r>
      </set>
      <set comment="kpoint 32">
       <r>  -21.8473    1.0000 </r>
       <r>  -21.7344    1.0000 </r>
       <r>  -10.1569    1.0000 </r>
       <r>   -9.3491    1.0000 </r>
       <r>   -8.4529    1.0000 </r>
       <r>   -8.4386    1.0000 </r>
       <r>   -7.5223    1.0000 </r>
       <r>   -7.5122    1.0000 </r>
       <r>    1.3947    0.0000 </r>
       <r>    1.7825    0.0000 </r>
       <r>    2.2641    0.0000 </r>
       <r>    2.3477    0.0000 </r>
      </set>
      <set comment="kpoint 33">
       <r>  -21.7966    1.0000 </r>
       <r>  -21.6841    1.0000 </r>
       <r>  -10.0963    1.0000 </r>
       <r>   -9.2905    1.0000 </r>
       <r>   -8.5763    1.0000 </r>
       <r>   -8.5617    1.0000 </r>
       <r>   -7.6130    1.0000 </r>
       <r>   -7.6027    1.0000 </r>
       <r>    1.4631    0.0000 </r>
       <r>    1.8517    0.0000 </r>
       <r>    2.3351    0.0000 </r>
       <r>    2.4186    0.0000 </r>
      </set>
      <set comment="kpoint 34">
       <r>  -21.7444    1.0000 </r>
       <r>  -21.6322    1.0000 </r>
       <r>  -10.0339    1.0000 </r>
       <r>   -9.2301    1.0000 </r>
       <r>   -8.7004    1.0000 </r>
       <r>   -8.6854    1.0000 </r>
       <r>   -7.7053    1.0000 </r>
       <r>   -7.6947    1.0000 </r>
       <r>    1.5336    0.0000 </r>
       <r>    1.9230    0.0000 </r>
       <r>    2.4083    0.0000 </r>
       <r>    2.4918    0.0000 </r>
      </set>
      <set comment="kpoint 35">
       <r>  -21.6905    1.0000 </r>
       <r>  -21.5788    1.0000 </r>
       <r>   -9.9697    1.0000 </r>
       <r>   -9.1680    1.0000 </r>
       <r>   -8.8251    1.0000 </r>
       <r>   -8.8098    1.0000 </r>
       <r>   -7.7991    1.0000 </r>
       <r>   -7.7884    1.0000 </r>
       <r>    1.6063    0.0000 </r>
       <r>    1.9965    0.0000 </r>
       <r>    2.4838    0.0000 </r>
       <r>    2.5672    0.0000 </r>
      </set>
      <set comment="kpoint 36">
       <r>  -21.6351    1.0000 </r>
       <r>  -21.5238    1.0000 </r>
       <r>   -9.9037    1.0000 </r>
       <r>   -9.1043    1.0000 </r>
       <r>   -8.9504    1.0000 </r>
       <r>   -8.9346    1.0000 </r>
       <r>   -7.8944    1.0000 </r>
       <r>   -7.8834    1.0000 </r>
       <r>    1.6811    0.0000 </r>
       <r>    2.0721    0.0000 </r>
       <r>    2.5616    0.0000 </r>
       <r>    2.6449    0.0000 </r>
      </set>
      <set comment="kpoint 37">
       <r>  -21.5781    1.0000 </r>
       <r>  -21.4672    1.0000 </r>
       <r>   -9.8359    1.0000 </r>
       <r>   -9.0760    1.0000 </r>
       <r>   -9.0614    1.0000 </r>
       <r>   -9.0371    1.0000 </r>
       <r>   -7.9910    1.0000 </r>
       <r>   -7.9797    1.0000 </r>
       <r>    1.7581    0.0000 </r>
       <r>    2.1499    0.0000 </r>
       <r>    2.6416    0.0000 </r>
       <r>    2.7248    0.0000 </r>
      </set>
      <set comment="kpoint 38">
       <r>  -21.5196    1.0000 </r>
       <r>  -21.4091    1.0000 </r>
       <r>   -9.7663    1.0000 </r>
       <r>   -9.2019    1.0000 </r>
       <r>   -9.1858    1.0000 </r>
       <r>   -8.9710    1.0000 </r>
       <r>   -8.0889    1.0000 </r>
       <r>   -8.0774    1.0000 </r>
       <r>    1.8372    0.0000 </r>
       <r>    2.2299    0.0000 </r>
       <r>    2.7239    0.0000 </r>
       <r>    2.8070    0.0000 </r>
      </set>
      <set comment="kpoint 39">
       <r>  -21.4595    1.0000 </r>
       <r>  -21.3494    1.0000 </r>
       <r>   -9.6949    1.0000 </r>
       <r>   -9.3280    1.0000 </r>
       <r>   -9.3116    1.0000 </r>
       <r>   -8.9021    1.0000 </r>
       <r>   -8.1879    1.0000 </r>
       <r>   -8.1761    1.0000 </r>
       <r>    1.9185    0.0000 </r>
       <r>    2.3120    0.0000 </r>
       <r>    2.8084    0.0000 </r>
       <r>    2.8915    0.0000 </r>
      </set>
      <set comment="kpoint 40">
       <r>  -21.3978    1.0000 </r>
       <r>  -21.2882    1.0000 </r>
       <r>   -9.6218    1.0000 </r>
       <r>   -9.4542    1.0000 </r>
       <r>   -9.4375    1.0000 </r>
       <r>   -8.8314    1.0000 </r>
       <r>   -8.2881    1.0000 </r>
       <r>   -8.2760    1.0000 </r>
       <r>    2.0019    0.0000 </r>
       <r>    2.3963    0.0000 </r>
       <r>    2.8951    0.0000 </r>
       <r>    2.9781    0.0000 </r>
      </set>
      <set comment="kpoint 41">
       <r>  -21.3346    1.0000 </r>
       <r>  -21.2255    1.0000 </r>
       <r>   -9.5818    1.0000 </r>
       <r>   -9.5636    1.0000 </r>
       <r>   -9.5454    1.0000 </r>
       <r>   -8.7591    1.0000 </r>
       <r>   -8.3892    1.0000 </r>
       <r>   -8.3769    1.0000 </r>
       <r>    2.0874    0.0000 </r>
       <r>    2.4827    0.0000 </r>
       <r>    2.9842    0.0000 </r>
       <r>    3.0671    0.0000 </r>
      </set>
      <set comment="kpoint 42">
       <r>  -21.2699    1.0000 </r>
       <r>  -21.1612    1.0000 </r>
       <r>   -9.7071    1.0000 </r>
       <r>   -9.6894    1.0000 </r>
       <r>   -9.4698    1.0000 </r>
       <r>   -8.6851    1.0000 </r>
       <r>   -8.4913    1.0000 </r>
       <r>   -8.4787    1.0000 </r>
       <r>    2.1751    0.0000 </r>
       <r>    2.5712    0.0000 </r>
       <r>    3.0754    0.0000 </r>
       <r>    3.1583    0.0000 </r>
      </set>
      <set comment="kpoint 43">
       <r>  -21.2036    1.0000 </r>
       <r>  -21.0954    1.0000 </r>
       <r>   -9.8332    1.0000 </r>
       <r>   -9.8151    1.0000 </r>
       <r>   -9.3914    1.0000 </r>
       <r>   -8.6096    1.0000 </r>
       <r>   -8.5941    1.0000 </r>
       <r>   -8.5814    1.0000 </r>
       <r>    2.2649    0.0000 </r>
       <r>    2.6619    0.0000 </r>
       <r>    3.1689    0.0000 </r>
       <r>    3.2517    0.0000 </r>
      </set>
      <set comment="kpoint 44">
       <r>  -21.1358    1.0000 </r>
       <r>  -21.0281    1.0000 </r>
       <r>   -9.9591    1.0000 </r>
       <r>   -9.9408    1.0000 </r>
       <r>   -9.3113    1.0000 </r>
       <r>   -8.6980    1.0000 </r>
       <r>   -8.6848    1.0000 </r>
       <r>   -8.5322    1.0000 </r>
       <r>    2.3569    0.0000 </r>
       <r>    2.7547    0.0000 </r>
       <r>    3.2647    0.0000 </r>
       <r>    3.3474    0.0000 </r>
      </set>
      <set comment="kpoint 45">
       <r>  -21.0665    1.0000 </r>
       <r>  -20.9593    1.0000 </r>
       <r>  -10.0848    1.0000 </r>
       <r>  -10.0661    1.0000 </r>
       <r>   -9.2295    1.0000 </r>
       <r>   -8.8024    1.0000 </r>
       <r>   -8.7889    1.0000 </r>
       <r>   -8.4533    1.0000 </r>
       <r>    2.4509    0.0000 </r>
       <r>    2.8495    0.0000 </r>
       <r>    3.3628    0.0000 </r>
       <r>    3.4453    0.0000 </r>
      </set>
      <set comment="kpoint 46">
       <r>  -20.9956    1.0000 </r>
       <r>  -20.8889    1.0000 </r>
       <r>  -10.2102    1.0000 </r>
       <r>  -10.1911    1.0000 </r>
       <r>   -9.1459    1.0000 </r>
       <r>   -8.9074    1.0000 </r>
       <r>   -8.8936    1.0000 </r>
       <r>   -8.3729    1.0000 </r>
       <r>    2.5471    0.0000 </r>
       <r>    2.9465    0.0000 </r>
       <r>    3.4630    0.0000 </r>
       <r>    3.5456    0.0000 </r>
      </set>
      <set comment="kpoint 47">
       <r>  -20.9232    1.0000 </r>
       <r>  -20.8171    1.0000 </r>
       <r>  -10.3352    1.0000 </r>
       <r>  -10.3158    1.0000 </r>
       <r>   -9.0608    1.0000 </r>
       <r>   -9.0130    1.0000 </r>
       <r>   -8.9988    1.0000 </r>
       <r>   -8.2909    1.0000 </r>
       <r>    2.6454    0.0000 </r>
       <r>    3.0456    0.0000 </r>
       <r>    3.5655    0.0000 </r>
       <r>    3.6481    0.0000 </r>
      </set>
      <set comment="kpoint 48">
       <r>  -20.8493    1.0000 </r>
       <r>  -20.7437    1.0000 </r>
       <r>  -10.4598    1.0000 </r>
       <r>  -10.4400    1.0000 </r>
       <r>   -9.1190    1.0000 </r>
       <r>   -9.1046    1.0000 </r>
       <r>   -8.9739    1.0000 </r>
       <r>   -8.2073    1.0000 </r>
       <r>    2.7458    0.0000 </r>
       <r>    3.1467    0.0000 </r>
       <r>    3.6703    0.0000 </r>
       <r>    3.6950    0.0000 </r>
      </set>
      <set comment="kpoint 49">
       <r>  -20.7739    1.0000 </r>
       <r>  -20.6689    1.0000 </r>
       <r>  -10.5839    1.0000 </r>
       <r>  -10.5637    1.0000 </r>
       <r>   -9.2254    1.0000 </r>
       <r>   -9.2107    1.0000 </r>
       <r>   -8.8854    1.0000 </r>
       <r>   -8.1223    1.0000 </r>
       <r>    2.8483    0.0000 </r>
       <r>    3.2497    0.0000 </r>
       <r>    3.5419    0.0000 </r>
       <r>    3.7367    0.0000 </r>
      </set>
      <set comment="kpoint 50">
       <r>  -20.6971    1.0000 </r>
       <r>  -20.5926    1.0000 </r>
       <r>  -10.7074    1.0000 </r>
       <r>  -10.6869    1.0000 </r>
       <r>   -9.3322    1.0000 </r>
       <r>   -9.3171    1.0000 </r>
       <r>   -8.7952    1.0000 </r>
       <r>   -8.0357    1.0000 </r>
       <r>    2.9528    0.0000 </r>
       <r>    3.3540    0.0000 </r>
       <r>    3.3890    0.0000 </r>
       <r>    3.5869    0.0000 </r>
      </set>
      <set comment="kpoint 51">
       <r>  -20.6187    1.0000 </r>
       <r>  -20.5148    1.0000 </r>
       <r>  -10.8304    1.0000 </r>
       <r>  -10.8095    1.0000 </r>
       <r>   -9.4392    1.0000 </r>
       <r>   -9.4239    1.0000 </r>
       <r>   -8.7035    1.0000 </r>
       <r>   -7.9477    1.0000 </r>
       <r>    3.0590    0.0000 </r>
       <r>    3.2358    0.0000 </r>
       <r>    3.4263    0.0000 </r>
       <r>    3.4717    0.0000 </r>
      </set>
      <set comment="kpoint 52">
       <r>  -20.5388    1.0000 </r>
       <r>  -20.4355    1.0000 </r>
       <r>  -10.9528    1.0000 </r>
       <r>  -10.9316    1.0000 </r>
       <r>   -9.5465    1.0000 </r>
       <r>   -9.5308    1.0000 </r>
       <r>   -8.6103    1.0000 </r>
       <r>   -7.8582    1.0000 </r>
       <r>    3.0802    0.0000 </r>
       <r>    3.1702    0.0000 </r>
       <r>    3.2832    0.0000 </r>
       <r>    3.5737    0.0000 </r>
      </set>
      <set comment="kpoint 53">
       <r>  -20.4575    1.0000 </r>
       <r>  -20.3548    1.0000 </r>
       <r>  -11.0744    1.0000 </r>
       <r>  -11.0530    1.0000 </r>
       <r>   -9.6538    1.0000 </r>
       <r>   -9.6378    1.0000 </r>
       <r>   -8.5154    1.0000 </r>
       <r>   -7.7673    1.0000 </r>
       <r>    2.9284    0.0000 </r>
       <r>    3.1332    0.0000 </r>
       <r>    3.2799    0.0000 </r>
       <r>    3.6846    0.0000 </r>
      </set>
      <set comment="kpoint 54">
       <r>  -20.3747    1.0000 </r>
       <r>  -20.2726    1.0000 </r>
       <r>  -11.1955    1.0000 </r>
       <r>  -11.1736    1.0000 </r>
       <r>   -9.7612    1.0000 </r>
       <r>   -9.7449    1.0000 </r>
       <r>   -8.4190    1.0000 </r>
       <r>   -7.6750    1.0000 </r>
       <r>    2.7757    0.0000 </r>
       <r>    2.9831    0.0000 </r>
       <r>    3.3927    0.0000 </r>
       <r>    3.7978    0.0000 </r>
      </set>
      <set comment="kpoint 55">
       <r>  -20.2905    1.0000 </r>
       <r>  -20.1890    1.0000 </r>
       <r>  -11.3158    1.0000 </r>
       <r>  -11.2936    1.0000 </r>
       <r>   -9.8686    1.0000 </r>
       <r>   -9.8520    1.0000 </r>
       <r>   -8.3211    1.0000 </r>
       <r>   -7.5813    1.0000 </r>
       <r>    2.6233    0.0000 </r>
       <r>    2.8331    0.0000 </r>
       <r>    3.5077    0.0000 </r>
       <r>    3.9132    0.0000 </r>
      </set>
      <set comment="kpoint 56">
       <r>  -20.2048    1.0000 </r>
       <r>  -20.1040    1.0000 </r>
       <r>  -11.4353    1.0000 </r>
       <r>  -11.4127    1.0000 </r>
       <r>   -9.9759    1.0000 </r>
       <r>   -9.9591    1.0000 </r>
       <r>   -8.2218    1.0000 </r>
       <r>   -7.4863    1.0000 </r>
       <r>    2.4712    0.0000 </r>
       <r>    2.6834    0.0000 </r>
       <r>    3.6247    0.0000 </r>
       <r>    4.0305    0.0000 </r>
      </set>
      <set comment="kpoint 57">
       <r>  -20.1177    1.0000 </r>
       <r>  -20.0175    1.0000 </r>
       <r>  -11.5540    1.0000 </r>
       <r>  -11.5311    1.0000 </r>
       <r>  -10.0832    1.0000 </r>
       <r>  -10.0660    1.0000 </r>
       <r>   -8.1210    1.0000 </r>
       <r>   -7.3900    1.0000 </r>
       <r>    2.3195    0.0000 </r>
       <r>    2.5342    0.0000 </r>
       <r>    3.7438    0.0000 </r>
       <r>    4.1498    0.0000 </r>
      </set>
      <set comment="kpoint 58">
       <r>  -20.0292    1.0000 </r>
       <r>  -19.9297    1.0000 </r>
       <r>  -11.6719    1.0000 </r>
       <r>  -11.6486    1.0000 </r>
[...]
       <r>  -22.5946    1.0000 </r>
       <r>  -22.4761    1.0000 </r>
       <r>  -11.0542    1.0000 </r>
       <r>  -10.2201    1.0000 </r>
       <r>   -6.1159    1.0000 </r>
       <r>   -6.1088    1.0000 </r>
       <r>   -6.0501    1.0000 </r>
       <r>   -6.0431    1.0000 </r>
       <r>    0.3912    0.0000 </r>
       <r>    0.7657    0.0000 </r>
       <r>    1.2227    0.0000 </r>
       <r>    1.3071    0.0000 </r>
      </set>
      <set comment="kpoint 294">
       <r>  -22.6025    1.0000 </r>
       <r>  -22.4840    1.0000 </r>
       <r>  -11.0637    1.0000 </r>
       <r>  -10.2293    1.0000 </r>
       <r>   -6.0891    1.0000 </r>
       <r>   -6.0823    1.0000 </r>
       <r>   -6.0271    1.0000 </r>
       <r>   -6.0203    1.0000 </r>
       <r>    0.3807    0.0000 </r>
       <r>    0.7550    0.0000 </r>
       <r>    1.2117    0.0000 </r>
       <r>    1.2961    0.0000 </r>
      </set>
      <set comment="kpoint 295">
       <r>  -22.6092    1.0000 </r>
       <r>  -22.4906    1.0000 </r>
       <r>  -11.0718    1.0000 </r>
       <r>  -10.2372    1.0000 </r>
       <r>   -6.0677    1.0000 </r>
       <r>   -6.0610    1.0000 </r>
       <r>   -6.0062    1.0000 </r>
       <r>   -5.9994    1.0000 </r>
       <r>    0.3717    0.0000 </r>
       <r>    0.7459    0.0000 </r>
       <r>    1.2024    0.0000 </r>
       <r>    1.2868    0.0000 </r>
      </set>
      <set comment="kpoint 296">
       <r>  -22.6147    1.0000 </r>
       <r>  -22.4961    1.0000 </r>
       <r>  -11.0784    1.0000 </r>
       <r>  -10.2436    1.0000 </r>
       <r>   -6.0513    1.0000 </r>
       <r>   -6.0446    1.0000 </r>
       <r>   -5.9879    1.0000 </r>
       <r>   -5.9811    1.0000 </r>
       <r>    0.3644    0.0000 </r>
       <r>    0.7385    0.0000 </r>
       <r>    1.1948    0.0000 </r>
       <r>    1.2792    0.0000 </r>
      </set>
      <set comment="kpoint 297">
       <r>  -22.6189    1.0000 </r>
       <r>  -22.5003    1.0000 </r>
       <r>  -11.0835    1.0000 </r>
       <r>  -10.2486    1.0000 </r>
       <r>   -6.0390    1.0000 </r>
       <r>   -6.0324    1.0000 </r>
       <r>   -5.9731    1.0000 </r>
       <r>   -5.9663    1.0000 </r>
       <r>    0.3587    0.0000 </r>
       <r>    0.7327    0.0000 </r>
       <r>    1.1889    0.0000 </r>
       <r>    1.2733    0.0000 </r>
      </set>
      <set comment="kpoint 298">
       <r>  -22.6220    1.0000 </r>
       <r>  -22.5033    1.0000 </r>
       <r>  -11.0872    1.0000 </r>
       <r>  -10.2522    1.0000 </r>
       <r>   -6.0305    1.0000 </r>
       <r>   -6.0239    1.0000 </r>
       <r>   -5.9622    1.0000 </r>
       <r>   -5.9555    1.0000 </r>
       <r>    0.3546    0.0000 </r>
       <r>    0.7286    0.0000 </r>
       <r>    1.1846    0.0000 </r>
       <r>    1.2691    0.0000 </r>
      </set>
      <set comment="kpoint 299">
       <r>  -22.6238    1.0000 </r>
       <r>  -22.5052    1.0000 </r>
       <r>  -11.0894    1.0000 </r>
       <r>  -10.2543    1.0000 </r>
       <r>   -6.0255    1.0000 </r>
       <r>   -6.0189    1.0000 </r>
       <r>   -5.9555    1.0000 </r>
       <r>   -5.9488    1.0000 </r>
       <r>    0.3522    0.0000 </r>
       <r>    0.7261    0.0000 </r>
       <r>    1.1821    0.0000 </r>
       <r>    1.2665    0.0000 </r>
      </set>
      <set comment="kpoint 300">
       <r>  -22.6244    1.0000 </r>
       <r>  -22.5058    1.0000 </r>
       <r>  -11.0901    1.0000 </r>
       <r>  -10.2550    1.0000 </r>
       <r>   -6.0238    1.0000 </r>
       <r>   -6.0173    1.0000 </r>
       <r>   -5.9533    1.0000 </r>
       <r>   -5.9466    1.0000 </r>
       <r>    0.3514    0.0000 </r>
       <r>    0.7253    0.0000 </r>
       <r>    1.1813    0.0000 </r>
       <r>    1.2657    0.0000 </r>
      </set>
     </set>
    </set>
   </array>
  </eigenvalues>
  <separator name="orbital magnetization" >
   <v name="MAGDIPOLOUT">      0.00000000      0.00000000      0.00000000</v>
  </separator>
  <dos>
   <i name="efermi">     -3.00582881 </i>
   <total>
    <array>
     <dimension dim="1">gridpoints</dimension>
     <dimension dim="2">spin</dimension>
     <field>energy</field>
     <field>total</field>
     <field>integrated</field>
     <set>
      <set comment="spin 1">
       <r>   -24.6244     0.0000     0.0000 </r>
       <r>   -24.5089     0.0000     0.0000 </r>
       <r>   -24.3934     0.0000     0.0000 </r>
       <r>   -24.2779     0.0000     0.0000 </r>
       <r>   -24.1624     0.0000     0.0000 </r>
       <r>   -24.0469     0.0000     0.0000 </r>
       <r>   -23.9315     0.0000     0.0000 </r>
       <r>   -23.8160     0.0000     0.0000 </r>
       <r>   -23.7005     0.0000     0.0000 </r>
       <r>   -23.5850     0.0000     0.0000 </r>
       <r>   -23.4695     0.0000     0.0000 </r>
       <r>   -23.3540     0.0000     0.0000 </r>
       <r>   -23.2385     0.0000     0.0000 </r>
       <r>   -23.1230     0.0002     0.0000 </r>
       <r>   -23.0075     0.0029     0.0004 </r>
       <r>   -22.8920     0.0281     0.0036 </r>
       <r>   -22.7765     0.1537     0.0214 </r>
       <r>   -22.6611     0.4945     0.0785 </r>
       <r>   -22.5456     0.9861     0.1923 </r>
       <r>   -22.4301     1.3032     0.3429 </r>
       <r>   -22.3146     1.2604     0.4884 </r>
       <r>   -22.1991     1.0346     0.6079 </r>
       <r>   -22.0836     0.8400     0.7049 </r>
       <r>   -21.9681     0.7196     0.7880 </r>
       <r>   -21.8526     0.6434     0.8623 </r>
       <r>   -21.7371     0.5892     0.9304 </r>
       <r>   -21.6216     0.5476     0.9936 </r>
       <r>   -21.5061     0.5141     1.0530 </r>
       <r>   -21.3907     0.4864     1.1092 </r>
       <r>   -21.2752     0.4629     1.1626 </r>
       <r>   -21.1597     0.4427     1.2138 </r>
       <r>   -21.0442     0.4251     1.2629 </r>
       <r>   -20.9287     0.4095     1.3101 </r>
       <r>   -20.8132     0.3956     1.3558 </r>
       <r>   -20.6977     0.3832     1.4001 </r>
       <r>   -20.5822     0.3719     1.4430 </r>
       <r>   -20.4667     0.3617     1.4848 </r>
       <r>   -20.3512     0.3523     1.5255 </r>
       <r>   -20.2358     0.3437     1.5652 </r>
       <r>   -20.1203     0.3358     1.6040 </r>
       <r>   -20.0048     0.3286     1.6419 </r>
       <r>   -19.8893     0.3218     1.6791 </r>
       <r>   -19.7738     0.3157     1.7156 </r>
       <r>   -19.6583     0.3125     1.7517 </r>
       <r>   -19.5428     0.3300     1.7898 </r>
       <r>   -19.4273     0.4332     1.8398 </r>
       <r>   -19.3118     0.7044     1.9212 </r>
       <r>   -19.1963     1.0590     2.0435 </r>
       <r>   -19.0808     1.2359     2.1862 </r>
       <r>   -18.9654     1.1543     2.3195 </r>
       <r>   -18.8499     0.9855     2.4333 </r>
       <r>   -18.7344     0.8589     2.5325 </r>
       <r>   -18.6189     0.7814     2.6228 </r>
       <r>   -18.5034     0.7303     2.7071 </r>
       <r>   -18.3879     0.6932     2.7872 </r>
       <r>   -18.2724     0.6648     2.8639 </r>
       <r>   -18.1569     0.6426     2.9382 </r>
       <r>   -18.0414     0.6256     3.0104 </r>
       <r>   -17.9259     0.6133     3.0812 </r>
       <r>   -17.8104     0.6065     3.1513 </r>
       <r>   -17.6950     0.6086     3.2216 </r>
       <r>   -17.5795     0.6280     3.2941 </r>
       <r>   -17.4640     0.6688     3.3713 </r>
       <r>   -17.3485     0.6871     3.4507 </r>
       <r>   -17.2330     0.6015     3.5202 </r>
       <r>   -17.1175     0.4352     3.5704 </r>
       <r>   -17.0020     0.3084     3.6060 </r>
       <r>   -16.8865     0.2600     3.6361 </r>
       <r>   -16.7710     0.2498     3.6649 </r>
       <r>   -16.6555     0.2489     3.6937 </r>
       <r>   -16.5400     0.2558     3.7232 </r>
       <r>   -16.4246     0.2946     3.7572 </r>
       <r>   -16.3091     0.4049     3.8040 </r>
       <r>   -16.1936     0.5590     3.8685 </r>
       <r>   -16.0781     0.6434     3.9428 </r>
       <r>   -15.9626     0.6277     4.0153 </r>
       <r>   -15.8471     0.5982     4.0844 </r>
       <r>   -15.7316     0.6179     4.1558 </r>
       <r>   -15.6161     0.6850     4.2349 </r>
       <r>   -15.5006     0.7802     4.3250 </r>
       <r>   -15.3851     0.9232     4.4316 </r>
       <r>   -15.2696     1.0925     4.5578 </r>
       <r>   -15.1542     1.1415     4.6896 </r>
       <r>   -15.0387     1.0143     4.8068 </r>
       <r>   -14.9232     0.8433     4.9042 </r>
       <r>   -14.8077     0.7287     4.9883 </r>
       <r>   -14.6922     0.6652     5.0651 </r>
       <r>   -14.5767     0.6265     5.1375 </r>
       <r>   -14.4612     0.5990     5.2067 </r>
       <r>   -14.3457     0.5780     5.2734 </r>
       <r>   -14.2302     0.5611     5.3382 </r>
       <r>   -14.1147     0.5474     5.4014 </r>
       <r>   -13.9992     0.5369     5.4635 </r>
       <r>   -13.8838     0.5370     5.5255 </r>
       <r>   -13.7683     0.5802     5.5925 </r>
       <r>   -13.6528     0.7140     5.6749 </r>
       <r>   -13.5373     0.8952     5.7783 </r>
       <r>   -13.4218     0.9803     5.8915 </r>
       <r>   -13.3063     0.9401     6.0001 </r>
       <r>   -13.1908     0.8739     6.1010 </r>
       <r>   -13.0753     0.8392     6.1980 </r>
       <r>   -12.9598     0.8394     6.2949 </r>
       <r>   -12.8443     0.8673     6.3951 </r>
       <r>   -12.7289     0.8804     6.4967 </r>
       <r>   -12.6134     0.8016     6.5893 </r>
       <r>   -12.4979     0.6436     6.6637 </r>
       <r>   -12.3824     0.5168     6.7233 </r>
       <r>   -12.2669     0.4641     6.7769 </r>
       <r>   -12.1514     0.4494     6.8288 </r>
       <r>   -12.0359     0.4439     6.8801 </r>
       <r>   -11.9204     0.4399     6.9309 </r>
       <r>   -11.8049     0.4365     6.9813 </r>
       <r>   -11.6894     0.4335     7.0314 </r>
       <r>   -11.5739     0.4317     7.0812 </r>
       <r>   -11.4585     0.4381     7.1318 </r>
       <r>   -11.3430     0.4943     7.1889 </r>
       <r>   -11.2275     0.7011     7.2699 </r>
       <r>   -11.1120     1.0837     7.3950 </r>
       <r>   -10.9965     1.3986     7.5566 </r>
       <r>   -10.8810     1.4188     7.7204 </r>
       <r>   -10.7655     1.2646     7.8665 </r>
       <r>   -10.6500     1.1310     7.9971 </r>
       <r>   -10.5345     1.0716     8.1209 </r>
       <r>   -10.4190     1.1142     8.2495 </r>
       <r>   -10.3035     1.3004     8.3997 </r>
       <r>   -10.1881     1.5312     8.5766 </r>
       <r>   -10.0726     1.6039     8.7618 </r>
       <r>    -9.9571     1.5173     8.9370 </r>
       <r>    -9.8416     1.4219     9.1012 </r>
       <r>    -9.7261     1.3958     9.2624 </r>
       <r>    -9.6106     1.4796     9.4333 </r>
       <r>    -9.4951     1.7262     9.6327 </r>
       <r>    -9.3796     2.0438     9.8687 </r>
       <r>    -9.2641     2.1667    10.1190 </r>
       <r>    -9.1486     1.9872    10.3485 </r>
       <r>    -9.0331     1.6411    10.5380 </r>
       <r>    -8.9177     1.3221    10.6907 </r>
       <r>    -8.8022     1.1384    10.8222 </r>
       <r>    -8.6867     1.0594    10.9445 </r>
       <r>    -8.5712     1.0208    11.0624 </r>
       <r>    -8.4557     0.9947    11.1773 </r>
       <r>    -8.3402     0.9745    11.2898 </r>
       <r>    -8.2247     0.9587    11.4006 </r>
       <r>    -8.1092     0.9465    11.5099 </r>
       <r>    -7.9937     0.9373    11.6181 </r>
       <r>    -7.8782     0.9308    11.7256 </r>
       <r>    -7.7627     0.9270    11.8327 </r>
       <r>    -7.6473     0.9261    11.9396 </r>
       <r>    -7.5318     0.9313    12.0472 </r>
       <r>    -7.4163     0.9629    12.1584 </r>
       <r>    -7.3008     1.0709    12.2821 </r>
       <r>    -7.1853     1.2662    12.4283 </r>
       <r>    -7.0698     1.4253    12.5929 </r>
       <r>    -6.9543     1.4429    12.7596 </r>
       <r>    -6.8388     1.3928    12.9204 </r>
       <r>    -6.7233     1.3953    13.0816 </r>
       <r>    -6.6078     1.5239    13.2575 </r>
       <r>    -6.4923     1.7681    13.4617 </r>
       <r>    -6.3769     1.9966    13.6923 </r>
       <r>    -6.2614     2.1601    13.9418 </r>
       <r>    -6.1459     2.3505    14.2133 </r>
       <r>    -6.0304     2.4429    14.4954 </r>
       <r>    -5.9149     2.1212    14.7404 </r>
       <r>    -5.7994     1.5027    14.9139 </r>
       <r>    -5.6839     1.0590    15.0362 </r>
       <r>    -5.5684     0.8989    15.1401 </r>
       <r>    -5.4529     0.8307    15.2360 </r>
       <r>    -5.3374     0.7663    15.3245 </r>
       <r>    -5.2220     0.6659    15.4014 </r>
       <r>    -5.1065     0.4968    15.4588 </r>
       <r>    -4.9910     0.3434    15.4984 </r>
       <r>    -4.8755     0.2730    15.5300 </r>
       <r>    -4.7600     0.2545    15.5594 </r>
       <r>    -4.6445     0.2499    15.5882 </r>
       <r>    -4.5290     0.2474    15.6168 </r>
       <r>    -4.4135     0.2455    15.6451 </r>
       <r>    -4.2980     0.2440    15.6733 </r>
       <r>    -4.1825     0.2429    15.7014 </r>
       <r>    -4.0670     0.2422    15.7293 </r>
       <r>    -3.9516     0.2421    15.7573 </r>
       <r>    -3.8361     0.2426    15.7853 </r>
       <r>    -3.7206     0.2443    15.8135 </r>
       <r>    -3.6051     0.2488    15.8423 </r>
       <r>    -3.4896     0.2588    15.8722 </r>
       <r>    -3.3741     0.2707    15.9034 </r>
       <r>    -3.2586     0.2688    15.9345 </r>
       <r>    -3.1431     0.2579    15.9643 </r>
       <r>    -3.0276     0.2600    15.9943 </r>
       <r>    -2.9121     0.2580    16.0241 </r>
       <r>    -2.7966     0.2497    16.0529 </r>
       <r>    -2.6812     0.2639    16.0834 </r>
       <r>    -2.5657     0.2800    16.1157 </r>
       <r>    -2.4502     0.2751    16.1475 </r>
       <r>    -2.3347     0.2646    16.1781 </r>
       <r>    -2.2192     0.2601    16.2081 </r>
       <r>    -2.1037     0.2600    16.2381 </r>
       <r>    -1.9882     0.2618    16.2684 </r>
       <r>    -1.8727     0.2654    16.2990 </r>
       <r>    -1.7572     0.2753    16.3308 </r>
       <r>    -1.6417     0.3126    16.3669 </r>
       <r>    -1.5262     0.4088    16.4141 </r>
       <r>    -1.4108     0.5409    16.4766 </r>
       <r>    -1.2953     0.6373    16.5502 </r>
       <r>    -1.1798     0.7011    16.6312 </r>
       <r>    -1.0643     0.7500    16.7178 </r>
       <r>    -0.9488     0.7423    16.8035 </r>
       <r>    -0.8333     0.6884    16.8830 </r>
       <r>    -0.7178     0.6395    16.9569 </r>
       <r>    -0.6023     0.6102    17.0273 </r>
       <r>    -0.4868     0.5928    17.0958 </r>
       <r>    -0.3713     0.5814    17.1630 </r>
       <r>    -0.2558     0.5735    17.2292 </r>
       <r>    -0.1404     0.5685    17.2948 </r>
       <r>    -0.0249     0.5684    17.3605 </r>
       <r>     0.0906     0.5905    17.4287 </r>
       <r>     0.2061     0.6906    17.5084 </r>
       <r>     0.3216     0.9136    17.6140 </r>
       <r>     0.4371     1.1551    17.7474 </r>
       <r>     0.5526     1.2906    17.8964 </r>
       <r>     0.6681     1.4252    18.0610 </r>
       <r>     0.7836     1.6219    18.2483 </r>
       <r>     0.8991     1.7035    18.4451 </r>
       <r>     1.0146     1.6547    18.6362 </r>
       <r>     1.1300     1.7259    18.8355 </r>
       <r>     1.2455     1.9421    19.0598 </r>
       <r>     1.3610     1.9994    19.2907 </r>
       <r>     1.4765     1.7877    19.4972 </r>
       <r>     1.5920     1.5088    19.6714 </r>
       <r>     1.7075     1.3106    19.8228 </r>
       <r>     1.8230     1.1887    19.9600 </r>
       <r>     1.9385     1.1065    20.0878 </r>
       <r>     2.0540     1.0447    20.2085 </r>
       <r>     2.1695     0.9952    20.3234 </r>
       <r>     2.2849     0.9542    20.4336 </r>
       <r>     2.4004     0.9196    20.5398 </r>
       <r>     2.5159     0.8899    20.6426 </r>
       <r>     2.6314     0.8646    20.7424 </r>
       <r>     2.7469     0.8436    20.8399 </r>
       <r>     2.8624     0.8271    20.9354 </r>
       <r>     2.9779     0.8115    21.0291 </r>
       <r>     3.0934     0.7831    21.1196 </r>
       <r>     3.2089     0.7358    21.2045 </r>
       <r>     3.3244     0.6974    21.2851 </r>
       <r>     3.4399     0.6912    21.3649 </r>
       <r>     3.5553     0.6818    21.4436 </r>
       <r>     3.6708     0.6069    21.5137 </r>
       <r>     3.7863     0.4662    21.5676 </r>
       <r>     3.9018     0.3356    21.6063 </r>
       <r>     4.0173     0.2735    21.6379 </r>
       <r>     4.1328     0.2999    21.6726 </r>
       <r>     4.2483     0.4811    21.7281 </r>
       <r>     4.3638     0.8827    21.8301 </r>
       <r>     4.4793     1.3613    21.9873 </r>
       <r>     4.5948     1.5834    22.1702 </r>
       <r>     4.7103     1.4179    22.3339 </r>
       <r>     4.8257     1.1431    22.4659 </r>
       <r>     4.9412     0.9866    22.5799 </r>
       <r>     5.0567     0.8635    22.6796 </r>
       <r>     5.1722     0.7621    22.7676 </r>
       <r>     5.2877     0.7643    22.8559 </r>
       <r>     5.4032     0.7731    22.9452 </r>
       <r>     5.5187     0.6828    23.0240 </r>
       <r>     5.6342     0.5661    23.0894 </r>
       <r>     5.7497     0.4944    23.1465 </r>
       <r>     5.8652     0.4463    23.1980 </r>
       <r>     5.9807     0.3907    23.2432 </r>
       <r>     6.0961     0.3269    23.2809 </r>
       <r>     6.2116     0.2617    23.3111 </r>
       <r>     6.3271     0.2055    23.3349 </r>
       <r>     6.4426     0.1725    23.3548 </r>
       <r>     6.5581     0.1609    23.3734 </r>
       <r>     6.6736     0.1584    23.3917 </r>
       <r>     6.7891     0.1583    23.4099 </r>
       <r>     6.9046     0.1592    23.4283 </r>
       <r>     7.0201     0.1614    23.4470 </r>
       <r>     7.1356     0.1685    23.4664 </r>
       <r>     7.2511     0.2042    23.4900 </r>
       <r>     7.3665     0.3462    23.5300 </r>
       <r>     7.4820     0.6591    23.6061 </r>
       <r>     7.5975     0.9672    23.7178 </r>
       <r>     7.7130     0.9749    23.8304 </r>
       <r>     7.8285     0.7143    23.9129 </r>
       <r>     7.9440     0.4235    23.9618 </r>
       <r>     8.0595     0.2137    23.9865 </r>
       <r>     8.1750     0.0868    23.9965 </r>
       <r>     8.2905     0.0251    23.9994 </r>
       <r>     8.4060     0.0046    23.9999 </r>
       <r>     8.5215     0.0005    24.0000 </r>
       <r>     8.6369     0.0000    24.0000 </r>
       <r>     8.7524     0.0000    24.0000 </r>
       <r>     8.8679     0.0000    24.0000 </r>
       <r>     8.9834     0.0000    24.0000 </r>
       <r>     9.0989     0.0000    24.0000 </r>
       <r>     9.2144     0.0000    24.0000 </r>
       <r>     9.3299     0.0000    24.0000 </r>
       <r>     9.4454     0.0000    24.0000 </r>
       <r>     9.5609     0.0000    24.0000 </r>
       <r>     9.6764     0.0000    24.0000 </r>
       <r>     9.7918     0.0000    24.0000 </r>
       <r>     9.9073     0.0000    24.0000 </r>
       <r>    10.0228     0.0000    24.0000 </r>
      </set>
     </set>
    </array>
   </total>
  </dos>
 </calculation>
 <structure name="finalpos" >
  <crystal>
   <varray name="basis" >
    <v>       2.13036000      -1.23000000       0.00000000 </v>
    <v>       2.13036000       1.23000000       0.00000000 </v>
    <v>       0.00000000       0.00000000      49.20000000 </v>
   </varray>
   <i name="volume">    257.84173152 </i>
   <varray name="rec_basis" >
    <v>       0.23470212      -0.40650407       0.00000000 </v>
    <v>       0.23470212       0.40650407       0.00000000 </v>
    <v>       0.00000000       0.00000000       0.02032520 </v>
   </varray>
  </crystal>
  <varray name="positions" >
   <v>       0.00000000       0.00000000       0.00000000 </v>
   <v>       0.66670000       0.66670000       0.00000000 </v>
   <v>       0.00000000       0.00000000       0.07032520 </v>
   <v>       0.33330000       0.33330000       0.07032520 </v>
  </varray>
 </structure>
</modeling>
