graphene (bilayer)                      
           1
     2.130360   -1.230000    0.000000
     2.130360    1.230000    0.000000
     0.000000    0.000000   49.200000
   C 
   4
Direct configuration=     1
   0.00000000  0.00000000  0.00000000
   0.66670000  0.66670000  0.00000000
   0.00000000  0.00000000  0.07032520
   0.33330000  0.33330000  0.07032520
