   2   2   1   0
  0.1968300E+02  0.3818377E-09  0.3818377E-09  0.3818377E-09  0.5000000E-15
  1.000000000000000E-004
  CAR 
 Si                                      
     18.13837537     -8.08123779  301      6.00087945      1.00000000
     -8.081  0.0000E+00  0.0000E+00
     -7.994  0.0000E+00  0.0000E+00
     -7.906  0.0000E+00  0.0000E+00
     -7.819  0.0000E+00  0.0000E+00
     -7.732  0.0000E+00  0.0000E+00
     -7.644  0.0000E+00  0.0000E+00
     -7.557  0.0000E+00  0.0000E+00
     -7.469  0.0000E+00  0.0000E+00
     -7.382  0.0000E+00  0.0000E+00
     -7.295  0.0000E+00  0.0000E+00
     -7.207  0.0000E+00  0.0000E+00
     -7.120  0.0000E+00  0.0000E+00
     -7.032  0.0000E+00  0.0000E+00
     -6.945  0.0000E+00  0.0000E+00
     -6.858  0.0000E+00  0.0000E+00
     -6.770  0.0000E+00  0.0000E+00
     -6.683  0.0000E+00  0.0000E+00
     -6.595  0.0000E+00  0.0000E+00
     -6.508  0.0000E+00  0.0000E+00
     -6.421  0.0000E+00  0.0000E+00
     -6.333  0.0000E+00  0.0000E+00
     -6.246  0.0000E+00  0.0000E+00
     -6.158  0.0000E+00  0.0000E+00
     -6.071  0.3488E-01  0.3220E-03
     -5.984  0.1052E+00  0.7146E-02
     -5.896  0.1463E+00  0.1832E-01
     -5.809  0.1780E+00  0.3262E-01
     -5.721  0.2061E+00  0.4949E-01
     -5.634  0.2315E+00  0.6858E-01
     -5.547  0.2531E+00  0.8980E-01
     -5.459  0.2762E+00  0.1129E+00
     -5.372  0.2951E+00  0.1379E+00
     -5.284  0.3161E+00  0.1646E+00
     -5.197  0.3339E+00  0.1930E+00
     -5.110  0.3536E+00  0.2230E+00
     -5.022  0.3710E+00  0.2547E+00
     -4.935  0.3896E+00  0.2879E+00
     -4.847  0.4082E+00  0.3228E+00
     -4.760  0.4259E+00  0.3592E+00
     -4.673  0.4452E+00  0.3973E+00
     -4.585  0.4639E+00  0.4370E+00
     -4.498  0.4832E+00  0.4784E+00
     -4.410  0.5044E+00  0.5216E+00
     -4.323  0.5257E+00  0.5666E+00
     -4.236  0.5487E+00  0.6135E+00
     -4.148  0.5747E+00  0.6626E+00
     -4.061  0.6035E+00  0.7140E+00
     -3.973  0.6364E+00  0.7682E+00
     -3.886  0.6790E+00  0.8256E+00
     -3.799  0.7397E+00  0.8874E+00
     -3.711  0.8765E+00  0.9574E+00
     -3.624  0.8555E+00  0.1034E+01
     -3.537  0.8329E+00  0.1108E+01
     -3.449  0.8022E+00  0.1180E+01
     -3.362  0.7750E+00  0.1249E+01
     -3.274  0.7443E+00  0.1315E+01
     -3.187  0.7185E+00  0.1379E+01
     -3.100  0.6909E+00  0.1441E+01
     -3.012  0.6595E+00  0.1500E+01
     -2.925  0.6311E+00  0.1556E+01
     -2.837  0.6030E+00  0.1610E+01
     -2.750  0.5696E+00  0.1661E+01
     -2.663  0.5407E+00  0.1710E+01
     -2.575  0.5091E+00  0.1756E+01
     -2.488  0.4734E+00  0.1799E+01
     -2.400  0.4425E+00  0.1839E+01
     -2.313  0.4077E+00  0.1876E+01
     -2.226  0.3616E+00  0.1910E+01
     -2.138  0.3255E+00  0.1940E+01
     -2.051  0.4112E+00  0.1973E+01
     -1.963  0.1225E+00  0.1993E+01
     -1.876  0.0000E+00  0.2000E+01
     -1.789  0.0000E+00  0.2000E+01
     -1.701  0.0000E+00  0.2000E+01
     -1.614  0.2042E+00  0.2014E+01
     -1.526  0.2508E+00  0.2036E+01
     -1.439  0.2889E+00  0.2059E+01
     -1.352  0.3435E+00  0.2087E+01
     -1.264  0.4017E+00  0.2120E+01
     -1.177  0.4547E+00  0.2157E+01
     -1.089  0.5195E+00  0.2199E+01
     -1.002  0.8369E+00  0.2256E+01
     -0.915  0.1256E+01  0.2347E+01
     -0.827  0.1683E+01  0.2498E+01
     -0.740  0.1119E+01  0.2614E+01
     -0.652  0.9367E+00  0.2703E+01
     -0.565  0.8250E+00  0.2780E+01
     -0.478  0.7460E+00  0.2848E+01
     -0.390  0.6840E+00  0.2910E+01
     -0.303  0.6344E+00  0.2968E+01
     -0.215  0.5919E+00  0.3022E+01
     -0.128  0.5555E+00  0.3072E+01
     -0.041  0.5229E+00  0.3119E+01
      0.047  0.4933E+00  0.3163E+01
      0.134  0.4672E+00  0.3205E+01
      0.222  0.4429E+00  0.3245E+01
      0.309  0.4210E+00  0.3283E+01
      0.396  0.4002E+00  0.3318E+01
      0.484  0.3807E+00  0.3353E+01
      0.571  0.3630E+00  0.3385E+01
      0.659  0.3460E+00  0.3416E+01
      0.746  0.3302E+00  0.3446E+01
      0.833  0.3152E+00  0.3474E+01
      0.921  0.3007E+00  0.3501E+01
      1.008  0.2874E+00  0.3526E+01
      1.096  0.2746E+00  0.3551E+01
      1.183  0.2623E+00  0.3574E+01
      1.270  0.2509E+00  0.3597E+01
      1.358  0.2397E+00  0.3618E+01
      1.445  0.2290E+00  0.3639E+01
      1.533  0.4264E+00  0.3663E+01
      1.620  0.6802E+00  0.3712E+01
      1.707  0.8865E+00  0.3780E+01
      1.795  0.1289E+01  0.3872E+01
      1.882  0.1178E+01  0.3979E+01
      1.970  0.1129E+01  0.4080E+01
      2.057  0.1039E+01  0.4175E+01
      2.144  0.1001E+01  0.4263E+01
      2.232  0.1008E+01  0.4351E+01
      2.319  0.1002E+01  0.4438E+01
      2.407  0.1017E+01  0.4526E+01
      2.494  0.1033E+01  0.4616E+01
      2.581  0.1056E+01  0.4707E+01
      2.669  0.1084E+01  0.4801E+01
      2.756  0.1118E+01  0.4897E+01
      2.844  0.1166E+01  0.4996E+01
      2.931  0.1223E+01  0.5101E+01
      3.018  0.1322E+01  0.5212E+01
      3.106  0.1531E+01  0.5336E+01
      3.193  0.1493E+01  0.5469E+01
      3.281  0.1467E+01  0.5598E+01
      3.368  0.1450E+01  0.5726E+01
      3.455  0.1416E+01  0.5851E+01
      3.543  0.1401E+01  0.5975E+01
      3.630  0.1365E+01  0.6095E+01
      3.718  0.1355E+01  0.6215E+01
      3.805  0.1325E+01  0.6332E+01
      3.892  0.1307E+01  0.6447E+01
      3.980  0.1286E+01  0.6560E+01
      4.067  0.1259E+01  0.6671E+01
      4.155  0.1246E+01  0.6781E+01
      4.242  0.1216E+01  0.6888E+01
      4.329  0.1200E+01  0.6994E+01
      4.417  0.1191E+01  0.7098E+01
      4.504  0.1160E+01  0.7201E+01
      4.592  0.1142E+01  0.7301E+01
      4.679  0.1137E+01  0.7401E+01
      4.766  0.1019E+01  0.7498E+01
      4.854  0.8261E+00  0.7577E+01
      4.941  0.6934E+00  0.7643E+01
      5.029  0.6191E+00  0.7700E+01
      5.116  0.5459E+00  0.7751E+01
      5.203  0.4809E+00  0.7796E+01
      5.291  0.4324E+00  0.7836E+01
      5.378  0.3732E+00  0.7871E+01
      5.466  0.3481E+00  0.7902E+01
      5.553  0.2791E+00  0.7929E+01
      5.640  0.2375E+00  0.7952E+01
      5.728  0.1969E+00  0.7971E+01
      5.815  0.1449E+00  0.7986E+01
      5.903  0.7329E-01  0.7996E+01
      5.990  0.0000E+00  0.8000E+01
      6.077  0.0000E+00  0.8000E+01
      6.165  0.0000E+00  0.8000E+01
      6.252  0.0000E+00  0.8000E+01
      6.340  0.0000E+00  0.8000E+01
      6.427  0.0000E+00  0.8000E+01
      6.514  0.0000E+00  0.8000E+01
      6.602  0.6129E-01  0.8002E+01
      6.689  0.1523E+00  0.8011E+01
      6.777  0.2105E+00  0.8028E+01
      6.864  0.2942E+00  0.8050E+01
      6.951  0.3458E+00  0.8079E+01
      7.039  0.3911E+00  0.8111E+01
      7.126  0.4447E+00  0.8148E+01
      7.214  0.4887E+00  0.8189E+01
      7.301  0.5314E+00  0.8233E+01
      7.388  0.5729E+00  0.8282E+01
      7.476  0.6275E+00  0.8334E+01
      7.563  0.6614E+00  0.8390E+01
      7.651  0.7404E+00  0.8451E+01
      7.738  0.8423E+00  0.8520E+01
      7.825  0.9119E+00  0.8596E+01
      7.913  0.9957E+00  0.8679E+01
      8.000  0.1099E+01  0.8771E+01
      8.088  0.1205E+01  0.8871E+01
      8.175  0.1385E+01  0.8984E+01
      8.262  0.1646E+01  0.9118E+01
      8.350  0.1640E+01  0.9260E+01
      8.437  0.1583E+01  0.9400E+01
      8.525  0.1568E+01  0.9536E+01
      8.612  0.1422E+01  0.9666E+01
      8.699  0.1254E+01  0.9782E+01
      8.787  0.1199E+01  0.9889E+01
      8.874  0.1122E+01  0.9989E+01
      8.962  0.1122E+01  0.1009E+02
      9.049  0.1084E+01  0.1018E+02
      9.136  0.9746E+00  0.1027E+02
      9.224  0.1303E+01  0.1037E+02
      9.311  0.2313E+01  0.1053E+02
      9.399  0.2199E+01  0.1073E+02
      9.486  0.1781E+01  0.1091E+02
      9.573  0.1648E+01  0.1105E+02
      9.661  0.1657E+01  0.1119E+02
      9.748  0.1727E+01  0.1134E+02
      9.835  0.1701E+01  0.1149E+02
      9.923  0.1610E+01  0.1164E+02
     10.010  0.1338E+01  0.1177E+02
     10.098  0.1195E+01  0.1188E+02
     10.185  0.1142E+01  0.1198E+02
     10.272  0.1105E+01  0.1208E+02
     10.360  0.1126E+01  0.1217E+02
     10.447  0.1194E+01  0.1228E+02
     10.535  0.1376E+01  0.1239E+02
     10.622  0.1267E+01  0.1251E+02
     10.709  0.1214E+01  0.1262E+02
     10.797  0.1191E+01  0.1272E+02
     10.884  0.1226E+01  0.1283E+02
     10.972  0.1207E+01  0.1293E+02
     11.059  0.1188E+01  0.1304E+02
     11.146  0.1194E+01  0.1314E+02
     11.234  0.1176E+01  0.1325E+02
     11.321  0.1169E+01  0.1335E+02
     11.409  0.1151E+01  0.1345E+02
     11.496  0.1160E+01  0.1355E+02
     11.583  0.1156E+01  0.1365E+02
     11.671  0.1130E+01  0.1375E+02
     11.758  0.1088E+01  0.1385E+02
     11.846  0.1061E+01  0.1394E+02
     11.933  0.1045E+01  0.1404E+02
     12.020  0.1027E+01  0.1413E+02
     12.108  0.1007E+01  0.1422E+02
     12.195  0.9860E+00  0.1430E+02
     12.283  0.9897E+00  0.1439E+02
     12.370  0.9618E+00  0.1448E+02
     12.457  0.8701E+00  0.1456E+02
     12.545  0.8481E+00  0.1463E+02
     12.632  0.8775E+00  0.1470E+02
     12.720  0.9678E+00  0.1479E+02
     12.807  0.9753E+00  0.1487E+02
     12.894  0.9336E+00  0.1495E+02
     12.982  0.8365E+00  0.1503E+02
     13.069  0.7680E+00  0.1510E+02
     13.157  0.7111E+00  0.1517E+02
     13.244  0.6798E+00  0.1523E+02
     13.331  0.6455E+00  0.1529E+02
     13.419  0.6198E+00  0.1534E+02
     13.506  0.5902E+00  0.1539E+02
     13.594  0.5634E+00  0.1544E+02
     13.681  0.5497E+00  0.1549E+02
     13.768  0.5886E+00  0.1554E+02
     13.856  0.6883E+00  0.1560E+02
     13.943  0.5448E+00  0.1565E+02
     14.031  0.4840E+00  0.1570E+02
     14.118  0.4024E+00  0.1573E+02
     14.205  0.3493E+00  0.1577E+02
     14.293  0.2441E+00  0.1579E+02
     14.380  0.2306E+00  0.1581E+02
     14.468  0.2141E+00  0.1583E+02
     14.555  0.2003E+00  0.1585E+02
     14.642  0.1878E+00  0.1586E+02
     14.730  0.1743E+00  0.1588E+02
     14.817  0.1558E+00  0.1590E+02
     14.905  0.1457E+00  0.1591E+02
     14.992  0.1332E+00  0.1592E+02
     15.079  0.1220E+00  0.1593E+02
     15.167  0.1135E+00  0.1594E+02
     15.254  0.1015E+00  0.1595E+02
     15.342  0.9150E-01  0.1596E+02
     15.429  0.7987E-01  0.1597E+02
     15.516  0.6941E-01  0.1597E+02
     15.604  0.6026E-01  0.1598E+02
     15.691  0.5601E-01  0.1598E+02
     15.779  0.4562E-01  0.1599E+02
     15.866  0.3541E-01  0.1599E+02
     15.953  0.2697E-01  0.1600E+02
     16.041  0.2491E-01  0.1600E+02
     16.128  0.9086E-02  0.1600E+02
     16.216  0.0000E+00  0.1600E+02
     16.303  0.0000E+00  0.1600E+02
     16.390  0.0000E+00  0.1600E+02
     16.478  0.0000E+00  0.1600E+02
     16.565  0.0000E+00  0.1600E+02
     16.653  0.0000E+00  0.1600E+02
     16.740  0.0000E+00  0.1600E+02
     16.827  0.0000E+00  0.1600E+02
     16.915  0.0000E+00  0.1600E+02
     17.002  0.0000E+00  0.1600E+02
     17.090  0.0000E+00  0.1600E+02
     17.177  0.0000E+00  0.1600E+02
     17.264  0.0000E+00  0.1600E+02
     17.352  0.0000E+00  0.1600E+02
     17.439  0.0000E+00  0.1600E+02
     17.527  0.0000E+00  0.1600E+02
     17.614  0.0000E+00  0.1600E+02
     17.701  0.0000E+00  0.1600E+02
     17.789  0.0000E+00  0.1600E+02
     17.876  0.0000E+00  0.1600E+02
     17.964  0.0000E+00  0.1600E+02
     18.051  0.0000E+00  0.1600E+02
     18.138  0.0000E+00  0.1600E+02
     18.13837537     -8.08123779  301      6.00087945      1.00000000
     -8.081  0.0000E+00  0.0000E+00  0.0000E+00
     -7.994  0.0000E+00  0.0000E+00  0.0000E+00
     -7.906  0.0000E+00  0.0000E+00  0.0000E+00
     -7.819  0.0000E+00  0.0000E+00  0.0000E+00
     -7.732  0.0000E+00  0.0000E+00  0.0000E+00
     -7.644  0.0000E+00  0.0000E+00  0.0000E+00
     -7.557  0.0000E+00  0.0000E+00  0.0000E+00
     -7.469  0.0000E+00  0.0000E+00  0.0000E+00
     -7.382  0.0000E+00  0.0000E+00  0.0000E+00
     -7.295  0.0000E+00  0.0000E+00  0.0000E+00
     -7.207  0.0000E+00  0.0000E+00  0.0000E+00
     -7.120  0.0000E+00  0.0000E+00  0.0000E+00
     -7.032  0.0000E+00  0.0000E+00  0.0000E+00
     -6.945  0.0000E+00  0.0000E+00  0.0000E+00
     -6.858  0.0000E+00  0.0000E+00  0.0000E+00
     -6.770  0.0000E+00  0.0000E+00  0.0000E+00
     -6.683  0.0000E+00  0.0000E+00  0.0000E+00
     -6.595  0.0000E+00  0.0000E+00  0.0000E+00
     -6.508  0.0000E+00  0.0000E+00  0.0000E+00
     -6.421  0.0000E+00  0.0000E+00  0.0000E+00
     -6.333  0.0000E+00  0.0000E+00  0.0000E+00
     -6.246  0.0000E+00  0.0000E+00  0.0000E+00
     -6.158  0.0000E+00  0.0000E+00  0.0000E+00
     -6.071  0.1115E-01  0.1574E-04  0.9988E-06
     -5.984  0.3350E-01  0.2479E-03  0.1535E-04
     -5.896  0.4641E-01  0.6088E-03  0.3928E-04
     -5.809  0.5624E-01  0.1063E-02  0.7146E-04
     -5.721  0.6488E-01  0.1599E-02  0.1118E-03
     -5.634  0.7265E-01  0.2191E-02  0.1593E-03
     -5.547  0.7913E-01  0.2851E-02  0.2155E-03
     -5.459  0.8607E-01  0.3568E-02  0.2800E-03
     -5.372  0.9165E-01  0.4330E-02  0.3530E-03
     -5.284  0.9787E-01  0.5132E-02  0.4336E-03
     -5.197  0.1031E+00  0.5988E-02  0.5251E-03
     -5.110  0.1088E+00  0.6887E-02  0.6259E-03
     -5.022  0.1139E+00  0.7816E-02  0.7361E-03
     -4.935  0.1193E+00  0.8806E-02  0.8600E-03
     -4.847  0.1246E+00  0.9825E-02  0.9938E-03
     -4.760  0.1297E+00  0.1089E-01  0.1142E-02
     -4.673  0.1353E+00  0.1199E-01  0.1303E-02
     -4.585  0.1407E+00  0.1314E-01  0.1481E-02
     -4.498  0.1463E+00  0.1433E-01  0.1677E-02
     -4.410  0.1526E+00  0.1558E-01  0.1891E-02
     -4.323  0.1588E+00  0.1690E-01  0.2133E-02
     -4.236  0.1656E+00  0.1827E-01  0.2400E-02
     -4.148  0.1734E+00  0.1974E-01  0.2702E-02
     -4.061  0.1821E+00  0.2132E-01  0.3050E-02
     -3.973  0.1922E+00  0.2306E-01  0.3460E-02
     -3.886  0.2053E+00  0.2507E-01  0.3970E-02
     -3.799  0.2244E+00  0.2758E-01  0.4668E-02
     -3.711  0.2679E+00  0.3225E-01  0.6124E-02
     -3.624  0.2608E+00  0.3282E-01  0.6161E-02
     -3.537  0.2531E+00  0.3336E-01  0.6178E-02
     -3.449  0.2429E+00  0.3352E-01  0.6116E-02
     -3.362  0.2339E+00  0.3371E-01  0.6079E-02
     -3.274  0.2239E+00  0.3368E-01  0.5997E-02
     -3.187  0.2154E+00  0.3367E-01  0.5938E-02
     -3.100  0.2064E+00  0.3361E-01  0.5878E-02
     -3.012  0.1963E+00  0.3322E-01  0.5756E-02
     -2.925  0.1872E+00  0.3291E-01  0.5657E-02
     -2.837  0.1783E+00  0.3244E-01  0.5535E-02
     -2.750  0.1678E+00  0.3163E-01  0.5354E-02
     -2.663  0.1586E+00  0.3108E-01  0.5231E-02
     -2.575  0.1487E+00  0.3015E-01  0.5038E-02
     -2.488  0.1377E+00  0.2884E-01  0.4771E-02
     -2.400  0.1281E+00  0.2779E-01  0.4565E-02
     -2.313  0.1174E+00  0.2652E-01  0.4320E-02
     -2.226  0.1035E+00  0.2421E-01  0.3891E-02
     -2.138  0.9257E-01  0.2243E-01  0.3546E-02
     -2.051  0.1146E+00  0.3014E-01  0.4432E-02
     -1.963  0.3468E-01  0.8799E-02  0.1407E-02
     -1.876  0.0000E+00  0.0000E+00  0.0000E+00
     -1.789  0.0000E+00  0.0000E+00  0.0000E+00
     -1.701  0.0000E+00  0.0000E+00  0.0000E+00
     -1.614  0.5439E-01  0.1755E-01  0.2425E-02
     -1.526  0.6682E-01  0.2186E-01  0.3080E-02
     -1.439  0.7647E-01  0.2568E-01  0.3592E-02
     -1.352  0.9031E-01  0.3117E-01  0.4322E-02
     -1.264  0.1044E+00  0.3763E-01  0.5163E-02
     -1.177  0.1167E+00  0.4400E-01  0.5926E-02
     -1.089  0.1314E+00  0.5180E-01  0.6778E-02
     -1.002  0.1825E+00  0.1003E+00  0.8622E-02
     -0.915  0.2552E+00  0.1621E+00  0.1194E-01
     -0.827  0.3335E+00  0.2234E+00  0.1610E-01
     -0.740  0.2257E+00  0.1473E+00  0.1163E-01
     -0.652  0.1898E+00  0.1236E+00  0.1028E-01
     -0.565  0.1672E+00  0.1096E+00  0.9487E-02
     -0.478  0.1509E+00  0.9993E-01  0.8963E-02
     -0.390  0.1379E+00  0.9252E-01  0.8543E-02
     -0.303  0.1274E+00  0.8660E-01  0.8205E-02
     -0.215  0.1183E+00  0.8164E-01  0.7917E-02
     -0.128  0.1104E+00  0.7745E-01  0.7680E-02
     -0.041  0.1032E+00  0.7376E-01  0.7468E-02
      0.047  0.9669E-01  0.7038E-01  0.7266E-02
      0.134  0.9097E-01  0.6738E-01  0.7079E-02
      0.222  0.8558E-01  0.6460E-01  0.6904E-02
      0.309  0.8073E-01  0.6211E-01  0.6751E-02
      0.396  0.7609E-01  0.5976E-01  0.6602E-02
      0.484  0.7176E-01  0.5750E-01  0.6453E-02
      0.571  0.6787E-01  0.5542E-01  0.6309E-02
      0.659  0.6411E-01  0.5343E-01  0.6170E-02
      0.746  0.6063E-01  0.5158E-01  0.6042E-02
      0.833  0.5731E-01  0.4981E-01  0.5917E-02
      0.921  0.5415E-01  0.4807E-01  0.5788E-02
      1.008  0.5126E-01  0.4643E-01  0.5662E-02
      1.096  0.4850E-01  0.4486E-01  0.5540E-02
      1.183  0.4584E-01  0.4333E-01  0.5420E-02
      1.270  0.4337E-01  0.4191E-01  0.5308E-02
      1.358  0.4099E-01  0.4049E-01  0.5191E-02
      1.445  0.3873E-01  0.3909E-01  0.5070E-02
      1.533  0.3774E-01  0.9045E-01  0.6706E-02
      1.620  0.3806E-01  0.1562E+00  0.9112E-02
      1.707  0.3897E-01  0.2101E+00  0.1140E-01
      1.795  0.4249E-01  0.3145E+00  0.1592E-01
      1.882  0.4243E-01  0.2872E+00  0.1545E-01
      1.970  0.4240E-01  0.2758E+00  0.1546E-01
      2.057  0.4211E-01  0.2538E+00  0.1504E-01
      2.144  0.4163E-01  0.2452E+00  0.1505E-01
      2.232  0.4107E-01  0.2490E+00  0.1560E-01
      2.319  0.4029E-01  0.2495E+00  0.1597E-01
      2.407  0.3959E-01  0.2553E+00  0.1657E-01
      2.494  0.3874E-01  0.2620E+00  0.1717E-01
      2.581  0.3782E-01  0.2708E+00  0.1789E-01
      2.669  0.3685E-01  0.2814E+00  0.1864E-01
      2.756  0.3581E-01  0.2940E+00  0.1946E-01
      2.844  0.3479E-01  0.3111E+00  0.2045E-01
      2.931  0.3367E-01  0.3312E+00  0.2153E-01
      3.018  0.3242E-01  0.3650E+00  0.2295E-01
      3.106  0.3123E-01  0.4342E+00  0.2533E-01
      3.193  0.2990E-01  0.4253E+00  0.2606E-01
      3.281  0.2847E-01  0.4203E+00  0.2678E-01
      3.368  0.2720E-01  0.4180E+00  0.2764E-01
      3.455  0.2596E-01  0.4102E+00  0.2820E-01
      3.543  0.2460E-01  0.4087E+00  0.2908E-01
      3.630  0.2331E-01  0.4004E+00  0.2945E-01
      3.718  0.2210E-01  0.4003E+00  0.3038E-01
      3.805  0.2085E-01  0.3937E+00  0.3082E-01
      3.892  0.1955E-01  0.3913E+00  0.3153E-01
      3.980  0.1837E-01  0.3875E+00  0.3209E-01
      4.067  0.1718E-01  0.3818E+00  0.3250E-01
      4.155  0.1593E-01  0.3809E+00  0.3326E-01
      4.242  0.1470E-01  0.3745E+00  0.3353E-01
      4.329  0.1347E-01  0.3724E+00  0.3410E-01
      4.417  0.1216E-01  0.3729E+00  0.3493E-01
      4.504  0.1101E-01  0.3659E+00  0.3505E-01
      4.592  0.9831E-02  0.3632E+00  0.3554E-01
      4.679  0.8740E-02  0.3651E+00  0.3648E-01
      4.766  0.7801E-02  0.3281E+00  0.3400E-01
      4.854  0.6945E-02  0.2650E+00  0.2950E-01
      4.941  0.6072E-02  0.2220E+00  0.2601E-01
      5.029  0.5308E-02  0.1986E+00  0.2432E-01
      5.116  0.4529E-02  0.1755E+00  0.2248E-01
      5.203  0.3844E-02  0.1548E+00  0.2066E-01
      5.291  0.3194E-02  0.1397E+00  0.1944E-01
      5.378  0.2619E-02  0.1208E+00  0.1749E-01
      5.466  0.2091E-02  0.1131E+00  0.1703E-01
      5.553  0.1576E-02  0.9079E-01  0.1427E-01
      5.640  0.1135E-02  0.7744E-01  0.1271E-01
      5.728  0.7509E-03  0.6439E-01  0.1104E-01
      5.815  0.4172E-03  0.4747E-01  0.8493E-02
      5.903  0.1121E-03  0.2406E-01  0.4520E-02
      5.990  0.0000E+00  0.0000E+00  0.0000E+00
      6.077  0.0000E+00  0.0000E+00  0.0000E+00
      6.165  0.0000E+00  0.0000E+00  0.0000E+00
      6.252  0.0000E+00  0.0000E+00  0.0000E+00
      6.340  0.0000E+00  0.0000E+00  0.0000E+00
      6.427  0.0000E+00  0.0000E+00  0.0000E+00
      6.514  0.0000E+00  0.0000E+00  0.0000E+00
      6.602  0.3855E-02  0.4110E-02  0.5341E-02
      6.689  0.9414E-02  0.1037E-01  0.1335E-01
      6.777  0.1268E-01  0.1484E-01  0.1854E-01
      6.864  0.1746E-01  0.2114E-01  0.2601E-01
      6.951  0.2014E-01  0.2570E-01  0.3063E-01
      7.039  0.2239E-01  0.3005E-01  0.3464E-01
      7.126  0.2507E-01  0.3514E-01  0.3943E-01
      7.214  0.2712E-01  0.3981E-01  0.4336E-01
      7.301  0.2901E-01  0.4463E-01  0.4721E-01
      7.388  0.3081E-01  0.4948E-01  0.5095E-01
      7.476  0.3339E-01  0.5537E-01  0.5592E-01
      7.563  0.3464E-01  0.6018E-01  0.5899E-01
      7.651  0.4394E-01  0.6702E-01  0.6546E-01
      7.738  0.5639E-01  0.7583E-01  0.7367E-01
      7.825  0.6287E-01  0.8394E-01  0.7945E-01
      7.913  0.7034E-01  0.9356E-01  0.8649E-01
      8.000  0.8008E-01  0.1055E+00  0.9507E-01
      8.088  0.9017E-01  0.1185E+00  0.1038E+00
      8.175  0.1078E+00  0.1388E+00  0.1187E+00
      8.262  0.1340E+00  0.1682E+00  0.1401E+00
      8.350  0.1298E+00  0.1752E+00  0.1392E+00
      8.437  0.1193E+00  0.1774E+00  0.1342E+00
      8.525  0.1125E+00  0.1826E+00  0.1329E+00
      8.612  0.9352E-01  0.1721E+00  0.1217E+00
      8.699  0.7857E-01  0.1499E+00  0.1101E+00
      8.787  0.7118E-01  0.1461E+00  0.1063E+00
      8.874  0.6257E-01  0.1395E+00  0.1003E+00
      8.962  0.5936E-01  0.1443E+00  0.1002E+00
      9.049  0.5262E-01  0.1449E+00  0.9687E-01
      9.136  0.3969E-01  0.1338E+00  0.8899E-01
      9.224  0.4125E-01  0.1779E+00  0.1251E+00
      9.311  0.5634E-01  0.3243E+00  0.2300E+00
      9.399  0.6292E-01  0.3179E+00  0.2134E+00
      9.486  0.5794E-01  0.2538E+00  0.1737E+00
      9.573  0.5589E-01  0.2323E+00  0.1628E+00
      9.661  0.5635E-01  0.2354E+00  0.1648E+00
      9.748  0.5999E-01  0.2440E+00  0.1731E+00
      9.835  0.6371E-01  0.2412E+00  0.1697E+00
      9.923  0.6518E-01  0.2271E+00  0.1598E+00
     10.010  0.4528E-01  0.1929E+00  0.1372E+00
     10.098  0.3584E-01  0.1747E+00  0.1254E+00
     10.185  0.3236E-01  0.1688E+00  0.1210E+00
     10.272  0.3176E-01  0.1605E+00  0.1188E+00
     10.360  0.3421E-01  0.1624E+00  0.1213E+00
     10.447  0.3676E-01  0.1711E+00  0.1293E+00
     10.535  0.4288E-01  0.1950E+00  0.1499E+00
     10.622  0.4449E-01  0.1804E+00  0.1359E+00
     10.709  0.4600E-01  0.1749E+00  0.1285E+00
     10.797  0.4667E-01  0.1707E+00  0.1259E+00
     10.884  0.4686E-01  0.1765E+00  0.1306E+00
     10.972  0.4741E-01  0.1736E+00  0.1282E+00
     11.059  0.4641E-01  0.1707E+00  0.1271E+00
     11.146  0.4563E-01  0.1719E+00  0.1288E+00
     11.234  0.4429E-01  0.1694E+00  0.1278E+00
     11.321  0.4361E-01  0.1689E+00  0.1274E+00
     11.409  0.4259E-01  0.1664E+00  0.1259E+00
     11.496  0.4207E-01  0.1680E+00  0.1276E+00
     11.583  0.4181E-01  0.1672E+00  0.1274E+00
     11.671  0.3969E-01  0.1643E+00  0.1252E+00
     11.758  0.3660E-01  0.1592E+00  0.1215E+00
     11.846  0.3426E-01  0.1563E+00  0.1195E+00
     11.933  0.3254E-01  0.1549E+00  0.1187E+00
     12.020  0.3097E-01  0.1528E+00  0.1177E+00
     12.108  0.2950E-01  0.1506E+00  0.1159E+00
     12.195  0.2787E-01  0.1481E+00  0.1142E+00
     12.283  0.2693E-01  0.1494E+00  0.1153E+00
     12.370  0.2563E-01  0.1463E+00  0.1121E+00
     12.457  0.2285E-01  0.1343E+00  0.1012E+00
     12.545  0.2199E-01  0.1319E+00  0.9844E-01
     12.632  0.2219E-01  0.1365E+00  0.1024E+00
     12.720  0.2428E-01  0.1501E+00  0.1134E+00
     12.807  0.2401E-01  0.1520E+00  0.1143E+00
     12.894  0.2252E-01  0.1464E+00  0.1095E+00
     12.982  0.1955E-01  0.1319E+00  0.9838E-01
     13.069  0.1732E-01  0.1218E+00  0.9056E-01
     13.157  0.1504E-01  0.1131E+00  0.8453E-01
     13.244  0.1383E-01  0.1086E+00  0.8086E-01
     13.331  0.1260E-01  0.1036E+00  0.7665E-01
     13.419  0.1163E-01  0.1002E+00  0.7318E-01
     13.506  0.1065E-01  0.9599E-01  0.6902E-01
     13.594  0.9646E-02  0.9193E-01  0.6502E-01
     13.681  0.8837E-02  0.8976E-01  0.6219E-01
     13.768  0.8392E-02  0.9170E-01  0.6035E-01
     13.856  0.7885E-02  0.1006E+00  0.6061E-01
     13.943  0.6686E-02  0.8670E-01  0.5285E-01
     14.031  0.5815E-02  0.8016E-01  0.4739E-01
     14.118  0.5014E-02  0.6986E-01  0.4115E-01
     14.205  0.4480E-02  0.6287E-01  0.3679E-01
     14.293  0.3731E-02  0.4667E-01  0.2873E-01
     14.380  0.3441E-02  0.4453E-01  0.2700E-01
     14.468  0.3055E-02  0.4188E-01  0.2492E-01
     14.555  0.2769E-02  0.3959E-01  0.2317E-01
     14.642  0.2552E-02  0.3749E-01  0.2156E-01
     14.730  0.2270E-02  0.3518E-01  0.1990E-01
     14.817  0.1938E-02  0.3195E-01  0.1760E-01
     14.905  0.1730E-02  0.3033E-01  0.1628E-01
     14.992  0.1493E-02  0.2809E-01  0.1477E-01
     15.079  0.1316E-02  0.2603E-01  0.1340E-01
     15.167  0.1174E-02  0.2465E-01  0.1226E-01
     15.254  0.1000E-02  0.2231E-01  0.1083E-01
     15.342  0.8101E-03  0.2065E-01  0.9525E-02
     15.429  0.6570E-03  0.1831E-01  0.8191E-02
     15.516  0.5424E-03  0.1612E-01  0.7019E-02
     15.604  0.4434E-03  0.1421E-01  0.5985E-02
     15.691  0.3792E-03  0.1356E-01  0.5365E-02
     15.779  0.2495E-03  0.1145E-01  0.4160E-02
     15.866  0.1609E-03  0.9114E-02  0.3119E-02
     15.953  0.1083E-03  0.7093E-02  0.2291E-02
     16.041  0.6982E-04  0.6843E-02  0.1950E-02
     16.128  0.2042E-04  0.2556E-02  0.6820E-03
     16.216  0.0000E+00  0.0000E+00  0.0000E+00
     16.303  0.0000E+00  0.0000E+00  0.0000E+00
     16.390  0.0000E+00  0.0000E+00  0.0000E+00
     16.478  0.0000E+00  0.0000E+00  0.0000E+00
     16.565  0.0000E+00  0.0000E+00  0.0000E+00
     16.653  0.0000E+00  0.0000E+00  0.0000E+00
     16.740  0.0000E+00  0.0000E+00  0.0000E+00
     16.827  0.0000E+00  0.0000E+00  0.0000E+00
     16.915  0.0000E+00  0.0000E+00  0.0000E+00
     17.002  0.0000E+00  0.0000E+00  0.0000E+00
     17.090  0.0000E+00  0.0000E+00  0.0000E+00
     17.177  0.0000E+00  0.0000E+00  0.0000E+00
     17.264  0.0000E+00  0.0000E+00  0.0000E+00
     17.352  0.0000E+00  0.0000E+00  0.0000E+00
     17.439  0.0000E+00  0.0000E+00  0.0000E+00
     17.527  0.0000E+00  0.0000E+00  0.0000E+00
     17.614  0.0000E+00  0.0000E+00  0.0000E+00
     17.701  0.0000E+00  0.0000E+00  0.0000E+00
     17.789  0.0000E+00  0.0000E+00  0.0000E+00
     17.876  0.0000E+00  0.0000E+00  0.0000E+00
     17.964  0.0000E+00  0.0000E+00  0.0000E+00
     18.051  0.0000E+00  0.0000E+00  0.0000E+00
     18.138  0.0000E+00  0.0000E+00  0.0000E+00
     18.13837537     -8.08123779  301      6.00087945      1.00000000
     -8.081  0.0000E+00  0.0000E+00  0.0000E+00
     -7.994  0.0000E+00  0.0000E+00  0.0000E+00
     -7.906  0.0000E+00  0.0000E+00  0.0000E+00
     -7.819  0.0000E+00  0.0000E+00  0.0000E+00
     -7.732  0.0000E+00  0.0000E+00  0.0000E+00
     -7.644  0.0000E+00  0.0000E+00  0.0000E+00
     -7.557  0.0000E+00  0.0000E+00  0.0000E+00
     -7.469  0.0000E+00  0.0000E+00  0.0000E+00
     -7.382  0.0000E+00  0.0000E+00  0.0000E+00
     -7.295  0.0000E+00  0.0000E+00  0.0000E+00
     -7.207  0.0000E+00  0.0000E+00  0.0000E+00
     -7.120  0.0000E+00  0.0000E+00  0.0000E+00
     -7.032  0.0000E+00  0.0000E+00  0.0000E+00
     -6.945  0.0000E+00  0.0000E+00  0.0000E+00
     -6.858  0.0000E+00  0.0000E+00  0.0000E+00
     -6.770  0.0000E+00  0.0000E+00  0.0000E+00
     -6.683  0.0000E+00  0.0000E+00  0.0000E+00
     -6.595  0.0000E+00  0.0000E+00  0.0000E+00
     -6.508  0.0000E+00  0.0000E+00  0.0000E+00
     -6.421  0.0000E+00  0.0000E+00  0.0000E+00
     -6.333  0.0000E+00  0.0000E+00  0.0000E+00
     -6.246  0.0000E+00  0.0000E+00  0.0000E+00
     -6.158  0.0000E+00  0.0000E+00  0.0000E+00
     -6.071  0.1115E-01  0.1574E-04  0.9988E-06
     -5.984  0.3350E-01  0.2479E-03  0.1535E-04
     -5.896  0.4641E-01  0.6088E-03  0.3928E-04
     -5.809  0.5624E-01  0.1063E-02  0.7146E-04
     -5.721  0.6488E-01  0.1599E-02  0.1118E-03
     -5.634  0.7265E-01  0.2191E-02  0.1593E-03
     -5.547  0.7913E-01  0.2851E-02  0.2155E-03
     -5.459  0.8607E-01  0.3568E-02  0.2800E-03
     -5.372  0.9165E-01  0.4330E-02  0.3530E-03
     -5.284  0.9787E-01  0.5132E-02  0.4336E-03
     -5.197  0.1031E+00  0.5988E-02  0.5251E-03
     -5.110  0.1088E+00  0.6887E-02  0.6259E-03
     -5.022  0.1139E+00  0.7816E-02  0.7361E-03
     -4.935  0.1193E+00  0.8806E-02  0.8600E-03
     -4.847  0.1246E+00  0.9825E-02  0.9938E-03
     -4.760  0.1297E+00  0.1089E-01  0.1142E-02
     -4.673  0.1353E+00  0.1199E-01  0.1303E-02
     -4.585  0.1407E+00  0.1314E-01  0.1481E-02
     -4.498  0.1463E+00  0.1433E-01  0.1677E-02
     -4.410  0.1526E+00  0.1558E-01  0.1891E-02
     -4.323  0.1588E+00  0.1690E-01  0.2133E-02
     -4.236  0.1656E+00  0.1827E-01  0.2400E-02
     -4.148  0.1734E+00  0.1974E-01  0.2702E-02
     -4.061  0.1821E+00  0.2132E-01  0.3050E-02
     -3.973  0.1922E+00  0.2306E-01  0.3460E-02
     -3.886  0.2053E+00  0.2507E-01  0.3970E-02
     -3.799  0.2244E+00  0.2758E-01  0.4668E-02
     -3.711  0.2679E+00  0.3225E-01  0.6124E-02
     -3.624  0.2608E+00  0.3282E-01  0.6161E-02
     -3.537  0.2531E+00  0.3336E-01  0.6178E-02
     -3.449  0.2429E+00  0.3352E-01  0.6116E-02
     -3.362  0.2339E+00  0.3371E-01  0.6079E-02
     -3.274  0.2239E+00  0.3368E-01  0.5997E-02
     -3.187  0.2154E+00  0.3367E-01  0.5938E-02
     -3.100  0.2064E+00  0.3361E-01  0.5878E-02
     -3.012  0.1963E+00  0.3322E-01  0.5756E-02
     -2.925  0.1872E+00  0.3291E-01  0.5657E-02
     -2.837  0.1783E+00  0.3244E-01  0.5535E-02
     -2.750  0.1678E+00  0.3163E-01  0.5354E-02
     -2.663  0.1586E+00  0.3108E-01  0.5231E-02
     -2.575  0.1487E+00  0.3015E-01  0.5038E-02
     -2.488  0.1377E+00  0.2884E-01  0.4771E-02
     -2.400  0.1281E+00  0.2779E-01  0.4565E-02
     -2.313  0.1174E+00  0.2652E-01  0.4320E-02
     -2.226  0.1035E+00  0.2421E-01  0.3891E-02
     -2.138  0.9257E-01  0.2243E-01  0.3546E-02
     -2.051  0.1146E+00  0.3014E-01  0.4432E-02
     -1.963  0.3468E-01  0.8799E-02  0.1407E-02
     -1.876  0.0000E+00  0.0000E+00  0.0000E+00
     -1.789  0.0000E+00  0.0000E+00  0.0000E+00
     -1.701  0.0000E+00  0.0000E+00  0.0000E+00
     -1.614  0.5439E-01  0.1755E-01  0.2425E-02
     -1.526  0.6682E-01  0.2186E-01  0.3080E-02
     -1.439  0.7647E-01  0.2568E-01  0.3592E-02
     -1.352  0.9031E-01  0.3117E-01  0.4322E-02
     -1.264  0.1044E+00  0.3763E-01  0.5163E-02
     -1.177  0.1167E+00  0.4400E-01  0.5926E-02
     -1.089  0.1314E+00  0.5180E-01  0.6778E-02
     -1.002  0.1825E+00  0.1003E+00  0.8622E-02
     -0.915  0.2552E+00  0.1621E+00  0.1194E-01
     -0.827  0.3335E+00  0.2234E+00  0.1610E-01
     -0.740  0.2257E+00  0.1473E+00  0.1163E-01
     -0.652  0.1898E+00  0.1236E+00  0.1028E-01
     -0.565  0.1672E+00  0.1096E+00  0.9487E-02
     -0.478  0.1509E+00  0.9993E-01  0.8963E-02
     -0.390  0.1379E+00  0.9252E-01  0.8543E-02
     -0.303  0.1274E+00  0.8660E-01  0.8205E-02