    2    2    1    1
  0.1968300E+02  0.3818377E-09  0.3818377E-09  0.3818377E-09  0.5000000E-15
  1.000000000000000E-004
  CAR 
 Si                                      
      8    770      8
 
  0.2500000E-01  0.2500000E-01  0.2500000E-01  0.2500000E-03
    1       -6.081238   1.000000
    2        5.882394   1.000000
    3        5.965389   1.000000
    4        5.965389   1.000000
    5        8.594321   0.000000
    6        8.594321   0.000000
    7        8.599029   0.000000
    8        9.587012   0.000000
 
  0.7500000E-01  0.2500000E-01  0.2500000E-01  0.7500000E-03
    1       -6.036931   1.000000
    2        5.482811   1.000000
    3        5.794271   1.000000
    4        5.946470   1.000000
    5        8.638898   0.000000
    6        8.664797   0.000000
    7        8.759955   0.000000
    8        9.891060   0.000000
 
  0.1250000E+00  0.2500000E-01  0.2500000E-01  0.7500000E-03
    1       -5.926582   1.000000
    2        4.673221   1.000000
    3        5.599425   1.000000
    4        5.826852   1.000000
    5        8.634731   0.000000
    6        8.824966   0.000000
    7        9.003650   0.000000
    8       10.585761   0.000000
 
  0.1750000E+00  0.2500000E-01  0.2500000E-01  0.7500000E-03
    1       -5.751446   1.000000
    2        3.743298   1.000000
    3        5.390989   1.000000
    4        5.651237   1.000000
    5        8.480249   0.000000
    6        9.079368   0.000000
    7        9.292526   0.000000
    8       11.425905   0.000000
 
  0.2250000E+00  0.2500000E-01  0.2500000E-01  0.7500000E-03
    1       -5.513866   1.000000
    2        2.796183   1.000000
    3        5.192463   1.000000
    4        5.457375   1.000000
    5        8.293922   0.000000
    6        9.311356   0.000000
    7        9.524619   0.000000
    8       12.254848   0.000000
 
  0.2750000E+00  0.2500000E-01  0.2500000E-01  0.7500000E-03
    1       -5.218297   1.000000
    2        1.875693   1.000000
    3        5.019295   1.000000
    4        5.269194   1.000000
    5        8.107690   0.000000
    6        9.448832   0.000000
    7        9.634771   0.000000
    8       12.948718   0.000000
 
  0.3250000E+00  0.2500000E-01  0.2500000E-01  0.7500000E-03
    1       -4.872530   1.000000
    2        1.008810   1.000000
    3        4.879990   1.000000
    4        5.102936   1.000000
    5        7.944608   0.000000
    6        9.480185   0.000000
    7        9.624874   0.000000
    8       13.510378   0.000000
 
  0.3750000E+00  0.2500000E-01  0.2500000E-01  0.7500000E-03
    1       -4.492345   1.000000
    2        0.220757   1.000000
    3        4.777809   1.000000
    4        4.964469   1.000000
    5        7.813533   0.000000
    6        9.443709   0.000000
    7        9.543485   0.000000
    8       13.850845   0.000000
 
  0.4250000E+00  0.2500000E-01  0.2500000E-01  0.7500000E-03
    1       -4.112097   1.000000
    2       -0.449153   1.000000
    3        4.714168   1.000000
    4        4.857668   1.000000
    5        7.719934   0.000000
    6        9.395239   0.000000
    7        9.447185   0.000000
    8       13.849913   0.000000
 
  0.4750000E+00  0.2500000E-01  0.2500000E-01  0.7500000E-03
    1       -3.807962   1.000000
    2       -0.918607   1.000000
    3        4.689120   1.000000
    4        4.785671   1.000000
    5        7.666301   0.000000
    6        9.368941   0.000000
    7        9.370526   0.000000
    8       13.789601   0.000000
 
 -0.4750000E+00  0.2500000E-01  0.2500000E-01  0.7500000E-03
    1       -3.714223   1.000000
    2       -1.053977   1.000000
    3        4.701397   1.000000
    4        4.748494   1.000000
    5        7.651068   0.000000
    6        9.329807   0.000000
    7        9.380084   0.000000
    8       13.769439   0.000000
 
 -0.4250000E+00  0.2500000E-01  0.2500000E-01  0.7500000E-03
    1       -3.893285   1.000000
    2       -0.791993   1.000000
    3        4.748003   1.000000
    4        4.749961   1.000000
    5        7.680154   0.000000
    6        9.332963   0.000000
    7        9.432905   0.000000
    8       13.802180   0.000000
 
 -0.3750000E+00  0.2500000E-01  0.2500000E-01  0.7500000E-03
    1       -4.235370   1.000000
    2       -0.243230   1.000000
    3        4.785056   1.000000
    4        4.834135   1.000000
    5        7.748063   0.000000
    6        9.371679   0.000000
    7        9.520180   0.000000
    8       13.839011   0.000000
 
 -0.3250000E+00  0.2500000E-01  0.2500000E-01  0.7500000E-03
    1       -4.621333   1.000000
    2        0.472632   1.000000
    3        4.860292   1.000000
    4        4.952420   1.000000
    5        7.854755   0.000000
    6        9.422825   0.000000
    7        9.614172   0.000000
    8       13.590402   0.000000
 
 -0.2750000E+00  0.2500000E-01  0.2500000E-01  0.7500000E-03
    1       -4.992588   1.000000
    2        1.290308   1.000000
    3        4.973413   1.000000
    4        5.101775   1.000000
    5        7.997168   0.000000
    6        9.445313   0.000000
    7        9.675762   0.000000
    8       13.064206   0.000000
 
 -0.2250000E+00  0.2500000E-01  0.2500000E-01  0.7500000E-03
    1       -5.322868   1.000000
    2        2.177805   1.000000
    3        5.122505   1.000000
    4        5.277865   1.000000
    5        8.168916   0.000000
    6        9.382360   0.000000
    7        9.650101   0.000000
    8       12.593647   0.000000
 
 -0.1750000E+00  0.2500000E-01  0.2500000E-01  0.7500000E-03
    1       -5.599824   1.000000
    2        3.110321   1.000000
    3        5.302266   1.000000
    4        5.471989   1.000000
    5        8.354977   0.000000
    6        9.208659   0.000000
    7        9.499057   0.000000
    8       11.960974   0.000000
 
 -0.1250000E+00  0.2500000E-01  0.2500000E-01  0.7500000E-03
    1       -5.816883   1.000000
    2        4.059651   1.000000
    3        5.502894   1.000000
    4        5.666304   1.000000
    5        8.531474   0.000000
    6        8.964298   0.000000
    7        9.242988   0.000000
    8       11.133030   0.000000
 
 -0.7500000E-01  0.2500000E-01  0.2500000E-01  0.7500000E-03
    1       -5.970622   1.000000
    2        4.968977   1.000000
    3        5.703765   1.000000
    4        5.831209   1.000000
    5        8.612907   0.000000
    6        8.774124   0.000000
    7        8.953444   0.000000
    8       10.317465   0.000000
 
 -0.2500000E-01  0.2500000E-01  0.2500000E-01  0.7500000E-03
    1       -6.059101   1.000000
    2        5.704756   1.000000
    3        5.872588   1.000000
    4        5.920736   1.000000
    5        8.541278   0.000000
    6        8.699674   0.000000
    7        8.712769   0.000000
    8        9.729685   0.000000
 
  0.7500000E-01  0.7500000E-01  0.2500000E-01  0.7500000E-03
    1       -6.014782   1.000000
    2        5.445933   1.000000
    3        5.710937   1.000000
    4        5.776804   1.000000
    5        8.438815   0.000000
    6        8.895387   0.000000
    7        8.928332   0.000000
    8        9.974061   0.000000
 
  0.1250000E+00  0.7500000E-01  0.2500000E-01  0.1500000E-02
    1       -5.926370   1.000000
    2        4.878045   1.000000
    3        5.426952   1.000000
    4        5.715362   1.000000
    5        8.416596   0.000000
    6        9.055933   0.000000
    7        9.184995   0.000000
    8       10.456554   0.000000
 
  0.1750000E+00  0.7500000E-01  0.2500000E-01  0.1500000E-02
    1       -5.772721   1.000000
    2        4.021661   1.000000
    3        5.186693   1.000000
    4        5.593902   1.000000
    5        8.518308   0.000000
    6        9.035777   0.000000
    7        9.506857   0.000000
    8       11.124859   0.000000
 
  0.2250000E+00  0.7500000E-01  0.2500000E-01  0.1500000E-02
    1       -5.555786   1.000000
    2        3.098436   1.000000
    3        4.972795   1.000000
    4        5.412241   1.000000
    5        8.538664   0.000000
    6        9.097897   0.000000
    7        9.778415   0.000000
    8       11.617557   0.000000
 
  0.2750000E+00  0.7500000E-01  0.2500000E-01  0.1500000E-02
    1       -5.279044   1.000000
    2        2.180742   1.000000
    3        4.791309   1.000000
    4        5.212704   1.000000
    5        8.425772   0.000000
    6        9.239309   0.000000
    7        9.927927   0.000000
    8       11.912249   0.000000
 
  0.3250000E+00  0.7500000E-01  0.2500000E-01  0.1500000E-02
    1       -4.948962   1.000000
    2        1.302495   1.000000
    3        4.645467   1.000000
    4        5.021500   1.000000
    5        8.280620   0.000000
    6        9.316163   0.000000
    7        9.937671   0.000000
    8       12.297525   0.000000
 
  0.3750000E+00  0.7500000E-01  0.2500000E-01  0.1500000E-02
    1       -4.577830   1.000000
    2        0.490464   1.000000
    3        4.535157   1.000000
    4        4.857760   1.000000
    5        8.150141   0.000000
    6        9.314680   0.000000
    7        9.854917   0.000000
    8       12.855114   0.000000
 
  0.4250000E+00  0.7500000E-01  0.2500000E-01  0.1500000E-02
    1       -4.191650   1.000000
    2       -0.221557   1.000000
    3        4.454584   1.000000
    4        4.735366   1.000000
    5        8.049416   0.000000
    6        9.282503   0.000000
    7        9.738916   0.000000
    8       13.476050   0.000000
 
  0.4750000E+00  0.7500000E-01  0.2500000E-01  0.1500000E-02
    1       -3.849415   1.000000
    2       -0.768777   1.000000
    3        4.393657   1.000000
    4        4.668913   1.000000
    5        7.984542   0.000000
    6        9.261805   0.000000
    7        9.632462   0.000000
    8       13.861927   0.000000
 
 -0.4750000E+00  0.7500000E-01  0.2500000E-01  0.1500000E-02
    1       -3.669960   1.000000
    2       -1.030263   1.000000
    3        4.348223   1.000000
    4        4.664691   1.000000
    5        7.956831   0.000000
    6        9.268372   0.000000
    7        9.565904   0.000000
    8       13.948062   0.000000
 
 -0.4250000E+00  0.7500000E-01  0.2500000E-01  0.1500000E-02
    1       -3.764248   1.000000
    2       -0.894822   1.000000
    3        4.324975   1.000000
    4        4.716049   1.000000
    5        7.971111   0.000000
    6        9.300934   0.000000
    7        9.555320   0.000000
    8       13.951368   0.000000
 
 -0.3750000E+00  0.7500000E-01  0.2500000E-01  0.1500000E-02
    1       -4.068630   1.000000
    2       -0.426238   1.000000
    3        4.333614   1.000000
    4        4.813250   1.000000
    5        8.024397   0.000000
    6        9.348071   0.000000
    7        9.607274   0.000000
    8       13.821616   0.000000
 
 -0.3250000E+00  0.7500000E-01  0.2500000E-01  0.1500000E-02
    1       -4.449175   1.000000
    2        0.240656   1.000000
    3        4.380630   1.000000
    4        4.948488   1.000000
    5        8.115113   0.000000
    6        9.392684   0.000000
    7        9.702420   0.000000
    8       13.331560   0.000000
 
 -0.2750000E+00  0.7500000E-01  0.2500000E-01  0.1500000E-02
    1       -4.829221   1.000000
    2        1.023953   1.000000
    3        4.469497   1.000000
    4        5.114384   1.000000
    5        8.240780   0.000000
    6        9.407820   0.000000
    7        9.795658   0.000000
    8       12.741502   0.000000
 
 -0.2250000E+00  0.7500000E-01  0.2500000E-01  0.1500000E-02
    1       -5.174790   1.000000
    2        1.882415   1.000000
    3        4.601562   1.000000
    4        5.302485   1.000000
    5        8.393870   0.000000
    6        9.348835   0.000000
    7        9.817178   0.000000
    8       12.276567   0.000000
 
 -0.1750000E+00  0.7500000E-01  0.2500000E-01  0.1500000E-02
    1       -5.470158   1.000000
    2        2.788067   1.000000
    3        4.776974   1.000000
    4        5.501041   1.000000
    5        8.558654   0.000000
    6        9.189611   0.000000
    7        9.702879   0.000000
    8       11.912921   0.000000
 
 -0.1250000E+00  0.7500000E-01  0.2500000E-01  0.1500000E-02
    1       -5.707472   1.000000
    2        3.707804   1.000000
    3        4.995135   1.000000
    4        5.687301   1.000000
    5        8.683401   0.000000
    6        8.994557   0.000000
    7        9.445198   0.000000
    8       11.416467   0.000000
 
 -0.7500000E-01  0.7500000E-01  0.2500000E-01  0.1500000E-02
    1       -5.882426   1.000000
    2        4.572192   1.000000
    3        5.264886   1.000000
    4        5.825867   1.000000
    5        8.627848   0.000000
    6        8.955811   0.000000
    7        9.118281   0.000000
    8       10.750905   0.000000
 
 -0.2500000E-01  0.7500000E-01  0.2500000E-01  0.1500000E-02
    1       -5.992675   1.000000
    2        5.198544   1.000000
    3        5.632954   1.000000
    4        5.877834   1.000000
    5        8.552765   0.000000
    6        8.832172   0.000000
    7        8.915614   0.000000
    8       10.156425   0.000000
 
  0.1250000E+00  0.1250000E+00  0.2500000E-01  0.7500000E-03
    1       -5.859939   1.000000
    2        4.770673   1.000000
    3        5.278754   1.000000
    4        5.328267   1.000000
    5        8.132086   0.000000
    6        9.490245   0.000000
    7        9.547781   0.000000
    8       10.509086   0.000000
 
  0.1750000E+00  0.1250000E+00  0.2500000E-01  0.1500000E-02
    1       -5.727994   1.000000
    2        4.167480   1.000000
    3        4.960327   1.000000
    4        5.236224   1.000000
    5        8.074423   0.000000
    6        9.664012   0.000000
    7        9.881177   0.000000
    8       10.789474   0.000000
 
  0.2250000E+00  0.1250000E+00  0.2500000E-01  0.1500000E-02
    1       -5.532095   1.000000
    2        3.340449   1.000000
    3        4.711051   1.000000
    4        5.095175   1.000000
    5        8.191242   0.000000
    6        9.616950   0.000000
    7       10.200946   0.000000
    8       10.935439   0.000000
 
  0.2750000E+00  0.1250000E+00  0.2500000E-01  0.1500000E-02
    1       -5.275035   1.000000
    2        2.463134   1.000000
    3        4.504502   1.000000
    4        4.903681   1.000000
    5        8.333986   0.000000
    6        9.576989   0.000000
    7       10.404683   0.000000
    8       10.977776   0.000000
 
  0.3250000E+00  0.1250000E+00  0.2500000E-01  0.1500000E-02
    1       -4.962064   1.000000
    2        1.597872   1.000000
    3        4.328121   1.000000
    4        4.709663   1.000000
    5        8.384075   0.000000
    6        9.561064   0.000000
    7       10.455336   0.000000
    8       11.184654   0.000000
 
  0.3750000E+00  0.1250000E+00  0.2500000E-01  0.1500000E-02
    1       -4.602911   1.000000
    2        0.779379   1.000000
    3        4.170261   1.000000
    4        4.552856   1.000000
    5        8.352930   0.000000
    6        9.513555   0.000000
    7       10.387146   0.000000
    8       11.652921   0.000000
 
  0.4250000E+00  0.1250000E+00  0.2500000E-01  0.1500000E-02
    1       -4.217254   1.000000
    2        0.041184   1.000000
    3        4.021505   1.000000
    4        4.458569   1.000000
    5        8.301292   0.000000
    6        9.442849   0.000000
    7       10.258991   0.000000
    8       12.324625   0.000000
 
  0.4750000E+00  0.1250000E+00  0.2500000E-01  0.1500000E-02
    1       -3.850122   1.000000
    2       -0.564478   1.000000
    3        3.885486   1.000000
    4        4.431538   1.000000
    5        8.267147   0.000000
    6        9.382788   0.000000
    7       10.124722   0.000000
    8       13.103947   0.000000
 
 -0.4750000E+00  0.1250000E+00  0.2500000E-01  0.1500000E-02
    1       -3.599365   1.000000
    2       -0.934453   1.000000
    3        3.774092   1.000000
    4        4.464008   1.000000
    5        8.265702   0.000000
    6        9.355155   0.000000
    7       10.013957   0.000000
    8       13.856523   0.000000
 
 -0.4250000E+00  0.1250000E+00  0.2500000E-01  0.1500000E-02
    1       -3.600620   1.000000
    2       -0.932259   1.000000
    3        3.697499   1.000000
    4        4.547651   1.000000
    5        8.302473   0.000000
    6        9.366516   0.000000
    7        9.942564   0.000000
    8       14.229805   0.000000
 
 -0.3750000E+00  0.1250000E+00  0.2500000E-01  0.1500000E-02
    1       -3.852788   1.000000
    2       -0.558842   1.000000
    3        3.663416   1.000000
    4        4.675624   1.000000
    5        8.377164   0.000000
    6        9.414039   0.000000
    7        9.918926   0.000000
    8       13.863361   0.000000
 
 -0.3250000E+00  0.1250000E+00  0.2500000E-01  0.1500000E-02
    1       -4.220429   1.000000
    2        0.048347   1.000000
    3        3.676423   1.000000
    4        4.840316   1.000000
    5        8.482466   0.000000
    6        9.474893   0.000000
    7        9.935704   0.000000
    8       13.158059   0.000000
 
 -0.2750000E+00  0.1250000E+00  0.2500000E-01  0.1500000E-02
    1       -4.605781   1.000000
    2        0.785889   1.000000
    3        3.741568   1.000000
    4        5.033465   1.000000
    5        8.614612   0.000000
    6        9.509954   0.000000
    7        9.976220   0.000000
    8       12.491761   0.000000
 
 -0.2250000E+00  0.1250000E+00  0.2500000E-01  0.1500000E-02
    1       -4.964481   1.000000
    2        1.599066   1.000000
    3        3.864821   1.000000
    4        5.243701   1.000000
    5        8.765007   0.000000
    6        9.458940   0.000000
    7        9.984343   0.000000
    8       11.988448   0.000000
 
 -0.1750000E+00  0.1250000E+00  0.2500000E-01  0.1500000E-02
    1       -5.277007   1.000000
    2        2.445170   1.000000
    3        4.057557   1.000000
    4        5.453635   1.000000
    5        8.909813   0.000000
    6        9.294175   0.000000
    7        9.861144   0.000000
    8       11.698104   0.000000
 
 -0.1250000E+00  0.1250000E+00  0.2500000E-01  0.1500000E-02
    1       -5.533583   1.000000
    2        3.259076   1.000000
    3        4.353562   1.000000
    4        5.634204   1.000000
    5        8.938833   0.000000
    6        9.142498   0.000000
    7        9.579038   0.000000
    8       11.548427   0.000000
 
 -0.7500000E-01  0.1250000E+00  0.2500000E-01  0.1500000E-02
    1       -5.729057   1.000000
    2        3.913209   1.000000
    3        4.825531   1.000000
    4        5.746860   1.000000
    5        8.759488   0.000000
    6        9.060481   0.000000
    7        9.335253   0.000000
    8       11.290646   0.000000
 
 -0.2500000E-01  0.1250000E+00  0.2500000E-01  0.1500000E-02
    1       -5.860561   1.000000
    2        4.353415   1.000000
    3        5.408404   1.000000
    4        5.757810   1.000000
    5        8.620155   0.000000
    6        8.872324   0.000000
    7        9.212130   0.000000
    8       10.888035   0.000000
 
  0.1750000E+00  0.1750000E+00  0.2500000E-01  0.7500000E-03
    1       -5.617652   1.000000
    2        3.970447   1.000000
    3        4.809512   1.000000
    4        4.828461   1.000000
    5        7.762021   0.000000
    6       10.198175   0.000000
    7       10.307776   0.000000
    8       10.506765   0.000000
 
  0.2250000E+00  0.1750000E+00  0.2500000E-01  0.1500000E-02
    1       -5.442980   1.000000
    2        3.391239   1.000000
    3        4.491376   1.000000
    4        4.709893   1.000000
    5        7.703354   0.000000
    6       10.096018   0.000000
    7       10.623846   0.000000
    8       10.682078   0.000000
 
  0.2750000E+00  0.1750000E+00  0.2500000E-01  0.1500000E-02
    1       -5.206168   1.000000
    2        2.638353   1.000000
    3        4.231343   1.000000
    4        4.545789   1.000000
    5        7.835786   0.000000
    6        9.957853   0.000000
    7       10.621450   0.000000
    8       10.968344   0.000000
 
  0.3250000E+00  0.1750000E+00  0.2500000E-01  0.1500000E-02
    1       -4.911463   1.000000
    2        1.836061   1.000000
    3        3.994471   1.000000
    4        4.368578   1.000000
    5        7.995607   0.000000
    6       10.046198   0.000000
    7       10.512412   0.000000
    8       11.091997   0.000000
 
  0.3750000E+00  0.1750000E+00  0.2500000E-01  0.1500000E-02
    1       -4.566587   1.000000
    2        1.044840   1.000000
    3        3.760998   1.000000
    4        4.234362   1.000000
    5        8.071254   0.000000
    6       10.270080   0.000000
    7       10.532780   0.000000
    8       11.063092   0.000000
 
  0.4250000E+00  0.1750000E+00  0.2500000E-01  0.1500000E-02
    1       -4.186498   1.000000
    2        0.305720   1.000000
    3        3.534977   1.000000
    4        4.163959   1.000000
    5        8.083734   0.000000
    6       10.171831   0.000000
    7       10.938111   0.000000
    8       11.131082   0.000000
 
  0.4750000E+00  0.1750000E+00  0.2500000E-01  0.1500000E-02
    1       -3.805111   1.000000
    2       -0.333370   1.000000
    3        3.331074   1.000000
    4        4.155613   1.000000
    5        8.092561   0.000000
    6       10.052247   0.000000
    7       10.796518   0.000000
    8       11.917986   0.000000
 
 -0.4750000E+00  0.1750000E+00  0.2500000E-01  0.1500000E-02
    1       -3.499632   1.000000
    2       -0.787240   1.000000
    3        3.162561   1.000000
    4        4.203790   1.000000
    5        8.132746   0.000000
    6        9.956939   0.000000
    7       10.662028   0.000000
    8       12.808861   0.000000
 
 -0.4250000E+00  0.1750000E+00  0.2500000E-01  0.1500000E-02
    1       -3.407928   1.000000
    2       -0.913500   1.000000
    3        3.037818   1.000000
    4        4.303465   1.000000
    5        8.218869   0.000000
    6        9.893151   0.000000
    7       10.558030   0.000000
    8       13.750875   0.000000
 
 -0.3750000E+00  0.1750000E+00  0.2500000E-01  0.1500000E-02
    1       -3.593773   1.000000
    2       -0.648566   1.000000
    3        2.964419   1.000000
    4        4.449046   1.000000
    5        8.351532   0.000000
    6        9.861948   0.000000
    7       10.491240   0.000000
    8       13.867687   0.000000
 
 -0.3250000E+00  0.1750000E+00  0.2500000E-01  0.1500000E-02
    1       -3.939753   1.000000
    2       -0.113177   1.000000
    3        2.948978   1.000000
    4        4.633467   1.000000
    5        8.523042   0.000000
    6        9.851464   0.000000
    7       10.455744   0.000000
    8       13.043852   0.000000
 
 -0.2750000E+00  0.1750000E+00  0.2500000E-01  0.1500000E-02
    1       -4.325988   1.000000
    2        0.563406   1.000000
    3        3.001425   1.000000
    4        4.847464   1.000000
    5        8.721315   0.000000
    6        9.829419   0.000000
    7       10.429642   0.000000
    8       12.323489   0.000000
 
 -0.2250000E+00  0.1750000E+00  0.2500000E-01  0.1500000E-02
    1       -4.695426   1.000000
    2        1.302039   1.000000
    3        3.139248   1.000000
    4        5.076902   1.000000
    5        8.924928   0.000000
    6        9.725721   0.000000
    7       10.364946   0.000000
    8       11.786359   0.000000
 
 -0.1750000E+00  0.1750000E+00  0.2500000E-01  0.1500000E-02
    1       -5.023152   1.000000
    2        2.025020   1.000000
    3        3.405192   1.000000
    4        5.300923   1.000000
    5        9.099430   0.000000
    6        9.487213   0.000000
    7       10.166715   0.000000
    8       11.529726   0.000000
 
 -0.1250000E+00  0.1750000E+00  0.2500000E-01  0.1500000E-02
    1       -5.297498   1.000000
    2        2.626567   1.000000
    3        3.874061   1.000000
    4        5.485784   1.000000
    5        9.109944   0.000000
    6        9.237352   0.000000
    7        9.856506   0.000000
    8       11.556297   0.000000
 
 -0.7500000E-01  0.1750000E+00  0.2500000E-01  0.1500000E-02
    1       -5.512409   1.000000
    2        3.065945   1.000000
    3        4.533889   1.000000
    4        5.588384   1.000000
    5        8.790707   0.000000
    6        9.137524   0.000000
    7        9.655408   0.000000
    8       11.676203   0.000000
 
 -0.2500000E-01  0.1750000E+00  0.2500000E-01  0.1500000E-02
    1       -5.664377   1.000000
    2        3.420834   1.000000
    3        5.193092   1.000000
    4        5.579874   1.000000
    5        8.507215   0.000000
    6        9.070259   0.000000
    7        9.500630   0.000000
    8       11.652458   0.000000
 
  0.2250000E+00  0.2250000E+00  0.2500000E-01  0.7500000E-03
    1       -5.289340   1.000000
    2        3.108392   1.000000
    3        4.361219   1.000000
    4        4.364224   1.000000
    5        7.394445   0.000000
    6        9.742782   0.000000
    7       11.109246   0.000000
    8       11.137646   0.000000
 
  0.2750000E+00  0.2250000E+00  0.2500000E-01  0.1500000E-02
    1       -5.072979   1.000000
    2        2.567033   1.000000
    3        4.061453   1.000000
    4        4.229745   1.000000
    5        7.356524   0.000000
    6        9.424032   0.000000
    7       11.345051   0.000000
    8       11.544180   0.000000
 
  0.3250000E+00  0.2250000E+00  0.2500000E-01  0.1500000E-02
    1       -4.797321   1.000000
    2        1.904733   1.000000
    3        3.761040   1.000000
    4        4.070873   1.000000
    5        7.507469   0.000000
    6        9.307295   0.000000
    7       11.345584   0.000000
    8       11.780815   0.000000
 
  0.3750000E+00  0.2250000E+00  0.2500000E-01  0.1500000E-02
    1       -4.468241   1.000000
    2        1.199873   1.000000
    3        3.443577   1.000000
    4        3.948106   1.000000
    5        7.661335   0.000000
    6        9.492280   0.000000
    7       11.239325   0.000000
    8       11.828352   0.000000
 
  0.4250000E+00  0.2250000E+00  0.2500000E-01  0.1500000E-02
    1       -4.097693   1.000000
    2        0.505250   1.000000
    3        3.132984   1.000000
    4        3.884296   1.000000
    5        7.729688   0.000000
    6        9.993321   0.000000
    7       11.103230   0.000000
    8       11.746316   0.000000
 
  0.4750000E+00  0.2250000E+00  0.2500000E-01  0.1500000E-02
    1       -3.710572   1.000000
    2       -0.130047   1.000000
    3        2.854299   1.000000
    4        3.879368   1.000000
    5        7.764351   0.000000
    6       10.664696   0.000000
    7       11.017597   0.000000
    8       11.611996   0.000000
 
 -0.4750000E+00  0.2250000E+00  0.2500000E-01  0.1500000E-02
    1       -3.366070   1.000000
    2       -0.631978   1.000000
    3        2.621880   1.000000
    4        3.930372   1.000000
    5        7.820414   0.000000
    6       10.777339   0.000000
    7       11.441497   0.000000
    8       11.673712   0.000000
 
 -0.4250000E+00  0.2250000E+00  0.2500000E-01  0.1500000E-02
    1       -3.189858   1.000000
    2       -0.867367   1.000000
    3        2.445278   1.000000
    4        4.033933   1.000000
    5        7.922827   0.000000
    6       10.679354   0.000000
    7       11.336058   0.000000
    8       12.606021   0.000000
 
 -0.3750000E+00  0.2250000E+00  0.2500000E-01  0.1500000E-02
    1       -3.298742   1.000000
    2       -0.717630   1.000000
    3        2.333073   1.000000
    4        4.185802   1.000000
    5        8.078335   0.000000
    6       10.595150   0.000000
    7       11.244563   0.000000
    8       13.582144   0.000000
 
 -0.3250000E+00  0.2250000E+00  0.2500000E-01  0.1500000E-02
    1       -3.614014   1.000000
    2       -0.267796   1.000000
    3        2.296157   1.000000
    4        4.379070   1.000000
    5        8.282474   0.000000
    6       10.519874   0.000000
    7       11.169890   0.000000
    8       12.983810   0.000000
 
 -0.2750000E+00  0.2250000E+00  0.2500000E-01  0.1500000E-02
    1       -3.996323   1.000000
    2        0.322822   1.000000
    3        2.355358   1.000000
    4        4.604507   1.000000
    5        8.522612   0.000000
    6       10.412516   0.000000
    7       11.084414   0.000000
    8       12.242764   0.000000
 
 -0.2250000E+00  0.2250000E+00  0.2500000E-01  0.1500000E-02
    1       -4.373112   1.000000
    2        0.934633   1.000000
    3        2.554412   1.000000
    4        4.847750   1.000000
    5        8.772368   0.000000
    6       10.183182   0.000000
    7       10.905162   0.000000
    8       11.727716   0.000000
 
 -0.1750000E+00  0.2250000E+00  0.2500000E-01  0.1500000E-02
    1       -4.713543   1.000000
    2        1.460184   1.000000
    3        2.961784   1.000000
    4        5.085296   1.000000
    5        8.976305   0.000000
    6        9.811522   0.000000
    7       10.516892   0.000000
    8       11.578806   0.000000
 
 -0.1250000E+00  0.2250000E+00  0.2500000E-01  0.1500000E-02
    1       -5.003531   1.000000
    2        1.855414   1.000000
    3        3.587783   1.000000
    4        5.281552   1.000000
    5        8.977361   0.000000
    6        9.479435   0.000000
    7       10.089557   0.000000
    8       11.702823   0.000000
 
 -0.7500000E-01  0.2250000E+00  0.2500000E-01  0.1500000E-02
    1       -5.236035   1.000000
    2        2.177650   1.000000
    3        4.323895   1.000000
    4        5.391460   1.000000
    5        8.658291   0.000000
    6        9.322780   0.000000
    7        9.851049   0.000000
    8       11.951119   0.000000
 
 -0.2500000E-01  0.2250000E+00  0.2500000E-01  0.1500000E-02
    1       -5.406899   1.000000
    2        2.484926   1.000000
    3        5.001558   1.000000
    4        5.383746   1.000000
    5        8.333053   0.000000
    6        9.276969   0.000000
    7        9.696367   0.000000
    8       12.228714   0.000000
 
  0.2750000E+00  0.2750000E+00  0.2500000E-01  0.7500000E-03
    1       -4.876900   1.000000
    2        2.219000   1.000000
    3        3.954466   1.000000
    4        3.972813   1.000000
    5        7.071499   0.000000
    6        8.966606   0.000000
    7       11.990233   0.000000
    8       12.017248   0.000000
 