<?xml version="1.0" encoding="ISO-8859-1"?>
<modeling>
 <generator>
  <i name="program" type="string">vasp </i>
  <i name="version" type="string">5.4.4.18Apr17-6-g9f103f2a35  </i>
  <i name="subversion" type="string">(build May 20 2018 16:52:39) complex            parallel </i>
  <i name="platform" type="string">LinuxIFC </i>
  <i name="date" type="string">2022 10 31 </i>
  <i name="time" type="string">00:52:18 </i>
 </generator>
 <incar>
  <i type="string" name="SYSTEM"> Si</i>
  <i type="string" name="PREC">normal</i>
  <i name="EDIFF">      0.00000100</i>
  <i type="int" name="ISMEAR">    -5</i>
  <i type="logical" name="LWAVE"> F  </i>
  <v type="int" name="KPOINT_BSE">    -1     0     0     0</v>
 </incar>
 <structure name="primitive_cell" >
  <crystal>
   <varray name="basis" >
    <v>       0.00000000       2.73200000       2.73200000 </v>
    <v>       2.73200000       0.00000000       2.73200000 </v>
    <v>       2.73200000       2.73200000       0.00000000 </v>
   </varray>
   <i name="volume">     40.78233434 </i>
   <varray name="rec_basis" >
    <v>      -0.18301611       0.18301611       0.18301611 </v>
    <v>       0.18301611      -0.18301611       0.18301611 </v>
    <v>       0.18301611       0.18301611      -0.18301611 </v>
   </varray>
  </crystal>
  <varray name="positions" >
   <v>       0.00000000       0.00000000       0.00000000 </v>
   <v>       0.25000000       0.25000000       0.25000000 </v>
  </varray>
 </structure>
 <varray name="primitive_index" >
  <v type="int" >        1 </v>
  <v type="int" >        2 </v>
 </varray>
