 running on    1 total cores
 distrk:  each k-point on    1 cores,    1 groups
 distr:  one band on    1 cores,    1 groups
 using from now: INCAR     
 vasp.5.4.4.18Apr17-6-g9f103f2a35 (build May 20 2018 16:52:39) complex          
  
 POSCAR found type information on POSCAR  Si
 POSCAR found :  1 types and       2 ions
 scaLAPACK will be used
 LDA part: xc-table for Ceperly-Alder, standard interpolation
 POSCAR, INCAR and KPOINTS ok, starting setup
 FFT: planning ...
 WAVECAR not read
 WARNING: random wavefunctions but no delay for mixing, default for NELMDL
 entering main loop
       N       E                     dE             d eps       ncg     rms          rms(c)
DAV:   1     0.252774336622E+00    0.25277E+00   -0.22393E+03 12384   0.432E+02
DAV:   2    -0.108824435408E+02   -0.11135E+02   -0.10889E+02 19216   0.610E+01
DAV:   3    -0.110056677906E+02   -0.12322E+00   -0.12322E+00 15168   0.805E+00
DAV:   4    -0.110060640099E+02   -0.39622E-03   -0.39622E-03 20152   0.470E-01
DAV:   5    -0.110060642254E+02   -0.21546E-06   -0.21546E-06 15648   0.852E-03    0.305E+00
DAV:   6    -0.108793580587E+02    0.12671E+00   -0.89700E-02 14568   0.155E+00    0.181E+00
DAV:   7    -0.108210849001E+02    0.58273E-01   -0.16803E-01 15680   0.223E+00    0.160E-01
DAV:   8    -0.108219845709E+02   -0.89967E-03   -0.39939E-03 14176   0.458E-01    0.270E-02
DAV:   9    -0.108220213678E+02   -0.36797E-04   -0.94294E-05 19616   0.736E-02    0.144E-02
DAV:  10    -0.108220350161E+02   -0.13648E-04   -0.17603E-05 14568   0.318E-02    0.144E-03
DAV:  11    -0.108220345478E+02    0.46827E-06   -0.28548E-07 13472   0.337E-03
   1 F= -.10822035E+02 E0= -.10822035E+02  d E =0.000000E+00
