bcc Fe                                  
   2.68700000000000     
    -0.498792    0.498792    0.498792
     0.498792   -0.498792    0.498792
     0.498792    0.498792   -0.498792
   Fe
     1
Direct
  0.000000  0.000000  0.000000
 
   20   20   20
  81.363      77.107      65.731      50.572      35.177      22.101      12.691      7.2473      5.0251      4.4024    
  4.2113      4.4024      5.0251      7.2473      12.691      22.101      35.177      50.572      65.731      77.107    
  77.107      75.708      66.782      53.082      38.123      24.740      14.592      8.2696      5.3550      4.4763    
  4.1725      4.2355      4.6559      6.0197      9.9674      17.585      28.950      43.121      58.035      70.514    
  65.731      66.782      60.850      49.847      36.836      24.611      14.963      8.6499      5.5002      4.4459    
  4.0642      4.0087      4.2938      5.0076      7.3333      12.608      21.319      32.980      46.077      58.035    
  50.572      53.082      49.847      41.968      31.811      21.819      13.692      8.2171      5.3598      4.3223    
  3.9069      3.7637      3.9209      4.3570      5.4426      8.4393      14.196      22.697      32.980      43.121    
  35.177      38.123      36.836      31.811      24.687      17.375      11.304      7.1666      4.9734      4.1287    
  3.7255      3.5363      3.5896      3.8883      4.4209      5.7459      8.8649      14.196      21.319      28.950    
  22.101      24.740      24.611      21.819      17.375      12.621      8.6248      5.9155      4.4928      3.9009    
  3.5416      3.3468      3.3345      3.5109      3.8817      4.4516      5.7459      8.4393      12.608      17.585    
  12.691      14.592      14.963      13.692      11.304      8.6248      6.3578      4.8498      4.0689      3.6665    
  3.3704      3.2003      3.1612      3.2531      3.4901      3.8817      4.4209      5.4426      7.3333      9.9674    
  7.2473      8.2696      8.6499      8.2171      7.1666      5.9155      4.8498      4.1498      3.7492      3.4463    
  3.2221      3.0941      3.0580      3.1083      3.2531      3.5109      3.8883      4.3570      5.0076      6.0197    
  5.0251      5.3550      5.5002      5.3598      4.9734      4.4928      4.0689      3.7492      3.4786      3.2581    
  3.1061      3.0270      3.0137      3.0580      3.1612      3.3345      3.5896      3.9209      4.2938      4.6559    
  4.4024      4.4763      4.4459      4.3223      4.1287      3.9009      3.6665      3.4463      3.2581      3.1168    
  3.0314      3.0035      3.0270      3.0941      3.2003      3.3468      3.5363      3.7637      4.0087      4.2355    
  4.2113      4.1725      4.0642      3.9069      3.7255      3.5416      3.3704      3.2221      3.1061      3.0314    
  3.0056      3.0314      3.1061      3.2221      3.3704      3.5416      3.7255      3.9069      4.0642      4.1725    
  4.4024      4.2355      4.0087      3.7637      3.5363      3.3468      3.2003      3.0941      3.0270      3.0035    
  3.0314      3.1168      3.2581      3.4463      3.6665      3.9009      4.1287      4.3223      4.4459      4.4763    
  5.0251      4.6559      4.2938      3.9209      3.5896      3.3345      3.1612      3.0580      3.0137      3.0270    
  3.1061      3.2581      3.4786      3.7492      4.0689      4.4928      4.9734      5.3598      5.5002      5.3550    
  7.2473      6.0197      5.0076      4.3570      3.8883      3.5109      3.2531      3.1083      3.0580      3.0941    
  3.2221      3.4463      3.7492      4.1498      4.8498      5.9155      7.1666      8.2171      8.6499      8.2696    
  12.691      9.9674      7.3333      5.4426      4.4209      3.8817      3.4901      3.2531      3.1612      3.2003    
  3.3704      3.6665      4.0689      4.8498      6.3578      8.6248      11.304      13.692      14.963      14.592    
  22.101      17.585      12.608      8.4393      5.7459      4.4516      3.8817      3.5109      3.3345      3.3468    
  3.5416      3.9009      4.4928      5.9155      8.6248      12.621      17.375      21.819      24.611      24.740    
  35.177      28.950      21.319      14.196      8.8649      5.7459      4.4209      3.8883      3.5896      3.5363    
  3.7255      4.1287      4.9734      7.1666      11.304      17.375      24.687      31.811      36.836      38.123    
  50.572      43.121      32.980      22.697      14.196      8.4393      5.4426      4.3570      3.9209      3.7637    
  3.9069      4.3223      5.3598      8.2171      13.692      21.819      31.811      41.968      49.847      53.082    
  65.731      58.035      46.077      32.980      21.319      12.608      7.3333      5.0076      4.2938      4.0087    
  4.0642      4.4459      5.5002      8.6499      14.963      24.611      36.836      49.847      60.850      66.782    
  77.107      70.514      58.035      43.121      28.950      17.585      9.9674      6.0197      4.6559      4.2355    
  4.1725      4.4763      5.3550      8.2696      14.592      24.740      38.123      53.082      66.782      75.708    
  77.107      75.708      66.782      53.082      38.123      24.740      14.592      8.2696      5.3550      4.4763    
  4.1725      4.2355      4.6559      6.0197      9.9674      17.585      28.950      43.121      58.035      70.514    
  75.708      77.105      70.510      58.032      43.119      28.949      17.585      9.9676      6.0199      4.6560    
  4.2355      4.1725      4.4763      5.3550      8.2696      14.592      24.741      38.125      53.084      66.784    
  66.782      70.510      66.780      56.813      43.553      30.151      18.886      10.935      6.4829      4.7463    
  4.2171      4.0403      4.2171      4.7462      6.4827      10.935      18.886      30.152      43.556      56.816    
  53.082      58.032      56.813      49.846      39.312      27.970      18.041      10.779      6.5130      4.7091    
  4.1222      3.8641      3.9200      4.2809      5.1283      7.6869      13.035      21.418      32.149      43.555    
  38.123      43.119      43.553      39.312      31.812      23.208      15.414      9.5852      6.0791      4.5301    
  3.9695      3.6730      3.6358      3.8661      4.3413      5.4971      8.4480      13.820      21.417      30.151    
  24.740      28.949      30.151      27.970      23.208      17.376      11.942      7.8390      5.3680      4.2579    
  3.7834      3.4903      3.3992      3.5184      3.8511      4.3898      5.6490      8.4479      13.035      18.885    
  14.592      17.585      18.886      18.041      15.414      11.942      8.6250      6.1268      4.6490      3.9704    
  3.5873      3.3295      3.2228      3.2681      3.4742      3.8494      4.3898      5.4971      7.6867      10.935    
  8.2696      9.9676      10.935      10.779      9.5852      7.8390      6.1268      4.8496      4.1063      3.7051    
  3.4002      3.1960      3.1024      3.1132      3.2314      3.4742      3.8511      4.3413      5.1282      6.4825    
  5.3550      6.0199      6.4829      6.5130      6.0791      5.3680      4.6490      4.1063      3.7491      3.4616    
  3.2370      3.0933      3.0298      3.0373      3.1132      3.2681      3.5184      3.8660      4.2808      4.7462    
  4.4763      4.6560      4.7463      4.7091      4.5301      4.2579      3.9704      3.7051      3.4616      3.2581    
  3.1108      3.0267      3.0026      3.0298      3.1024      3.2228      3.3992      3.6357      3.9200      4.2171    
  4.1725      4.2355      4.2171      4.1222      3.9695      3.7834      3.5873      3.4002      3.2370      3.1108    
  3.0314      3.0039      3.0267      3.0932      3.1960      3.3295      3.4903      3.6730      3.8641      4.0403    
  4.2355      4.1725      4.0403      3.8641      3.6730      3.4903      3.3295      3.1960      3.0933      3.0267    
  3.0039      3.0314      3.1107      3.2370      3.4002      3.5874      3.7835      3.9695      4.1223      4.2171    
  4.6559      4.4763      4.2171      3.9200      3.6358      3.3992      3.2228      3.1024      3.0298      3.0026    
  3.0267      3.1107      3.2581      3.4617      3.7053      3.9705      4.2580      4.5300      4.7090      4.7462    
  6.0197      5.3550      4.7462      4.2809      3.8661      3.5184      3.2681      3.1132      3.0373      3.0298    
  3.0932      3.2370      3.4617      3.7493      4.1065      4.6491      5.3680      6.0788      6.5126      6.4825    
  9.9674      8.2696      6.4827      5.1283      4.3413      3.8511      3.4742      3.2314      3.1132      3.1024    
  3.1960      3.4002      3.7053      4.1065      4.8498      6.1267      7.8385      9.5844      10.779      10.935    
  17.585      14.592      10.935      7.6869      5.4971      4.3898      3.8494      3.4742      3.2681      3.2228    
  3.3295      3.5874      3.9705      4.6491      6.1267      8.6244      11.941      15.413      18.040      18.885    
  28.950      24.741      18.886      13.035      8.4480      5.6490      4.3898      3.8511      3.5184      3.3992    
  3.4903      3.7835      4.2580      5.3680      7.8385      11.941      17.375      23.207      27.969      30.151    
  43.121      38.125      30.152      21.418      13.820      8.4479      5.4971      4.3413      3.8660      3.6357    
  3.6730      3.9695      4.5300      6.0788      9.5844      15.413      23.207      31.811      39.312      43.555    
  58.035      53.084      43.556      32.149      21.417      13.035      7.6867      5.1282      4.2808      3.9200    
  3.8641      4.1223      4.7090      6.5126      10.779      18.040      27.969      39.312      49.848      56.816    
  70.514      66.784      56.816      43.555      30.151      18.885      10.935      6.4825      4.7462      4.2171    
  4.0403      4.2171      4.7462      6.4825      10.935      18.885      30.151      43.555      56.816      66.784    
  65.731      66.782      60.850      49.847      36.836      24.611      14.963      8.6499      5.5002      4.4459    
  4.0642      4.0087      4.2938      5.0076      7.3333      12.608      21.319      32.980      46.077      58.035    
  66.782      70.510      66.780      56.813      43.553      30.151      18.886      10.935      6.4829      4.7463    
  4.2171      4.0403      4.2171      4.7462      6.4827      10.935      18.886      30.152      43.556      56.816    
  60.850      66.780      65.728      58.032      46.075      32.979      21.319      12.608      7.3336      5.0078    
  4.2938      4.0087      4.0642      4.4459      5.5002      8.6500      14.963      24.612      36.837      49.848    
  49.847      56.813      58.032      53.082      43.555      32.150      21.418      13.036      7.6872      5.1284    
  4.2808      3.9200      3.8641      4.1223      4.7091      6.5128      10.779      18.041      27.970      39.312    
  36.836      43.553      46.075      43.555      36.838      27.971      19.178      12.065      7.3775      5.0263    
  4.1838      3.7895      3.6518      3.7895      4.1838      5.0263      7.3773      12.064      19.176      27.969    
  24.611      30.151      32.979      32.150      27.971      21.821      15.414      10.099      6.5431      4.7258    
  4.0226      3.6365      3.4562      3.4983      3.7640      4.2311      5.2499      7.7117      12.064      18.040    
  14.963      18.886      21.319      21.418      19.178      15.414      11.304      7.8385      5.5239      4.3432    
  3.8237      3.4785      3.2936      3.2766      3.4299      3.7601      4.2520      5.2499      7.3771      10.779    
  8.6499      10.935      12.608      13.036      12.065      10.099      7.8385      5.9149      4.6486      3.9944    
  3.6124      3.3287      3.1676      3.1273      3.2047      3.4119      3.7601      4.2311      5.0262      6.5126    
  5.5002      6.4829      7.3336      7.6872      7.3775      6.5431      5.5239      4.6486      4.0686      3.7051    
  3.4107      3.1974      3.0762      3.0396      3.0803      3.2047      3.4299      3.7640      4.1838      4.7090    
  4.4459      4.7463      5.0078      5.1284      5.0263      4.7258      4.3432      3.9944      3.7051      3.4463    
  3.2371      3.0937      3.0186      3.0034      3.0396      3.1273      3.2766      3.4983      3.7895      4.1223    
  4.0642      4.2171      4.2938      4.2808      4.1838      4.0226      3.8237      3.6124      3.4107      3.2371    
  3.1062      3.0267      2.9994      3.0185      3.0762      3.1676      3.2936      3.4562      3.6518      3.8641    
  4.0087      4.0403      4.0087      3.9200      3.7895      3.6365      3.4785      3.3287      3.1974      3.0937    
  3.0267      3.0034      3.0266      3.0937      3.1974      3.3287      3.4785      3.6365      3.7895      3.9200    
  4.2938      4.2171      4.0642      3.8641      3.6518      3.4562      3.2936      3.1676      3.0762      3.0186    
  2.9994      3.0266      3.1061      3.2370      3.4107      3.6126      3.8239      4.0227      4.1838      4.2808    
  5.0076      4.7462      4.4459      4.1223      3.7895      3.4983      3.2766      3.1273      3.0396      3.0034    
  3.0185      3.0937      3.2370      3.4463      3.7053      3.9947      4.3435      4.7259      5.0262      5.1282    
  7.3333      6.4827      5.5002      4.7091      4.1838      3.7640      3.4299      3.2047      3.0803      3.0396    
  3.0762      3.1974      3.4107      3.7053      4.0689      4.6490      5.5242      6.5429      7.3771      7.6867    
  12.608      10.935      8.6500      6.5128      5.0263      4.2311      3.7601      3.4119      3.2047      3.1273    
  3.1676      3.3287      3.6126      3.9947      4.6490      5.9152      7.8383      10.098      12.064      13.035    
  21.319      18.886      14.963      10.779      7.3773      5.2499      4.2520      3.7601      3.4299      3.2766    
  3.2936      3.4785      3.8239      4.3435      5.5242      7.8383      11.304      15.413      19.176      21.417    
  32.980      30.152      24.612      18.041      12.064      7.7117      5.2499      4.2311      3.7640      3.4983    
  3.4562      3.6365      4.0227      4.7259      6.5429      10.098      15.413      21.819      27.970      32.149    
  46.077      43.556      36.837      27.970      19.176      12.064      7.3771      5.0262      4.1838      3.7895    
  3.6518      3.7895      4.1838      5.0262      7.3771      12.064      19.176      27.970      36.837      43.556    
  58.035      56.816      49.848      39.312      27.969      18.040      10.779      6.5126      4.7090      4.1223    
  3.8641      3.9200      4.2808      5.1282      7.6867      13.035      21.417      32.149      43.556      53.084    
  50.572      53.082      49.847      41.968      31.811      21.819      13.692      8.2171      5.3598      4.3223    
  3.9069      3.7637      3.9209      4.3570      5.4426      8.4393      14.196      22.697      32.980      43.121    
  53.082      58.032      56.813      49.846      39.312      27.970      18.041      10.779      6.5130      4.7091    
  4.1222      3.8641      3.9200      4.2809      5.1283      7.6869      13.035      21.418      32.149      43.555    
  49.847      56.813      58.032      53.082      43.555      32.150      21.418      13.036      7.6872      5.1284    
  4.2808      3.9200      3.8641      4.1223      4.7091      6.5128      10.779      18.041      27.970      39.312    
  41.968      49.846      53.082      50.572      43.122      32.981      22.698      14.196      8.4395      5.4426    
  4.3569      3.9209      3.7638      3.9069      4.3222      5.3597      8.2170      13.692      21.819      31.811    
  31.811      39.312      43.555      43.122      38.126      30.154      21.419      13.820      8.4479      5.4969    
  4.3412      3.8660      3.6357      3.6730      3.9694      4.5300      6.0788      9.5845      15.413      23.207    
  21.819      27.970      32.150      32.981      30.154      24.614      18.042      12.064      7.7114      5.2495    
  4.2309      3.7639      3.4983      3.4562      3.6365      4.0227      4.7260      6.5430      10.098      15.413    
  13.692      18.041      21.418      22.698      21.419      18.042      13.692      9.5840      6.5423      4.8072    
  4.0511      3.6293      3.3660      3.2793      3.3660      3.6293      4.0513      4.8077      6.5429      9.5844    
  8.2171      10.779      13.036      14.196      13.820      12.064      9.5840      7.1653      5.3671      4.3430    
  3.8375      3.4792      3.2475      3.1492      3.1761      3.3326      3.6297      4.0513      4.7259      6.0788    
  5.3598      6.5130      7.6872      8.4395      8.4479      7.7114      6.5423      5.3671      4.4921      3.9703    
  3.6126      3.3303      3.1473      3.0616      3.0618      3.1474      3.3326      3.6293      4.0227      4.5300    
  4.3223      4.7091      5.1284      5.4426      5.4969      5.2495      4.8072      4.3430      3.9703      3.6665    
  3.4003      3.1975      3.0691      3.0101      3.0091      3.0618      3.1761      3.3660      3.6365      3.9695    
  3.9069      4.1222      4.2808      4.3569      4.3412      4.2309      4.0511      3.8375      3.6126      3.4003    
  3.2223      3.0933      3.0186      2.9937      3.0101      3.0616      3.1492      3.2793      3.4562      3.6730    
  3.7637      3.8641      3.9200      3.9209      3.8660      3.7639      3.6293      3.4792      3.3303      3.1975    
  3.0933      3.0270      3.0026      3.0186      3.0691      3.1473      3.2475      3.3660      3.4983      3.6357    
  3.9209      3.9200      3.8641      3.7638      3.6357      3.4983      3.3660      3.2475      3.1473      3.0691    
  3.0186      3.0026      3.0270      3.0933      3.1974      3.3302      3.4792      3.6293      3.7640      3.8660    
  4.3570      4.2809      4.1223      3.9069      3.6730      3.4562      3.2793      3.1492      3.0616      3.0101    
  2.9937      3.0186      3.0933      3.2222      3.4002      3.6125      3.8376      4.0513      4.2311      4.3413    
  5.4426      5.1283      4.7091      4.3222      3.9694      3.6365      3.3660      3.1761      3.0618      3.0091    
  3.0101      3.0691      3.1974      3.4002      3.6665      3.9705      4.3435      4.8077      5.2499      5.4971    
  8.4393      7.6869      6.5128      5.3597      4.5300      4.0227      3.6293      3.3326      3.1474      3.0618    
  3.0616      3.1473      3.3302      3.6125      3.9705      4.4926      5.3678      6.5430      7.7117      8.4479    
  14.196      13.035      10.779      8.2170      6.0788      4.7260      4.0513      3.6297      3.3326      3.1761    
  3.1492      3.2475      3.4792      3.8376      4.3435      5.3678      7.1662      9.5845      12.064      13.820    
  22.697      21.418      18.041      13.692      9.5845      6.5430      4.8077      4.0513      3.6293      3.3660    
  3.2793      3.3660      3.6293      4.0513      4.8077      6.5430      9.5845      13.692      18.041      21.418    
  32.980      32.149      27.970      21.819      15.413      10.098      6.5429      4.7259      4.0227      3.6365    
  3.4562      3.4983      3.7640      4.2311      5.2499      7.7117      12.064      18.041      24.612      30.152    
  43.121      43.555      39.312      31.811      23.207      15.413      9.5844      6.0788      4.5300      3.9695    
  3.6730      3.6357      3.8660      4.3413      5.4971      8.4479      13.820      21.418      30.152      38.125    
  35.177      38.123      36.836      31.811      24.687      17.375      11.304      7.1666      4.9734      4.1287    
  3.7255      3.5363      3.5896      3.8883      4.4209      5.7459      8.8649      14.196      21.319      28.950    
  38.123      43.119      43.553      39.312      31.812      23.208      15.414      9.5852      6.0791      4.5301    
  3.9695      3.6730      3.6358      3.8661      4.3413      5.4971      8.4480      13.820      21.417      30.151    
  36.836      43.553      46.075      43.555      36.838      27.971      19.178      12.065      7.3775      5.0263    
  4.1838      3.7895      3.6518      3.7895      4.1838      5.0263      7.3773      12.064      19.176      27.969    
  31.811      39.312      43.555      43.122      38.126      30.154      21.419      13.820      8.4479      5.4969    
  4.3412      3.8660      3.6357      3.6730      3.9694      4.5300      6.0788      9.5845      15.413      23.207    
  24.687      31.812      36.838      38.126      35.180      28.952      21.319      14.195      8.8643      5.7453    
  4.4205      3.8881      3.5895      3.5363      3.7255      4.1286      4.9732      7.1662      11.304      17.375    
  17.375      23.208      27.971      30.154      28.952      24.742      18.886      13.034      8.4468      5.6481    
  4.3894      3.8510      3.5184      3.3992      3.4903      3.7834      4.2579      5.3678      7.8383      11.941    
  11.304      15.414      19.178      21.419      21.319      18.886      14.962      10.777      7.3759      5.2491    
  4.2517      3.7601      3.4299      3.2766      3.2936      3.4785      3.8239      4.3435      5.5242      7.8385    
  7.1666      9.5852      12.065      13.820      14.195      13.034      10.777      8.2154      6.0777      4.7255    
  4.0513      3.6298      3.3327      3.1761      3.1492      3.2475      3.4792      3.8376      4.3435      5.3680    
  4.9734      6.0791      7.3775      8.4479      8.8643      8.4468      7.3759      6.0777      4.9727      4.2579    
  3.8242      3.4795      3.2357      3.0988      3.0559      3.0988      3.2355      3.4792      3.8239      4.2580    
  4.1287      4.5301      5.0263      5.4969      5.7453      5.6481      5.2491      4.7255      4.2579      3.9013    
  3.5878      3.3290      3.1474      3.0433      3.0048      3.0222      3.0988      3.2475      3.4785      3.7835    
  3.7255      3.9695      4.1838      4.3412      4.4205      4.3894      4.2517      4.0513      3.8242      3.5878    
  3.3707      3.1962      3.0762      3.0101      2.9891      3.0048      3.0558      3.1492      3.2936      3.4903    
  3.5363      3.6730      3.7895      3.8660      3.8881      3.8510      3.7601      3.6298      3.4795      3.3290    
  3.1962      3.0941      3.0298      3.0034      3.0101      3.0433      3.0988      3.1761      3.2766      3.3992    
  3.5896      3.6358      3.6518      3.6357      3.5895      3.5184      3.4299      3.3327      3.2357      3.1474    
  3.0762      3.0298      3.0136      3.0298      3.0762      3.1472      3.2355      3.3326      3.4299      3.5184    
  3.8883      3.8661      3.7895      3.6730      3.5363      3.3992      3.2766      3.1761      3.0988      3.0433    
  3.0101      3.0034      3.0298      3.0941      3.1960      3.3287      3.4792      3.6297      3.7601      3.8511    
  4.4209      4.3413      4.1838      3.9694      3.7255      3.4903      3.2936      3.1492      3.0559      3.0048    
  2.9891      3.0101      3.0762      3.1960      3.3704      3.5874      3.8239      4.0513      4.2520      4.3898    
  5.7459      5.4971      5.0263      4.5300      4.1286      3.7834      3.4785      3.2475      3.0988      3.0222    
  3.0048      3.0433      3.1472      3.3287      3.5874      3.9009      4.2579      4.7260      5.2499      5.6490    
  8.8649      8.4480      7.3773      6.0788      4.9732      4.2579      3.8239      3.4792      3.2355      3.0988    
  3.0558      3.0988      3.2355      3.4792      3.8239      4.2579      4.9732      6.0788      7.3773      8.4480    
  14.196      13.820      12.064      9.5845      7.1662      5.3678      4.3435      3.8376      3.4792      3.2475    
  3.1492      3.1761      3.3326      3.6297      4.0513      4.7260      6.0788      8.2170      10.779      13.035    
  21.319      21.417      19.176      15.413      11.304      7.8383      5.5242      4.3435      3.8239      3.4785    
  3.2936      3.2766      3.4299      3.7601      4.2520      5.2499      7.3773      10.779      14.963      18.886    
  28.950      30.151      27.969      23.207      17.375      11.941      7.8385      5.3680      4.2580      3.7835    
  3.4903      3.3992      3.5184      3.8511      4.3898      5.6490      8.4480      13.035      18.886      24.741    
  22.101      24.740      24.611      21.819      17.375      12.621      8.6248      5.9155      4.4928      3.9009    
  3.5416      3.3468      3.3345      3.5109      3.8817      4.4516      5.7459      8.4393      12.608      17.585    
  24.740      28.949      30.151      27.970      23.208      17.376      11.942      7.8390      5.3680      4.2579    
  3.7834      3.4903      3.3992      3.5184      3.8511      4.3898      5.6490      8.4479      13.035      18.885    
  24.611      30.151      32.979      32.150      27.971      21.821      15.414      10.099      6.5431      4.7258    
  4.0226      3.6365      3.4562      3.4983      3.7640      4.2311      5.2499      7.7117      12.064      18.040    
  21.819      27.970      32.150      32.981      30.154      24.614      18.042      12.064      7.7114      5.2495    
  4.2309      3.7639      3.4983      3.4562      3.6365      4.0227      4.7260      6.5430      10.098      15.413    
  17.375      23.208      27.971      30.154      28.952      24.742      18.886      13.034      8.4468      5.6481    
  4.3894      3.8510      3.5184      3.3992      3.4903      3.7834      4.2579      5.3678      7.8383      11.941    
  12.621      17.376      21.821      24.614      24.742      22.102      17.585      12.606      8.4376      5.7449    
  4.4512      3.8816      3.5110      3.3345      3.3468      3.5417      3.9009      4.4926      5.9152      8.6244    
  8.6248      11.942      15.414      18.042      18.886      17.585      14.590      10.933      7.6853      5.4964    
  4.3898      3.8497      3.4744      3.2682      3.2228      3.3295      3.5874      3.9705      4.6490      6.1267    
  5.9155      7.8390      10.099      12.064      13.034      12.606      10.933      8.6481      6.5118      5.0263    
  4.2316      3.7606      3.4122      3.2048      3.1274      3.1676      3.3287      3.6125      3.9947      4.6491    
  4.4928      5.3680      6.5431      7.7114      8.4468      8.4376      7.6853      6.5118      5.3597      4.5306    
  4.0235      3.6299      3.3329      3.1475      3.0618      3.0616      3.1472      3.3302      3.6126      3.9705    
  3.9009      4.2579      4.7258      5.2495      5.6481      5.7449      5.4964      5.0263      4.5306      4.1296    
  3.7842      3.4790      3.2476      3.0988      3.0222      3.0047      3.0433      3.1473      3.3287      3.5874    
  3.5416      3.7834      4.0226      4.2309      4.3894      4.4512      4.3898      4.2316      4.0235      3.7842    
  3.5422      3.3297      3.1676      3.0615      3.0047      2.9873      3.0048      3.0616      3.1676      3.3295    
  3.3468      3.4903      3.6365      3.7639      3.8510      3.8816      3.8497      3.7606      3.6299      3.4790    
  3.3297      3.2002      3.1023      3.0395      3.0090      3.0047      3.0222      3.0618      3.1273      3.2228    
  3.3345      3.3992      3.4562      3.4983      3.5184      3.5110      3.4744      3.4122      3.3329      3.2476    
  3.1676      3.1023      3.0579      3.0372      3.0396      3.0616      3.0988      3.1474      3.2047      3.2681    
  3.5109      3.5184      3.4983      3.4562      3.3992      3.3345      3.2682      3.2048      3.1475      3.0988    
  3.0615      3.0395      3.0372      3.0580      3.1024      3.1676      3.2475      3.3326      3.4119      3.4742    
  3.8817      3.8511      3.7640      3.6365      3.4903      3.3468      3.2228      3.1274      3.0618      3.0222    
  3.0047      3.0090      3.0396      3.1024      3.2003      3.3295      3.4785      3.6293      3.7601      3.8494    
  4.4516      4.3898      4.2311      4.0227      3.7834      3.5417      3.3295      3.1676      3.0616      3.0047    
  2.9873      3.0047      3.0616      3.1676      3.3295      3.5417      3.7834      4.0227      4.2311      4.3898    
  5.7459      5.6490      5.2499      4.7260      4.2579      3.9009      3.5874      3.3287      3.1472      3.0433    
  3.0048      3.0222      3.0988      3.2475      3.4785      3.7834      4.1286      4.5300      5.0263      5.4971    
  8.4393      8.4479      7.7117      6.5430      5.3678      4.4926      3.9705      3.6125      3.3302      3.1473    
  3.0616      3.0618      3.1474      3.3326      3.6293      4.0227      4.5300      5.3597      6.5128      7.6869    
  12.608      13.035      12.064      10.098      7.8383      5.9152      4.6490      3.9947      3.6126      3.3287    
  3.1676      3.1273      3.2047      3.4119      3.7601      4.2311      5.0263      6.5128      8.6500      10.935    
  17.585      18.885      18.040      15.413      11.941      8.6244      6.1267      4.6491      3.9705      3.5874    
  3.3295      3.2228      3.2681      3.4742      3.8494      4.3898      5.4971      7.6869      10.935      14.592    
  12.691      14.592      14.963      13.692      11.304      8.6248      6.3578      4.8498      4.0689      3.6665    
  3.3704      3.2003      3.1612      3.2531      3.4901      3.8817      4.4209      5.4426      7.3333      9.9674    
  14.592      17.585      18.886      18.041      15.414      11.942      8.6250      6.1268      4.6490      3.9704    
  3.5873      3.3295      3.2228      3.2681      3.4742      3.8494      4.3898      5.4971      7.6867      10.935    
  14.963      18.886      21.319      21.418      19.178      15.414      11.304      7.8385      5.5239      4.3432    