bcc Fe                                  
   2.68700000000000     
    -0.499664    0.499664    0.499664
     0.499664   -0.499664    0.499664
     0.499664    0.499664   -0.499664
   Fe
     1
Direct
 -0.000000  0.000000 -0.000000
 
   20   20   20
 0.81198083933E+02 0.76956408325E+02 0.65617077440E+02 0.50502127774E+02 0.35147159782E+02
 0.22097655616E+02 0.12699090173E+02 0.72549442483E+01 0.50281333030E+01 0.44051947367E+01
 0.42146830873E+01 0.44051947367E+01 0.50281333030E+01 0.72549442483E+01 0.12699090173E+02
 0.22097655616E+02 0.35147159782E+02 0.50502127774E+02 0.65617077440E+02 0.76956408325E+02
 0.76956408325E+02 0.75561989760E+02 0.66664531826E+02 0.53005397268E+02 0.38085770983E+02
 0.24731890392E+02 0.14598416718E+02 0.82780583332E+01 0.53591799679E+01 0.44786730662E+01
 0.41758774545E+01 0.42386892177E+01 0.46580438914E+01 0.60254847017E+01 0.99763219359E+01
 0.17588515584E+02 0.28933316976E+02 0.43071846341E+02 0.57944183754E+02 0.70384787598E+02
 0.65617077440E+02 0.66664531826E+02 0.60750718857E+02 0.49779386566E+02 0.36801809325E+02
 0.24603085573E+02 0.14968620545E+02 0.86586230948E+01 0.55050646473E+01 0.44480592797E+01
 0.40674845808E+01 0.40121056700E+01 0.42963756174E+01 0.50110150420E+01 0.73411485104E+01
 0.12615623312E+02 0.21316284803E+02 0.32954937852E+02 0.46019694700E+02 0.57944183754E+02
 0.50502127774E+02 0.53005397268E+02 0.49779386566E+02 0.41921504832E+02 0.31788709578E+02
 0.21816044265E+02 0.13699247023E+02 0.82257753030E+01 0.53647341272E+01 0.43244239041E+01
 0.39100925405E+01 0.37671982315E+01 0.39240384952E+01 0.43590361200E+01 0.54475827994E+01
 0.84480871416E+01 0.14202474782E+02 0.22692911896E+02 0.32954937852E+02 0.43071846341E+02
 0.35147159782E+02 0.38085770983E+02 0.36801809325E+02 0.31788709578E+02 0.24679527966E+02
 0.17378938826E+02 0.11312886612E+02 0.71746571125E+01 0.49777014446E+01 0.41308710009E+01
 0.37286643855E+01 0.35397387407E+01 0.35929392705E+01 0.38911228390E+01 0.44231419417E+01
 0.57517013515E+01 0.88740006651E+01 0.14202474782E+02 0.21316284803E+02 0.28933316976E+02
 0.22097655616E+02 0.24731890392E+02 0.24603085573E+02 0.21816044265E+02 0.17378938826E+02
 0.12629068841E+02 0.86338101836E+01 0.59222195760E+01 0.44961365949E+01 0.39033063440E+01
 0.35447823954E+01 0.33501075761E+01 0.33378119239E+01 0.35141249754E+01 0.38842585323E+01
 0.44539933668E+01 0.57517013515E+01 0.84480871416E+01 0.12615623312E+02 0.17588515584E+02
 0.12699090173E+02 0.14598416718E+02 0.14968620545E+02 0.13699247023E+02 0.11312886612E+02
 0.86338101836E+01 0.63651735740E+01 0.48544816758E+01 0.40713919342E+01 0.36692366012E+01
 0.33735418857E+01 0.32034230458E+01 0.31642474627E+01 0.32561869294E+01 0.34932258601E+01
 0.38842585323E+01 0.44231419417E+01 0.54475827994E+01 0.73411485104E+01 0.99763219359E+01
 0.72549442483E+01 0.82780583332E+01 0.86586230948E+01 0.82257753030E+01 0.71746571125E+01
 0.59222195760E+01 0.48544816758E+01 0.41525983584E+01 0.37516898495E+01 0.34493339254E+01
 0.32253626015E+01 0.30971704148E+01 0.30609853854E+01 0.31112460260E+01 0.32561869294E+01
 0.35141249754E+01 0.38911228390E+01 0.43590361200E+01 0.50110150420E+01 0.60254847017E+01
 0.50281333030E+01 0.53591799679E+01 0.55050646473E+01 0.53647341272E+01 0.49777014446E+01
 0.44961365949E+01 0.40713919342E+01 0.37516898495E+01 0.34816017926E+01 0.32613939308E+01
 0.31093745161E+01 0.30301146400E+01 0.30166470058E+01 0.30609853854E+01 0.31642474627E+01
 0.33378119239E+01 0.35929392705E+01 0.39240384952E+01 0.42963756174E+01 0.46580438914E+01
 0.44051947367E+01 0.44786730662E+01 0.44480592797E+01 0.43244239041E+01 0.41308710009E+01
 0.39033063440E+01 0.36692366012E+01 0.34493339254E+01 0.32613939308E+01 0.31200950920E+01
 0.30347257780E+01 0.30066456538E+01 0.30301146400E+01 0.30971704148E+01 0.32034230458E+01
 0.33501075761E+01 0.35397387407E+01 0.37671982315E+01 0.40121056700E+01 0.42386892177E+01
 0.42146830873E+01 0.41758774545E+01 0.40674845808E+01 0.39100925405E+01 0.37286643855E+01
 0.35447823954E+01 0.33735418857E+01 0.32253626015E+01 0.31093745161E+01 0.30347257780E+01
 0.30088677162E+01 0.30347257780E+01 0.31093745161E+01 0.32253626015E+01 0.33735418857E+01
 0.35447823954E+01 0.37286643855E+01 0.39100925405E+01 0.40674845808E+01 0.41758774545E+01
 0.44051947367E+01 0.42386892177E+01 0.40121056700E+01 0.37671982315E+01 0.35397387407E+01
 0.33501075761E+01 0.32034230458E+01 0.30971704148E+01 0.30301146400E+01 0.30066456538E+01
 0.30347257780E+01 0.31200950920E+01 0.32613939308E+01 0.34493339254E+01 0.36692366012E+01
 0.39033063440E+01 0.41308710009E+01 0.43244239041E+01 0.44480592797E+01 0.44786730662E+01
 0.50281333030E+01 0.46580438914E+01 0.42963756174E+01 0.39240384952E+01 0.35929392705E+01
 0.33378119239E+01 0.31642474627E+01 0.30609853854E+01 0.30166470058E+01 0.30301146400E+01
 0.31093745161E+01 0.32613939308E+01 0.34816017926E+01 0.37516898495E+01 0.40713919342E+01
 0.44961365949E+01 0.49777014446E+01 0.53647341272E+01 0.55050646473E+01 0.53591799679E+01
 0.72549442483E+01 0.60254847017E+01 0.50110150420E+01 0.43590361200E+01 0.38911228390E+01
 0.35141249754E+01 0.32561869294E+01 0.31112460260E+01 0.30609853854E+01 0.30971704148E+01
 0.32253626015E+01 0.34493339254E+01 0.37516898495E+01 0.41525983584E+01 0.48544816758E+01
 0.59222195760E+01 0.71746571125E+01 0.82257753030E+01 0.86586230948E+01 0.82780583332E+01
 0.12699090173E+02 0.99763219359E+01 0.73411485104E+01 0.54475827994E+01 0.44231419417E+01
 0.38842585323E+01 0.34932258601E+01 0.32561869294E+01 0.31642474627E+01 0.32034230458E+01
 0.33735418857E+01 0.36692366012E+01 0.40713919342E+01 0.48544816758E+01 0.63651735740E+01
 0.86338101836E+01 0.11312886612E+02 0.13699247023E+02 0.14968620545E+02 0.14598416718E+02
 0.22097655616E+02 0.17588515584E+02 0.12615623312E+02 0.84480871416E+01 0.57517013515E+01
 0.44539933668E+01 0.38842585323E+01 0.35141249754E+01 0.33378119239E+01 0.33501075761E+01
 0.35447823954E+01 0.39033063440E+01 0.44961365949E+01 0.59222195760E+01 0.86338101836E+01
 0.12629068841E+02 0.17378938826E+02 0.21816044265E+02 0.24603085573E+02 0.24731890392E+02
 0.35147159782E+02 0.28933316976E+02 0.21316284803E+02 0.14202474782E+02 0.88740006651E+01
 0.57517013515E+01 0.44231419417E+01 0.38911228390E+01 0.35929392705E+01 0.35397387407E+01
 0.37286643855E+01 0.41308710009E+01 0.49777014446E+01 0.71746571125E+01 0.11312886612E+02
 0.17378938826E+02 0.24679527966E+02 0.31788709578E+02 0.36801809325E+02 0.38085770983E+02
 0.50502127774E+02 0.43071846341E+02 0.32954937852E+02 0.22692911896E+02 0.14202474782E+02
 0.84480871416E+01 0.54475827994E+01 0.43590361200E+01 0.39240384952E+01 0.37671982315E+01
 0.39100925405E+01 0.43244239041E+01 0.53647341272E+01 0.82257753030E+01 0.13699247023E+02
 0.21816044265E+02 0.31788709578E+02 0.41921504832E+02 0.49779386566E+02 0.53005397268E+02
 0.65617077440E+02 0.57944183754E+02 0.46019694700E+02 0.32954937852E+02 0.21316284803E+02
 0.12615623312E+02 0.73411485104E+01 0.50110150420E+01 0.42963756174E+01 0.40121056700E+01
 0.40674845808E+01 0.44480592797E+01 0.55050646473E+01 0.86586230948E+01 0.14968620545E+02
 0.24603085573E+02 0.36801809325E+02 0.49779386566E+02 0.60750718857E+02 0.66664531826E+02
 0.76956408325E+02 0.70384787598E+02 0.57944183754E+02 0.43071846341E+02 0.28933316976E+02
 0.17588515584E+02 0.99763219359E+01 0.60254847017E+01 0.46580438914E+01 0.42386892177E+01
 0.41758774545E+01 0.44786730662E+01 0.53591799679E+01 0.82780583332E+01 0.14598416718E+02
 0.24731890392E+02 0.38085770983E+02 0.53005397268E+02 0.66664531826E+02 0.75561989760E+02
 0.76956408325E+02 0.75561989760E+02 0.66664531826E+02 0.53005397268E+02 0.38085770983E+02
 0.24731890392E+02 0.14598416718E+02 0.82780583332E+01 0.53591799679E+01 0.44786730662E+01
 0.41758774545E+01 0.42386892177E+01 0.46580438914E+01 0.60254847017E+01 0.99763219359E+01
 0.17588515584E+02 0.28933316976E+02 0.43071846341E+02 0.57944183754E+02 0.70384787598E+02
 0.75561989760E+02 0.76954361478E+02 0.70381490339E+02 0.57940968433E+02 0.43069696485E+02
 0.28932400059E+02 0.17588399689E+02 0.99764934149E+01 0.60256575636E+01 0.46581393912E+01
 0.42387073065E+01 0.41758402568E+01 0.44786171250E+01 0.53591478563E+01 0.82781419217E+01
 0.14598855447E+02 0.24733041314E+02 0.38087789345E+02 0.53007826730E+02 0.66666292124E+02
 0.66664531826E+02 0.70381490339E+02 0.66662556312E+02 0.56726198203E+02 0.43502789341E+02
 0.30132087674E+02 0.18887130508E+02 0.10943889035E+02 0.64896174961E+01 0.47488036850E+01
 0.42201105557E+01 0.40437114809E+01 0.42200999742E+01 0.47487366921E+01 0.64894677494E+01
 0.10943802592E+02 0.18887534317E+02 0.30133499564E+02 0.43505307829E+02 0.56729100899E+02
 0.53005397268E+02 0.57940968433E+02 0.56726198203E+02 0.49779201202E+02 0.39271984664E+02
 0.27955611753E+02 0.18043825207E+02 0.10788200010E+02 0.65199984319E+01 0.47119149663E+01
 0.41250391412E+01 0.38675550492E+01 0.39233090089E+01 0.42831589851E+01 0.51323112665E+01
 0.76952175500E+01 0.13042889692E+02 0.21415301380E+02 0.32126391078E+02 0.43504209178E+02
 0.38085770983E+02 0.43069696485E+02 0.43502789341E+02 0.39271984664E+02 0.31789783793E+02
 0.23203200566E+02 0.15419804850E+02 0.95942380031E+01 0.60856789739E+01 0.45327860957E+01
 0.39722123541E+01 0.36763917672E+01 0.36392104963E+01 0.38691136761E+01 0.43434591950E+01
 0.55023778841E+01 0.84569258257E+01 0.13826847589E+02 0.21414840409E+02 0.30132230955E+02
 0.24731890392E+02 0.28932400059E+02 0.30132087674E+02 0.27955611753E+02 0.23203200566E+02
 0.17379830777E+02 0.11950132365E+02 0.78476071814E+01 0.53735775066E+01 0.42603102580E+01
 0.37862370696E+01 0.34936276460E+01 0.34026001861E+01 0.35217069768E+01 0.38538261632E+01
 0.43921553077E+01 0.56546763113E+01 0.84568283390E+01 0.13042473318E+02 0.18886660751E+02
 0.14598416718E+02 0.17588399689E+02 0.18887130508E+02 0.18043825207E+02 0.15419804850E+02
 0.11950132365E+02 0.86339572242E+01 0.61338724613E+01 0.46529942415E+01 0.39725956001E+01
 0.35903334705E+01 0.33327013201E+01 0.32259775232E+01 0.32713252986E+01 0.34773357876E+01
 0.38520737427E+01 0.43921685784E+01 0.55023284057E+01 0.76949910087E+01 0.10943377852E+02
 0.82780583332E+01 0.99764934149E+01 0.10943889035E+02 0.10788200010E+02 0.95942380031E+01
 0.78476071814E+01 0.61338724613E+01 0.48542676909E+01 0.41089180825E+01 0.37077221005E+01
 0.34032944725E+01 0.31991946603E+01 0.31054375433E+01 0.31161622973E+01 0.32344650076E+01
 0.34773490460E+01 0.38538424965E+01 0.43434328806E+01 0.51322011151E+01 0.64893042119E+01
 0.53591799679E+01 0.60256575636E+01 0.64896174961E+01 0.65199984319E+01 0.60856789739E+01
 0.53735775066E+01 0.46529942415E+01 0.41089180825E+01 0.37515739654E+01 0.34646964162E+01
 0.32402609642E+01 0.30964474601E+01 0.30327959396E+01 0.30402317947E+01 0.31161566517E+01
 0.32713225922E+01 0.35216943070E+01 0.38690735305E+01 0.42830946023E+01 0.47486870653E+01
 0.44786730662E+01 0.46581393912E+01 0.47488036850E+01 0.47119149663E+01 0.45327860957E+01
 0.42603102580E+01 0.39725956001E+01 0.37077221005E+01 0.34646964162E+01 0.32614240025E+01
 0.31140826207E+01 0.30298841808E+01 0.30056575568E+01 0.30327705397E+01 0.31054126360E+01
 0.32259562856E+01 0.34025720432E+01 0.36391762704E+01 0.39232874455E+01 0.42201123743E+01
 0.41758774545E+01 0.42387073065E+01 0.42201105557E+01 0.41250391412E+01 0.39722123541E+01
 0.37862370696E+01 0.35903334705E+01 0.34032944725E+01 0.32402609642E+01 0.31140826207E+01
 0.30347321467E+01 0.30071376883E+01 0.30298390625E+01 0.30963999790E+01 0.31991736312E+01
 0.33327010210E+01 0.34936309319E+01 0.36763983556E+01 0.38675774754E+01 0.40437503922E+01
 0.42386892177E+01 0.41758402568E+01 0.40437114809E+01 0.38675550492E+01 0.36763917672E+01
 0.34936276460E+01 0.33327013201E+01 0.31991946603E+01 0.30964474601E+01 0.30298841808E+01
 0.30071376883E+01 0.30346780299E+01 0.31140170422E+01 0.32402405072E+01 0.34033367484E+01
 0.35904070778E+01 0.37862997564E+01 0.39722480883E+01 0.41250553895E+01 0.42201123743E+01
 0.46580438914E+01 0.44786171250E+01 0.42200999742E+01 0.39233090089E+01 0.36392104963E+01
 0.34026001861E+01 0.32259775232E+01 0.31054375433E+01 0.30327959396E+01 0.30056575568E+01
 0.30298390625E+01 0.31140170422E+01 0.32614032245E+01 0.34647714578E+01 0.37078763631E+01
 0.39727504929E+01 0.42603860754E+01 0.45327580176E+01 0.47118161498E+01 0.47486870653E+01
 0.60254847017E+01 0.53591478563E+01 0.47487366921E+01 0.42831589851E+01 0.38691136761E+01
 0.35217069768E+01 0.32713252986E+01 0.31161622973E+01 0.30402317947E+01 0.30327705397E+01
 0.30963999790E+01 0.32402405072E+01 0.34647714578E+01 0.37517651955E+01 0.41091514535E+01
 0.46531308282E+01 0.53735080551E+01 0.60854054594E+01 0.65196330825E+01 0.64893042119E+01
 0.99763219359E+01 0.82781419217E+01 0.64894677494E+01 0.51323112665E+01 0.43434591950E+01
 0.38538261632E+01 0.34773357876E+01 0.32344650076E+01 0.31161566517E+01 0.31054126360E+01
 0.31991736312E+01 0.34033367484E+01 0.37078763631E+01 0.41091514535E+01 0.48544349289E+01
 0.61337806460E+01 0.78471531580E+01 0.95935117131E+01 0.10787452950E+02 0.10943377852E+02
 0.17588515584E+02 0.14598855447E+02 0.10943802592E+02 0.76952175500E+01 0.55023778841E+01
 0.43921553077E+01 0.38520737427E+01 0.34773490460E+01 0.32713225922E+01 0.32259562856E+01
 0.33327010210E+01 0.35904070778E+01 0.39727504929E+01 0.46531308282E+01 0.61337806460E+01
 0.86334247669E+01 0.11949125998E+02 0.15418575236E+02 0.18042803775E+02 0.18886660751E+02
 0.28933316976E+02 0.24733041314E+02 0.18887534317E+02 0.13042889692E+02 0.84569258257E+01
 0.56546763113E+01 0.43921685784E+01 0.38538424965E+01 0.35216943070E+01 0.34025720432E+01
 0.34936309319E+01 0.37862997564E+01 0.42603860754E+01 0.53735080551E+01 0.78471531580E+01
 0.11949125998E+02 0.17378385534E+02 0.23201779547E+02 0.27954807961E+02 0.30132230955E+02
 0.43071846341E+02 0.38087789345E+02 0.30133499564E+02 0.21415301380E+02 0.13826847589E+02
 0.84568283390E+01 0.55023284057E+01 0.43434328806E+01 0.38690735305E+01 0.36391762704E+01
 0.36763983556E+01 0.39722480883E+01 0.45327580176E+01 0.60854054594E+01 0.95935117131E+01
 0.15418575236E+02 0.23201779547E+02 0.31788831271E+02 0.39272145849E+02 0.43504209178E+02
 0.57944183754E+02 0.53007826730E+02 0.43505307829E+02 0.32126391078E+02 0.21414840409E+02
 0.13042473318E+02 0.76949910087E+01 0.51322011151E+01 0.42830946023E+01 0.39232874455E+01
 0.38675774754E+01 0.41250553895E+01 0.47118161498E+01 0.65196330825E+01 0.10787452950E+02
 0.18042803775E+02 0.27954807961E+02 0.39272145849E+02 0.49780841084E+02 0.56729100899E+02
 0.70384787598E+02 0.66666292124E+02 0.56729100899E+02 0.43504209178E+02 0.30132230955E+02
 0.18886660751E+02 0.10943377852E+02 0.64893042119E+01 0.47486870653E+01 0.42201123743E+01
 0.40437503922E+01 0.42201123743E+01 0.47486870653E+01 0.64893042119E+01 0.10943377852E+02
 0.18886660751E+02 0.30132230955E+02 0.43504209178E+02 0.56729100899E+02 0.66666292124E+02
 0.65617077440E+02 0.66664531826E+02 0.60750718857E+02 0.49779386566E+02 0.36801809325E+02
 0.24603085573E+02 0.14968620545E+02 0.86586230948E+01 0.55050646473E+01 0.44480592797E+01
 0.40674845808E+01 0.40121056700E+01 0.42963756174E+01 0.50110150420E+01 0.73411485104E+01
 0.12615623312E+02 0.21316284803E+02 0.32954937852E+02 0.46019694700E+02 0.57944183754E+02
 0.66664531826E+02 0.70381490339E+02 0.66662556312E+02 0.56726198203E+02 0.43502789341E+02
 0.30132087674E+02 0.18887130508E+02 0.10943889035E+02 0.64896174961E+01 0.47488036850E+01
 0.42201105557E+01 0.40437114809E+01 0.42200999742E+01 0.47487366921E+01 0.64894677494E+01
 0.10943802592E+02 0.18887534317E+02 0.30133499564E+02 0.43505307829E+02 0.56729100899E+02
 0.60750718857E+02 0.66662556312E+02 0.65613700156E+02 0.57940755216E+02 0.46017423224E+02
 0.32954168148E+02 0.21316528806E+02 0.12616151500E+02 0.73415186261E+01 0.50111645973E+01
 0.42964133815E+01 0.40121210063E+01 0.40674993104E+01 0.44480581013E+01 0.55050621395E+01
 0.86587667247E+01 0.14969220310E+02 0.24604395547E+02 0.36803620484E+02 0.49780841084E+02
 0.49779386566E+02 0.56726198203E+02 0.57940755216E+02 0.53005179200E+02 0.43504257532E+02
 0.32126799278E+02 0.21415907087E+02 0.13043420215E+02 0.76955022043E+01 0.51323693278E+01
 0.42831240607E+01 0.39232983647E+01 0.38675954831E+01 0.41250719647E+01 0.47118485324E+01
 0.65197818576E+01 0.10787887624E+02 0.18043572543E+02 0.27955567041E+02 0.39272145849E+02
 0.36801809325E+02 0.43502789341E+02 0.46017423224E+02 0.43504257532E+02 0.36804099189E+02
 0.27957043588E+02 0.19178865710E+02 0.12073638866E+02 0.73856859907E+01 0.50303427129E+01
 0.41859618702E+01 0.37927369832E+01 0.36552525492E+01 0.37927581275E+01 0.41860035760E+01
 0.50303419631E+01 0.73854459013E+01 0.12072849536E+02 0.19177292736E+02 0.27954807961E+02
 0.24603085573E+02 0.30132087674E+02 0.32954168148E+02 0.32126799278E+02 0.27957043588E+02
 0.21817981624E+02 0.15420091312E+02 0.10108009769E+02 0.65504915692E+01 0.47294213190E+01
 0.40249374996E+01 0.36397048135E+01 0.34595888870E+01 0.35016823887E+01 0.37669399337E+01
 0.42332569216E+01 0.52548200828E+01 0.77202833926E+01 0.12072597864E+02 0.18042803775E+02
 0.14968620545E+02 0.18887130508E+02 0.21316528806E+02 0.21415907087E+02 0.19178865710E+02
 0.15420091312E+02 0.11313124596E+02 0.78471283996E+01 0.55298847758E+01 0.43460315272E+01
 0.38263010294E+01 0.34816719284E+01 0.32968276106E+01 0.32798427540E+01 0.34330692185E+01
 0.37628937147E+01 0.42541971113E+01 0.52547846287E+01 0.73852621036E+01 0.10787452950E+02
 0.86586230948E+01 0.10943889035E+02 0.12616151500E+02 0.13043420215E+02 0.12073638866E+02
 0.10108009769E+02 0.78471283996E+01 0.59215894604E+01 0.46526067336E+01 0.39966807399E+01
 0.36153157028E+01 0.33319112132E+01 0.31707537508E+01 0.31303646472E+01 0.32077823708E+01
 0.34150777711E+01 0.37629003975E+01 0.42332517494E+01 0.50302779246E+01 0.65196330825E+01
 0.55050646473E+01 0.64896174961E+01 0.73415186261E+01 0.76955022043E+01 0.73856859907E+01
 0.65504915692E+01 0.55298847758E+01 0.46526067336E+01 0.40710124485E+01 0.37076795393E+01
 0.34138234334E+01 0.32005712723E+01 0.30792051025E+01 0.30425157266E+01 0.30832297871E+01
 0.32077879958E+01 0.34330796513E+01 0.37669482834E+01 0.41859929075E+01 0.47118161498E+01
 0.44480592797E+01 0.47488036850E+01 0.50111645973E+01 0.51323693278E+01 0.50303427129E+01
 0.47294213190E+01 0.43460315272E+01 0.39966807399E+01 0.37076795393E+01 0.34493540978E+01
 0.32403023216E+01 0.30968906601E+01 0.30215905405E+01 0.30063157702E+01 0.30425170845E+01
 0.31303699954E+01 0.32798492773E+01 0.35016859722E+01 0.37927515181E+01 0.41250553895E+01
 0.40674845808E+01 0.42201105557E+01 0.42964133815E+01 0.42831240607E+01 0.41859618702E+01
 0.40249374996E+01 0.38263010294E+01 0.36153157028E+01 0.34138234334E+01 0.32403023216E+01
 0.31094152738E+01 0.30298612801E+01 0.30025135715E+01 0.30215777466E+01 0.30791969704E+01
 0.31707559343E+01 0.32968359719E+01 0.34595945977E+01 0.36552466505E+01 0.38675774754E+01
 0.40121056700E+01 0.40437114809E+01 0.40121210063E+01 0.39232983647E+01 0.37927369832E+01
 0.36397048135E+01 0.34816719284E+01 0.33319112132E+01 0.32005712723E+01 0.30968906601E+01
 0.30298612801E+01 0.30065887664E+01 0.30298319719E+01 0.30968556827E+01 0.32005599553E+01
 0.33319362374E+01 0.34817197910E+01 0.36397467121E+01 0.37927515181E+01 0.39232874455E+01
 0.42963756174E+01 0.42200999742E+01 0.40674993104E+01 0.38675954831E+01 0.36552525492E+01
 0.34595888870E+01 0.32968276106E+01 0.31707537508E+01 0.30792051025E+01 0.30215905405E+01
 0.30025135715E+01 0.30298319719E+01 0.31093653413E+01 0.32402746212E+01 0.34138671713E+01
 0.36154397889E+01 0.38264558390E+01 0.40250498419E+01 0.41859929075E+01 0.42830946023E+01
 0.50110150420E+01 0.47487366921E+01 0.44480581013E+01 0.41250719647E+01 0.37927581275E+01
 0.35016823887E+01 0.32798427540E+01 0.31303646472E+01 0.30425157266E+01 0.30063157702E+01
 0.30215777466E+01 0.30968556827E+01 0.32402746212E+01 0.34494061224E+01 0.37078693719E+01
 0.39969772517E+01 0.43463080801E+01 0.47295444195E+01 0.50302779246E+01 0.51322011151E+01
 0.73411485104E+01 0.64894677494E+01 0.55050621395E+01 0.47118485324E+01 0.41860035760E+01
 0.37669399337E+01 0.34330692185E+01 0.32077823708E+01 0.30832297871E+01 0.30425170845E+01
 0.30791969704E+01 0.32005599553E+01 0.34138671713E+01 0.37078693719E+01 0.40713758570E+01
 0.46530209376E+01 0.55301189338E+01 0.65503769239E+01 0.73852621036E+01 0.76949910087E+01
 0.12615623312E+02 0.10943802592E+02 0.86587667247E+01 0.65197818576E+01 0.50303419631E+01
 0.42332569216E+01 0.37628937147E+01 0.34150777711E+01 0.32077879958E+01 0.31303699954E+01
 0.31707559343E+01 0.33319362374E+01 0.36154397889E+01 0.39969772517E+01 0.46530209376E+01
 0.59218748915E+01 0.78469751709E+01 0.10107301513E+02 0.12072597864E+02 0.13042473318E+02
 0.21316284803E+02 0.18887534317E+02 0.14969220310E+02 0.10787887624E+02 0.73854459013E+01
 0.52548200828E+01 0.42541971113E+01 0.37629003975E+01 0.34330796513E+01 0.32798492773E+01
 0.32968359719E+01 0.34817197910E+01 0.38264558390E+01 0.43463080801E+01 0.55301189338E+01
 0.78469751709E+01 0.11312288870E+02 0.15418638284E+02 0.19177292736E+02 0.21414840409E+02
 0.32954937852E+02 0.30133499564E+02 0.24604395547E+02 0.18043572543E+02 0.12072849536E+02
 0.77202833926E+01 0.52547846287E+01 0.42332517494E+01 0.37669482834E+01 0.35016859722E+01
 0.34595945977E+01 0.36397467121E+01 0.40250498419E+01 0.47295444195E+01 0.65503769239E+01
 0.10107301513E+02 0.15418638284E+02 0.21816132088E+02 0.27955567041E+02 0.32126391078E+02
 0.46019694700E+02 0.43505307829E+02 0.36803620484E+02 0.27955567041E+02 0.19177292736E+02
 0.12072597864E+02 0.73852621036E+01 0.50302779246E+01 0.41859929075E+01 0.37927515181E+01
 0.36552466505E+01 0.37927515181E+01 0.41859929075E+01 0.50302779246E+01 0.73852621036E+01
 0.12072597864E+02 0.19177292736E+02 0.27955567041E+02 0.36803620484E+02 0.43505307829E+02
 0.57944183754E+02 0.56729100899E+02 0.49780841084E+02 0.39272145849E+02 0.27954807961E+02
 0.18042803775E+02 0.10787452950E+02 0.65196330825E+01 0.47118161498E+01 0.41250553895E+01
 0.38675774754E+01 0.39232874455E+01 0.42830946023E+01 0.51322011151E+01 0.76949910087E+01
 0.13042473318E+02 0.21414840409E+02 0.32126391078E+02 0.43505307829E+02 0.53007826730E+02
 0.50502127774E+02 0.53005397268E+02 0.49779386566E+02 0.41921504832E+02 0.31788709578E+02
 0.21816044265E+02 0.13699247023E+02 0.82257753030E+01 0.53647341272E+01 0.43244239041E+01
 0.39100925405E+01 0.37671982315E+01 0.39240384952E+01 0.43590361200E+01 0.54475827994E+01
 0.84480871416E+01 0.14202474782E+02 0.22692911896E+02 0.32954937852E+02 0.43071846341E+02
 0.53005397268E+02 0.57940968433E+02 0.56726198203E+02 0.49779201202E+02 0.39271984664E+02
 0.27955611753E+02 0.18043825207E+02 0.10788200010E+02 0.65199984319E+01 0.47119149663E+01
 0.41250391412E+01 0.38675550492E+01 0.39233090089E+01 0.42831589851E+01 0.51323112665E+01
 0.76952175500E+01 0.13042889692E+02 0.21415301380E+02 0.32126391078E+02 0.43504209178E+02
 0.49779386566E+02 0.56726198203E+02 0.57940755216E+02 0.53005179200E+02 0.43504257532E+02
 0.32126799278E+02 0.21415907087E+02 0.13043420215E+02 0.76955022043E+01 0.51323693278E+01
 0.42831240607E+01 0.39232983647E+01 0.38675954831E+01 0.41250719647E+01 0.47118485324E+01
 0.65197818576E+01 0.10787887624E+02 0.18043572543E+02 0.27955567041E+02 0.39272145849E+02
 0.41921504832E+02 0.49779201202E+02 0.53005179200E+02 0.50502176723E+02 0.43072365927E+02
 0.32955836521E+02 0.22693848573E+02 0.14203114156E+02 0.84483271928E+01 0.54475639757E+01
 0.43589685445E+01 0.39240350289E+01 0.37672415438E+01 0.39101079466E+01 0.43243604302E+01
 0.53646029595E+01 0.82256477363E+01 0.13699212518E+02 0.21816132088E+02 0.31788831271E+02
 0.31788709578E+02 0.39271984664E+02 0.43504257532E+02 0.43072365927E+02 0.38088812801E+02
 0.30134732369E+02 0.21416297384E+02 0.13827322012E+02 0.84568285712E+01 0.55021268213E+01
 0.43432770237E+01 0.38690337706E+01 0.36391854492E+01 0.36763794522E+01 0.39721880617E+01
 0.45326952912E+01 0.60853858097E+01 0.95935521039E+01 0.15418638284E+02 0.23201779547E+02
 0.21816044265E+02 0.27955611753E+02 0.32126799278E+02 0.32955836521E+02 0.30134732369E+02
 0.24605544021E+02 0.18044218671E+02 0.12072868698E+02 0.77199019488E+01 0.52543612903E+01
 0.42330051912E+01 0.37668712181E+01 0.35016643761E+01 0.34595581010E+01 0.36397059616E+01
 0.40250391432E+01 0.47295694976E+01 0.65504105925E+01 0.10107301513E+02 0.15418575236E+02
 0.13699247023E+02 0.18043825207E+02 0.21415907087E+02 0.22693848573E+02 0.21416297384E+02
 0.18044218671E+02 0.13699240118E+02 0.95930386159E+01 0.65497110482E+01 0.48111457390E+01
 0.40532090439E+01 0.36322886087E+01 0.33692345855E+01 0.32825330207E+01 0.33692366973E+01
 0.36323641375E+01 0.40534798300E+01 0.48116793684E+01 0.65503769239E+01 0.95935117131E+01
 0.82257753030E+01 0.10788200010E+02 0.13043420215E+02 0.14203114156E+02 0.13827322012E+02
 0.12072868698E+02 0.95930386159E+01 0.71734467343E+01 0.53726188531E+01 0.43458550098E+01
 0.38399895717E+01 0.34823005532E+01 0.32506488187E+01 0.31522459121E+01 0.31791750901E+01
 0.33358023050E+01 0.36326402839E+01 0.40534555299E+01 0.47295444195E+01 0.60854054594E+01
 0.53647341272E+01 0.65199984319E+01 0.76955022043E+01 0.84483271928E+01 0.84568285712E+01
 0.77199019488E+01 0.65497110482E+01 0.53726188531E+01 0.44954692055E+01 0.39724943934E+01
 0.36154497829E+01 0.33334535904E+01 0.31503895490E+01 0.30644976220E+01 0.30646551279E+01
 0.31504424345E+01 0.33357887200E+01 0.36323472196E+01 0.40250498419E+01 0.45327580176E+01
 0.43244239041E+01 0.47119149663E+01 0.51323693278E+01 0.54475639757E+01 0.55021268213E+01
 0.52543612903E+01 0.48111457390E+01 0.43458550098E+01 0.39724943934E+01 0.36692998384E+01
 0.34034688277E+01 0.32006448338E+01 0.30721915818E+01 0.30129647908E+01 0.30118841897E+01
 0.30646564699E+01 0.31791732675E+01 0.33692487453E+01 0.36397467121E+01 0.39722480883E+01
 0.39100925405E+01 0.41250391412E+01 0.42831240607E+01 0.43589685445E+01 0.43432770237E+01
 0.42330051912E+01 0.40532090439E+01 0.38399895717E+01 0.36154497829E+01 0.34034688277E+01
 0.32255080881E+01 0.30964804690E+01 0.30216022813E+01 0.29966569986E+01 0.30129709589E+01
 0.30645006751E+01 0.31522515606E+01 0.32825570782E+01 0.34595945977E+01 0.36763983556E+01
 0.37671982315E+01 0.38675550492E+01 0.39232983647E+01 0.39240350289E+01 0.38690337706E+01
 0.37668712181E+01 0.36322886087E+01 0.34823005532E+01 0.33334535904E+01 0.32006448338E+01
 0.30964804690E+01 0.30301044148E+01 0.30056495887E+01 0.30215994886E+01 0.30721732712E+01
 0.31503584207E+01 0.32506321560E+01 0.33692487453E+01 0.35016859722E+01 0.36391762704E+01
 0.39240384952E+01 0.39233090089E+01 0.38675954831E+01 0.37672415438E+01 0.36391854492E+01
 0.35016643761E+01 0.33692345855E+01 0.32506488187E+01 0.31503895490E+01 0.30721915818E+01
 0.30216022813E+01 0.30056495887E+01 0.30300948658E+01 0.30964344151E+01 0.32005586173E+01
 0.33333737712E+01 0.34822862446E+01 0.36323472196E+01 0.37669482834E+01 0.38690735305E+01
 0.43590361200E+01 0.42831589851E+01 0.41250719647E+01 0.39101079466E+01 0.36763794522E+01
 0.34595581010E+01 0.32825330207E+01 0.31522459121E+01 0.30644976220E+01 0.30129647908E+01
 0.29966569986E+01 0.30215994886E+01 0.30964344151E+01 0.32253945559E+01 0.34033387169E+01
 0.36154121744E+01 0.38401152200E+01 0.40534555299E+01 0.42332517494E+01 0.43434328806E+01
 0.54475827994E+01 0.51323112665E+01 0.47118485324E+01 0.43243604302E+01 0.39721880617E+01
 0.36397059616E+01 0.33692366973E+01 0.31791750901E+01 0.30646551279E+01 0.30118841897E+01
 0.30129709589E+01 0.30721732712E+01 0.32005586173E+01 0.34033387169E+01 0.36692535207E+01
 0.39726774777E+01 0.43462884779E+01 0.48116793684E+01 0.52547846287E+01 0.55023284057E+01
 0.84480871416E+01 0.76952175500E+01 0.65197818576E+01 0.53646029595E+01 0.45326952912E+01
 0.40250391432E+01 0.36323641375E+01 0.33358023050E+01 0.31504424345E+01 0.30646564699E+01
 0.30645006751E+01 0.31503584207E+01 0.33333737712E+01 0.36154121744E+01 0.39726774777E+01
 0.44959860736E+01 0.53733693747E+01 0.65504105925E+01 0.77202833926E+01 0.84568283390E+01
 0.14202474782E+02 0.13042889692E+02 0.10787887624E+02 0.82256477363E+01 0.60853858097E+01
 0.47295694976E+01 0.40534798300E+01 0.36326402839E+01 0.33357887200E+01 0.31791732675E+01
 0.31522515606E+01 0.32506321560E+01 0.34822862446E+01 0.38401152200E+01 0.43462884779E+01
 0.53733693747E+01 0.71742655209E+01 0.95935521039E+01 0.12072849536E+02 0.13826847589E+02
 0.22692911896E+02 0.21415301380E+02 0.18043572543E+02 0.13699212518E+02 0.95935521039E+01
 0.65504105925E+01 0.48116793684E+01 0.40534555299E+01 0.36323472196E+01 0.33692487453E+01
 0.32825570782E+01 0.33692487453E+01 0.36323472196E+01 0.40534555299E+01 0.48116793684E+01
 0.65504105925E+01 0.95935521039E+01 0.13699212518E+02 0.18043572543E+02 0.21415301380E+02
 0.32954937852E+02 0.32126391078E+02 0.27955567041E+02 0.21816132088E+02 0.15418638284E+02
 0.10107301513E+02 0.65503769239E+01 0.47295444195E+01 0.40250498419E+01 0.36397467121E+01
 0.34595945977E+01 0.35016859722E+01 0.37669482834E+01 0.42332517494E+01 0.52547846287E+01
 0.77202833926E+01 0.12072849536E+02 0.18043572543E+02 0.24604395547E+02 0.30133499564E+02
 0.43071846341E+02 0.43504209178E+02 0.39272145849E+02 0.31788831271E+02 0.23201779547E+02
 0.15418575236E+02 0.95935117131E+01 0.60854054594E+01 0.45327580176E+01 0.39722480883E+01
 0.36763983556E+01 0.36391762704E+01 0.38690735305E+01 0.43434328806E+01 0.55023284057E+01
 0.84568283390E+01 0.13826847589E+02 0.21415301380E+02 0.30133499564E+02 0.38087789345E+02
 0.35147159782E+02 0.38085770983E+02 0.36801809325E+02 0.31788709578E+02 0.24679527966E+02
 0.17378938826E+02 0.11312886612E+02 0.71746571125E+01 0.49777014446E+01 0.41308710009E+01
 0.37286643855E+01 0.35397387407E+01 0.35929392705E+01 0.38911228390E+01 0.44231419417E+01
 0.57517013515E+01 0.88740006651E+01 0.14202474782E+02 0.21316284803E+02 0.28933316976E+02
 0.38085770983E+02 0.43069696485E+02 0.43502789341E+02 0.39271984664E+02 0.31789783793E+02
 0.23203200566E+02 0.15419804850E+02 0.95942380031E+01 0.60856789739E+01 0.45327860957E+01