   1   1   0   0
  0.9700028E+01  0.2327010E-09  0.2327010E-09  0.2327010E-09  0.5000000E-15
  1.000000000000000E-004
  CAR 
 bcc Fe                                  
     36.05149453     -3.72851904  301      7.52867318      1.00000000
     -3.729  0.0000E+00  0.0000E+00
     -3.596  0.0000E+00  0.0000E+00
     -3.463  0.0000E+00  0.0000E+00
     -3.331 -0.6876E-31 -0.9118E-32
     -3.198 -0.1668E-26 -0.2212E-27
     -3.066 -0.1667E-22 -0.2211E-23
     -2.933 -0.6847E-19 -0.9082E-20
     -2.800 -0.1114E-15 -0.1479E-16
     -2.668 -0.7602E-13 -0.1010E-13
     -2.535 -0.2102E-10 -0.2797E-11
     -2.403 -0.2331E-08 -0.3118E-09
     -2.270 -0.1017E-06 -0.1380E-07
     -2.137 -0.1673E-05 -0.2357E-06
     -2.005 -0.9032E-05 -0.1433E-05
     -1.872 -0.2095E-05 -0.1711E-05
     -1.740  0.9953E-04  0.1149E-04
     -1.607  0.3418E-03  0.5680E-04
     -1.474  0.5623E-03  0.1314E-03
     -1.342  0.6129E-03  0.2126E-03
     -1.209  0.8920E-03  0.3309E-03
     -1.077  0.1038E-02  0.4686E-03
     -0.944  0.8100E-03  0.5760E-03
     -0.811  0.1076E-02  0.7186E-03
     -0.679  0.1578E-02  0.9279E-03
     -0.546  0.1400E-02  0.1114E-02
     -0.414  0.1004E-02  0.1247E-02
     -0.281  0.1476E-02  0.1442E-02
     -0.148  0.2044E-02  0.1713E-02
     -0.016  0.1859E-02  0.1960E-02
      0.117  0.1810E-02  0.2200E-02
      0.249  0.1557E-02  0.2406E-02
      0.382  0.1959E-02  0.2666E-02
      0.515  0.2780E-02  0.3035E-02
      0.647  0.2454E-02  0.3360E-02
      0.780  0.2369E-02  0.3674E-02
      0.912  0.2723E-02  0.4035E-02
      1.045  0.2350E-02  0.4347E-02
      1.178  0.3119E-02  0.4761E-02
      1.310  0.3813E-02  0.5266E-02
      1.443  0.3818E-02  0.5772E-02
      1.575  0.4215E-02  0.6331E-02
      1.708  0.3441E-02  0.6788E-02
      1.841  0.4025E-02  0.7321E-02
      1.973  0.7119E-02  0.8265E-02
      2.106  0.1006E-01  0.9599E-02
      2.238  0.1298E-01  0.1132E-01
      2.371  0.1492E-01  0.1330E-01
      2.504  0.1795E-01  0.1568E-01
      2.636  0.2069E-01  0.1842E-01
      2.769  0.2163E-01  0.2129E-01
      2.901  0.2255E-01  0.2428E-01
      3.034  0.2834E-01  0.2804E-01
      3.167  0.3262E-01  0.3236E-01
      3.299  0.2625E-01  0.3584E-01
      3.432  0.2125E-01  0.3866E-01
      3.564  0.1835E-01  0.4110E-01
      3.697  0.1339E-01  0.4287E-01
      3.830  0.1101E-01  0.4433E-01
      3.962  0.1961E-01  0.4693E-01
      4.095  0.3976E-01  0.5220E-01
      4.227  0.4866E-01  0.5865E-01
      4.360  0.4287E-01  0.6434E-01
      4.493  0.3541E-01  0.6903E-01
      4.625  0.3273E-01  0.7337E-01
      4.758  0.3372E-01  0.7784E-01
      4.890  0.3365E-01  0.8231E-01
      5.023  0.3837E-01  0.8739E-01
      5.156  0.4673E-01  0.9359E-01
      5.288  0.4496E-01  0.9955E-01
      5.421  0.3592E-01  0.1043E+00
      5.553  0.2475E-01  0.1076E+00
      5.686  0.1691E-01  0.1098E+00
      5.819  0.1458E-01  0.1118E+00
      5.951  0.1385E-01  0.1136E+00
      6.084  0.1017E-01  0.1150E+00
      6.216  0.9746E-02  0.1163E+00
      6.349  0.1278E-01  0.1179E+00
      6.482  0.1502E-01  0.1199E+00
      6.614  0.1950E-01  0.1225E+00
      6.747  0.2350E-01  0.1256E+00
      6.879  0.2715E-01  0.1292E+00
      7.012  0.3384E-01  0.1337E+00
      7.145  0.4499E-01  0.1397E+00
      7.277  0.5229E-01  0.1466E+00
      7.410  0.5225E-01  0.1536E+00
      7.542  0.5460E-01  0.1608E+00
      7.675  0.6339E-01  0.1692E+00
      7.808  0.7231E-01  0.1788E+00
      7.940  0.5999E-01  0.1867E+00
      8.073  0.3572E-01  0.1915E+00
      8.205  0.2443E-01  0.1947E+00
      8.338  0.2420E-01  0.1979E+00
      8.471  0.2907E-01  0.2018E+00
      8.603  0.2812E-01  0.2055E+00
      8.736  0.2112E-01  0.2083E+00
      8.868  0.1488E-01  0.2103E+00
      9.001  0.1012E-01  0.2116E+00
      9.134  0.6882E-02  0.2125E+00
      9.266  0.6786E-02  0.2134E+00
      9.399  0.7975E-02  0.2145E+00
      9.531  0.6439E-02  0.2153E+00
      9.664  0.4763E-02  0.2160E+00
      9.797  0.4655E-02  0.2166E+00
      9.929  0.4111E-02  0.2171E+00
     10.062  0.4610E-02  0.2178E+00
     10.194  0.6439E-02  0.2186E+00
     10.327  0.7169E-02  0.2196E+00
     10.460  0.6038E-02  0.2204E+00
     10.592  0.5284E-02  0.2211E+00
     10.725  0.4294E-02  0.2216E+00
     10.857  0.3812E-02  0.2221E+00
     10.990  0.4962E-02  0.2228E+00
     11.123  0.3933E-02  0.2233E+00
     11.255  0.4109E-02  0.2239E+00
     11.388  0.7205E-02  0.2248E+00
     11.520  0.6607E-02  0.2257E+00
     11.653  0.4119E-02  0.2262E+00
     11.786  0.4454E-02  0.2268E+00
     11.918  0.4146E-02  0.2274E+00
     12.051  0.2893E-02  0.2278E+00
     12.183  0.3223E-02  0.2282E+00
     12.316  0.4300E-02  0.2288E+00
     12.449  0.4625E-02  0.2294E+00
     12.581  0.4230E-02  0.2299E+00
     12.714  0.5487E-02  0.2307E+00
     12.846  0.5350E-02  0.2314E+00
     12.979  0.3525E-02  0.2318E+00
     13.112  0.2794E-02  0.2322E+00
     13.244  0.2834E-02  0.2326E+00
     13.377  0.2331E-02  0.2329E+00
     13.509  0.2658E-02  0.2332E+00
     13.642  0.3086E-02  0.2337E+00
     13.775  0.3375E-02  0.2341E+00
     13.907  0.4533E-02  0.2347E+00
     14.040  0.3957E-02  0.2352E+00
     14.172  0.3281E-02  0.2357E+00
     14.305  0.3007E-02  0.2361E+00
     14.438  0.1559E-02  0.2363E+00
     14.570  0.1480E-02  0.2365E+00
     14.703  0.2152E-02  0.2367E+00
     14.835  0.2262E-02  0.2370E+00
     14.968  0.1769E-02  0.2373E+00
     15.101  0.1227E-02  0.2374E+00
     15.233  0.2060E-02  0.2377E+00
     15.366  0.3341E-02  0.2382E+00
     15.498  0.2574E-02  0.2385E+00
     15.631  0.1003E-02  0.2386E+00
     15.764  0.9297E-03  0.2388E+00
     15.896  0.1005E-02  0.2389E+00
     16.029  0.6934E-03  0.2390E+00
     16.161  0.7022E-03  0.2391E+00
     16.294  0.5915E-03  0.2392E+00
     16.427  0.9393E-03  0.2393E+00
     16.559  0.1537E-02  0.2395E+00
     16.692  0.1870E-02  0.2397E+00
     16.824  0.2029E-02  0.2400E+00
     16.957  0.3959E-02  0.2405E+00
     17.090  0.9370E-02  0.2418E+00
     17.222  0.1375E-01  0.2436E+00
     17.355  0.1212E-01  0.2452E+00
     17.487  0.7880E-02  0.2462E+00
     17.620  0.7284E-02  0.2472E+00
     17.753  0.9573E-02  0.2485E+00
     17.885  0.9211E-02  0.2497E+00
     18.018  0.5236E-02  0.2504E+00
     18.150  0.4445E-02  0.2510E+00
     18.283  0.6856E-02  0.2519E+00
     18.416  0.7837E-02  0.2529E+00
     18.548  0.6729E-02  0.2538E+00
     18.681  0.5383E-02  0.2545E+00
     18.813  0.5908E-02  0.2553E+00
     18.946  0.5734E-02  0.2561E+00
     19.079  0.5678E-02  0.2568E+00
     19.211  0.7600E-02  0.2578E+00
     19.344  0.8158E-02  0.2589E+00
     19.476  0.7730E-02  0.2600E+00
     19.609  0.8205E-02  0.2610E+00
     19.742  0.7435E-02  0.2620E+00
     19.874  0.6132E-02  0.2628E+00
     20.007  0.6083E-02  0.2636E+00
     20.139  0.7696E-02  0.2647E+00
     20.272  0.9238E-02  0.2659E+00
     20.405  0.8267E-02  0.2670E+00
     20.537  0.6914E-02  0.2679E+00
     20.670  0.6351E-02  0.2687E+00
     20.802  0.5662E-02  0.2695E+00
     20.935  0.5911E-02  0.2703E+00
     21.068  0.6971E-02  0.2712E+00
     21.200  0.7686E-02  0.2722E+00
     21.333  0.6995E-02  0.2732E+00
     21.465  0.6974E-02  0.2741E+00
     21.598  0.7896E-02  0.2751E+00
     21.731  0.6918E-02  0.2760E+00
     21.863  0.5393E-02  0.2768E+00
     21.996  0.5556E-02  0.2775E+00
     22.128  0.5734E-02  0.2783E+00
     22.261  0.5033E-02  0.2789E+00
     22.394  0.7866E-02  0.2800E+00
     22.526  0.1027E-01  0.2813E+00
     22.659  0.6113E-02  0.2821E+00
     22.791  0.4652E-02  0.2828E+00
     22.924  0.6218E-02  0.2836E+00
     23.057  0.4741E-02  0.2842E+00
     23.189  0.4206E-02  0.2848E+00
     23.322  0.6740E-02  0.2857E+00
     23.454  0.9050E-02  0.2869E+00
     23.587  0.8487E-02  0.2880E+00
     23.720  0.5408E-02  0.2887E+00
     23.852  0.2944E-02  0.2891E+00
     23.985  0.3660E-02  0.2896E+00
     24.117  0.5470E-02  0.2903E+00
     24.250  0.5787E-02  0.2911E+00
     24.383  0.6526E-02  0.2919E+00
     24.515  0.6966E-02  0.2929E+00
     24.648  0.8127E-02  0.2939E+00
     24.780  0.8004E-02  0.2950E+00
     24.913  0.4226E-02  0.2956E+00
     25.046  0.1722E-02  0.2958E+00
     25.178  0.3529E-02  0.2963E+00
     25.311  0.5067E-02  0.2969E+00
     25.443  0.5889E-02  0.2977E+00
     25.576  0.6681E-02  0.2986E+00
     25.709  0.7311E-02  0.2996E+00
     25.841  0.6149E-02  0.3004E+00
     25.974  0.3567E-02  0.3008E+00
     26.106  0.4374E-02  0.3014E+00
     26.239  0.5599E-02  0.3022E+00
     26.372  0.4898E-02  0.3028E+00
     26.504  0.4016E-02  0.3034E+00
     26.637  0.4560E-02  0.3040E+00
     26.769  0.6683E-02  0.3048E+00
     26.902  0.5933E-02  0.3056E+00
     27.035  0.4184E-02  0.3062E+00
     27.167  0.4181E-02  0.3067E+00
     27.300  0.5131E-02  0.3074E+00
     27.432  0.5725E-02  0.3082E+00
     27.565  0.4868E-02  0.3088E+00
     27.698  0.3808E-02  0.3093E+00
     27.830  0.4243E-02  0.3099E+00
     27.963  0.5249E-02  0.3106E+00
     28.095  0.4809E-02  0.3112E+00
     28.228  0.3288E-02  0.3117E+00
     28.361  0.1576E-02  0.3119E+00
     28.493  0.1730E-02  0.3121E+00
     28.626  0.2032E-02  0.3124E+00
     28.758  0.3082E-02  0.3128E+00
     28.891  0.4987E-02  0.3134E+00
     29.024  0.4725E-02  0.3141E+00
     29.156  0.2324E-02  0.3144E+00
     29.289  0.7093E-03  0.3145E+00
     29.421  0.1064E-02  0.3146E+00
     29.554  0.1813E-02  0.3149E+00
     29.687  0.2185E-02  0.3151E+00
     29.819  0.2315E-02  0.3154E+00
     29.952  0.2367E-02  0.3158E+00
     30.084  0.2435E-02  0.3161E+00
     30.217  0.2392E-02  0.3164E+00
     30.350  0.1735E-02  0.3166E+00
     30.482  0.9931E-03  0.3168E+00
     30.615  0.8839E-03  0.3169E+00
     30.747  0.1757E-02  0.3171E+00
     30.880  0.2233E-02  0.3174E+00
     31.013  0.1654E-02  0.3176E+00
     31.145  0.1260E-02  0.3178E+00
     31.278  0.4187E-03  0.3179E+00
     31.410  0.2376E-03  0.3179E+00
     31.543  0.1037E-02  0.3180E+00
     31.676  0.1252E-02  0.3182E+00
     31.808  0.1013E-02  0.3183E+00
     31.941  0.1816E-02  0.3186E+00
     32.073  0.2308E-02  0.3189E+00
     32.206  0.1341E-02  0.3190E+00
     32.339  0.3202E-03  0.3191E+00
     32.471 -0.6342E-04  0.3191E+00
     32.604  0.1052E-03  0.3191E+00
     32.736  0.5608E-03  0.3192E+00
     32.869  0.7368E-03  0.3193E+00
     33.002  0.7949E-03  0.3194E+00
     33.134  0.1267E-02  0.3195E+00
     33.267  0.1124E-02  0.3197E+00
     33.399  0.4240E-03  0.3197E+00
     33.532  0.2292E-03  0.3198E+00
     33.665  0.2000E-03  0.3198E+00
     33.797  0.5044E-03  0.3199E+00
     33.930  0.6434E-03  0.3200E+00
     34.062  0.2948E-03  0.3200E+00
     34.195  0.6783E-04  0.3200E+00
     34.328  0.4146E-06  0.3200E+00
     34.460 -0.7187E-05  0.3200E+00
     34.593 -0.1513E-05  0.3200E+00
     34.725 -0.9720E-07  0.3200E+00
     34.858 -0.2283E-08  0.3200E+00
     34.991 -0.2082E-10  0.3200E+00
     35.123 -0.7571E-13  0.3200E+00
     35.256 -0.1113E-15  0.3200E+00
     35.388 -0.5024E-19  0.3200E+00
     35.521  0.0000E+00  0.3200E+00
     35.654  0.0000E+00  0.3200E+00
     35.786  0.0000E+00  0.3200E+00
     35.919  0.0000E+00  0.3200E+00
     36.051  0.0000E+00  0.3200E+00
