    1    1   50    1
  0.9700028E+01  0.2327010E-09  0.2327010E-09  0.2327010E-09  0.5000000E-15
  1.000000000000000E-004
  CAR 
 bcc Fe                                  
      8    250      8
 
  0.2500000E-01  0.2500000E-01  0.2500000E-01  0.1000000E-02
    1       -1.610648   1.000000
    2        5.473956   1.000000
    3        5.473956   1.000000
    4        5.645319   1.000000
    5        7.421445   0.889300
    6        7.421445   0.889300
    7       33.447876   0.000000
    8       33.447876   0.000000
 
  0.7500000E-01  0.2500000E-01  0.2500000E-01  0.3000000E-02
    1       -1.263743   1.000000
    2        5.357628   1.000000
    3        5.438019   1.000000
    4        5.880728   1.000000
    5        7.318473   1.029642
    6        7.439326   0.839456
    7       31.979202   0.000000
    8       32.888527   0.000000
 
  0.1250000E+00  0.2500000E-01  0.2500000E-01  0.3000000E-02
    1       -0.710015   1.000000
    2        5.180256   1.000000
    3        5.370254   1.000000
    4        6.227586   1.000000
    5        7.206158   1.022485
    6        7.464738   0.755817
    7       30.028070   0.000000
    8       32.084502   0.000000
 
  0.1750000E+00  0.2500000E-01  0.2500000E-01  0.3000000E-02
    1        0.005496   1.000000
    2        4.965104   1.000000
    3        5.272545   1.000000
    4        6.684909   1.000000
    5        7.147853   1.010763
    6        7.500364   0.618467
    7       27.818121   0.000000
    8       31.098407   0.000000
 
  0.2250000E+00  0.2500000E-01  0.2500000E-01  0.3000000E-02
    1        0.795753   1.000000
    2        4.735927   1.000000
    3        5.213722   1.000000
    4        7.156265   1.012163
    5        7.230957   1.028158
    6        7.546082   0.426644
    7       25.489350   0.000000
    8       30.048168   0.000000
 
  0.2750000E+00  0.2500000E-01  0.2500000E-01  0.3000000E-02
    1        1.504628   1.000000
    2        4.512484   1.000000
    3        5.352465   1.000000
    4        7.234081   1.028839
    5        7.597210   0.228013
    6        7.799240  -0.033347
    7       23.157316   0.000000
    8       29.049805   0.000000
 
  0.3250000E+00  0.2500000E-01  0.2500000E-01  0.3000000E-02
    1        1.952267   1.000000
    2        4.318819   1.000000
    3        5.853638   1.000000
    4        7.335109   1.021458
    5        7.652348   0.071911
    6        8.369763  -0.000000
    7       20.951829   0.000000
    8       28.199264   0.000000
 
  0.3750000E+00  0.2500000E-01  0.2500000E-01  0.3000000E-02
    1        2.120883   1.000000
    2        4.168951   1.000000
    3        6.642764   1.000000
    4        7.436264   0.848545
    5        7.699140  -0.002252
    6        8.888214  -0.000000
    7       18.993466   0.000000
    8       27.550583   0.000000
 
  0.4250000E+00  0.2500000E-01  0.2500000E-01  0.3000000E-02
    1        2.149536   1.000000
    2        4.073126   1.000000
    3        7.324515   1.027153
    4        7.564823   0.349775
    5        7.733030  -0.027243
    6        9.303542  -0.000000
    7       17.538254   0.000000
    8       27.143132   0.000000
 
  0.4750000E+00  0.2500000E-01  0.2500000E-01  0.1500000E-02
    1        2.147126   1.000000
    2        4.040705   1.000000
    3        7.455718   0.787109
    4        7.743477  -0.031201
    5        7.760084  -0.034685
    6        9.485125  -0.000000
    7       16.963055   0.000000
    8       27.005242   0.000000
 
 -0.2500000E-01  0.2500000E-01  0.2500000E-01  0.7500000E-03
    1       -1.728519   1.000000
    2        5.514698   1.000000
    3        5.514726   1.000000
    4        5.534635   1.000000
    5        7.415339   0.904498
    6        7.462699   0.763034
    7       33.722219   0.000000
    8       34.051495   0.000000
 
  0.7500000E-01  0.7500000E-01  0.2500000E-01  0.3000000E-02
    1       -0.816954   1.000000
    2        5.244815   1.000000
    3        5.307196   1.000000
    4        6.202234   1.000000
    5        7.248066   1.031661
    6        7.440670   0.835396
    7       30.757235   0.000000
    8       31.581723   0.000000
 
  0.1250000E+00  0.7500000E-01  0.2500000E-01  0.6000000E-02
    1       -0.183782   1.000000
    2        5.052813   1.000000
    3        5.181466   1.000000
    4        6.640884   1.000000
    5        7.164149   1.013577
    6        7.487987   0.668268
    7       28.899618   0.000000
    8       30.458701   0.000000
 
  0.1750000E+00  0.7500000E-01  0.2500000E-01  0.6000000E-02
    1        0.576093   1.000000
    2        4.826221   1.000000
    3        5.064688   1.000000
    4        7.125540   1.007597
    5        7.183021   1.017333
    6        7.546704   0.424049
    7       26.704710   0.000000
    8       29.431597   0.000000
 
  0.2250000E+00  0.7500000E-01  0.2500000E-01  0.6000000E-02
    1        1.347379   1.000000
    2        4.597100   1.000000
    3        5.044498   1.000000
    4        7.175449   1.015767
    5        7.599122   0.221417
    6        7.785897  -0.034925
    7       24.392226   0.000000
    8       28.469121   0.000000
 
  0.2750000E+00  0.7500000E-01  0.2500000E-01  0.6000000E-02
    1        1.942642   1.000000
    2        4.391805   1.000000
    3        5.287931   1.000000
    4        7.262392   1.033948
    5        7.665085   0.046547
    6        8.425436  -0.000000
    7       22.115848   0.000000
    8       27.625212   0.000000
 
  0.3250000E+00  0.7500000E-01  0.2500000E-01  0.6000000E-02
    1        2.230687   1.000000
    2        4.225673   1.000000
    3        5.859263   1.000000
    4        7.363325   0.996576
    5        7.731056  -0.026320
    6        9.081345  -0.000000
    7       20.002385   0.000000
    8       26.946905   0.000000
 
  0.3750000E+00  0.7500000E-01  0.2500000E-01  0.6000000E-02
    1        2.300196   1.000000
    2        4.108223   1.000000
    3        6.519591   1.000000
    4        7.439197   0.839845
    5        7.813926  -0.030773
    6        9.713880  -0.000000
    7       18.229560   0.000000
    8       26.464226   0.000000
 
  0.4250000E+00  0.7500000E-01  0.2500000E-01  0.6000000E-02
    1        2.298141   1.000000
    2        4.046741   1.000000
    3        6.931993   1.000102
    4        7.461295   0.767956
    5        7.900329  -0.012294
    6       10.179798  -0.000000
    7       17.123961   0.000000
    8       26.210089   0.000000
 
 -0.7500000E-01  0.7500000E-01  0.2500000E-01  0.3000000E-02
    1       -1.493751   1.000000
    2        5.444117   1.000000
    3        5.506950   1.000000
    4        5.675182   1.000000
    5        7.319894   1.029103
    6        7.484408   0.682311
    7       32.701420   0.000000
    8       33.828552   0.000000
 
  0.1250000E+00  0.1250000E+00  0.2500000E-01  0.3000000E-02
    1        0.501185   1.000000
    2        4.909630   1.000000
    3        4.956431   1.000000
    4        7.113865   1.006248
    5        7.166245   1.013969
    6        7.561359   0.363723
    7       27.541819   0.000000
    8       28.749629   0.000000
 
  0.1750000E+00  0.1250000E+00  0.2500000E-01  0.6000000E-02
    1        1.268948   1.000000
    2        4.690857   1.000000
    3        4.824257   1.000000
    4        7.113077   1.006164
    5        7.612295   0.178132
    6        7.814975  -0.030565
    7       25.618570   0.000000
    8       27.450536   0.000000
 
  0.2250000E+00  0.1250000E+00  0.2500000E-01  0.6000000E-02
    1        1.973430   1.000000
    2        4.467665   1.000000
    3        4.852749   1.000000
    4        7.173346   1.015346
    5        7.693920   0.003542
    6        8.504299  -0.000000
    7       23.391272   0.000000
    8       26.491126   0.000000
 
  0.2750000E+00  0.1250000E+00  0.2500000E-01  0.6000000E-02
    1        2.415567   1.000000
    2        4.289494   1.000000
    3        5.158970   1.000000
    4        7.274152   1.035127
    5        7.762648  -0.034958
    6        9.270663  -0.000000
    7       21.189345   0.000000
    8       25.735478   0.000000
 
  0.3250000E+00  0.1250000E+00  0.2500000E-01  0.6000000E-02
    1        2.558813   1.000000
    2        4.160494   1.000000
    3        5.679148   1.000000
    4        7.375961   0.980129
    5        7.831465  -0.027025
    6       10.079555  -0.000000
    7       19.179971   0.000000
    8       25.163756   0.000000
 
  0.3750000E+00  0.1250000E+00  0.2500000E-01  0.6000000E-02
    1        2.564839   1.000000
    2        4.081293   1.000000
    3        6.125400   1.000000
    4        7.439447   0.839091
    5        7.920164  -0.009150
    6       10.835686  -0.000000
    7       17.624948   0.000000
    8       24.801975   0.000000
 
  0.4250000E+00  0.1250000E+00  0.2500000E-01  0.3000000E-02
    1        2.554674   1.000000
    2        4.054776   1.000000
    3        6.293235   1.000000
    4        7.457958   0.779493
    5        7.967979  -0.004028
    6       11.196150  -0.000000
    7       16.981562   0.000000
    8       24.678452   0.000000
 
 -0.1250000E+00  0.1250000E+00  0.2500000E-01  0.3000000E-02
    1       -1.038424   1.000000
    2        5.300465   1.000000
    3        5.470425   1.000000
    4        5.960633   1.000000
    5        7.192730   1.019440
    6        7.505413   0.597690
    7       31.030201   0.000000
    8       33.173678   0.000000
 
 -0.7500000E-01  0.1250000E+00  0.2500000E-01  0.3000000E-02
    1       -1.149833   1.000000
    2        5.389970   1.000000
    3        5.456486   1.000000
    4        5.870155   1.000000
    5        7.177772   1.016240
    6        7.530828   0.490884
    7       31.576859   0.000000
    8       33.083414   0.000000
 
  0.1750000E+00  0.1750000E+00  0.2500000E-01  0.3000000E-02
    1        1.993539   1.000000
    2        4.514472   1.000000
    3        4.677849   1.000000
    4        7.133988   1.008703
    5        7.706591  -0.009552
    6        8.539097  -0.000000
    7       24.365784   0.000000
    8       25.519385   0.000000
 
  0.2250000E+00  0.1750000E+00  0.2500000E-01  0.6000000E-02
    1        2.583447   1.000000
    2        4.322520   1.000000
    3        4.734152   1.000000
    4        7.205002   1.022219
    5        7.777894  -0.035390
    6        9.378924  -0.000000
    7       22.459297   0.000000
    8       24.326020   0.000000
 
  0.2750000E+00  0.1750000E+00  0.2500000E-01  0.6000000E-02
    1        2.867646   1.000000
    2        4.193941   1.000000
    3        5.028214   1.000000
    4        7.309887   1.032330
    5        7.832311  -0.026833
    6       10.318638  -0.000000
    7       20.360785   0.000000
    8       23.600231   0.000000
 
  0.3250000E+00  0.1750000E+00  0.2500000E-01  0.6000000E-02
    1        2.913145   1.000000
    2        4.119201   1.000000
    3        5.411597   1.000000
    4        7.410007   0.917000
    5        7.893538  -0.013514
    6       11.313970  -0.000000
    7       18.479354   0.000000
    8       23.118847   0.000000
 
  0.3750000E+00  0.1750000E+00  0.2500000E-01  0.6000000E-02
    1        2.894040   1.000000
    2        4.082961   1.000000
    3        5.654853   1.000000
    4        7.463557   0.760008
    5        7.942348  -0.006370
    6       12.116599  -0.000000
    7       17.196132   0.000000
    8       22.867469   0.000000
 
 -0.1750000E+00  0.1750000E+00  0.2500000E-01  0.3000000E-02
    1       -0.395261   1.000000
    2        5.105223   1.000000
    3        5.391999   1.000000
    4        6.358833   1.000000
    5        7.096317   1.004580
    6        7.532055   0.485694
    7       28.950611   0.000000
    8       32.171879   0.000000
 
 -0.1250000E+00  0.1750000E+00  0.2500000E-01  0.6000000E-02
    1       -0.601140   1.000000
    2        5.237108   1.000000
    3        5.384495   1.000000
    4        6.211859   1.000000
    5        7.036214   1.001368
    6        7.575453   0.307937
    7       29.933690   0.000000
    8       31.962865   0.000000
 
  0.2250000E+00  0.2250000E+00  0.2500000E-01  0.3000000E-02
    1        3.038944   1.000000
    2        4.186232   1.000000
    3        4.766145   1.000000
    4        7.279962   1.035405
    5        7.831320  -0.027058
    6       10.402032  -0.000000
    7       21.347944   0.000000
    8       22.459303   0.000000
 
  0.2750000E+00  0.2250000E+00  0.2500000E-01  0.6000000E-02
    1        3.233596   1.000000
    2        4.124764   1.000000
    3        4.927896   1.000000
    4        7.384985   0.966147
    5        7.867807  -0.018737
    6       11.555026  -0.000000
    7       19.581830   0.000000
    8       21.560341   0.000000
 
  0.3250000E+00  0.2250000E+00  0.2500000E-01  0.6000000E-02
    1        3.254406   1.000000
    2        4.117000   1.000000
    3        5.105283   1.000000
    4        7.481076   0.695216
    5        7.888672  -0.014432
    6       12.734106  -0.000000
    7       17.854654   0.000000
    8       21.144994   0.000000
 
  0.3750000E+00  0.2250000E+00  0.2500000E-01  0.3000000E-02
    1        3.244458   1.000000
    2        4.117673   1.000000
    3        5.176807   1.000000
    4        7.521333   0.531036
    5        7.893753  -0.013474
    6       13.385137   0.000000
    7       16.998948   0.000000
    8       21.007362   0.000000
 
 -0.2250000E+00  0.2250000E+00  0.2500000E-01  0.3000000E-02
    1        0.372026   1.000000
    2        4.882272   1.000000
    3        5.300913   1.000000
    4        6.848009   1.000008
    5        7.075038   1.003062
    6        7.570233   0.328287
    7       26.662652   0.000000
    8       31.031420   0.000000
 
 -0.1750000E+00  0.2250000E+00  0.2500000E-01  0.6000000E-02
    1        0.107297   1.000000
    2        5.030646   1.000000
    3        5.284978   1.000000
    4        6.667142   1.000000
    5        6.963170   1.000237
    6        7.626823   0.135025
    7       27.853202   0.000000
    8       30.825785   0.000000
 
 -0.1250000E+00  0.2250000E+00  0.2500000E-01  0.3000000E-02
    1        0.017383   1.000000
    2        5.138588   1.000000
    3        5.214798   1.000000
    4        6.621973   1.000000
    5        6.908728   1.000053
    6        7.651507   0.073728
    7       28.598871   0.000000
    8       30.235037   0.000000
 
  0.2750000E+00  0.2750000E+00  0.2500000E-01  0.3000000E-02
    1        3.443604   1.000000
    2        4.136921   1.000000
    3        4.844235   1.000000
    4        7.492224   0.651425
    5        7.861703  -0.020090
    6       12.939983  -0.000000
    7       18.510859   0.000000
    8       20.120802   0.000000
 
  0.3250000E+00  0.2750000E+00  0.2500000E-01  0.6000000E-02
    1        3.504937   1.000000
    2        4.212779   1.000000
    3        4.777220   1.000000
    4        7.589451   0.255520
    5        7.821454  -0.029227
    6       14.281588   0.000000
    7       17.098230   0.000000
    8       19.608967   0.000000
 
 -0.2750000E+00  0.2750000E+00  0.2500000E-01  0.3000000E-02
    1        1.143907   1.000000
    2        4.653258   1.000000
    3        5.314713   1.000000
    4        7.136457   1.009047
    5        7.396507   0.945449
    6        7.618126   0.160225
    7       24.312261   0.000000
    8       29.917124   0.000000
 
 -0.2250000E+00  0.2750000E+00  0.2500000E-01  0.6000000E-02
    1        0.889390   1.000000
    2        4.804721   1.000000
    3        5.204030   1.000000
    4        6.981270   1.000377
    5        7.206774   1.022627
    6        7.687274   0.011764
    7       25.557073   0.000000
    8       29.752482   0.000000
 
 -0.1750000E+00  0.2750000E+00  0.2500000E-01  0.6000000E-02
    1        0.758175   1.000000
    2        4.945967   1.000000
    3        5.075441   1.000000
    4        6.866640   1.000015
    5        7.141998   1.009856
    6        7.738668  -0.029566
    7       26.749562   0.000000
    8       28.782340   0.000000
 
  0.3250000E+00  0.3250000E+00  0.2500000E-01  0.1000000E-02
    1        3.588256   1.000000
    2        4.454925   1.000000
    3        4.454960   1.000000
    4        7.712903  -0.014891
    5        7.712930  -0.014913
    6       15.838956   0.000000
    7       15.839015   0.000000
    8       19.048815   0.000000
 
 -0.3250000E+00  0.3250000E+00  0.2500000E-01  0.3000000E-02
    1        1.737760   1.000000
    2        4.442790   1.000000
    3        5.617164   1.000000
    4        7.249493   1.031921
    5        7.680839   0.020663
    6        7.952068  -0.005380
    7       22.027525   0.000000
    8       28.932407   0.000000
 
 -0.2750000E+00  0.3250000E+00  0.2500000E-01  0.6000000E-02
    1        1.591986   1.000000
    2        4.584947   1.000000
    3        5.286800   1.000000
    4        7.089675   1.004051
    5        7.696490   0.000618
    6        7.846967  -0.023460
    7       23.229630   0.000000
    8       28.780392   0.000000
 
 -0.2250000E+00  0.3250000E+00  0.2500000E-01  0.6000000E-02
    1        1.510672   1.000000
    2        4.711362   1.000000
    3        5.025564   1.000000
    4        6.925915   1.000086
    5        7.643161   0.092736
    6        7.930370  -0.007778
    7       24.522273   0.000000
    8       27.704361   0.000000
 
 -0.1750000E+00  0.3250000E+00  0.2500000E-01  0.3000000E-02
    1        1.485002   1.000000
    2        4.769871   1.000000
    3        4.923149   1.000000
    4        6.856310   1.000011
    5        7.626814   0.135052
    6        7.968549  -0.003985
    7       25.466916   0.000000
    8       26.760027   0.000000
 
 -0.3750000E+00  0.3750000E+00  0.2500000E-01  0.3000000E-02
    1        2.035104   1.000000
    2        4.268043   1.000000
    3        6.264023   1.000000
    4        7.377508   0.977867
    5        7.780891  -0.035264
    6        8.455291  -0.000000
    7       19.923113   0.000000
    8       28.142451   0.000000
 
 -0.3250000E+00  0.3750000E+00  0.2500000E-01  0.6000000E-02
    1        2.036359   1.000000
    2        4.394418   1.000000
    3        5.668003   1.000000
    4        7.239179   1.029916
    5        7.842495  -0.024496
    6        8.399029  -0.000000
    7       21.010025   0.000000
    8       27.960610   0.000000
 
 -0.2750000E+00  0.3750000E+00  0.2500000E-01  0.6000000E-02
    1        2.096810   1.000000
    2        4.507306   1.000000
    3        5.159917   1.000000
    4        7.059547   1.002244
    5        7.821773  -0.029159
    6        8.522077  -0.000000
    7       22.248397   0.000000
    8       26.834459   0.000000
 
 -0.2250000E+00  0.3750000E+00  0.2500000E-01  0.6000000E-02
    1        2.159175   1.000000
    2        4.535659   1.000000
    3        4.912754   1.000000
    4        6.933354   1.000106
    5        7.806597  -0.032145
    6        8.614704  -0.000000
    7       23.545951   0.000000
    8       25.445189   0.000000
 
 -0.4250000E+00  0.4250000E+00  0.2500000E-01  0.3000000E-02
    1        2.117752   1.000000
    2        4.142140   1.000000
    3        6.956471   1.000199
    4        7.462399   0.764089
    5        8.034263  -0.001021
    6        8.842070  -0.000000
    7       18.176856   0.000000
    8       27.591131   0.000000
 
 -0.3750000E+00  0.4250000E+00  0.2500000E-01  0.6000000E-02
    1        2.202362   1.000000
    2        4.248488   1.000000
    3        6.233671   1.000000
    4        7.357100   1.003406
    5        8.068481  -0.000455
    6        8.958179  -0.000000
    7       19.043107   0.000000
    8       27.339823   0.000000
 
 -0.3250000E+00  0.4250000E+00  0.2500000E-01  0.6000000E-02
    1        2.383462   1.000000
    2        4.352231   1.000000
    3        5.528676   1.000000
    4        7.212146   1.023869
    5        7.964988  -0.004258
    6        9.246593  -0.000000
    7       20.113986   0.000000
    8       26.149009   0.000000
 
 -0.2750000E+00  0.4250000E+00  0.2500000E-01  0.6000000E-02
    1        2.603155   1.000000
    2        4.376673   1.000000
    3        5.048208   1.000000
    4        7.074287   1.003017
    5        7.901992  -0.012006
    6        9.452219  -0.000000
    7       21.362800   0.000000
    8       24.610926   0.000000
 
 -0.2250000E+00  0.4250000E+00  0.2500000E-01  0.3000000E-02
    1        2.717202   1.000000
    2        4.322418   1.000000
    3        4.916385   1.000000
    4        7.013602   1.000822
    5        7.882412  -0.015663
    6        9.524457  -0.000000
    7       22.396065   0.000000
    8       23.455385   0.000000
 
 -0.4750000E+00  0.4750000E+00  0.2500000E-01  0.3000000E-02
    1        2.123317   1.000000
    2        4.077359   1.000000
    3        7.316120   1.030475
    4        7.453858   0.793351
    5        8.423256  -0.000000
    6        9.053882  -0.000000
    7       17.110507   0.000000
    8       27.307911   0.000000
 
 -0.4250000E+00  0.4750000E+00  0.2500000E-01  0.6000000E-02
    1        2.228009   1.000000
    2        4.155097   1.000000
    3        6.672902   1.000000
    4        7.387643   0.961660
    5        8.384223  -0.000000
    6        9.454015  -0.000000
    7       17.560914   0.000000
    8       26.947996   0.000000
 
 -0.3750000E+00  0.4750000E+00  0.2500000E-01  0.6000000E-02
    1        2.449559   1.000000
    2        4.246214   1.000000
    3        5.944032   1.000000
    4        7.305234   1.033404
    5        8.176686  -0.000023
    6       10.001966  -0.000000
    7       18.297648   0.000000
    8       25.663785   0.000000
 
 -0.3250000E+00  0.4750000E+00  0.2500000E-01  0.6000000E-02
    1        2.758098   1.000000
    2        4.291471   1.000000
    3        5.318359   1.000000
    4        7.214217   1.024349
    5        8.026406  -0.001218
    6       10.392304  -0.000000
    7       19.324876   0.000000
    8       24.011735   0.000000
 
 -0.2750000E+00  0.4750000E+00  0.2500000E-01  0.6000000E-02
    1        3.049797   1.000000
    2        4.205162   1.000000
    3        4.986983   1.000000
    4        7.150789   1.011239
    5        7.949244  -0.005654
    6       10.589422  -0.000000
    7       20.534859   0.000000
    8       22.439059   0.000000
 
 -0.4750000E+00 -0.4750000E+00  0.2500000E-01  0.3000000E-02
    1        2.224506   1.000000
    2        4.123449   1.000000
    3        6.831188   1.000005
    4        7.380667   0.973076
    5        8.535452  -0.000000
    6        9.692428  -0.000000
    7       16.970664   0.000000
    8       26.814309   0.000000
 
 -0.4250000E+00 -0.4750000E+00  0.2500000E-01  0.6000000E-02
    1        2.444294   1.000000
    2        4.191083   1.000000
    3        6.193799   1.000000
    4        7.329005   1.024954
    5        8.353733  -0.000000
    6       10.588555  -0.000000
    7       17.140472   0.000000
    8       25.408844   0.000000
 
 -0.3750000E+00 -0.4750000E+00  0.2500000E-01  0.6000000E-02
    1        2.765119   1.000000
    2        4.245672   1.000000
    3        5.563652   1.000000
    4        7.295123   1.034917
    5        8.167560  -0.000030
    6       11.309268  -0.000000
    7       17.694163   0.000000
    8       23.633688   0.000000
 
 -0.3250000E+00 -0.4750000E+00  0.2500000E-01  0.6000000E-02
    1        3.137732   1.000000
    2        4.208078   1.000000
    3        5.083660   1.000000
    4        7.286126   1.035435
    5        8.020877  -0.001376
    6       11.752722  -0.000000
    7       18.623701   0.000000
    8       21.906380   0.000000
 
 -0.2750000E+00 -0.4750000E+00  0.2500000E-01  0.3000000E-02
    1        3.365968   1.000000
    2        4.099079   1.000000
    3        4.917682   1.000000
    4        7.289010   1.035346
    5        7.962683  -0.004443
    6       11.897508  -0.000000
    7       19.469197   0.000000
    8       20.792989   0.000000
 
 -0.4250000E+00 -0.4250000E+00  0.2500000E-01  0.3000000E-02
    1        2.753777   1.000000
    2        4.230762   1.000000
    3        5.656301   1.000000
    4        7.316254   1.030429
    5        8.234657  -0.000004
    6       11.759362  -0.000000
    7       16.991616   0.000000
    8       23.505689   0.000000
 
 -0.3750000E+00 -0.4250000E+00  0.2500000E-01  0.6000000E-02
    1        3.128045   1.000000
    2        4.236611   1.000000
    3        5.149608   1.000000
    4        7.362592   0.997422
    5        8.080616  -0.000336
    6       12.735854  -0.000000
    7       17.229159   0.000000
    8       21.643482   0.000000
 
 -0.3250000E+00 -0.4250000E+00  0.2500000E-01  0.6000000E-02
    1        3.484727   1.000000
    2        4.151217   1.000000
    3        4.815554   1.000000
    4        7.434230   0.854458
    5        7.948167  -0.005762
    6       13.274298   0.000000
    7       17.868992   0.000000
    8       20.129482   0.000000
 
 -0.3750000E+00 -0.3750000E+00  0.2500000E-01  0.3000000E-02
    1        3.494666   1.000000
    2        4.224303   1.000000
    3        4.749289   1.000000
    4        7.498128   0.627591
    5        7.936930  -0.006980
    6       14.117853   0.000000
    7       16.888976   0.000000
    8       19.955635   0.000000
 
 -0.3250000E+00 -0.3750000E+00  0.2500000E-01  0.3000000E-02
    1        3.699819   1.000000
    2        4.226391   1.000000
    3        4.526196   1.000000
    4        7.613970   0.172906
    5        7.824992  -0.028464
    6       14.862714   0.000000
    7       16.701339   0.000000
    8       19.187333   0.000000
 
  0.7500000E-01  0.7500000E-01  0.7500000E-01  0.1000000E-02
    1       -0.283074   1.000000
    2        5.100260   1.000000
    3        5.100260   1.000000
    4        6.641184   1.000000
    5        7.339489   1.018567
    6        7.339489   1.018567
    7       29.818021   0.000000
    8       29.818021   0.000000
 
  0.1250000E+00  0.7500000E-01  0.7500000E-01  0.3000000E-02
    1        0.412797   1.000000
    2        4.862844   1.000000
    3        4.941229   1.000000
    4        7.177216   1.016126
    5        7.272435   1.035004
    6        7.431460   0.862349
    7       27.808280   0.000000
    8       28.838241   0.000000
 
  0.1750000E+00  0.7500000E-01  0.7500000E-01  0.3000000E-02
    1        1.193576   1.000000
    2        4.630095   1.000000
    3        4.818837   1.000000
    4        7.264560   1.034220
    5        7.516021   0.553416
    6        7.796575  -0.033730
    7       25.608213   0.000000
    8       27.912019   0.000000
 
  0.2250000E+00  0.7500000E-01  0.7500000E-01  0.3000000E-02
    1        1.907598   1.000000
    2        4.416976   1.000000
    3        4.859922   1.000000
    4        7.310033   1.032292
    5        7.592249   0.245464
    6        8.482522  -0.000000
    7       23.332054   0.000000
    8       27.072277   0.000000
 
  0.2750000E+00  0.7500000E-01  0.7500000E-01  0.3000000E-02
    1        2.349175   1.000000
    2        4.238981   1.000000
    3        5.227136   1.000000
    4        7.383724   0.968216
    5        7.658906   0.058346
    6        9.217754  -0.000000
    7       21.130895   0.000000
    8       26.376660   0.000000
 
  0.3250000E+00  0.7500000E-01  0.7500000E-01  0.3000000E-02
    1        2.489429   1.000000
    2        4.103375   1.000000
    3        5.850720   1.000000
    4        7.453734   0.793765
    5        7.711817  -0.014026
    6        9.977384  -0.000000
    7       19.135195   0.000000
    8       25.839496   0.000000
 
  0.3750000E+00  0.7500000E-01  0.7500000E-01  0.3000000E-02
    1        2.495063   1.000000
    2        4.018982   1.000000
    3        6.411170   1.000000
    4        7.500296   0.618745
    5        7.739884  -0.030009
    6       10.674004  -0.000000
    7       17.605810   0.000000
    8       25.500366   0.000000
 
  0.4250000E+00  0.7500000E-01  0.7500000E-01  0.1500000E-02
    1        2.485083   1.000000
    2        3.990476   1.000000
    3        6.632231   1.000000
    4        7.515319   0.556368
    5        7.754221  -0.033809
    6       10.999744  -0.000000
    7       16.981510   0.000000
    8       25.385734   0.000000
 
 -0.7500000E-01  0.7500000E-01  0.7500000E-01  0.7500000E-03
    1       -1.262674   1.000000
    2        5.511570   1.000000
    3        5.511599   1.000000
    4        5.681444   1.000000
    5        7.149603   1.011045
    6        7.566803   0.341865
    7       31.970154   0.000000
    8       33.843787   0.000000
 
  0.1250000E+00  0.1250000E+00  0.7500000E-01  0.3000000E-02
    1        1.141263   1.000000
    2        4.680260   1.000000
    3        4.700854   1.000000
    4        7.298952   1.034469
    5        7.484757   0.680949
    6        7.810238  -0.031483
    7       26.525597   0.000000
    8       27.250873   0.000000
 
  0.1750000E+00  0.1250000E+00  0.7500000E-01  0.6000000E-02
    1        1.904600   1.000000
    2        4.462652   1.000000
    3        4.579865   1.000000
    4        7.319309   1.029329
    5        7.575920   0.306135
    6        8.528289  -0.000000
    7       24.578545   0.000000
    8       26.167264   0.000000
 
  0.2250000E+00  0.1250000E+00  0.7500000E-01  0.6000000E-02
    1        2.509869   1.000000
    2        4.271341   1.000000
    3        4.684291   1.000000
    4        7.373901   0.983055
    5        7.654994   0.066308
    6        9.323545  -0.000000
    7       22.388830   0.000000
    8       25.363827   0.000000
 
  0.2750000E+00  0.1250000E+00  0.7500000E-01  0.6000000E-02
    1        2.771736   1.000000
    2        4.126405   1.000000
    3        5.118669   1.000000
    4        7.446707   0.816641
    5        7.717247  -0.018137
    6       10.189791  -0.000000
    7       20.264808   0.000000
    8       24.746948   0.000000
 
  0.3250000E+00  0.1250000E+00  0.7500000E-01  0.6000000E-02
    1        2.799103   1.000000
    2        4.028232   1.000000
    3        5.663768   1.000000
    4        7.512236   0.569291
    5        7.759323  -0.034591
    6       11.084088  -0.000000
    7       18.412639   0.000000
    8       24.312370   0.000000
 