<?xml version="1.0" encoding="ISO-8859-1"?>
<modeling>
 <generator>
  <i name="program" type="string">vasp </i>
  <i name="version" type="string">5.4.4.18Apr17-6-g9f103f2a35  </i>
  <i name="subversion" type="string">(build May 20 2018 16:52:39) complex            parallel </i>
  <i name="platform" type="string">LinuxIFC </i>
  <i name="date" type="string">2022 10 31 </i>
  <i name="time" type="string">00:13:19 </i>
 </generator>
 <incar>
  <i type="string" name="SYSTEM"> bcc Fe</i>
  <i type="string" name="PREC">normal</i>
  <i type="int" name="IBRION">     2</i>
  <i name="EDIFF">      0.00000100</i>
  <i type="int" name="NSW">    50</i>
  <i type="int" name="ISIF">     3</i>
  <i type="logical" name="LWAVE"> F  </i>
  <v type="int" name="KPOINT_BSE">    -1     0     0     0</v>
 </incar>
 <structure name="primitive_cell" >
  <crystal>
   <varray name="basis" >
    <v>      -1.34350000       1.34350000       1.34350000 </v>
    <v>       1.34350000      -1.34350000       1.34350000 </v>
    <v>       1.34350000       1.34350000      -1.34350000 </v>
   </varray>
   <i name="volume">      9.70002835 </i>
   <varray name="rec_basis" >
    <v>       0.00000000       0.37216226       0.37216226 </v>
    <v>       0.37216226       0.00000000       0.37216226 </v>
    <v>       0.37216226       0.37216226       0.00000000 </v>
   </varray>
  </crystal>
  <varray name="positions" >
   <v>       0.00000000       0.00000000       0.00000000 </v>
  </varray>
 </structure>
 <varray name="primitive_index" >
  <v type="int" >        1 </v>
 </varray>
 <kpoints>
  <generation param="Monkhorst-Pack">
   <v type="int" name="divisions">      20       20       20 </v>
   <v name="usershift">      0.00000000       0.00000000       0.00000000 </v>
   <v name="genvec1">      0.05000000       0.00000000       0.00000000 </v>
   <v name="genvec2">      0.00000000       0.05000000       0.00000000 </v>
   <v name="genvec3">      0.00000000       0.00000000       0.05000000 </v>
   <v name="shift">      0.50000000       0.50000000       0.50000000 </v>
  </generation>
  <varray name="kpointlist" >
   <v>       0.02500000       0.02500000       0.02500000 </v>
   <v>       0.07500000       0.02500000       0.02500000 </v>
   <v>       0.12500000       0.02500000       0.02500000 </v>
   <v>       0.17500000       0.02500000       0.02500000 </v>
   <v>       0.22500000       0.02500000       0.02500000 </v>
   <v>       0.27500000       0.02500000       0.02500000 </v>
   <v>       0.32500000       0.02500000       0.02500000 </v>
   <v>       0.37500000       0.02500000       0.02500000 </v>
   <v>       0.42500000       0.02500000       0.02500000 </v>
   <v>       0.47500000       0.02500000       0.02500000 </v>
   <v>      -0.02500000       0.02500000       0.02500000 </v>
   <v>       0.07500000       0.07500000       0.02500000 </v>
   <v>       0.12500000       0.07500000       0.02500000 </v>
   <v>       0.17500000       0.07500000       0.02500000 </v>
   <v>       0.22500000       0.07500000       0.02500000 </v>
   <v>       0.27500000       0.07500000       0.02500000 </v>
   <v>       0.32500000       0.07500000       0.02500000 </v>
   <v>       0.37500000       0.07500000       0.02500000 </v>
   <v>       0.42500000       0.07500000       0.02500000 </v>
   <v>      -0.07500000       0.07500000       0.02500000 </v>
   <v>       0.12500000       0.12500000       0.02500000 </v>
   <v>       0.17500000       0.12500000       0.02500000 </v>
   <v>       0.22500000       0.12500000       0.02500000 </v>
   <v>       0.27500000       0.12500000       0.02500000 </v>
   <v>       0.32500000       0.12500000       0.02500000 </v>
   <v>       0.37500000       0.12500000       0.02500000 </v>
   <v>       0.42500000       0.12500000       0.02500000 </v>
   <v>      -0.12500000       0.12500000       0.02500000 </v>
   <v>      -0.07500000       0.12500000       0.02500000 </v>
   <v>       0.17500000       0.17500000       0.02500000 </v>
   <v>       0.22500000       0.17500000       0.02500000 </v>
   <v>       0.27500000       0.17500000       0.02500000 </v>
   <v>       0.32500000       0.17500000       0.02500000 </v>
   <v>       0.37500000       0.17500000       0.02500000 </v>
   <v>      -0.17500000       0.17500000       0.02500000 </v>
   <v>      -0.12500000       0.17500000       0.02500000 </v>
   <v>       0.22500000       0.22500000       0.02500000 </v>
   <v>       0.27500000       0.22500000       0.02500000 </v>
   <v>       0.32500000       0.22500000       0.02500000 </v>
   <v>       0.37500000       0.22500000       0.02500000 </v>
   <v>      -0.22500000       0.22500000       0.02500000 </v>
   <v>      -0.17500000       0.22500000       0.02500000 </v>
   <v>      -0.12500000       0.22500000       0.02500000 </v>
   <v>       0.27500000       0.27500000       0.02500000 </v>
   <v>       0.32500000       0.27500000       0.02500000 </v>
   <v>      -0.27500000       0.27500000       0.02500000 </v>
   <v>      -0.22500000       0.27500000       0.02500000 </v>
   <v>      -0.17500000       0.27500000       0.02500000 </v>
   <v>       0.32500000       0.32500000       0.02500000 </v>
   <v>      -0.32500000       0.32500000       0.02500000 </v>
   <v>      -0.27500000       0.32500000       0.02500000 </v>
   <v>      -0.22500000       0.32500000       0.02500000 </v>
   <v>      -0.17500000       0.32500000       0.02500000 </v>
   <v>      -0.37500000       0.37500000       0.02500000 </v>
   <v>      -0.32500000       0.37500000       0.02500000 </v>
   <v>      -0.27500000       0.37500000       0.02500000 </v>
   <v>      -0.22500000       0.37500000       0.02500000 </v>
   <v>      -0.42500000       0.42500000       0.02500000 </v>
   <v>      -0.37500000       0.42500000       0.02500000 </v>
   <v>      -0.32500000       0.42500000       0.02500000 </v>
   <v>      -0.27500000       0.42500000       0.02500000 </v>
   <v>      -0.22500000       0.42500000       0.02500000 </v>
   <v>      -0.47500000       0.47500000       0.02500000 </v>
   <v>      -0.42500000       0.47500000       0.02500000 </v>
   <v>      -0.37500000       0.47500000       0.02500000 </v>
   <v>      -0.32500000       0.47500000       0.02500000 </v>
   <v>      -0.27500000       0.47500000       0.02500000 </v>
   <v>      -0.47500000      -0.47500000       0.02500000 </v>
   <v>      -0.42500000      -0.47500000       0.02500000 </v>
   <v>      -0.37500000      -0.47500000       0.02500000 </v>
   <v>      -0.32500000      -0.47500000       0.02500000 </v>
   <v>      -0.27500000      -0.47500000       0.02500000 </v>
   <v>      -0.42500000      -0.42500000       0.02500000 </v>
   <v>      -0.37500000      -0.42500000       0.02500000 </v>
   <v>      -0.32500000      -0.42500000       0.02500000 </v>
   <v>      -0.37500000      -0.37500000       0.02500000 </v>
   <v>      -0.32500000      -0.37500000       0.02500000 </v>
   <v>       0.07500000       0.07500000       0.07500000 </v>
   <v>       0.12500000       0.07500000       0.07500000 </v>
   <v>       0.17500000       0.07500000       0.07500000 </v>
   <v>       0.22500000       0.07500000       0.07500000 </v>
   <v>       0.27500000       0.07500000       0.07500000 </v>
   <v>       0.32500000       0.07500000       0.07500000 </v>
   <v>       0.37500000       0.07500000       0.07500000 </v>
   <v>       0.42500000       0.07500000       0.07500000 </v>
   <v>      -0.07500000       0.07500000       0.07500000 </v>
   <v>       0.12500000       0.12500000       0.07500000 </v>
   <v>       0.17500000       0.12500000       0.07500000 </v>
   <v>       0.22500000       0.12500000       0.07500000 </v>
   <v>       0.27500000       0.12500000       0.07500000 </v>
   <v>       0.32500000       0.12500000       0.07500000 </v>
   <v>       0.37500000       0.12500000       0.07500000 </v>
   <v>      -0.12500000       0.12500000       0.07500000 </v>
   <v>       0.17500000       0.17500000       0.07500000 </v>
   <v>       0.22500000       0.17500000       0.07500000 </v>
   <v>       0.27500000       0.17500000       0.07500000 </v>
   <v>       0.32500000       0.17500000       0.07500000 </v>
   <v>       0.37500000       0.17500000       0.07500000 </v>
   <v>      -0.17500000       0.17500000       0.07500000 </v>
   <v>      -0.12500000       0.17500000       0.07500000 </v>
   <v>       0.22500000       0.22500000       0.07500000 </v>
   <v>       0.27500000       0.22500000       0.07500000 </v>
   <v>       0.32500000       0.22500000       0.07500000 </v>
   <v>      -0.22500000       0.22500000       0.07500000 </v>
   <v>      -0.17500000       0.22500000       0.07500000 </v>
   <v>       0.27500000       0.27500000       0.07500000 </v>
   <v>       0.32500000       0.27500000       0.07500000 </v>
   <v>      -0.27500000       0.27500000       0.07500000 </v>
   <v>      -0.22500000       0.27500000       0.07500000 </v>
   <v>      -0.17500000       0.27500000       0.07500000 </v>
   <v>      -0.32500000       0.32500000       0.07500000 </v>
   <v>      -0.27500000       0.32500000       0.07500000 </v>
   <v>      -0.22500000       0.32500000       0.07500000 </v>
   <v>      -0.37500000       0.37500000       0.07500000 </v>
   <v>      -0.32500000       0.37500000       0.07500000 </v>
   <v>      -0.27500000       0.37500000       0.07500000 </v>
   <v>      -0.22500000       0.37500000       0.07500000 </v>
   <v>      -0.42500000       0.42500000       0.07500000 </v>
   <v>      -0.37500000       0.42500000       0.07500000 </v>
   <v>      -0.32500000       0.42500000       0.07500000 </v>
   <v>      -0.27500000       0.42500000       0.07500000 </v>
   <v>      -0.47500000       0.47500000       0.07500000 </v>
   <v>      -0.42500000       0.47500000       0.07500000 </v>
   <v>      -0.37500000       0.47500000       0.07500000 </v>
   <v>      -0.32500000       0.47500000       0.07500000 </v>
   <v>      -0.27500000       0.47500000       0.07500000 </v>
   <v>      -0.47500000      -0.47500000       0.07500000 </v>
   <v>      -0.42500000      -0.47500000       0.07500000 </v>
   <v>      -0.37500000      -0.47500000       0.07500000 </v>
   <v>      -0.32500000      -0.47500000       0.07500000 </v>
   <v>      -0.42500000      -0.42500000       0.07500000 </v>
   <v>      -0.37500000      -0.42500000       0.07500000 </v>
   <v>      -0.32500000      -0.42500000       0.07500000 </v>
   <v>      -0.37500000      -0.37500000       0.07500000 </v>
   <v>       0.12500000       0.12500000       0.12500000 </v>
   <v>       0.17500000       0.12500000       0.12500000 </v>
   <v>       0.22500000       0.12500000       0.12500000 </v>
   <v>       0.27500000       0.12500000       0.12500000 </v>
   <v>       0.32500000       0.12500000       0.12500000 </v>
   <v>       0.37500000       0.12500000       0.12500000 </v>
   <v>      -0.12500000       0.12500000       0.12500000 </v>
   <v>       0.17500000       0.17500000       0.12500000 </v>
   <v>       0.22500000       0.17500000       0.12500000 </v>
   <v>       0.27500000       0.17500000       0.12500000 </v>
   <v>       0.32500000       0.17500000       0.12500000 </v>
   <v>      -0.17500000       0.17500000       0.12500000 </v>
   <v>       0.22500000       0.22500000       0.12500000 </v>
   <v>       0.27500000       0.22500000       0.12500000 </v>
   <v>       0.32500000       0.22500000       0.12500000 </v>
   <v>      -0.22500000       0.22500000       0.12500000 </v>
   <v>      -0.17500000       0.22500000       0.12500000 </v>
   <v>       0.27500000       0.27500000       0.12500000 </v>
   <v>      -0.27500000       0.27500000       0.12500000 </v>
   <v>      -0.22500000       0.27500000       0.12500000 </v>
   <v>      -0.32500000       0.32500000       0.12500000 </v>
   <v>      -0.27500000       0.32500000       0.12500000 </v>
   <v>      -0.22500000       0.32500000       0.12500000 </v>
   <v>      -0.37500000       0.37500000       0.12500000 </v>
   <v>      -0.32500000       0.37500000       0.12500000 </v>
   <v>      -0.27500000       0.37500000       0.12500000 </v>
   <v>      -0.42500000       0.42500000       0.12500000 </v>
   <v>      -0.37500000       0.42500000       0.12500000 </v>
   <v>      -0.32500000       0.42500000       0.12500000 </v>
   <v>      -0.27500000       0.42500000       0.12500000 </v>
   <v>      -0.47500000       0.47500000       0.12500000 </v>
   <v>      -0.42500000       0.47500000       0.12500000 </v>
   <v>      -0.37500000       0.47500000       0.12500000 </v>
   <v>      -0.32500000       0.47500000       0.12500000 </v>
   <v>      -0.47500000      -0.47500000       0.12500000 </v>
   <v>      -0.42500000      -0.47500000       0.12500000 </v>
   <v>      -0.37500000      -0.47500000       0.12500000 </v>
   <v>      -0.32500000      -0.47500000       0.12500000 </v>
   <v>      -0.42500000      -0.42500000       0.12500000 </v>
   <v>      -0.37500000      -0.42500000       0.12500000 </v>
   <v>      -0.37500000      -0.37500000       0.12500000 </v>
   <v>       0.17500000       0.17500000       0.17500000 </v>
   <v>       0.22500000       0.17500000       0.17500000 </v>
   <v>       0.27500000       0.17500000       0.17500000 </v>
   <v>       0.32500000       0.17500000       0.17500000 </v>
   <v>      -0.17500000       0.17500000       0.17500000 </v>
   <v>       0.22500000       0.22500000       0.17500000 </v>
   <v>       0.27500000       0.22500000       0.17500000 </v>
   <v>      -0.22500000       0.22500000       0.17500000 </v>
   <v>       0.27500000       0.27500000       0.17500000 </v>
   <v>      -0.27500000       0.27500000       0.17500000 </v>
   <v>      -0.22500000       0.27500000       0.17500000 </v>
   <v>      -0.32500000       0.32500000       0.17500000 </v>
   <v>      -0.27500000       0.32500000       0.17500000 </v>
   <v>      -0.37500000       0.37500000       0.17500000 </v>
   <v>      -0.32500000       0.37500000       0.17500000 </v>
   <v>      -0.27500000       0.37500000       0.17500000 </v>
   <v>      -0.42500000       0.42500000       0.17500000 </v>
   <v>      -0.37500000       0.42500000       0.17500000 </v>
   <v>      -0.32500000       0.42500000       0.17500000 </v>
   <v>      -0.47500000       0.47500000       0.17500000 </v>
   <v>      -0.42500000       0.47500000       0.17500000 </v>
   <v>      -0.37500000       0.47500000       0.17500000 </v>
   <v>      -0.32500000       0.47500000       0.17500000 </v>
   <v>      -0.47500000      -0.47500000       0.17500000 </v>
   <v>      -0.42500000      -0.47500000       0.17500000 </v>
   <v>      -0.37500000      -0.47500000       0.17500000 </v>
   <v>      -0.42500000      -0.42500000       0.17500000 </v>
   <v>      -0.37500000      -0.42500000       0.17500000 </v>
   <v>       0.22500000       0.22500000       0.22500000 </v>
   <v>       0.27500000       0.22500000       0.22500000 </v>
   <v>      -0.22500000       0.22500000       0.22500000 </v>
   <v>      -0.27500000       0.27500000       0.22500000 </v>
   <v>      -0.32500000       0.32500000       0.22500000 </v>
   <v>      -0.27500000       0.32500000       0.22500000 </v>
   <v>      -0.37500000       0.37500000       0.22500000 </v>
   <v>      -0.32500000       0.37500000       0.22500000 </v>
   <v>      -0.42500000       0.42500000       0.22500000 </v>
   <v>      -0.37500000       0.42500000       0.22500000 </v>
   <v>      -0.32500000       0.42500000       0.22500000 </v>
   <v>      -0.47500000       0.47500000       0.22500000 </v>
   <v>      -0.42500000       0.47500000       0.22500000 </v>
   <v>      -0.37500000       0.47500000       0.22500000 </v>
   <v>      -0.47500000      -0.47500000       0.22500000 </v>
   <v>      -0.42500000      -0.47500000       0.22500000 </v>
   <v>      -0.37500000      -0.47500000       0.22500000 </v>
   <v>      -0.42500000      -0.42500000       0.22500000 </v>
   <v>      -0.27500000       0.27500000       0.27500000 </v>
   <v>      -0.32500000       0.32500000       0.27500000 </v>
   <v>      -0.37500000       0.37500000       0.27500000 </v>
   <v>      -0.32500000       0.37500000       0.27500000 </v>
   <v>      -0.42500000       0.42500000       0.27500000 </v>
   <v>      -0.37500000       0.42500000       0.27500000 </v>
   <v>      -0.47500000       0.47500000       0.27500000 </v>
   <v>      -0.42500000       0.47500000       0.27500000 </v>
   <v>      -0.37500000       0.47500000       0.27500000 </v>
   <v>      -0.47500000      -0.47500000       0.27500000 </v>
   <v>      -0.42500000      -0.47500000       0.27500000 </v>
   <v>      -0.42500000      -0.42500000       0.27500000 </v>
   <v>      -0.32500000       0.32500000       0.32500000 </v>
   <v>      -0.37500000       0.37500000       0.32500000 </v>
   <v>      -0.42500000       0.42500000       0.32500000 </v>
   <v>      -0.37500000       0.42500000       0.32500000 </v>
   <v>      -0.47500000       0.47500000       0.32500000 </v>
   <v>      -0.42500000       0.47500000       0.32500000 </v>
   <v>      -0.47500000      -0.47500000       0.32500000 </v>
   <v>      -0.42500000      -0.47500000       0.32500000 </v>
   <v>      -0.37500000       0.37500000       0.37500000 </v>
   <v>      -0.42500000       0.42500000       0.37500000 </v>
   <v>      -0.47500000       0.47500000       0.37500000 </v>
   <v>      -0.42500000       0.47500000       0.37500000 </v>
   <v>      -0.47500000      -0.47500000       0.37500000 </v>
   <v>      -0.42500000       0.42500000       0.42500000 </v>
   <v>      -0.47500000       0.47500000       0.42500000 </v>
   <v>      -0.47500000      -0.47500000       0.42500000 </v>
   <v>      -0.47500000       0.47500000       0.47500000 </v>
  </varray>
  <varray name="weights" >
   <v>       0.00100000 </v>
   <v>       0.00300000 </v>
   <v>       0.00300000 </v>
   <v>       0.00300000 </v>
   <v>       0.00300000 </v>
   <v>       0.00300000 </v>
   <v>       0.00300000 </v>
   <v>       0.00300000 </v>
   <v>       0.00300000 </v>
   <v>       0.00150000 </v>
   <v>       0.00075000 </v>
   <v>       0.00300000 </v>
   <v>       0.00600000 </v>
   <v>       0.00600000 </v>
   <v>       0.00600000 </v>
   <v>       0.00600000 </v>
   <v>       0.00600000 </v>
   <v>       0.00600000 </v>
   <v>       0.00600000 </v>
   <v>       0.00300000 </v>
   <v>       0.00300000 </v>
   <v>       0.00600000 </v>
   <v>       0.00600000 </v>
   <v>       0.00600000 </v>
   <v>       0.00600000 </v>
   <v>       0.00600000 </v>
   <v>       0.00300000 </v>
   <v>       0.00300000 </v>
   <v>       0.00300000 </v>
   <v>       0.00300000 </v>
   <v>       0.00600000 </v>
   <v>       0.00600000 </v>
   <v>       0.00600000 </v>
   <v>       0.00600000 </v>
   <v>       0.00300000 </v>
   <v>       0.00600000 </v>
   <v>       0.00300000 </v>
   <v>       0.00600000 </v>
   <v>       0.00600000 </v>
   <v>       0.00300000 </v>
   <v>       0.00300000 </v>
   <v>       0.00600000 </v>
   <v>       0.00300000 </v>
   <v>       0.00300000 </v>
   <v>       0.00600000 </v>
   <v>       0.00300000 </v>
   <v>       0.00600000 </v>
   <v>       0.00600000 </v>
   <v>       0.00100000 </v>
   <v>       0.00300000 </v>
   <v>       0.00600000 </v>
   <v>       0.00600000 </v>
   <v>       0.00300000 </v>
   <v>       0.00300000 </v>
   <v>       0.00600000 </v>
   <v>       0.00600000 </v>
   <v>       0.00600000 </v>
   <v>       0.00300000 </v>
   <v>       0.00600000 </v>
   <v>       0.00600000 </v>
   <v>       0.00600000 </v>
   <v>       0.00300000 </v>
   <v>       0.00300000 </v>
   <v>       0.00600000 </v>
   <v>       0.00600000 </v>
   <v>       0.00600000 </v>
   <v>       0.00600000 </v>
   <v>       0.00300000 </v>
   <v>       0.00600000 </v>
   <v>       0.00600000 </v>
   <v>       0.00600000 </v>
   <v>       0.00300000 </v>
   <v>       0.00300000 </v>
   <v>       0.00600000 </v>
   <v>       0.00600000 </v>
   <v>       0.00300000 </v>
   <v>       0.00300000 </v>
   <v>       0.00100000 </v>
   <v>       0.00300000 </v>
   <v>       0.00300000 </v>
   <v>       0.00300000 </v>
   <v>       0.00300000 </v>
   <v>       0.00300000 </v>
   <v>       0.00300000 </v>
   <v>       0.00150000 </v>
   <v>       0.00075000 </v>
   <v>       0.00300000 </v>
   <v>       0.00600000 </v>
   <v>       0.00600000 </v>
   <v>       0.00600000 </v>
   <v>       0.00600000 </v>
   <v>       0.00600000 </v>
   <v>       0.00300000 </v>
   <v>       0.00300000 </v>
   <v>       0.00600000 </v>
   <v>       0.00600000 </v>
   <v>       0.00600000 </v>
   <v>       0.00300000 </v>
   <v>       0.00300000 </v>
   <v>       0.00300000 </v>
   <v>       0.00300000 </v>
   <v>       0.00600000 </v>
   <v>       0.00600000 </v>
   <v>       0.00300000 </v>
   <v>       0.00600000 </v>
   <v>       0.00300000 </v>
   <v>       0.00300000 </v>
   <v>       0.00300000 </v>
   <v>       0.00600000 </v>
   <v>       0.00300000 </v>
   <v>       0.00300000 </v>
   <v>       0.00600000 </v>
   <v>       0.00600000 </v>
   <v>       0.00300000 </v>
   <v>       0.00600000 </v>
   <v>       0.00600000 </v>
   <v>       0.00300000 </v>
   <v>       0.00300000 </v>
   <v>       0.00600000 </v>
   <v>       0.00600000 </v>
   <v>       0.00600000 </v>
   <v>       0.00300000 </v>
   <v>       0.00600000 </v>
   <v>       0.00600000 </v>
   <v>       0.00600000 </v>
   <v>       0.00300000 </v>
   <v>       0.00300000 </v>
   <v>       0.00600000 </v>
   <v>       0.00600000 </v>
   <v>       0.00600000 </v>
   <v>       0.00300000 </v>
   <v>       0.00600000 </v>
   <v>       0.00300000 </v>
   <v>       0.00300000 </v>
   <v>       0.00100000 </v>
   <v>       0.00300000 </v>
   <v>       0.00300000 </v>
   <v>       0.00300000 </v>
   <v>       0.00300000 </v>
   <v>       0.00150000 </v>
   <v>       0.00075000 </v>
   <v>       0.00300000 </v>
   <v>       0.00600000 </v>
   <v>       0.00600000 </v>
   <v>       0.00600000 </v>
   <v>       0.00300000 </v>
   <v>       0.00300000 </v>
   <v>       0.00600000 </v>
   <v>       0.00300000 </v>
   <v>       0.00300000 </v>
   <v>       0.00300000 </v>
   <v>       0.00300000 </v>
   <v>       0.00300000 </v>
   <v>       0.00600000 </v>
   <v>       0.00300000 </v>
   <v>       0.00600000 </v>
   <v>       0.00300000 </v>
   <v>       0.00300000 </v>
   <v>       0.00600000 </v>
   <v>       0.00600000 </v>
   <v>       0.00300000 </v>
   <v>       0.00600000 </v>
   <v>       0.00600000 </v>
   <v>       0.00300000 </v>
   <v>       0.00300000 </v>
   <v>       0.00600000 </v>
   <v>       0.00600000 </v>
   <v>       0.00600000 </v>
   <v>       0.00300000 </v>
   <v>       0.00600000 </v>
   <v>       0.00600000 </v>
   <v>       0.00300000 </v>
   <v>       0.00300000 </v>
   <v>       0.00600000 </v>
   <v>       0.00100000 </v>
   <v>       0.00100000 </v>
   <v>       0.00300000 </v>
   <v>       0.00300000 </v>
   <v>       0.00150000 </v>
   <v>       0.00075000 </v>
   <v>       0.00300000 </v>
   <v>       0.00600000 </v>
   <v>       0.00300000 </v>
   <v>       0.00100000 </v>
   <v>       0.00300000 </v>
   <v>       0.00300000 </v>
   <v>       0.00300000 </v>
   <v>       0.00600000 </v>
   <v>       0.00300000 </v>
   <v>       0.00600000 </v>
   <v>       0.00300000 </v>
   <v>       0.00300000 </v>
   <v>       0.00600000 </v>
   <v>       0.00600000 </v>
   <v>       0.00300000 </v>
   <v>       0.00600000 </v>
   <v>       0.00600000 </v>
   <v>       0.00300000 </v>
   <v>       0.00300000 </v>
   <v>       0.00600000 </v>
   <v>       0.00600000 </v>
   <v>       0.00300000 </v>
   <v>       0.00300000 </v>
   <v>       0.00100000 </v>
   <v>       0.00150000 </v>
   <v>       0.00075000 </v>
   <v>       0.00300000 </v>
   <v>       0.00300000 </v>
   <v>       0.00300000 </v>
   <v>       0.00300000 </v>
   <v>       0.00600000 </v>
   <v>       0.00300000 </v>
   <v>       0.00600000 </v>
   <v>       0.00300000 </v>
   <v>       0.00300000 </v>
   <v>       0.00600000 </v>
   <v>       0.00600000 </v>
   <v>       0.00300000 </v>
   <v>       0.00600000 </v>
   <v>       0.00300000 </v>
   <v>       0.00300000 </v>
   <v>       0.00075000 </v>
   <v>       0.00300000 </v>
   <v>       0.00300000 </v>
   <v>       0.00300000 </v>
   <v>       0.00300000 </v>
   <v>       0.00600000 </v>
   <v>       0.00300000 </v>
   <v>       0.00600000 </v>
   <v>       0.00300000 </v>
   <v>       0.00300000 </v>
   <v>       0.00600000 </v>
   <v>       0.00100000 </v>
   <v>       0.00075000 </v>
   <v>       0.00300000 </v>
   <v>       0.00300000 </v>
   <v>       0.00300000 </v>
   <v>       0.00300000 </v>
   <v>       0.00600000 </v>
   <v>       0.00300000 </v>
   <v>       0.00300000 </v>
   <v>       0.00075000 </v>
   <v>       0.00300000 </v>
   <v>       0.00300000 </v>
   <v>       0.00300000 </v>
   <v>       0.00300000 </v>
   <v>       0.00075000 </v>
   <v>       0.00300000 </v>
   <v>       0.00100000 </v>
   <v>       0.00075000 </v>
  </varray>
 </kpoints>
 <parameters>
  <separator name="general" >
   <i type="string" name="SYSTEM">bcc Fe</i>
   <i type="logical" name="LCOMPAT"> F  </i>
  </separator>
  <separator name="electronic" >
   <i type="string" name="PREC">normal</i>
   <i name="ENMAX">    267.96900000</i>
   <i name="ENAUG">    511.36800000</i>
   <i name="EDIFF">      0.00000100</i>
   <i type="int" name="IALGO">    38</i>
   <i type="int" name="IWAVPR">    11</i>
   <i type="int" name="NBANDS">     8</i>
   <i name="NELECT">      8.00000000</i>
   <i type="int" name="TURBO">     0</i>
   <i type="int" name="IRESTART">     0</i>
   <i type="int" name="NREBOOT">     0</i>
   <i type="int" name="NMIN">     0</i>
   <i name="EREF">      0.00000000</i>
   <separator name="electronic smearing" >
    <i type="int" name="ISMEAR">     1</i>
    <i name="SIGMA">      0.20000000</i>
    <i name="KSPACING">      0.50000000</i>
    <i type="logical" name="KGAMMA"> T  </i>
   </separator>
   <separator name="electronic projectors" >
    <i type="logical" name="LREAL"> F  </i>
    <v name="ROPT">      0.00000000</v>
    <i type="int" name="LMAXPAW">  -100</i>
    <i type="int" name="LMAXMIX">     2</i>
    <i type="logical" name="NLSPLINE"> F  </i>
   </separator>
   <separator name="electronic startup" >
    <i type="int" name="ISTART">     0</i>
    <i type="int" name="ICHARG">     2</i>
    <i type="int" name="INIWAV">     1</i>
   </separator>
   <separator name="electronic spin" >
    <i type="int" name="ISPIN">     1</i>
    <i type="logical" name="LNONCOLLINEAR"> F  </i>
    <v name="MAGMOM">      1.00000000</v>
    <i name="NUPDOWN">     -1.00000000</i>
    <i type="logical" name="LSORBIT"> F  </i>
    <v name="SAXIS">      0.00000000      0.00000000      1.00000000</v>
    <i type="logical" name="LSPIRAL"> F  </i>
    <v name="QSPIRAL">      0.00000000      0.00000000      0.00000000</v>
    <i type="logical" name="LZEROZ"> F  </i>
   </separator>
   <separator name="electronic exchange-correlation" >
    <i type="logical" name="LASPH"> F  </i>
    <i type="logical" name="LMETAGGA"> F  </i>
   </separator>
   <separator name="electronic convergence" >
    <i type="int" name="NELM">    60</i>
    <i type="int" name="NELMDL">     0</i>
    <i type="int" name="NELMIN">     2</i>
    <i name="ENINI">    267.96900000</i>
    <separator name="electronic convergence detail" >
     <i type="logical" name="LDIAG"> T  </i>
     <i type="logical" name="LSUBROT"> F  </i>
     <i name="WEIMIN">      0.00100000</i>
     <i name="EBREAK">      0.00000003</i>
     <i name="DEPER">      0.30000000</i>
     <i type="int" name="NRMM">     4</i>
     <i name="TIME">      0.40000000</i>
    </separator>
   </separator>
   <separator name="electronic mixer" >
    <i name="AMIX">      0.40000000</i>
    <i name="BMIX">      1.00000000</i>
    <i name="AMIN">      0.10000000</i>
    <i name="AMIX_MAG">      1.60000000</i>
    <i name="BMIX_MAG">      1.00000000</i>
    <separator name="electronic mixer details" >
     <i type="int" name="IMIX">     4</i>
     <i type="logical" name="MIXFIRST"> F  </i>
     <i type="int" name="MAXMIX">   -45</i>
     <i name="WC">    100.00000000</i>
     <i type="int" name="INIMIX">     1</i>
     <i type="int" name="MIXPRE">     1</i>
     <i type="int" name="MREMOVE">     5</i>
    </separator>
   </separator>
   <separator name="electronic dipolcorrection" >
    <i type="logical" name="LDIPOL"> F  </i>
    <i type="logical" name="LMONO"> F  </i>
    <i type="int" name="IDIPOL">     0</i>
    <i name="EPSILON">      1.00000000</i>
    <v name="DIPOL">   -100.00000000   -100.00000000   -100.00000000</v>
    <i name="EFIELD">      0.00000000</i>
   </separator>
  </separator>
  <separator name="grids" >
   <i type="int" name="NGX">    10</i>
   <i type="int" name="NGY">    10</i>
   <i type="int" name="NGZ">    10</i>
   <i type="int" name="NGXF">    20</i>
   <i type="int" name="NGYF">    20</i>
   <i type="int" name="NGZF">    20</i>
   <i type="logical" name="ADDGRID"> F  </i>
  </separator>
  <separator name="ionic" >
   <i type="int" name="NSW">    50</i>
   <i type="int" name="IBRION">     2</i>
   <i type="int" name="MDALGO">     0</i>
   <i type="int" name="ISIF">     3</i>
   <i name="PSTRESS">      0.00000000</i>
   <i name="EDIFFG">      0.00001000</i>
   <i type="int" name="NFREE">     1</i>
   <i name="POTIM">      0.50000000</i>
   <i name="SMASS">     -3.00000000</i>
   <i name="SCALEE">      1.00000000</i>
  </separator>
  <separator name="ionic md" >
   <i name="TEBEG">      0.00010000</i>
   <i name="TEEND">      0.00010000</i>
   <i type="int" name="NBLOCK">     1</i>
   <i type="int" name="KBLOCK">    50</i>
   <i type="int" name="NPACO">   256</i>
   <i name="APACO">     16.00000000</i>
  </separator>
  <separator name="symmetry" >
   <i type="int" name="ISYM">     2</i>
   <i name="SYMPREC">      0.00001000</i>
  </separator>
  <separator name="dos" >
   <i type="int" name="LORBIT">     0</i>
   <v name="RWIGS">     -1.00000000</v>
   <i type="int" name="NEDOS">   301</i>
   <i name="EMIN">     10.00000000</i>
   <i name="EMAX">    -10.00000000</i>
   <i name="EFERMI">      0.00000000</i>
  </separator>
  <separator name="writing" >
   <i type="int" name="NWRITE">     2</i>
   <i type="logical" name="LWAVE"> F  </i>
   <i type="logical" name="LDOWNSAMPLE"> F  </i>
   <i type="logical" name="LCHARG"> T  </i>
   <i type="logical" name="LPARD"> F  </i>
   <i type="logical" name="LVTOT"> F  </i>
   <i type="logical" name="LVHAR"> F  </i>
   <i type="logical" name="LELF"> F  </i>
   <i type="logical" name="LOPTICS"> F  </i>
   <v name="STM">      0.00000000      0.00000000      0.00000000      0.00000000      0.00000000      0.00000000      0.00000000</v>
  </separator>
  <separator name="performance" >
   <i type="int" name="NPAR">     1</i>
   <i type="int" name="NSIM">     4</i>
   <i type="int" name="NBLK">    -1</i>
   <i type="logical" name="LPLANE"> T  </i>
   <i type="logical" name="LSCALAPACK"> T  </i>
   <i type="logical" name="LSCAAWARE"> F  </i>
   <i type="logical" name="LSCALU"> F  </i>
   <i type="logical" name="LASYNC"> F  </i>
   <i type="logical" name="LORBITALREAL"> F  </i>
  </separator>
  <separator name="miscellaneous" >
   <i type="int" name="IDIOT">     3</i>
   <i type="int" name="ISPECIAL">     0</i>
   <i type="logical" name="LMUSIC"> F  </i>
   <v name="POMASS">     55.84700000</v>
   <v name="DARWINR">      0.00000000</v>
   <v name="DARWINV">      1.00000000</v>
   <i type="logical" name="LCORR"> T  </i>
  </separator>
  <i type="logical" name="GGA_COMPAT"> T  </i>
  <i type="logical" name="LBERRY"> F  </i>
  <i type="int" name="ICORELEVEL">     0</i>
  <i type="logical" name="LDAU"> F  </i>
  <i type="int" name="I_CONSTRAINED_M">     0</i>
  <separator name="electronic exchange-correlation" >
   <i type="string" name="GGA">--</i>
   <i type="int" name="VOSKOWN">     0</i>
   <i type="logical" name="LHFCALC"> F  </i>
   <i type="string" name="PRECFOCK"></i>
   <i type="logical" name="LSYMGRAD"> F  </i>
   <i type="logical" name="LHFONE"> F  </i>
   <i type="logical" name="LRHFCALC"> F  </i>
   <i type="logical" name="LTHOMAS"> F  </i>
   <i type="logical" name="LMODELHF"> F  </i>
   <i name="ENCUT4O">     -1.00000000</i>
   <i type="int" name="EXXOEP">     0</i>
   <i type="int" name="FOURORBIT">     0</i>
   <i name="AEXX">      0.00000000</i>
   <i name="HFALPHA">      0.00000000</i>
   <i name="MCALPHA">      0.00000000</i>
   <i name="ALDAX">      1.00000000</i>
   <i name="AGGAX">      1.00000000</i>
   <i name="ALDAC">      1.00000000</i>
   <i name="AGGAC">      1.00000000</i>
   <i type="int" name="NKREDX">     1</i>
   <i type="int" name="NKREDY">     1</i>
   <i type="int" name="NKREDZ">     1</i>
   <i type="logical" name="SHIFTRED"> F  </i>
   <i type="logical" name="ODDONLY"> F  </i>
   <i type="logical" name="EVENONLY"> F  </i>
   <i type="int" name="LMAXFOCK">     0</i>
   <i type="int" name="NMAXFOCKAE">     0</i>
   <i type="logical" name="LFOCKAEDFT"> F  </i>
   <i name="HFSCREEN">      0.00000000</i>
   <i name="HFSCREENC">      0.00000000</i>
   <i type="int" name="NBANDSGWLOW">     0</i>
  </separator>
  <separator name="vdW DFT" >
   <i type="logical" name="LUSE_VDW"> F  </i>
   <i name="Zab_VDW">     -0.84910000</i>
   <i name="PARAM1">      0.12340000</i>
   <i name="PARAM2">      1.00000000</i>
   <i name="PARAM3">      0.00000000</i>
  </separator>
  <separator name="model GW" >
   <i type="int" name="MODEL_GW">     0</i>
   <i name="MODEL_EPS0">      5.82001701</i>
   <i name="MODEL_ALPHA">      1.00000000</i>
  </separator>
  <separator name="linear response parameters" >
   <i type="logical" name="LEPSILON"> F  </i>
   <i type="logical" name="LRPA"> F  </i>
   <i type="logical" name="LNABLA"> F  </i>
   <i type="logical" name="LVEL"> F  </i>
   <i type="int" name="KINTER">     0</i>
   <i name="CSHIFT">      0.10000000</i>
   <i name="OMEGAMAX">     -1.00000000</i>
   <i name="DEG_THRESHOLD">      0.00200000</i>
   <i name="RTIME">     -0.10000000</i>
   <i name="WPLASMAI">      0.00000000</i>
   <v name="DFIELD">      0.00000000      0.00000000      0.00000000</v>
   <v name="WPLASMA">      0.00000000      0.00000000      0.00000000      0.00000000      0.00000000      0.00000000      0.00000000      0.00000000      0.00000000</v>
  </separator>
  <separator name="orbital magnetization" >
   <i type="logical" name="NUCIND"> F  </i>
   <v name="MAGPOS">      0.00000000      0.00000000      0.00000000</v>
   <i type="logical" name="LNICSALL"> T  </i>
   <i type="logical" name="ORBITALMAG"> F  </i>
   <i type="logical" name="LMAGBLOCH"> F  </i>
   <i type="logical" name="LCHIMAG"> F  </i>
   <i type="logical" name="LGAUGE"> T  </i>
   <i type="int" name="MAGATOM">     0</i>
   <v name="MAGDIPOL">      0.00000000      0.00000000      0.00000000</v>
   <v name="AVECCONST">      0.00000000      0.00000000      0.00000000</v>
  </separator>
  <separator name="response functions" >
   <i type="logical" name="LADDER"> F  </i>
   <i type="logical" name="LRPAFORCE"> F  </i>
   <i type="logical" name="LFXC"> F  </i>
   <i type="logical" name="LHARTREE"> T  </i>
   <i type="int" name="IBSE">     0</i>
   <v type="int" name="KPOINT">    -1     0     0     0</v>
   <i type="logical" name="LTCTE"> F  </i>
   <i type="logical" name="LTETE"> F  </i>
   <i type="logical" name="LTRIPLET"> F  </i>
   <i type="logical" name="LFXCEPS"> F  </i>
   <i type="logical" name="LFXHEG"> F  </i>
   <i type="int" name="NATURALO">     2</i>
   <i type="logical" name="L2ORDER"> F  </i>
   <i type="logical" name="LMP2LT"> F  </i>
   <i type="logical" name="LUSEW"> F  </i>
   <i name="ENCUTGW">     -2.00000000</i>
   <i name="ENCUTGWSOFT">     -2.00000000</i>
   <i name="ENCUTLF">     -1.00000000</i>
   <i type="int" name="LMAXMP2">    -1</i>
   <i name="SCISSOR">      0.00000000</i>
   <i type="int" name="NOMEGA">     0</i>
   <i type="int" name="NOMEGAR">     0</i>
   <i type="int" name="NBANDSGW">    -1</i>
   <i type="int" name="NBANDSO">    -1</i>
   <i type="int" name="NBANDSV">    -1</i>
   <i type="int" name="NELM">     1</i>
   <i type="int" name="NELMHF">     1</i>
   <i type="int" name="DIM">     3</i>
   <i type="int" name="ANTIRES">     0</i>
   <i name="OMEGAMAX">    -30.00000000</i>
   <i name="OMEGAMIN">    -30.00000000</i>
   <i name="OMEGATL">   -200.00000000</i>
   <i type="int" name="OMEGAGRID">   140</i>
   <i name="CSHIFT">     -0.10000000</i>
   <i type="logical" name="SELFENERGY"> F  </i>
   <i type="logical" name="LSPECTRAL"> F  </i>
   <i type="logical" name="LSPECTRALGW"> F  </i>
   <i type="logical" name="LSINGLES"> F  </i>
   <i type="logical" name="LFERMIGW"> F  </i>
   <i type="logical" name="ODDONLYGW"> F  </i>
   <i type="logical" name="EVENONLYGW"> F  </i>
   <i type="int" name="NKREDLFX">     1</i>
   <i type="int" name="NKREDLFY">     1</i>
   <i type="int" name="NKREDLFZ">     1</i>
   <i type="int" name="MAXMEM">  2800</i>
   <i type="int" name="TELESCOPE">     0</i>
   <i type="int" name="TAUPAR">     1</i>
   <i type="int" name="OMEGAPAR">    -1</i>
   <i name="LAMBDA">      1.00000000</i>
  </separator>
  <separator name="External order field" >
   <i name="OFIELD_KAPPA">      0.00000000</i>
   <v name="OFIELD_K">      0.00000000      0.00000000      0.00000000</v>
   <i name="OFIELD_Q6_NEAR">      0.00000000</i>
   <i name="OFIELD_Q6_FAR">      0.00000000</i>
   <i name="OFIELD_A">      0.00000000</i>
  </separator>
 </parameters>
 <atominfo>
  <atoms>       1 </atoms>
  <types>       1 </types>
  <array name="atoms" >
   <dimension dim="1">ion</dimension>
   <field type="string">element</field>
   <field type="int">atomtype</field>
   <set>
    <rc><c>Fe</c><c>   1</c></rc>
   </set>
  </array>
  <array name="atomtypes" >
   <dimension dim="1">type</dimension>
   <field type="int">atomspertype</field>
   <field type="string">element</field>
   <field>mass</field>
   <field>valence</field>
   <field type="string">pseudopotential</field>
   <set>
    <rc><c>   1</c><c>Fe</c><c>     55.84700000</c><c>      8.00000000</c><c>  PAW Fe                                </c></rc>
   </set>
  </array>
 </atominfo>
 <structure name="initialpos" >
  <crystal>
   <varray name="basis" >
    <v>      -1.34350000       1.34350000       1.34350000 </v>
    <v>       1.34350000      -1.34350000       1.34350000 </v>
    <v>       1.34350000       1.34350000      -1.34350000 </v>
   </varray>
   <i name="volume">      9.70002835 </i>
   <varray name="rec_basis" >
    <v>       0.00000000       0.37216226       0.37216226 </v>
    <v>       0.37216226       0.00000000       0.37216226 </v>
    <v>       0.37216226       0.37216226       0.00000000 </v>
   </varray>
  </crystal>
  <varray name="positions" >
   <v>       0.00000000       0.00000000       0.00000000 </v>
  </varray>
 </structure>
 <calculation>
  <scstep>
   <time name="dav">    0.22    0.45</time>
   <time name="total">    0.23    0.48</time>
   <energy>
    <i name="alphaZ">     69.03965965 </i>
    <i name="ewald">   -624.09154735 </i>
    <i name="hartreedc">    -99.17660430 </i>
    <i name="XCdc">      4.86345274 </i>
    <i name="pawpsdc">    479.09899362 </i>
    <i name="pawaedc">   -488.38466797 </i>
    <i name="eentropy">     -0.00076172 </i>
    <i name="bandstr">     64.47206442 </i>
    <i name="atom">    597.33035224 </i>
    <i name="e_fr_energy">      3.15094133 </i>
    <i name="e_wo_entrp">      3.15170305 </i>
    <i name="e_0_energy">      3.15119524 </i>
   </energy>
  </scstep>
  <scstep>
   <time name="dav">    0.21    0.43</time>
   <time name="total">    0.22    0.45</time>
   <energy>
    <i name="e_fr_energy">    -10.38112109 </i>
    <i name="e_wo_entrp">    -10.38319429 </i>
    <i name="e_0_energy">    -10.38181215 </i>
   </energy>
  </scstep>
  <scstep>
   <time name="dav">    0.27    0.54</time>
   <time name="total">    0.28    0.55</time>
   <energy>
    <i name="e_fr_energy">    -10.44456064 </i>
    <i name="e_wo_entrp">    -10.44660262 </i>
    <i name="e_0_energy">    -10.44524130 </i>
   </energy>
  </scstep>
  <scstep>
   <time name="dav">    0.23    0.37</time>
   <time name="total">    0.24    0.38</time>
   <energy>
    <i name="e_fr_energy">    -10.44485842 </i>
    <i name="e_wo_entrp">    -10.44690159 </i>
    <i name="e_0_energy">    -10.44553948 </i>
   </energy>
  </scstep>
  <scstep>
   <time name="dav">    0.25    0.25</time>
   <time name="total">    0.28    0.28</time>
   <energy>
    <i name="e_fr_energy">    -10.44486082 </i>
    <i name="e_wo_entrp">    -10.44690398 </i>
    <i name="e_0_energy">    -10.44554187 </i>
   </energy>
  </scstep>
  <scstep>
   <time name="dav">    0.20    0.20</time>
   <time name="total">    0.23    0.23</time>
   <energy>
    <i name="e_fr_energy">     -9.08519137 </i>
    <i name="e_wo_entrp">     -9.08571455 </i>
    <i name="e_0_energy">     -9.08536576 </i>
   </energy>
  </scstep>
  <scstep>
   <time name="dav">    0.20    0.20</time>
   <time name="total">    0.23    0.23</time>
   <energy>
    <i name="e_fr_energy">     -9.01049770 </i>
    <i name="e_wo_entrp">     -9.01200906 </i>
    <i name="e_0_energy">     -9.01100149 </i>
   </energy>
  </scstep>
  <scstep>
   <time name="dav">    0.30    0.31</time>
   <time name="total">    0.33    0.35</time>
   <energy>
    <i name="e_fr_energy">     -8.98818817 </i>
    <i name="e_wo_entrp">     -8.98943047 </i>
    <i name="e_0_energy">     -8.98860227 </i>
   </energy>
  </scstep>
  <scstep>
   <time name="dav">    0.21    0.44</time>
   <time name="total">    0.24    0.49</time>
   <energy>
    <i name="e_fr_energy">     -8.98784834 </i>
    <i name="e_wo_entrp">     -8.98917534 </i>
    <i name="e_0_energy">     -8.98829067 </i>
   </energy>
  </scstep>
  <scstep>
   <time name="dav">    0.25    0.49</time>
   <time name="total">    0.27    0.54</time>
   <energy>
    <i name="e_fr_energy">     -8.98786429 </i>
    <i name="e_wo_entrp">     -8.98918497 </i>
    <i name="e_0_energy">     -8.98830452 </i>
   </energy>
  </scstep>
  <scstep>
   <time name="dav">    0.12    0.24</time>
   <time name="total">    0.15    0.29</time>
   <energy>
    <i name="e_fr_energy">     -8.98786315 </i>
    <i name="e_wo_entrp">     -8.98918576 </i>
    <i name="e_0_energy">     -8.98830402 </i>
   </energy>
  </scstep>
  <scstep>
   <time name="dav">    0.12    0.23</time>
   <time name="total">    0.13    0.27</time>
   <energy>
    <i name="alphaZ">     69.03965965 </i>
    <i name="ewald">   -624.09154735 </i>
    <i name="hartreedc">    -82.79629472 </i>
    <i name="XCdc">      3.97236039 </i>
    <i name="pawpsdc">    551.39076583 </i>
    <i name="pawaedc">   -562.07644090 </i>
    <i name="eentropy">      0.00132275 </i>
    <i name="bandstr">     38.24195908 </i>
    <i name="atom">    597.33035224 </i>
    <i name="e_fr_energy">     -8.98786304 </i>
    <i name="e_wo_entrp">     -8.98918579 </i>
    <i name="e_0_energy">     -8.98830395 </i>
   </energy>
  </scstep>
  <structure>
   <crystal>
    <varray name="basis" >
     <v>      -1.34350000       1.34350000       1.34350000 </v>
     <v>       1.34350000      -1.34350000       1.34350000 </v>
     <v>       1.34350000       1.34350000      -1.34350000 </v>
    </varray>
    <i name="volume">      9.70002835 </i>
    <varray name="rec_basis" >
     <v>       0.00000000       0.37216226       0.37216226 </v>
     <v>       0.37216226       0.00000000       0.37216226 </v>
     <v>       0.37216226       0.37216226       0.00000000 </v>
    </varray>
   </crystal>
   <varray name="positions" >
    <v>       0.00000000       0.00000000       0.00000000 </v>
   </varray>
  </structure>
  <varray name="forces" >
   <v>      -0.00000000      -0.00000000       0.00000000 </v>
  </varray>
  <varray name="stress" >
   <v>      -8.27317312       0.00000000       0.00000000 </v>
   <v>      -0.00000000      -8.27317312      -0.00000000 </v>
   <v>       0.00000000      -0.00000000      -8.27317312 </v>
  </varray>
  <energy>
   <i name="e_fr_energy">     -8.98786304 </i>
   <i name="e_wo_entrp">     -8.98830395 </i>
   <i name="e_0_energy">      0.00132275 </i>
  </energy>
  <time name="totalsc">    3.08    5.10</time>
 </calculation>
 <calculation>
  <scstep>
   <time name="dav">    0.20    0.39</time>
   <time name="total">    0.22    0.43</time>
   <energy>
    <i name="alphaZ">     69.54256685 </i>
    <i name="ewald">   -625.60324424 </i>
    <i name="hartreedc">    -82.99656894 </i>
    <i name="XCdc">      4.03636896 </i>
    <i name="pawpsdc">    551.39858769 </i>
    <i name="pawaedc">   -562.08459124 </i>
    <i name="eentropy">      0.00148923 </i>
    <i name="bandstr">     39.38382287 </i>
    <i name="atom">    597.33035224 </i>
    <i name="e_fr_energy">     -8.99121659 </i>
    <i name="e_wo_entrp">     -8.99270581 </i>
    <i name="e_0_energy">     -8.99171299 </i>
   </energy>
  </scstep>
  <scstep>
   <time name="dav">    0.20    0.24</time>
   <time name="total">    0.23    0.28</time>
   <energy>
    <i name="e_fr_energy">     -8.98797997 </i>
    <i name="e_wo_entrp">     -8.98927540 </i>
    <i name="e_0_energy">     -8.98841178 </i>
   </energy>
  </scstep>
  <scstep>
   <time name="dav">    0.20    0.20</time>
   <time name="total">    0.23    0.23</time>
   <energy>
    <i name="e_fr_energy">     -8.98768216 </i>
    <i name="e_wo_entrp">     -8.98903282 </i>
    <i name="e_0_energy">     -8.98813238 </i>
   </energy>
  </scstep>
  <scstep>
   <time name="dav">    0.23    0.23</time>
   <time name="total">    0.26    0.26</time>
   <energy>
    <i name="e_fr_energy">     -8.98760434 </i>
    <i name="e_wo_entrp">     -8.98893486 </i>
    <i name="e_0_energy">     -8.98804785 </i>
   </energy>
  </scstep>
  <scstep>
   <time name="dav">    0.15    0.15</time>
   <time name="total">    0.16    0.16</time>
   <energy>
    <i name="alphaZ">     69.54256685 </i>
    <i name="ewald">   -625.60324424 </i>
    <i name="hartreedc">    -82.28029953 </i>
    <i name="XCdc">      3.99241460 </i>
    <i name="pawpsdc">    553.27792810 </i>
    <i name="pawaedc">   -564.02485001 </i>
    <i name="eentropy">      0.00133269 </i>
    <i name="bandstr">     38.77619496 </i>
    <i name="atom">    597.33035224 </i>
    <i name="e_fr_energy">     -8.98760435 </i>
    <i name="e_wo_entrp">     -8.98893703 </i>
    <i name="e_0_energy">     -8.98804857 </i>
   </energy>
  </scstep>
  <structure>
   <crystal>
    <varray name="basis" >
     <v>      -1.34025359       1.34025359       1.34025359 </v>
     <v>       1.34025359      -1.34025359       1.34025359 </v>
     <v>       1.34025359       1.34025359      -1.34025359 </v>
    </varray>
    <i name="volume">      9.62988118 </i>
    <varray name="rec_basis" >
     <v>       0.00000000       0.37306373       0.37306373 </v>
     <v>       0.37306373       0.00000000       0.37306373 </v>
     <v>       0.37306373       0.37306373       0.00000000 </v>
    </varray>
   </crystal>
   <varray name="positions" >
    <v>      -0.00000000       0.00000000      -0.00000000 </v>
   </varray>
  </structure>
  <varray name="forces" >
   <v>       0.00000000       0.00000000      -0.00000000 </v>
  </varray>
  <varray name="stress" >
   <v>      19.00167449       0.00000000      -0.00000000 </v>
   <v>       0.00000000      19.00167449       0.00000000 </v>
   <v>       0.00000000       0.00000000      19.00167449 </v>
  </varray>
  <energy>
   <i name="e_fr_energy">     -8.98760435 </i>
   <i name="e_wo_entrp">     -8.98804857 </i>
   <i name="e_0_energy">      0.00133269 </i>
  </energy>
  <time name="totalsc">    1.34    1.84</time>
 </calculation>
 <calculation>
  <scstep>
   <time name="dav">    0.20    0.20</time>
   <time name="total">    0.22    0.22</time>
   <energy>
    <i name="alphaZ">     69.17911825 </i>
    <i name="ewald">   -624.51148182 </i>
    <i name="hartreedc">    -82.14440918 </i>
    <i name="XCdc">      3.94672171 </i>
    <i name="pawpsdc">    553.31135102 </i>
    <i name="pawaedc">   -564.05114025 </i>
    <i name="eentropy">      0.00117526 </i>
    <i name="bandstr">     37.94850084 </i>
    <i name="atom">    597.33035224 </i>
    <i name="e_fr_energy">     -8.98981191 </i>
    <i name="e_wo_entrp">     -8.99098718 </i>
    <i name="e_0_energy">     -8.99020367 </i>
   </energy>
  </scstep>
  <scstep>
   <time name="dav">    0.20    0.20</time>
   <time name="total">    0.23    0.23</time>
   <energy>
    <i name="e_fr_energy">     -8.98812604 </i>
    <i name="e_wo_entrp">     -8.98948108 </i>
    <i name="e_0_energy">     -8.98857772 </i>
   </energy>
  </scstep>
  <scstep>
   <time name="dav">    0.20    0.20</time>
   <time name="total">    0.23    0.23</time>
   <energy>
    <i name="e_fr_energy">     -8.98795833 </i>
    <i name="e_wo_entrp">     -8.98927113 </i>
    <i name="e_0_energy">     -8.98839593 </i>
   </energy>
  </scstep>
  <scstep>
   <time name="dav">    0.23    0.23</time>
   <time name="total">    0.25    0.25</time>
   <energy>
    <i name="e_fr_energy">     -8.98791687 </i>
    <i name="e_wo_entrp">     -8.98924443 </i>
    <i name="e_0_energy">     -8.98835939 </i>
   </energy>
  </scstep>
  <scstep>
   <time name="dav">    0.13    0.13</time>
   <time name="total">    0.14    0.14</time>
   <energy>
    <i name="alphaZ">     69.17911825 </i>
    <i name="ewald">   -624.51148182 </i>
    <i name="hartreedc">    -82.66073580 </i>
    <i name="XCdc">      3.97834427 </i>
    <i name="pawpsdc">    551.94780224 </i>
    <i name="pawaedc">   -562.64328493 </i>
    <i name="eentropy">      0.00132617 </i>
    <i name="bandstr">     38.39064271 </i>
    <i name="atom">    597.33035224 </i>
    <i name="e_fr_energy">     -8.98791667 </i>
    <i name="e_wo_entrp">     -8.98924284 </i>
    <i name="e_0_energy">     -8.98835873 </i>
   </energy>
  </scstep>
  <structure>
   <crystal>
    <varray name="basis" >
     <v>      -1.34259660       1.34259660       1.34259660 </v>
     <v>       1.34259660      -1.34259660       1.34259660 </v>
     <v>       1.34259660       1.34259660      -1.34259660 </v>
    </varray>
    <i name="volume">      9.68047401 </i>
    <varray name="rec_basis" >
     <v>       0.00000000       0.37241268       0.37241268 </v>
     <v>       0.37241268       0.00000000       0.37241268 </v>
     <v>       0.37241268       0.37241268       0.00000000 </v>
    </varray>
   </crystal>
   <varray name="positions" >
    <v>      -0.00000000       0.00000000      -0.00000000 </v>
   </varray>
  </structure>
  <varray name="forces" >
   <v>       0.00000000       0.00000000       0.00000000 </v>
  </varray>
  <varray name="stress" >
   <v>       0.49199463      -0.00000000      -0.00000000 </v>
   <v>      -0.00000000       0.49199463       0.00000000 </v>
   <v>       0.00000000       0.00000000       0.49199463 </v>
  </varray>
  <energy>
   <i name="e_fr_energy">     -8.98791667 </i>
   <i name="e_wo_entrp">     -8.98835873 </i>
   <i name="e_0_energy">      0.00132617 </i>
  </energy>
  <time name="totalsc">    1.29    1.33</time>
  <eigenvalues>
   <array>
    <dimension dim="1">band</dimension>
    <dimension dim="2">kpoint</dimension>
    <dimension dim="3">spin</dimension>
    <field>eigene</field>
    <field>occ</field>
    <set>
     <set comment="spin 1">
      <set comment="kpoint 1">
       <r>   -1.6106    1.0000 </r>
       <r>    5.4740    1.0000 </r>
       <r>    5.4740    1.0000 </r>
       <r>    5.6453    1.0000 </r>
       <r>    7.4214    0.8893 </r>
       <r>    7.4214    0.8893 </r>
       <r>   33.4479    0.0000 </r>
       <r>   33.4479    0.0000 </r>
      </set>
      <set comment="kpoint 2">
       <r>   -1.2637    1.0000 </r>
       <r>    5.3576    1.0000 </r>
       <r>    5.4380    1.0000 </r>
       <r>    5.8807    1.0000 </r>
       <r>    7.3185    1.0296 </r>
       <r>    7.4393    0.8395 </r>
       <r>   31.9792    0.0000 </r>
       <r>   32.8885    0.0000 </r>
      </set>
      <set comment="kpoint 3">
       <r>   -0.7100    1.0000 </r>
       <r>    5.1803    1.0000 </r>
       <r>    5.3703    1.0000 </r>
       <r>    6.2276    1.0000 </r>
       <r>    7.2062    1.0225 </r>
       <r>    7.4647    0.7558 </r>
       <r>   30.0281    0.0000 </r>
       <r>   32.0845    0.0000 </r>
      </set>
      <set comment="kpoint 4">
       <r>    0.0055    1.0000 </r>
       <r>    4.9651    1.0000 </r>
       <r>    5.2725    1.0000 </r>
       <r>    6.6849    1.0000 </r>
       <r>    7.1479    1.0108 </r>
       <r>    7.5004    0.6185 </r>
       <r>   27.8181    0.0000 </r>
       <r>   31.0984    0.0000 </r>
      </set>
      <set comment="kpoint 5">
       <r>    0.7958    1.0000 </r>
       <r>    4.7359    1.0000 </r>
       <r>    5.2137    1.0000 </r>
       <r>    7.1563    1.0122 </r>
       <r>    7.2310    1.0282 </r>
       <r>    7.5461    0.4266 </r>
       <r>   25.4894    0.0000 </r>
       <r>   30.0482    0.0000 </r>
      </set>
      <set comment="kpoint 6">
       <r>    1.5046    1.0000 </r>
       <r>    4.5125    1.0000 </r>
       <r>    5.3525    1.0000 </r>
       <r>    7.2341    1.0288 </r>
       <r>    7.5972    0.2280 </r>
       <r>    7.7992   -0.0333 </r>
       <r>   23.1573    0.0000 </r>
       <r>   29.0498    0.0000 </r>
      </set>
      <set comment="kpoint 7">
       <r>    1.9523    1.0000 </r>
       <r>    4.3188    1.0000 </r>
       <r>    5.8536    1.0000 </r>
       <r>    7.3351    1.0215 </r>
       <r>    7.6523    0.0719 </r>
       <r>    8.3698   -0.0000 </r>
       <r>   20.9518    0.0000 </r>
       <r>   28.1993    0.0000 </r>
      </set>
      <set comment="kpoint 8">
       <r>    2.1209    1.0000 </r>
       <r>    4.1690    1.0000 </r>
       <r>    6.6428    1.0000 </r>
       <r>    7.4363    0.8485 </r>
       <r>    7.6991   -0.0023 </r>
       <r>    8.8882   -0.0000 </r>
       <r>   18.9935    0.0000 </r>
       <r>   27.5506    0.0000 </r>
      </set>
      <set comment="kpoint 9">
       <r>    2.1495    1.0000 </r>
       <r>    4.0731    1.0000 </r>
       <r>    7.3245    1.0272 </r>
       <r>    7.5648    0.3498 </r>
       <r>    7.7330   -0.0272 </r>
       <r>    9.3035   -0.0000 </r>
       <r>   17.5383    0.0000 </r>
       <r>   27.1431    0.0000 </r>
      </set>
      <set comment="kpoint 10">
       <r>    2.1471    1.0000 </r>
       <r>    4.0407    1.0000 </r>
       <r>    7.4557    0.7871 </r>
       <r>    7.7435   -0.0312 </r>
       <r>    7.7601   -0.0347 </r>
       <r>    9.4851   -0.0000 </r>
       <r>   16.9631    0.0000 </r>
       <r>   27.0052    0.0000 </r>
      </set>
      <set comment="kpoint 11">
       <r>   -1.7285    1.0000 </r>
       <r>    5.5147    1.0000 </r>
       <r>    5.5147    1.0000 </r>
       <r>    5.5346    1.0000 </r>
       <r>    7.4153    0.9045 </r>
       <r>    7.4627    0.7630 </r>
       <r>   33.7222    0.0000 </r>
       <r>   34.0515    0.0000 </r>
      </set>
      <set comment="kpoint 12">
       <r>   -0.8170    1.0000 </r>
       <r>    5.2448    1.0000 </r>
       <r>    5.3072    1.0000 </r>
       <r>    6.2022    1.0000 </r>
       <r>    7.2481    1.0317 </r>
       <r>    7.4407    0.8354 </r>
       <r>   30.7572    0.0000 </r>
       <r>   31.5817    0.0000 </r>
      </set>
      <set comment="kpoint 13">
       <r>   -0.1838    1.0000 </r>
       <r>    5.0528    1.0000 </r>
       <r>    5.1815    1.0000 </r>
       <r>    6.6409    1.0000 </r>
       <r>    7.1641    1.0136 </r>
       <r>    7.4880    0.6683 </r>
       <r>   28.8996    0.0000 </r>
       <r>   30.4587    0.0000 </r>
      </set>
      <set comment="kpoint 14">
       <r>    0.5761    1.0000 </r>
       <r>    4.8262    1.0000 </r>
       <r>    5.0647    1.0000 </r>
       <r>    7.1255    1.0076 </r>
       <r>    7.1830    1.0173 </r>
       <r>    7.5467    0.4240 </r>
       <r>   26.7047    0.0000 </r>
       <r>   29.4316    0.0000 </r>
      </set>
      <set comment="kpoint 15">
       <r>    1.3474    1.0000 </r>
       <r>    4.5971    1.0000 </r>
       <r>    5.0445    1.0000 </r>
       <r>    7.1754    1.0158 </r>
       <r>    7.5991    0.2214 </r>
       <r>    7.7859   -0.0349 </r>
       <r>   24.3922    0.0000 </r>
       <r>   28.4691    0.0000 </r>
      </set>
      <set comment="kpoint 16">
       <r>    1.9426    1.0000 </r>
       <r>    4.3918    1.0000 </r>
       <r>    5.2879    1.0000 </r>
       <r>    7.2624    1.0339 </r>
       <r>    7.6651    0.0465 </r>
       <r>    8.4254   -0.0000 </r>
       <r>   22.1158    0.0000 </r>
       <r>   27.6252    0.0000 </r>
      </set>
      <set comment="kpoint 17">
       <r>    2.2307    1.0000 </r>
       <r>    4.2257    1.0000 </r>
       <r>    5.8593    1.0000 </r>
       <r>    7.3633    0.9966 </r>
       <r>    7.7311   -0.0263 </r>
       <r>    9.0813   -0.0000 </r>
       <r>   20.0024    0.0000 </r>
       <r>   26.9469    0.0000 </r>
      </set>
      <set comment="kpoint 18">
       <r>    2.3002    1.0000 </r>
       <r>    4.1082    1.0000 </r>
       <r>    6.5196    1.0000 </r>
       <r>    7.4392    0.8398 </r>
       <r>    7.8139   -0.0308 </r>
       <r>    9.7139   -0.0000 </r>
       <r>   18.2296    0.0000 </r>
       <r>   26.4642    0.0000 </r>
      </set>
      <set comment="kpoint 19">
       <r>    2.2981    1.0000 </r>
       <r>    4.0467    1.0000 </r>
       <r>    6.9320    1.0001 </r>
       <r>    7.4613    0.7680 </r>
       <r>    7.9003   -0.0123 </r>
       <r>   10.1798   -0.0000 </r>
       <r>   17.1240    0.0000 </r>
       <r>   26.2101    0.0000 </r>
      </set>
      <set comment="kpoint 20">
       <r>   -1.4938    1.0000 </r>
       <r>    5.4441    1.0000 </r>
       <r>    5.5070    1.0000 </r>
       <r>    5.6752    1.0000 </r>
       <r>    7.3199    1.0291 </r>
       <r>    7.4844    0.6823 </r>
       <r>   32.7014    0.0000 </r>
       <r>   33.8286    0.0000 </r>
      </set>
      <set comment="kpoint 21">
       <r>    0.5012    1.0000 </r>
       <r>    4.9096    1.0000 </r>
       <r>    4.9564    1.0000 </r>
       <r>    7.1139    1.0062 </r>
       <r>    7.1662    1.0140 </r>
       <r>    7.5614    0.3637 </r>
       <r>   27.5418    0.0000 </r>
       <r>   28.7496    0.0000 </r>
      </set>
      <set comment="kpoint 22">
       <r>    1.2689    1.0000 </r>
       <r>    4.6909    1.0000 </r>
       <r>    4.8243    1.0000 </r>
       <r>    7.1131    1.0062 </r>
       <r>    7.6123    0.1781 </r>
       <r>    7.8150   -0.0306 </r>
       <r>   25.6186    0.0000 </r>
       <r>   27.4505    0.0000 </r>
      </set>
      <set comment="kpoint 23">
       <r>    1.9734    1.0000 </r>
       <r>    4.4677    1.0000 </r>
       <r>    4.8527    1.0000 </r>
       <r>    7.1733    1.0153 </r>
       <r>    7.6939    0.0035 </r>
       <r>    8.5043   -0.0000 </r>
       <r>   23.3913    0.0000 </r>
       <r>   26.4911    0.0000 </r>
      </set>
      <set comment="kpoint 24">
       <r>    2.4156    1.0000 </r>
       <r>    4.2895    1.0000 </r>
       <r>    5.1590    1.0000 </r>
       <r>    7.2742    1.0351 </r>
       <r>    7.7626   -0.0350 </r>
       <r>    9.2707   -0.0000 </r>
       <r>   21.1893    0.0000 </r>
       <r>   25.7355    0.0000 </r>
      </set>
      <set comment="kpoint 25">
       <r>    2.5588    1.0000 </r>
       <r>    4.1605    1.0000 </r>
       <r>    5.6791    1.0000 </r>
       <r>    7.3760    0.9801 </r>
       <r>    7.8315   -0.0270 </r>
       <r>   10.0796   -0.0000 </r>
       <r>   19.1800    0.0000 </r>
       <r>   25.1638    0.0000 </r>
      </set>
      <set comment="kpoint 26">
       <r>    2.5648    1.0000 </r>
       <r>    4.0813    1.0000 </r>
       <r>    6.1254    1.0000 </r>
       <r>    7.4394    0.8391 </r>
       <r>    7.9202   -0.0092 </r>
       <r>   10.8357   -0.0000 </r>
       <r>   17.6249    0.0000 </r>
       <r>   24.8020    0.0000 </r>
      </set>
      <set comment="kpoint 27">
       <r>    2.5547    1.0000 </r>
       <r>    4.0548    1.0000 </r>
       <r>    6.2932    1.0000 </r>
       <r>    7.4580    0.7795 </r>
       <r>    7.9680   -0.0040 </r>
       <r>   11.1962   -0.0000 </r>
       <r>   16.9816    0.0000 </r>
       <r>   24.6785    0.0000 </r>
      </set>
      <set comment="kpoint 28">
       <r>   -1.0384    1.0000 </r>
       <r>    5.3005    1.0000 </r>
       <r>    5.4704    1.0000 </r>
       <r>    5.9606    1.0000 </r>
       <r>    7.1927    1.0194 </r>
       <r>    7.5054    0.5977 </r>
       <r>   31.0302    0.0000 </r>
       <r>   33.1737    0.0000 </r>
      </set>
      <set comment="kpoint 29">
       <r>   -1.1498    1.0000 </r>
       <r>    5.3900    1.0000 </r>
       <r>    5.4565    1.0000 </r>
       <r>    5.8702    1.0000 </r>
       <r>    7.1778    1.0162 </r>
       <r>    7.5308    0.4909 </r>
       <r>   31.5769    0.0000 </r>
       <r>   33.0834    0.0000 </r>
      </set>
      <set comment="kpoint 30">
       <r>    1.9935    1.0000 </r>
       <r>    4.5145    1.0000 </r>
       <r>    4.6778    1.0000 </r>
       <r>    7.1340    1.0087 </r>
       <r>    7.7066   -0.0096 </r>
       <r>    8.5391   -0.0000 </r>
       <r>   24.3658    0.0000 </r>
       <r>   25.5194    0.0000 </r>
      </set>
      <set comment="kpoint 31">
       <r>    2.5834    1.0000 </r>
       <r>    4.3225    1.0000 </r>
       <r>    4.7342    1.0000 </r>
       <r>    7.2050    1.0222 </r>
       <r>    7.7779   -0.0354 </r>
       <r>    9.3789   -0.0000 </r>
       <r>   22.4593    0.0000 </r>
       <r>   24.3260    0.0000 </r>
      </set>
      <set comment="kpoint 32">
       <r>    2.8676    1.0000 </r>
       <r>    4.1939    1.0000 </r>
       <r>    5.0282    1.0000 </r>
       <r>    7.3099    1.0323 </r>
       <r>    7.8323   -0.0268 </r>
       <r>   10.3186   -0.0000 </r>
       <r>   20.3608    0.0000 </r>
       <r>   23.6002    0.0000 </r>
      </set>
      <set comment="kpoint 33">
       <r>    2.9131    1.0000 </r>
       <r>    4.1192    1.0000 </r>
       <r>    5.4116    1.0000 </r>
       <r>    7.4100    0.9170 </r>
       <r>    7.8935   -0.0135 </r>
       <r>   11.3140   -0.0000 </r>
       <r>   18.4794    0.0000 </r>
       <r>   23.1188    0.0000 </r>
      </set>
      <set comment="kpoint 34">
       <r>    2.8940    1.0000 </r>
       <r>    4.0830    1.0000 </r>
       <r>    5.6549    1.0000 </r>
       <r>    7.4636    0.7600 </r>
       <r>    7.9423   -0.0064 </r>
       <r>   12.1166   -0.0000 </r>
       <r>   17.1961    0.0000 </r>
       <r>   22.8675    0.0000 </r>
      </set>
      <set comment="kpoint 35">
       <r>   -0.3953    1.0000 </r>
       <r>    5.1052    1.0000 </r>
       <r>    5.3920    1.0000 </r>
       <r>    6.3588    1.0000 </r>
       <r>    7.0963    1.0046 </r>
       <r>    7.5321    0.4857 </r>
       <r>   28.9506    0.0000 </r>
       <r>   32.1719    0.0000 </r>
      </set>
      <set comment="kpoint 36">
       <r>   -0.6011    1.0000 </r>
       <r>    5.2371    1.0000 </r>
       <r>    5.3845    1.0000 </r>
       <r>    6.2119    1.0000 </r>
       <r>    7.0362    1.0014 </r>
       <r>    7.5755    0.3079 </r>
       <r>   29.9337    0.0000 </r>
       <r>   31.9629    0.0000 </r>
      </set>
      <set comment="kpoint 37">
       <r>    3.0389    1.0000 </r>
       <r>    4.1862    1.0000 </r>
       <r>    4.7661    1.0000 </r>
       <r>    7.2800    1.0354 </r>
       <r>    7.8313   -0.0271 </r>
       <r>   10.4020   -0.0000 </r>
       <r>   21.3479    0.0000 </r>
       <r>   22.4593    0.0000 </r>
      </set>
      <set comment="kpoint 38">
       <r>    3.2336    1.0000 </r>
       <r>    4.1248    1.0000 </r>
       <r>    4.9279    1.0000 </r>
       <r>    7.3850    0.9661 </r>
       <r>    7.8678   -0.0187 </r>
       <r>   11.5550   -0.0000 </r>
       <r>   19.5818    0.0000 </r>
       <r>   21.5603    0.0000 </r>
      </set>
      <set comment="kpoint 39">
       <r>    3.2544    1.0000 </r>
       <r>    4.1170    1.0000 </r>
       <r>    5.1053    1.0000 </r>
       <r>    7.4811    0.6952 </r>
       <r>    7.8887   -0.0144 </r>
       <r>   12.7341   -0.0000 </r>
       <r>   17.8547    0.0000 </r>
       <r>   21.1450    0.0000 </r>
      </set>
      <set comment="kpoint 40">
       <r>    3.2445    1.0000 </r>
       <r>    4.1177    1.0000 </r>
       <r>    5.1768    1.0000 </r>
       <r>    7.5213    0.5310 </r>
       <r>    7.8938   -0.0135 </r>
       <r>   13.3851    0.0000 </r>
       <r>   16.9989    0.0000 </r>
       <r>   21.0074    0.0000 </r>
      </set>
      <set comment="kpoint 41">
       <r>    0.3720    1.0000 </r>
       <r>    4.8823    1.0000 </r>
       <r>    5.3009    1.0000 </r>
       <r>    6.8480    1.0000 </r>
       <r>    7.0750    1.0031 </r>
       <r>    7.5702    0.3283 </r>
       <r>   26.6627    0.0000 </r>
       <r>   31.0314    0.0000 </r>
      </set>
      <set comment="kpoint 42">
       <r>    0.1073    1.0000 </r>
       <r>    5.0306    1.0000 </r>
       <r>    5.2850    1.0000 </r>
       <r>    6.6671    1.0000 </r>
       <r>    6.9632    1.0002 </r>
       <r>    7.6268    0.1350 </r>
       <r>   27.8532    0.0000 </r>
       <r>   30.8258    0.0000 </r>
      </set>
      <set comment="kpoint 43">
       <r>    0.0174    1.0000 </r>
       <r>    5.1386    1.0000 </r>
       <r>    5.2148    1.0000 </r>
       <r>    6.6220    1.0000 </r>
       <r>    6.9087    1.0001 </r>
       <r>    7.6515    0.0737 </r>
       <r>   28.5989    0.0000 </r>
       <r>   30.2350    0.0000 </r>
      </set>
      <set comment="kpoint 44">
       <r>    3.4436    1.0000 </r>
       <r>    4.1369    1.0000 </r>
       <r>    4.8442    1.0000 </r>
       <r>    7.4922    0.6514 </r>
       <r>    7.8617   -0.0201 </r>
       <r>   12.9400   -0.0000 </r>
       <r>   18.5109    0.0000 </r>
       <r>   20.1208    0.0000 </r>
      </set>
      <set comment="kpoint 45">
       <r>    3.5049    1.0000 </r>
       <r>    4.2128    1.0000 </r>
       <r>    4.7772    1.0000 </r>
       <r>    7.5895    0.2555 </r>
       <r>    7.8215   -0.0292 </r>
       <r>   14.2816    0.0000 </r>
       <r>   17.0982    0.0000 </r>
       <r>   19.6090    0.0000 </r>
      </set>
      <set comment="kpoint 46">
       <r>    1.1439    1.0000 </r>
       <r>    4.6533    1.0000 </r>
       <r>    5.3147    1.0000 </r>
       <r>    7.1365    1.0090 </r>
       <r>    7.3965    0.9454 </r>
       <r>    7.6181    0.1602 </r>
       <r>   24.3123    0.0000 </r>
       <r>   29.9171    0.0000 </r>
      </set>
      <set comment="kpoint 47">
       <r>    0.8894    1.0000 </r>
       <r>    4.8047    1.0000 </r>
       <r>    5.2040    1.0000 </r>
       <r>    6.9813    1.0004 </r>
       <r>    7.2068    1.0226 </r>
       <r>    7.6873    0.0118 </r>
       <r>   25.5571    0.0000 </r>
       <r>   29.7525    0.0000 </r>
      </set>
      <set comment="kpoint 48">
       <r>    0.7582    1.0000 </r>
       <r>    4.9460    1.0000 </r>
       <r>    5.0754    1.0000 </r>
       <r>    6.8666    1.0000 </r>
       <r>    7.1420    1.0099 </r>
       <r>    7.7387   -0.0296 </r>
       <r>   26.7496    0.0000 </r>
       <r>   28.7823    0.0000 </r>
      </set>
      <set comment="kpoint 49">
       <r>    3.5883    1.0000 </r>
       <r>    4.4549    1.0000 </r>
       <r>    4.4550    1.0000 </r>
       <r>    7.7129   -0.0149 </r>
       <r>    7.7129   -0.0149 </r>
       <r>   15.8390    0.0000 </r>
       <r>   15.8390    0.0000 </r>
       <r>   19.0488    0.0000 </r>
      </set>
      <set comment="kpoint 50">
       <r>    1.7378    1.0000 </r>
       <r>    4.4428    1.0000 </r>
       <r>    5.6172    1.0000 </r>
       <r>    7.2495    1.0319 </r>
       <r>    7.6808    0.0207 </r>
       <r>    7.9521   -0.0054 </r>
       <r>   22.0275    0.0000 </r>
       <r>   28.9324    0.0000 </r>
      </set>
      <set comment="kpoint 51">
       <r>    1.5920    1.0000 </r>
       <r>    4.5849    1.0000 </r>
       <r>    5.2868    1.0000 </r>
       <r>    7.0897    1.0041 </r>
       <r>    7.6965    0.0006 </r>
       <r>    7.8470   -0.0235 </r>
       <r>   23.2296    0.0000 </r>
       <r>   28.7804    0.0000 </r>
      </set>
      <set comment="kpoint 52">
       <r>    1.5107    1.0000 </r>
       <r>    4.7114    1.0000 </r>
       <r>    5.0256    1.0000 </r>
       <r>    6.9259    1.0001 </r>
       <r>    7.6432    0.0927 </r>
       <r>    7.9304   -0.0078 </r>
       <r>   24.5223    0.0000 </r>
       <r>   27.7044    0.0000 </r>
      </set>
      <set comment="kpoint 53">
       <r>    1.4850    1.0000 </r>
       <r>    4.7699    1.0000 </r>
       <r>    4.9231    1.0000 </r>
       <r>    6.8563    1.0000 </r>
       <r>    7.6268    0.1351 </r>
       <r>    7.9685   -0.0040 </r>
       <r>   25.4669    0.0000 </r>
       <r>   26.7600    0.0000 </r>
      </set>
      <set comment="kpoint 54">
       <r>    2.0351    1.0000 </r>
       <r>    4.2680    1.0000 </r>
       <r>    6.2640    1.0000 </r>
       <r>    7.3775    0.9779 </r>
       <r>    7.7809   -0.0353 </r>
       <r>    8.4553   -0.0000 </r>
       <r>   19.9231    0.0000 </r>
       <r>   28.1425    0.0000 </r>
      </set>
      <set comment="kpoint 55">
       <r>    2.0364    1.0000 </r>
       <r>    4.3944    1.0000 </r>
       <r>    5.6680    1.0000 </r>
       <r>    7.2392    1.0299 </r>
       <r>    7.8425   -0.0245 </r>
       <r>    8.3990   -0.0000 </r>
       <r>   21.0100    0.0000 </r>
       <r>   27.9606    0.0000 </r>
      </set>
      <set comment="kpoint 56">
       <r>    2.0968    1.0000 </r>
       <r>    4.5073    1.0000 </r>
       <r>    5.1599    1.0000 </r>
       <r>    7.0595    1.0022 </r>
       <r>    7.8218   -0.0292 </r>
       <r>    8.5221   -0.0000 </r>
       <r>   22.2484    0.0000 </r>
       <r>   26.8345    0.0000 </r>
      </set>
      <set comment="kpoint 57">
       <r>    2.1592    1.0000 </r>
       <r>    4.5357    1.0000 </r>
       <r>    4.9128    1.0000 </r>
       <r>    6.9334    1.0001 </r>
       <r>    7.8066   -0.0321 </r>
       <r>    8.6147   -0.0000 </r>
       <r>   23.5460    0.0000 </r>
       <r>   25.4452    0.0000 </r>
      </set>
      <set comment="kpoint 58">
       <r>    2.1178    1.0000 </r>
       <r>    4.1421    1.0000 </r>
       <r>    6.9565    1.0002 </r>
       <r>    7.4624    0.7641 </r>
       <r>    8.0343   -0.0010 </r>
       <r>    8.8421   -0.0000 </r>
       <r>   18.1769    0.0000 </r>
       <r>   27.5911    0.0000 </r>
      </set>
      <set comment="kpoint 59">
       <r>    2.2024    1.0000 </r>
       <r>    4.2485    1.0000 </r>
       <r>    6.2337    1.0000 </r>
       <r>    7.3571    1.0034 </r>
       <r>    8.0685   -0.0005 </r>
       <r>    8.9582   -0.0000 </r>
       <r>   19.0431    0.0000 </r>
       <r>   27.3398    0.0000 </r>
      </set>
      <set comment="kpoint 60">
       <r>    2.3835    1.0000 </r>
       <r>    4.3522    1.0000 </r>
       <r>    5.5287    1.0000 </r>
       <r>    7.2121    1.0239 </r>
       <r>    7.9650   -0.0043 </r>
       <r>    9.2466   -0.0000 </r>
       <r>   20.1140    0.0000 </r>
       <r>   26.1490    0.0000 </r>
      </set>
      <set comment="kpoint 61">
       <r>    2.6032    1.0000 </r>
       <r>    4.3767    1.0000 </r>
       <r>    5.0482    1.0000 </r>
       <r>    7.0743    1.0030 </r>
       <r>    7.9020   -0.0120 </r>
       <r>    9.4522   -0.0000 </r>
       <r>   21.3628    0.0000 </r>
       <r>   24.6109    0.0000 </r>
      </set>
      <set comment="kpoint 62">
       <r>    2.7172    1.0000 </r>
       <r>    4.3224    1.0000 </r>
       <r>    4.9164    1.0000 </r>
       <r>    7.0136    1.0008 </r>
       <r>    7.8824   -0.0157 </r>
       <r>    9.5245   -0.0000 </r>
       <r>   22.3961    0.0000 </r>
       <r>   23.4554    0.0000 </r>
      </set>
      <set comment="kpoint 63">
       <r>    2.1233    1.0000 </r>
       <r>    4.0774    1.0000 </r>
       <r>    7.3161    1.0305 </r>
       <r>    7.4539    0.7934 </r>
       <r>    8.4233   -0.0000 </r>
       <r>    9.0539   -0.0000 </r>
       <r>   17.1105    0.0000 </r>
       <r>   27.3079    0.0000 </r>
      </set>
      <set comment="kpoint 64">
       <r>    2.2280    1.0000 </r>
       <r>    4.1551    1.0000 </r>
       <r>    6.6729    1.0000 </r>
       <r>    7.3876    0.9617 </r>
       <r>    8.3842   -0.0000 </r>
       <r>    9.4540   -0.0000 </r>
       <r>   17.5609    0.0000 </r>
       <r>   26.9480    0.0000 </r>
      </set>
      <set comment="kpoint 65">
       <r>    2.4496    1.0000 </r>
       <r>    4.2462    1.0000 </r>
       <r>    5.9440    1.0000 </r>
       <r>    7.3052    1.0334 </r>
       <r>    8.1767   -0.0000 </r>
       <r>   10.0020   -0.0000 </r>
       <r>   18.2976    0.0000 </r>
       <r>   25.6638    0.0000 </r>
      </set>
      <set comment="kpoint 66">
       <r>    2.7581    1.0000 </r>
       <r>    4.2915    1.0000 </r>
       <r>    5.3184    1.0000 </r>
       <r>    7.2142    1.0243 </r>
       <r>    8.0264   -0.0012 </r>
       <r>   10.3923   -0.0000 </r>
       <r>   19.3249    0.0000 </r>
       <r>   24.0117    0.0000 </r>
      </set>
      <set comment="kpoint 67">
       <r>    3.0498    1.0000 </r>
       <r>    4.2052    1.0000 </r>
       <r>    4.9870    1.0000 </r>
       <r>    7.1508    1.0112 </r>
       <r>    7.9492   -0.0057 </r>
       <r>   10.5894   -0.0000 </r>
       <r>   20.5349    0.0000 </r>
       <r>   22.4391    0.0000 </r>
      </set>
      <set comment="kpoint 68">
       <r>    2.2245    1.0000 </r>
       <r>    4.1234    1.0000 </r>
       <r>    6.8312    1.0000 </r>
       <r>    7.3807    0.9731 </r>
       <r>    8.5355   -0.0000 </r>
       <r>    9.6924   -0.0000 </r>
       <r>   16.9707    0.0000 </r>
       <r>   26.8143    0.0000 </r>
      </set>
      <set comment="kpoint 69">
       <r>    2.4443    1.0000 </r>
       <r>    4.1911    1.0000 </r>
       <r>    6.1938    1.0000 </r>
       <r>    7.3290    1.0250 </r>
       <r>    8.3537   -0.0000 </r>
       <r>   10.5886   -0.0000 </r>
       <r>   17.1405    0.0000 </r>
       <r>   25.4088    0.0000 </r>
      </set>
      <set comment="kpoint 70">
       <r>    2.7651    1.0000 </r>
       <r>    4.2457    1.0000 </r>
       <r>    5.5637    1.0000 </r>
       <r>    7.2951    1.0349 </r>
       <r>    8.1676   -0.0000 </r>
       <r>   11.3093   -0.0000 </r>
       <r>   17.6942    0.0000 </r>
       <r>   23.6337    0.0000 </r>
      </set>
      <set comment="kpoint 71">
       <r>    3.1377    1.0000 </r>
       <r>    4.2081    1.0000 </r>
       <r>    5.0837    1.0000 </r>
       <r>    7.2861    1.0354 </r>
       <r>    8.0209   -0.0014 </r>
       <r>   11.7527   -0.0000 </r>
       <r>   18.6237    0.0000 </r>
       <r>   21.9064    0.0000 </r>
      </set>
      <set comment="kpoint 72">
       <r>    3.3660    1.0000 </r>
       <r>    4.0991    1.0000 </r>
       <r>    4.9177    1.0000 </r>
       <r>    7.2890    1.0353 </r>
       <r>    7.9627   -0.0044 </r>
       <r>   11.8975   -0.0000 </r>
       <r>   19.4692    0.0000 </r>
       <r>   20.7930    0.0000 </r>
      </set>
      <set comment="kpoint 73">
       <r>    2.7538    1.0000 </r>
       <r>    4.2308    1.0000 </r>
       <r>    5.6563    1.0000 </r>
       <r>    7.3163    1.0304 </r>
       <r>    8.2347   -0.0000 </r>
       <r>   11.7594   -0.0000 </r>
       <r>   16.9916    0.0000 </r>
       <r>   23.5057    0.0000 </r>
      </set>
      <set comment="kpoint 74">
       <r>    3.1280    1.0000 </r>
       <r>    4.2366    1.0000 </r>
       <r>    5.1496    1.0000 </r>
       <r>    7.3626    0.9974 </r>
       <r>    8.0806   -0.0003 </r>
       <r>   12.7359   -0.0000 </r>
       <r>   17.2292    0.0000 </r>
       <r>   21.6435    0.0000 </r>
      </set>
      <set comment="kpoint 75">
       <r>    3.4847    1.0000 </r>
       <r>    4.1512    1.0000 </r>
       <r>    4.8156    1.0000 </r>
       <r>    7.4342    0.8545 </r>
       <r>    7.9482   -0.0058 </r>
       <r>   13.2743    0.0000 </r>
       <r>   17.8690    0.0000 </r>
       <r>   20.1295    0.0000 </r>
      </set>
      <set comment="kpoint 76">
       <r>    3.4947    1.0000 </r>
       <r>    4.2243    1.0000 </r>
       <r>    4.7493    1.0000 </r>
       <r>    7.4981    0.6276 </r>
       <r>    7.9369   -0.0070 </r>
       <r>   14.1179    0.0000 </r>
       <r>   16.8890    0.0000 </r>
       <r>   19.9556    0.0000 </r>
      </set>
      <set comment="kpoint 77">
       <r>    3.6998    1.0000 </r>
       <r>    4.2264    1.0000 </r>
       <r>    4.5262    1.0000 </r>
       <r>    7.6140    0.1729 </r>
       <r>    7.8250   -0.0285 </r>
       <r>   14.8627    0.0000 </r>
       <r>   16.7013    0.0000 </r>
       <r>   19.1873    0.0000 </r>
      </set>
      <set comment="kpoint 78">
       <r>   -0.2831    1.0000 </r>
       <r>    5.1003    1.0000 </r>
       <r>    5.1003    1.0000 </r>
       <r>    6.6412    1.0000 </r>
       <r>    7.3395    1.0186 </r>
       <r>    7.3395    1.0186 </r>
       <r>   29.8180    0.0000 </r>
       <r>   29.8180    0.0000 </r>
      </set>
      <set comment="kpoint 79">
       <r>    0.4128    1.0000 </r>
       <r>    4.8628    1.0000 </r>
       <r>    4.9412    1.0000 </r>
       <r>    7.1772    1.0161 </r>
       <r>    7.2724    1.0350 </r>
       <r>    7.4315    0.8623 </r>
       <r>   27.8083    0.0000 </r>
       <r>   28.8382    0.0000 </r>
      </set>
      <set comment="kpoint 80">
       <r>    1.1936    1.0000 </r>
       <r>    4.6301    1.0000 </r>
       <r>    4.8188    1.0000 </r>
       <r>    7.2646    1.0342 </r>
       <r>    7.5160    0.5534 </r>
       <r>    7.7966   -0.0337 </r>
       <r>   25.6082    0.0000 </r>
       <r>   27.9120    0.0000 </r>
      </set>
      <set comment="kpoint 81">
       <r>    1.9076    1.0000 </r>
       <r>    4.4170    1.0000 </r>
       <r>    4.8599    1.0000 </r>
       <r>    7.3100    1.0323 </r>
       <r>    7.5922    0.2455 </r>
       <r>    8.4825   -0.0000 </r>
       <r>   23.3321    0.0000 </r>
       <r>   27.0723    0.0000 </r>
      </set>
      <set comment="kpoint 82">
       <r>    2.3492    1.0000 </r>
       <r>    4.2390    1.0000 </r>
       <r>    5.2271    1.0000 </r>
       <r>    7.3837    0.9682 </r>
       <r>    7.6589    0.0583 </r>
       <r>    9.2178   -0.0000 </r>
       <r>   21.1309    0.0000 </r>
       <r>   26.3767    0.0000 </r>
      </set>
      <set comment="kpoint 83">
       <r>    2.4894    1.0000 </r>
       <r>    4.1034    1.0000 </r>
       <r>    5.8507    1.0000 </r>
       <r>    7.4537    0.7938 </r>
       <r>    7.7118   -0.0140 </r>
       <r>    9.9774   -0.0000 </r>
       <r>   19.1352    0.0000 </r>
       <r>   25.8395    0.0000 </r>
      </set>
      <set comment="kpoint 84">
       <r>    2.4951    1.0000 </r>
       <r>    4.0190    1.0000 </r>
       <r>    6.4112    1.0000 </r>
       <r>    7.5003    0.6187 </r>
       <r>    7.7399   -0.0300 </r>
       <r>   10.6740   -0.0000 </r>
       <r>   17.6058    0.0000 </r>
       <r>   25.5004    0.0000 </r>
      </set>
      <set comment="kpoint 85">
       <r>    2.4851    1.0000 </r>
       <r>    3.9905    1.0000 </r>
       <r>    6.6322    1.0000 </r>
       <r>    7.5153    0.5564 </r>
       <r>    7.7542   -0.0338 </r>
       <r>   10.9997   -0.0000 </r>
       <r>   16.9815    0.0000 </r>
       <r>   25.3857    0.0000 </r>
      </set>
      <set comment="kpoint 86">
       <r>   -1.2627    1.0000 </r>
       <r>    5.5116    1.0000 </r>
       <r>    5.5116    1.0000 </r>
[...]
      <set comment="kpoint 239">
       <r>    2.8070    1.0000 </r>
       <r>    2.8577    1.0000 </r>
       <r>    7.1857    1.0179 </r>
       <r>    7.8200   -0.0295 </r>
       <r>    8.6323   -0.0000 </r>
       <r>   15.2747    0.0000 </r>
       <r>   19.1742    0.0000 </r>
       <r>   20.4747    0.0000 </r>
      </set>
      <set comment="kpoint 240">
       <r>    2.7502    1.0000 </r>
       <r>    2.8266    1.0000 </r>
       <r>    7.1872    1.0182 </r>
       <r>    7.9072   -0.0111 </r>
       <r>    8.7305   -0.0000 </r>
       <r>   16.4855    0.0000 </r>
       <r>   17.8511    0.0000 </r>
       <r>   20.2719    0.0000 </r>
      </set>
      <set comment="kpoint 241">
       <r>    2.7341    1.0000 </r>
       <r>    2.7473    1.0000 </r>
       <r>    7.1942    1.0198 </r>
       <r>    8.2500   -0.0000 </r>
       <r>    8.5771   -0.0000 </r>
       <r>   16.8168    0.0000 </r>
       <r>   18.4476    0.0000 </r>
       <r>   19.2151    0.0000 </r>
      </set>
      <set comment="kpoint 242">
       <r>    2.8550    1.0000 </r>
       <r>    2.9645    1.0000 </r>
       <r>    7.5261    0.5111 </r>
       <r>    7.5261    0.5108 </r>
       <r>    8.2349   -0.0000 </r>
       <r>   13.6044    0.0000 </r>
       <r>   21.4157    0.0000 </r>
       <r>   21.4157    0.0000 </r>
      </set>
      <set comment="kpoint 243">
       <r>    2.7111    1.0000 </r>
       <r>    2.7439    1.0000 </r>
       <r>    7.7217   -0.0211 </r>
       <r>    7.8211   -0.0293 </r>
       <r>    8.5035   -0.0000 </r>
       <r>   14.9835    0.0000 </r>
       <r>   20.1080    0.0000 </r>
       <r>   20.6276    0.0000 </r>
      </set>
      <set comment="kpoint 244">
       <r>    2.6108    1.0000 </r>
       <r>    2.6508    1.0000 </r>
       <r>    7.7560   -0.0341 </r>
       <r>    7.9751   -0.0035 </r>
       <r>    8.7394   -0.0000 </r>
       <r>   16.4892    0.0000 </r>
       <r>   18.5093    0.0000 </r>
       <r>   20.2004    0.0000 </r>
      </set>
      <set comment="kpoint 245">
       <r>    2.5756    1.0000 </r>
       <r>    2.5779    1.0000 </r>
       <r>    7.8468   -0.0235 </r>
       <r>    8.2165   -0.0000 </r>
       <r>    8.6419   -0.0000 </r>
       <r>   16.3818    0.0000 </r>
       <r>   19.3945    0.0000 </r>
       <r>   19.6084    0.0000 </r>
      </set>
      <set comment="kpoint 246">
       <r>    2.5175    1.0000 </r>
       <r>    2.5315    1.0000 </r>
       <r>    7.8648   -0.0194 </r>
       <r>    8.3803   -0.0000 </r>
       <r>    8.6939   -0.0000 </r>
       <r>   17.6224    0.0000 </r>
       <r>   18.2580    0.0000 </r>
       <r>   19.3249    0.0000 </r>
      </set>
      <set comment="kpoint 247">
       <r>    2.5185    1.0000 </r>
       <r>    2.5229    1.0000 </r>
       <r>    8.2050   -0.0000 </r>
       <r>    8.2051   -0.0000 </r>
       <r>    8.5467   -0.0000 </r>
       <r>   16.2132    0.0000 </r>
       <r>   19.7960    0.0000 </r>
       <r>   19.7960    0.0000 </r>
      </set>
      <set comment="kpoint 248">
       <r>    2.4076    1.0000 </r>
       <r>    2.4139    1.0000 </r>
       <r>    8.3341   -0.0000 </r>
       <r>    8.4152   -0.0000 </r>
       <r>    8.7078   -0.0000 </r>
       <r>   17.5137    0.0000 </r>
       <r>   18.8640    0.0000 </r>
       <r>   19.3408    0.0000 </r>
      </set>
      <set comment="kpoint 249">
       <r>    2.3543    1.0000 </r>
       <r>    2.3543    1.0000 </r>
       <r>    8.3993   -0.0000 </r>
       <r>    8.6718   -0.0000 </r>
       <r>    8.6719   -0.0000 </r>
       <r>   18.5100    0.0000 </r>
       <r>   18.5100    0.0000 </r>
       <r>   18.8004    0.0000 </r>
      </set>
      <set comment="kpoint 250">
       <r>    2.2946    1.0000 </r>
       <r>    2.2960    1.0000 </r>
       <r>    8.6589   -0.0000 </r>
       <r>    8.6590   -0.0000 </r>
       <r>    8.7121   -0.0000 </r>
       <r>   18.3692    0.0000 </r>
       <r>   18.8674    0.0000 </r>
       <r>   18.8674    0.0000 </r>
      </set>
     </set>
    </set>
   </array>
  </eigenvalues>
  <separator name="orbital magnetization" >
   <v name="MAGDIPOLOUT">      0.00000000      0.00000000      0.00000000</v>
  </separator>
  <dos>
   <i name="efermi">      7.52867318 </i>
   <total>
    <array>
     <dimension dim="1">gridpoints</dimension>
     <dimension dim="2">spin</dimension>
     <field>energy</field>
     <field>total</field>
     <field>integrated</field>
     <set>
      <set comment="spin 1">
       <r>    -3.7285     0.0000     0.0000 </r>
       <r>    -3.5959     0.0000     0.0000 </r>
       <r>    -3.4633     0.0000     0.0000 </r>
       <r>    -3.3307    -0.0000    -0.0000 </r>
       <r>    -3.1981    -0.0000    -0.0000 </r>
       <r>    -3.0655    -0.0000    -0.0000 </r>
       <r>    -2.9329    -0.0000    -0.0000 </r>
       <r>    -2.8003    -0.0000    -0.0000 </r>
       <r>    -2.6677    -0.0000    -0.0000 </r>
       <r>    -2.5351    -0.0000    -0.0000 </r>
       <r>    -2.4025    -0.0000    -0.0000 </r>
       <r>    -2.2699    -0.0000    -0.0000 </r>
       <r>    -2.1373    -0.0001    -0.0000 </r>
       <r>    -2.0047    -0.0005    -0.0001 </r>
       <r>    -1.8721    -0.0001    -0.0001 </r>
       <r>    -1.7395     0.0050     0.0006 </r>
       <r>    -1.6069     0.0171     0.0028 </r>
       <r>    -1.4743     0.0281     0.0066 </r>
       <r>    -1.3417     0.0306     0.0106 </r>
       <r>    -1.2091     0.0446     0.0165 </r>
       <r>    -1.0765     0.0519     0.0234 </r>
       <r>    -0.9439     0.0405     0.0288 </r>
       <r>    -0.8113     0.0538     0.0359 </r>
       <r>    -0.6787     0.0789     0.0464 </r>
       <r>    -0.5461     0.0700     0.0557 </r>
       <r>    -0.4135     0.0502     0.0623 </r>
       <r>    -0.2809     0.0738     0.0721 </r>
       <r>    -0.1483     0.1022     0.0857 </r>
       <r>    -0.0157     0.0929     0.0980 </r>
       <r>     0.1169     0.0905     0.1100 </r>
       <r>     0.2495     0.0779     0.1203 </r>
       <r>     0.3821     0.0979     0.1333 </r>
       <r>     0.5147     0.1390     0.1517 </r>
       <r>     0.6473     0.1227     0.1680 </r>
       <r>     0.7799     0.1185     0.1837 </r>
       <r>     0.9125     0.1362     0.2018 </r>
       <r>     1.0451     0.1175     0.2173 </r>
       <r>     1.1777     0.1560     0.2380 </r>
       <r>     1.3103     0.1907     0.2633 </r>
       <r>     1.4429     0.1909     0.2886 </r>
       <r>     1.5755     0.2108     0.3166 </r>
       <r>     1.7081     0.1721     0.3394 </r>
       <r>     1.8407     0.2012     0.3661 </r>
       <r>     1.9733     0.3560     0.4133 </r>
       <r>     2.1059     0.5028     0.4799 </r>
       <r>     2.2385     0.6490     0.5660 </r>
       <r>     2.3711     0.7462     0.6649 </r>
       <r>     2.5037     0.8975     0.7840 </r>
       <r>     2.6363     1.0346     0.9211 </r>
       <r>     2.7689     1.0814     1.0645 </r>
       <r>     2.9015     1.1273     1.2140 </r>
       <r>     3.0341     1.4171     1.4019 </r>
       <r>     3.1667     1.6311     1.6182 </r>
       <r>     3.2993     1.3124     1.7922 </r>
       <r>     3.4319     1.0624     1.9331 </r>
       <r>     3.5645     0.9176     2.0548 </r>
       <r>     3.6971     0.6693     2.1435 </r>
       <r>     3.8297     0.5505     2.2165 </r>
       <r>     3.9623     0.9804     2.3465 </r>
       <r>     4.0949     1.9879     2.6101 </r>
       <r>     4.2275     2.4328     2.9327 </r>
       <r>     4.3601     2.1433     3.2169 </r>
       <r>     4.4927     1.7704     3.4517 </r>
       <r>     4.6253     1.6367     3.6687 </r>
       <r>     4.7579     1.6859     3.8922 </r>
       <r>     4.8905     1.6827     4.1154 </r>
       <r>     5.0231     1.9185     4.3697 </r>
       <r>     5.1557     2.3366     4.6796 </r>
       <r>     5.2883     2.2480     4.9777 </r>
       <r>     5.4209     1.7960     5.2158 </r>
       <r>     5.5535     1.2376     5.3799 </r>
       <r>     5.6861     0.8453     5.4920 </r>
       <r>     5.8187     0.7290     5.5887 </r>
       <r>     5.9513     0.6927     5.6805 </r>
       <r>     6.0839     0.5084     5.7479 </r>
       <r>     6.2165     0.4873     5.8125 </r>
       <r>     6.3491     0.6388     5.8972 </r>
       <r>     6.4817     0.7510     5.9968 </r>
       <r>     6.6143     0.9751     6.1261 </r>
       <r>     6.7469     1.1749     6.2819 </r>
       <r>     6.8795     1.3573     6.4619 </r>
       <r>     7.0121     1.6921     6.6863 </r>
       <r>     7.1447     2.2493     6.9845 </r>
       <r>     7.2773     2.6145     7.3312 </r>
       <r>     7.4099     2.6126     7.6776 </r>
       <r>     7.5425     2.7298     8.0396 </r>
       <r>     7.6751     3.1696     8.4599 </r>
       <r>     7.8077     3.6153     8.9393 </r>
       <r>     7.9403     2.9993     9.3370 </r>
       <r>     8.0729     1.7862     9.5739 </r>
       <r>     8.2055     1.2217     9.7359 </r>
       <r>     8.3381     1.2102     9.8963 </r>
       <r>     8.4707     1.4537    10.0891 </r>
       <r>     8.6033     1.4058    10.2755 </r>
       <r>     8.7359     1.0559    10.4155 </r>
       <r>     8.8685     0.7441    10.5142 </r>
       <r>     9.0011     0.5060    10.5813 </r>
       <r>     9.1337     0.3441    10.6269 </r>
       <r>     9.2663     0.3393    10.6719 </r>
       <r>     9.3989     0.3987    10.7248 </r>
       <r>     9.5315     0.3220    10.7675 </r>
       <r>     9.6641     0.2381    10.7990 </r>
       <r>     9.7967     0.2328    10.8299 </r>
       <r>     9.9293     0.2055    10.8572 </r>
       <r>    10.0619     0.2305    10.8877 </r>
       <r>    10.1945     0.3220    10.9304 </r>
       <r>    10.3271     0.3585    10.9780 </r>
       <r>    10.4597     0.3019    11.0180 </r>
       <r>    10.5923     0.2642    11.0530 </r>
       <r>    10.7249     0.2147    11.0815 </r>
       <r>    10.8575     0.1906    11.1068 </r>
       <r>    10.9901     0.2481    11.1397 </r>
       <r>    11.1227     0.1966    11.1657 </r>
       <r>    11.2553     0.2055    11.1930 </r>
       <r>    11.3879     0.3603    11.2408 </r>
       <r>    11.5205     0.3304    11.2846 </r>
       <r>    11.6531     0.2060    11.3119 </r>
       <r>    11.7857     0.2227    11.3414 </r>
       <r>    11.9183     0.2073    11.3689 </r>
       <r>    12.0509     0.1446    11.3881 </r>
       <r>    12.1835     0.1611    11.4094 </r>
       <r>    12.3161     0.2150    11.4379 </r>
       <r>    12.4487     0.2312    11.4686 </r>
       <r>    12.5813     0.2115    11.4967 </r>
       <r>    12.7139     0.2743    11.5330 </r>
       <r>    12.8465     0.2675    11.5685 </r>
       <r>    12.9791     0.1762    11.5919 </r>
       <r>    13.1117     0.1397    11.6104 </r>
       <r>    13.2443     0.1417    11.6292 </r>
       <r>    13.3769     0.1166    11.6446 </r>
       <r>    13.5095     0.1329    11.6623 </r>
       <r>    13.6421     0.1543    11.6827 </r>
       <r>    13.7747     0.1687    11.7051 </r>
       <r>    13.9073     0.2266    11.7352 </r>
       <r>    14.0399     0.1978    11.7614 </r>
       <r>    14.1725     0.1640    11.7831 </r>
       <r>    14.3051     0.1503    11.8031 </r>
       <r>    14.4377     0.0780    11.8134 </r>
       <r>    14.5703     0.0740    11.8232 </r>
       <r>    14.7029     0.1076    11.8375 </r>
       <r>    14.8355     0.1131    11.8525 </r>
       <r>    14.9681     0.0885    11.8642 </r>
       <r>    15.1007     0.0613    11.8723 </r>
       <r>    15.2333     0.1030    11.8860 </r>
       <r>    15.3659     0.1670    11.9082 </r>
       <r>    15.4985     0.1287    11.9252 </r>
       <r>    15.6311     0.0501    11.9319 </r>
       <r>    15.7637     0.0465    11.9380 </r>
       <r>    15.8963     0.0503    11.9447 </r>
       <r>    16.0289     0.0347    11.9493 </r>
       <r>    16.1615     0.0351    11.9540 </r>
       <r>    16.2941     0.0296    11.9579 </r>
       <r>    16.4267     0.0470    11.9641 </r>
       <r>    16.5593     0.0769    11.9743 </r>
       <r>    16.6919     0.0935    11.9867 </r>
       <r>    16.8245     0.1014    12.0001 </r>
       <r>    16.9571     0.1980    12.0264 </r>
       <r>    17.0897     0.4685    12.0885 </r>
       <r>    17.2223     0.6875    12.1797 </r>
       <r>    17.3549     0.6061    12.2600 </r>
       <r>    17.4875     0.3940    12.3123 </r>
       <r>    17.6201     0.3642    12.3606 </r>
       <r>    17.7527     0.4787    12.4240 </r>
       <r>    17.8853     0.4605    12.4851 </r>
       <r>    18.0179     0.2618    12.5198 </r>
       <r>    18.1505     0.2223    12.5493 </r>
       <r>    18.2831     0.3428    12.5948 </r>
       <r>    18.4157     0.3918    12.6467 </r>
       <r>    18.5483     0.3364    12.6913 </r>
       <r>    18.6809     0.2691    12.7270 </r>
       <r>    18.8135     0.2954    12.7662 </r>
       <r>    18.9461     0.2867    12.8042 </r>
       <r>    19.0787     0.2839    12.8419 </r>
       <r>    19.2113     0.3800    12.8922 </r>
       <r>    19.3439     0.4079    12.9463 </r>
       <r>    19.4765     0.3865    12.9976 </r>
       <r>    19.6091     0.4103    13.0520 </r>
       <r>    19.7417     0.3717    13.1013 </r>
       <r>    19.8743     0.3066    13.1419 </r>
       <r>    20.0069     0.3041    13.1823 </r>
       <r>    20.1395     0.3848    13.2333 </r>
       <r>    20.2721     0.4619    13.2945 </r>
       <r>    20.4047     0.4134    13.3493 </r>
       <r>    20.5373     0.3457    13.3952 </r>
       <r>    20.6699     0.3176    13.4373 </r>
       <r>    20.8025     0.2831    13.4748 </r>
       <r>    20.9351     0.2956    13.5140 </r>
       <r>    21.0677     0.3485    13.5602 </r>
       <r>    21.2003     0.3843    13.6112 </r>
       <r>    21.3329     0.3497    13.6576 </r>
       <r>    21.4655     0.3487    13.7038 </r>
       <r>    21.5981     0.3948    13.7562 </r>
       <r>    21.7307     0.3459    13.8020 </r>
       <r>    21.8633     0.2697    13.8378 </r>
       <r>    21.9959     0.2778    13.8746 </r>
       <r>    22.1285     0.2867    13.9126 </r>
       <r>    22.2611     0.2516    13.9460 </r>
       <r>    22.3937     0.3933    13.9982 </r>
       <r>    22.5263     0.5136    14.0663 </r>
       <r>    22.6589     0.3056    14.1068 </r>
       <r>    22.7915     0.2326    14.1376 </r>
       <r>    22.9241     0.3109    14.1789 </r>
       <r>    23.0567     0.2371    14.2103 </r>
       <r>    23.1893     0.2103    14.2382 </r>
       <r>    23.3219     0.3370    14.2829 </r>
       <r>    23.4545     0.4525    14.3429 </r>
       <r>    23.5871     0.4243    14.3991 </r>
       <r>    23.7197     0.2704    14.4350 </r>
       <r>    23.8523     0.1472    14.4545 </r>
       <r>    23.9849     0.1830    14.4788 </r>
       <r>    24.1175     0.2735    14.5150 </r>
       <r>    24.2501     0.2894    14.5534 </r>
       <r>    24.3827     0.3263    14.5967 </r>
       <r>    24.5153     0.3483    14.6429 </r>
       <r>    24.6479     0.4063    14.6967 </r>
       <r>    24.7805     0.4002    14.7498 </r>
       <r>    24.9131     0.2113    14.7778 </r>
       <r>    25.0457     0.0861    14.7892 </r>
       <r>    25.1783     0.1764    14.8126 </r>
       <r>    25.3109     0.2534    14.8462 </r>
       <r>    25.4435     0.2945    14.8853 </r>
       <r>    25.5761     0.3341    14.9296 </r>
       <r>    25.7087     0.3655    14.9780 </r>
       <r>    25.8413     0.3075    15.0188 </r>
       <r>    25.9739     0.1783    15.0425 </r>
       <r>    26.1065     0.2187    15.0715 </r>
       <r>    26.2391     0.2799    15.1086 </r>
       <r>    26.3717     0.2449    15.1411 </r>
       <r>    26.5043     0.2008    15.1677 </r>
       <r>    26.6369     0.2280    15.1979 </r>
       <r>    26.7695     0.3341    15.2422 </r>
       <r>    26.9021     0.2966    15.2816 </r>
       <r>    27.0347     0.2092    15.3093 </r>
       <r>    27.1673     0.2090    15.3370 </r>
       <r>    27.2999     0.2566    15.3710 </r>
       <r>    27.4325     0.2863    15.4090 </r>
       <r>    27.5651     0.2434    15.4413 </r>
       <r>    27.6977     0.1904    15.4665 </r>
       <r>    27.8303     0.2121    15.4946 </r>
       <r>    27.9629     0.2624    15.5294 </r>
       <r>    28.0955     0.2405    15.5613 </r>
       <r>    28.2281     0.1644    15.5831 </r>
       <r>    28.3607     0.0788    15.5936 </r>
       <r>    28.4933     0.0865    15.6050 </r>
       <r>    28.6259     0.1016    15.6185 </r>
       <r>    28.7585     0.1541    15.6390 </r>
       <r>    28.8911     0.2493    15.6720 </r>
       <r>    29.0237     0.2362    15.7033 </r>
       <r>    29.1563     0.1162    15.7187 </r>
       <r>    29.2889     0.0355    15.7235 </r>
       <r>    29.4215     0.0532    15.7305 </r>
       <r>    29.5541     0.0906    15.7425 </r>
       <r>    29.6867     0.1092    15.7570 </r>
       <r>    29.8193     0.1158    15.7724 </r>
       <r>    29.9519     0.1184    15.7881 </r>
       <r>    30.0845     0.1217    15.8042 </r>
       <r>    30.2171     0.1196    15.8201 </r>
       <r>    30.3497     0.0868    15.8316 </r>
       <r>    30.4823     0.0497    15.8381 </r>
       <r>    30.6149     0.0442    15.8440 </r>
       <r>    30.7475     0.0879    15.8557 </r>
       <r>    30.8801     0.1117    15.8705 </r>
       <r>    31.0127     0.0827    15.8814 </r>
       <r>    31.1453     0.0630    15.8898 </r>
       <r>    31.2779     0.0209    15.8926 </r>
       <r>    31.4105     0.0119    15.8941 </r>
       <r>    31.5431     0.0518    15.9010 </r>
       <r>    31.6757     0.0626    15.9093 </r>
       <r>    31.8083     0.0506    15.9160 </r>
       <r>    31.9409     0.0908    15.9281 </r>
       <r>    32.0735     0.1154    15.9434 </r>
       <r>    32.2061     0.0671    15.9523 </r>
       <r>    32.3387     0.0160    15.9544 </r>
       <r>    32.4713    -0.0032    15.9540 </r>
       <r>    32.6039     0.0053    15.9547 </r>
       <r>    32.7365     0.0280    15.9584 </r>
       <r>    32.8691     0.0368    15.9633 </r>
       <r>    33.0017     0.0397    15.9685 </r>
       <r>    33.1343     0.0633    15.9769 </r>
       <r>    33.2669     0.0562    15.9844 </r>
       <r>    33.3995     0.0212    15.9872 </r>
       <r>    33.5321     0.0115    15.9887 </r>
       <r>    33.6647     0.0100    15.9900 </r>
       <r>    33.7973     0.0252    15.9934 </r>
       <r>    33.9299     0.0322    15.9977 </r>
       <r>    34.0625     0.0147    15.9996 </r>
       <r>    34.1951     0.0034    16.0001 </r>
       <r>    34.3277     0.0000    16.0001 </r>
       <r>    34.4603    -0.0004    16.0000 </r>
       <r>    34.5929    -0.0001    16.0000 </r>
       <r>    34.7255    -0.0000    16.0000 </r>
       <r>    34.8581    -0.0000    16.0000 </r>
       <r>    34.9907    -0.0000    16.0000 </r>
       <r>    35.1233    -0.0000    16.0000 </r>
       <r>    35.2559    -0.0000    16.0000 </r>
       <r>    35.3885    -0.0000    16.0000 </r>
       <r>    35.5211     0.0000    16.0000 </r>
       <r>    35.6537     0.0000    16.0000 </r>
       <r>    35.7863     0.0000    16.0000 </r>
       <r>    35.9189     0.0000    16.0000 </r>
       <r>    36.0515     0.0000    16.0000 </r>
      </set>
     </set>
    </array>
   </total>
  </dos>
 </calculation>
 <structure name="finalpos" >
  <crystal>
   <varray name="basis" >
    <v>      -1.34259660       1.34259660       1.34259660 </v>
    <v>       1.34259660      -1.34259660       1.34259660 </v>
    <v>       1.34259660       1.34259660      -1.34259660 </v>
   </varray>
   <i name="volume">      9.68047401 </i>
   <varray name="rec_basis" >
    <v>       0.00000000       0.37241268       0.37241268 </v>
    <v>       0.37241268       0.00000000       0.37241268 </v>
    <v>       0.37241268       0.37241268       0.00000000 </v>
   </varray>
  </crystal>
  <varray name="positions" >
   <v>      -0.00000000       0.00000000      -0.00000000 </v>
  </varray>
 </structure>
</modeling>
