bcc Fe                                  
           1
    -1.343500    1.343500    1.343500
     1.343500   -1.343500    1.343500
     1.343500    1.343500   -1.343500
   Fe
   1
Direct configuration=     1
   0.00000000  0.00000000  0.00000000
bcc Fe                                  
           1
    -1.340254    1.340254    1.340254
     1.340254   -1.340254    1.340254
     1.340254    1.340254   -1.340254
   Fe
   1
Direct configuration=     2
  -0.00000000  0.00000000 -0.00000000
bcc Fe                                  
           1
    -1.342597    1.342597    1.342597
     1.342597   -1.342597    1.342597
     1.342597    1.342597   -1.342597
   Fe
   1
Direct configuration=     3
  -0.00000000  0.00000000 -0.00000000
