   2   2   0   0
  0.1798157E+02  0.3300800E-09  0.3300800E-09  0.3300800E-09  0.5000000E-15
  1.000000000000000E-004
  CAR 
 Nb gaussian                             
     51.29632000    -29.75361583  301      4.85392826      1.00000000
    -29.754  0.0000E+00  0.0000E+00
    -29.483  0.0000E+00  0.0000E+00
    -29.213  0.0000E+00  0.0000E+00
    -28.943  0.0000E+00  0.0000E+00
    -28.673  0.0000E+00  0.0000E+00
    -28.403  0.0000E+00  0.0000E+00
    -28.133  0.0000E+00  0.0000E+00
    -27.862  0.0000E+00  0.0000E+00
    -27.592  0.0000E+00  0.0000E+00
    -27.322  0.0000E+00  0.0000E+00
    -27.052  0.2543E-12  0.6871E-13
    -26.782  0.4761E-07  0.1286E-07
    -26.512  0.3094E-03  0.8359E-04
    -26.241  0.9142E-01  0.2478E-01
    -25.971  0.2112E+01  0.5953E+00
    -25.701  0.6996E+01  0.2485E+01
    -25.431  0.7010E+01  0.4379E+01
    -25.161  0.8396E+01  0.6648E+01
    -24.891  0.1034E+02  0.9442E+01
    -24.620  0.8176E+01  0.1165E+02
    -24.350  0.1277E+01  0.1200E+02
    -24.080  0.1581E-01  0.1200E+02
    -23.810  0.9011E-05  0.1200E+02
    -23.540  0.1788E-09  0.1200E+02
    -23.270  0.4931E-16  0.1200E+02
    -22.999  0.0000E+00  0.1200E+02
    -22.729  0.0000E+00  0.1200E+02
    -22.459  0.0000E+00  0.1200E+02
    -22.189  0.0000E+00  0.1200E+02
    -21.919  0.0000E+00  0.1200E+02
    -21.649  0.0000E+00  0.1200E+02
    -21.378  0.0000E+00  0.1200E+02
    -21.108  0.0000E+00  0.1200E+02
    -20.838  0.0000E+00  0.1200E+02
    -20.568  0.0000E+00  0.1200E+02
    -20.298  0.0000E+00  0.1200E+02
    -20.028  0.0000E+00  0.1200E+02
    -19.757  0.0000E+00  0.1200E+02
    -19.487  0.0000E+00  0.1200E+02
    -19.217  0.0000E+00  0.1200E+02
    -18.947  0.0000E+00  0.1200E+02
    -18.677  0.0000E+00  0.1200E+02
    -18.407  0.0000E+00  0.1200E+02
    -18.136  0.0000E+00  0.1200E+02
    -17.866  0.0000E+00  0.1200E+02
    -17.596  0.0000E+00  0.1200E+02
    -17.326  0.0000E+00  0.1200E+02
    -17.056  0.0000E+00  0.1200E+02
    -16.786  0.0000E+00  0.1200E+02
    -16.515  0.0000E+00  0.1200E+02
    -16.245  0.0000E+00  0.1200E+02
    -15.975  0.0000E+00  0.1200E+02
    -15.705  0.0000E+00  0.1200E+02
    -15.435  0.0000E+00  0.1200E+02
    -15.165  0.0000E+00  0.1200E+02
    -14.894  0.0000E+00  0.1200E+02
    -14.624  0.0000E+00  0.1200E+02
    -14.354  0.0000E+00  0.1200E+02
    -14.084  0.0000E+00  0.1200E+02
    -13.814  0.0000E+00  0.1200E+02
    -13.544  0.0000E+00  0.1200E+02
    -13.273  0.0000E+00  0.1200E+02
    -13.003  0.0000E+00  0.1200E+02
    -12.733  0.0000E+00  0.1200E+02
    -12.463  0.0000E+00  0.1200E+02
    -12.193  0.0000E+00  0.1200E+02
    -11.923  0.0000E+00  0.1200E+02
    -11.652  0.0000E+00  0.1200E+02
    -11.382  0.0000E+00  0.1200E+02
    -11.112  0.0000E+00  0.1200E+02
    -10.842  0.0000E+00  0.1200E+02
    -10.572  0.0000E+00  0.1200E+02
    -10.302  0.0000E+00  0.1200E+02
    -10.031  0.0000E+00  0.1200E+02
     -9.761  0.0000E+00  0.1200E+02
     -9.491  0.0000E+00  0.1200E+02
     -9.221  0.0000E+00  0.1200E+02
     -8.951  0.0000E+00  0.1200E+02
     -8.681  0.0000E+00  0.1200E+02
     -8.410  0.0000E+00  0.1200E+02
     -8.140  0.0000E+00  0.1200E+02
     -7.870  0.0000E+00  0.1200E+02
     -7.600  0.0000E+00  0.1200E+02
     -7.330  0.0000E+00  0.1200E+02
     -7.060  0.0000E+00  0.1200E+02
     -6.789  0.0000E+00  0.1200E+02
     -6.519  0.0000E+00  0.1200E+02
     -6.249  0.0000E+00  0.1200E+02
     -5.979  0.0000E+00  0.1200E+02
     -5.709  0.0000E+00  0.1200E+02
     -5.439  0.0000E+00  0.1200E+02
     -5.168  0.0000E+00  0.1200E+02
     -4.898  0.0000E+00  0.1200E+02
     -4.628  0.0000E+00  0.1200E+02
     -4.358  0.0000E+00  0.1200E+02
     -4.088  0.0000E+00  0.1200E+02
     -3.818  0.0000E+00  0.1200E+02
     -3.547  0.0000E+00  0.1200E+02
     -3.277  0.0000E+00  0.1200E+02
     -3.007  0.0000E+00  0.1200E+02
     -2.737  0.0000E+00  0.1200E+02
     -2.467  0.0000E+00  0.1200E+02
     -2.197  0.1644E-17  0.1200E+02
     -1.926  0.2037E-11  0.1200E+02
     -1.656  0.6946E-07  0.1200E+02
     -1.386  0.8396E-04  0.1200E+02
     -1.116  0.5471E-02  0.1200E+02
     -0.846  0.3949E-01  0.1201E+02
     -0.576  0.8395E-01  0.1203E+02
     -0.305  0.1202E+00  0.1207E+02
     -0.035  0.1527E+00  0.1211E+02
      0.235  0.1901E+00  0.1216E+02
      0.505  0.2356E+00  0.1222E+02
      0.775  0.2857E+00  0.1230E+02
      1.045  0.4609E+00  0.1243E+02
      1.316  0.1144E+01  0.1273E+02
      1.586  0.1881E+01  0.1324E+02
      1.856  0.2172E+01  0.1383E+02
      2.126  0.2528E+01  0.1451E+02
      2.396  0.2764E+01  0.1526E+02
      2.666  0.2432E+01  0.1592E+02
      2.937  0.1517E+01  0.1633E+02
      3.207  0.1883E+01  0.1683E+02
      3.477  0.3623E+01  0.1781E+02
      3.747  0.3527E+01  0.1877E+02
      4.017  0.2517E+01  0.1945E+02
      4.287  0.2363E+01  0.2008E+02
      4.558  0.3182E+01  0.2094E+02
      4.828  0.3607E+01  0.2192E+02
      5.098  0.2569E+01  0.2261E+02
      5.368  0.1526E+01  0.2303E+02
      5.638  0.1084E+01  0.2332E+02
      5.908  0.9333E+00  0.2357E+02
      6.179  0.9836E+00  0.2384E+02
      6.449  0.1061E+01  0.2412E+02
      6.719  0.1524E+01  0.2453E+02
      6.989  0.1768E+01  0.2501E+02
      7.259  0.2008E+01  0.2555E+02
      7.529  0.2255E+01  0.2616E+02
      7.800  0.2569E+01  0.2686E+02
      8.070  0.2699E+01  0.2759E+02
      8.340  0.2981E+01  0.2839E+02
      8.610  0.3028E+01  0.2921E+02
      8.880  0.4347E+01  0.3038E+02
      9.150  0.3593E+01  0.3136E+02
      9.421  0.2106E+01  0.3192E+02
      9.691  0.1542E+01  0.3234E+02
      9.961  0.1411E+01  0.3272E+02
     10.231  0.1191E+01  0.3304E+02
     10.501  0.1142E+01  0.3335E+02
     10.771  0.8795E+00  0.3359E+02
     11.042  0.7574E+00  0.3379E+02
     11.312  0.7037E+00  0.3398E+02
     11.582  0.7279E+00  0.3418E+02
     11.852  0.6034E+00  0.3434E+02
     12.122  0.6518E+00  0.3452E+02
     12.392  0.5817E+00  0.3468E+02
     12.663  0.5928E+00  0.3484E+02
     12.933  0.5712E+00  0.3499E+02
     13.203  0.5269E+00  0.3513E+02
     13.473  0.5535E+00  0.3528E+02
     13.743  0.4707E+00  0.3541E+02
     14.013  0.4933E+00  0.3554E+02
     14.284  0.4268E+00  0.3566E+02
     14.554  0.3691E+00  0.3576E+02
     14.824  0.4812E+00  0.3589E+02
     15.094  0.3546E+00  0.3599E+02
     15.364  0.4529E+00  0.3611E+02
     15.634  0.7301E+00  0.3630E+02
     15.905  0.8717E+00  0.3654E+02
     16.175  0.9890E+00  0.3681E+02
     16.445  0.9991E+00  0.3708E+02
     16.715  0.1175E+01  0.3740E+02
     16.985  0.1174E+01  0.3771E+02
     17.255  0.1084E+01  0.3801E+02
     17.526  0.1213E+01  0.3833E+02
     17.796  0.1319E+01  0.3869E+02
     18.066  0.1456E+01  0.3908E+02
     18.336  0.1793E+01  0.3957E+02
     18.606  0.1687E+01  0.4002E+02
     18.876  0.1599E+01  0.4045E+02
     19.147  0.1613E+01  0.4089E+02
     19.417  0.1345E+01  0.4125E+02
     19.687  0.1443E+01  0.4164E+02
     19.957  0.1488E+01  0.4205E+02
     20.227  0.1147E+01  0.4236E+02
     20.497  0.1203E+01  0.4268E+02
     20.768  0.1344E+01  0.4304E+02
     21.038  0.1507E+01  0.4345E+02
     21.308  0.1411E+01  0.4383E+02
     21.578  0.1677E+01  0.4429E+02
     21.848  0.1855E+01  0.4479E+02
     22.118  0.1760E+01  0.4526E+02
     22.389  0.1580E+01  0.4569E+02
     22.659  0.1289E+01  0.4604E+02
     22.929  0.1213E+01  0.4636E+02
     23.199  0.1153E+01  0.4668E+02
     23.469  0.9049E+00  0.4692E+02
     23.739  0.9224E+00  0.4717E+02
     24.010  0.9650E+00  0.4743E+02
     24.280  0.1067E+01  0.4772E+02
     24.550  0.1360E+01  0.4809E+02
     24.820  0.1508E+01  0.4849E+02
     25.090  0.1952E+01  0.4902E+02
     25.360  0.1732E+01  0.4949E+02
     25.631  0.1302E+01  0.4984E+02
     25.901  0.1246E+01  0.5018E+02
     26.171  0.1162E+01  0.5049E+02
     26.441  0.1055E+01  0.5078E+02
     26.711  0.1023E+01  0.5105E+02
     26.981  0.1141E+01  0.5136E+02
     27.252  0.9789E+00  0.5163E+02
     27.522  0.9365E+00  0.5188E+02
     27.792  0.1226E+01  0.5221E+02
     28.062  0.1422E+01  0.5259E+02
     28.332  0.1013E+01  0.5287E+02
     28.602  0.1139E+01  0.5318E+02
     28.873  0.1546E+01  0.5359E+02
     29.143  0.1789E+01  0.5408E+02
     29.413  0.1533E+01  0.5449E+02
     29.683  0.1441E+01  0.5488E+02
     29.953  0.1443E+01  0.5527E+02
     30.223  0.1309E+01  0.5562E+02
     30.494  0.1343E+01  0.5599E+02
     30.764  0.1473E+01  0.5638E+02
     31.034  0.1209E+01  0.5671E+02
     31.304  0.1299E+01  0.5706E+02
     31.574  0.1356E+01  0.5743E+02
     31.844  0.1419E+01  0.5781E+02
     32.115  0.1417E+01  0.5819E+02
     32.385  0.1520E+01  0.5861E+02
     32.655  0.1898E+01  0.5912E+02
     32.925  0.1772E+01  0.5960E+02
     33.195  0.1706E+01  0.6006E+02
     33.465  0.1820E+01  0.6055E+02
     33.736  0.1746E+01  0.6102E+02
     34.006  0.1871E+01  0.6153E+02
     34.276  0.1602E+01  0.6196E+02
     34.546  0.1622E+01  0.6240E+02
     34.816  0.1561E+01  0.6282E+02
     35.086  0.1491E+01  0.6322E+02
     35.356  0.1447E+01  0.6361E+02
     35.627  0.1343E+01  0.6398E+02
     35.897  0.1103E+01  0.6427E+02
     36.167  0.1045E+01  0.6456E+02
     36.437  0.1227E+01  0.6489E+02
     36.707  0.1398E+01  0.6527E+02
     36.977  0.1469E+01  0.6566E+02
     37.248  0.1802E+01  0.6615E+02
     37.518  0.2127E+01  0.6672E+02
     37.788  0.1946E+01  0.6725E+02
     38.058  0.1764E+01  0.6773E+02
     38.328  0.1726E+01  0.6819E+02
     38.598  0.1711E+01  0.6865E+02
     38.869  0.1510E+01  0.6906E+02
     39.139  0.1460E+01  0.6946E+02
     39.409  0.1563E+01  0.6988E+02
     39.679  0.1668E+01  0.7033E+02
     39.949  0.1620E+01  0.7077E+02
     40.219  0.1546E+01  0.7119E+02
     40.490  0.1641E+01  0.7163E+02
     40.760  0.1772E+01  0.7211E+02
     41.030  0.1751E+01  0.7258E+02
     41.300  0.1829E+01  0.7308E+02
     41.570  0.2327E+01  0.7370E+02
     41.840  0.2858E+01  0.7448E+02
     42.111  0.5358E+01  0.7592E+02
     42.381  0.6350E+01  0.7764E+02
     42.651  0.3159E+01  0.7849E+02
     42.921  0.2058E+01  0.7905E+02
     43.191  0.1186E+01  0.7937E+02
     43.461  0.7262E+00  0.7956E+02
     43.732  0.4963E+00  0.7970E+02
     44.002  0.4070E+00  0.7981E+02
     44.272  0.1913E+00  0.7986E+02
     44.542  0.2285E+00  0.7992E+02
     44.812  0.1206E+00  0.7995E+02
     45.082  0.2495E-01  0.7996E+02
     45.353  0.3193E-01  0.7997E+02
     45.623  0.2932E-01  0.7998E+02
     45.893  0.1934E-01  0.7998E+02
     46.163  0.2445E-02  0.7998E+02
     46.433  0.4777E-02  0.7999E+02
     46.703  0.2848E-01  0.7999E+02
     46.974  0.1092E-01  0.8000E+02
     47.244  0.7220E-03  0.8000E+02
     47.514  0.6112E-02  0.8000E+02
     47.784  0.7278E-02  0.8000E+02
     48.054  0.9030E-03  0.8000E+02
     48.324  0.6652E-05  0.8000E+02
     48.595  0.1759E-08  0.8000E+02
     48.865  0.1384E-13  0.8000E+02
     49.135  0.0000E+00  0.8000E+02
     49.405  0.0000E+00  0.8000E+02
     49.675  0.0000E+00  0.8000E+02
     49.945  0.0000E+00  0.8000E+02
     50.216  0.0000E+00  0.8000E+02
     50.486  0.0000E+00  0.8000E+02
     50.756  0.0000E+00  0.8000E+02
     51.026  0.0000E+00  0.8000E+02
     51.296  0.0000E+00  0.8000E+02
