    2    2    1    1
  0.1798157E+02  0.3300800E-09  0.3300800E-09  0.3300800E-09  0.5000000E-15
  1.000000000000000E-004
  CAR 
 Nb gaussian                             
     22    220     40
 
  0.2500000E-01  0.2500000E-01  0.2500000E-01  0.1000000E-02
    1      -25.638995   1.000000
    2      -25.638995   1.000000
    3      -25.626775   1.000000
    4      -24.706752   1.000000
    5      -24.692863   1.000000
    6      -24.692863   1.000000
    7       -1.048624   1.000000
    8        1.110091   1.000000
    9        1.110091   1.000000
   10        5.146389   0.019320
   11        5.146389   0.019320
   12        5.208040   0.006141
   13        8.060113   0.000000
   14        8.060113   0.000000
   15       10.202354   0.000000
   16       10.398916   0.000000
   17       10.398916   0.000000
   18       14.277806   0.000000
   19       14.277806   0.000000
   20       14.371909   0.000000
   21       20.430642   0.000000
   22       20.483652   0.000000
   23       20.483652   0.000000
   24       23.481656   0.000000
   25       25.895769   0.000000
   26       25.895769   0.000000
   27       30.111392   0.000000
   28       30.205640   0.000000
   29       30.205640   0.000000
   30       34.033663   0.000000
   31       34.569786   0.000000
   32       34.569786   0.000000
   33       40.805987   0.000000
   34       40.989685   0.000000
   35       40.989685   0.000000
   36       41.449643   0.000000
   37       41.626986   0.000000
   38       41.987321   0.000000
   39       41.987321   0.000000
   40       42.214902   0.000000
 
  0.7500000E-01  0.2500000E-01  0.2500000E-01  0.3000000E-02
    1      -25.647002   1.000000
    2      -25.627018   1.000000
    3      -25.608486   1.000000
    4      -24.738396   1.000000
    5      -24.704130   1.000000
    6      -24.698219   1.000000
    7       -0.944083   1.000000
    8        1.166499   1.000000
    9        1.201156   1.000000
   10        5.107223   0.036641
   11        5.134361   0.023686
   12        5.285606   0.001135
   13        7.912545   0.000000
   14        8.114928   0.000000
   15        9.790095   0.000000
   16       10.033183   0.000000
   17       10.389946   0.000000
   18       13.990824   0.000000
   19       14.755870   0.000000
   20       14.801538   0.000000
   21       20.534817   0.000000
   22       20.657139   0.000000
   23       20.682839   0.000000
   24       23.745482   0.000000
   25       25.800040   0.000000
   26       25.844412   0.000000
   27       29.166282   0.000000
   28       30.255551   0.000000
   29       30.384727   0.000000
   30       33.726225   0.000000
   31       34.377528   0.000000
   32       35.467872   0.000000
   33       40.500257   0.000000
   34       40.747414   0.000000
   35       40.791191   0.000000
   36       40.881723   0.000000
   37       41.379109   0.000000
   38       41.809088   0.000000
   39       41.962208   0.000000
   40       42.439993   0.000000
 
  0.1250000E+00  0.2500000E-01  0.2500000E-01  0.3000000E-02
    1      -25.652490   1.000000
    2      -25.603334   1.000000
    3      -25.581701   1.000000
    4      -24.791342   1.000000
    5      -24.726294   1.000000
    6      -24.717094   1.000000
    7       -0.739406   1.000000
    8        1.279260   1.000000
    9        1.376076   1.000000
   10        5.075594   0.058509
   11        5.116730   0.031564
   12        5.398954   0.000058
   13        7.632871   0.000000
   14        8.221384   0.000000
   15        9.240921   0.000000
   16        9.477716   0.000000
   17       10.242997   0.000000
   18       13.469293   0.000000
   19       15.535569   0.000000
   20       15.539722   0.000000
   21       20.767693   0.000000
   22       20.995055   0.000000
   23       21.032247   0.000000
   24       23.951453   0.000000
   25       25.745156   0.000000
   26       25.896905   0.000000
   27       27.729214   0.000000
   28       30.536678   0.000000
   29       30.737274   0.000000
   30       33.335975   0.000000
   31       33.990617   0.000000
   32       36.365039   0.000000
   33       39.848866   0.000000
   34       40.187782   0.000000
   35       40.370354   0.000000
   36       40.591434   0.000000
   37       40.613701   0.000000
   38       41.677153   0.000000
   39       42.005689   0.000000
   40       42.663178   0.000000
 
  0.1750000E+00  0.2500000E-01  0.2500000E-01  0.3000000E-02
    1      -25.655228   1.000000
    2      -25.568614   1.000000
    3      -25.545627   1.000000
    4      -24.863340   1.000000
    5      -24.758943   1.000000
    6      -24.747668   1.000000
    7       -0.443269   1.000000
    8        1.447356   1.000000
    9        1.617865   1.000000
   10        5.055216   0.077322
   11        5.099814   0.041046
   12        5.552039   0.000000
   13        7.247236   0.000000
   14        8.372737   0.000000
   15        8.644456   0.000000
   16        8.865191   0.000000
   17       10.000709   0.000000
   18       12.817565   0.000000
   19       16.452125   0.000000
   20       16.480525   0.000000
   21       21.095952   0.000000
   22       21.477212   0.000000
   23       21.522015   0.000000
   24       23.679109   0.000000
   25       25.597980   0.000000
   26       26.222672   0.000000
   27       26.565858   0.000000
   28       30.940934   0.000000
   29       31.233346   0.000000
   30       32.769709   0.000000
   31       33.440938   0.000000
   32       37.044502   0.000000
   33       38.750131   0.000000
   34       39.127334   0.000000
   35       39.908531   0.000000
   36       40.307303   0.000000
   37       40.441584   0.000000
   38       41.345536   0.000000
   39       42.146442   0.000000
   40       42.778474   0.000000
 
  0.2250000E+00  0.2500000E-01  0.2500000E-01  0.3000000E-02
    1      -25.653424   1.000000
    2      -25.523724   1.000000
    3      -25.500290   1.000000
    4      -24.950224   1.000000
    5      -24.801373   1.000000
    6      -24.788538   1.000000
    7       -0.068531   1.000000
    8        1.669960   1.000000
    9        1.902775   1.000000
   10        5.053235   0.079372
   11        5.092189   0.046018
   12        5.747022   0.000000
   13        6.786707   0.000000
   14        8.055641   0.000000
   15        8.259644   0.000000
   16        8.559213   0.000000
   17        9.688979   0.000000
   18       12.118413   0.000000
   19       17.467184   0.000000
   20       17.523102   0.000000
   21       21.481615   0.000000
   22       22.059854   0.000000
   23       22.135174   0.000000
   24       23.071796   0.000000
   25       24.796654   0.000000
   26       25.407628   0.000000
   27       27.671105   0.000000
   28       31.451172   0.000000
   29       31.669685   0.000000
   30       32.029335   0.000000
   31       32.964629   0.000000
   32       37.493901   0.000000
   33       37.508183   0.000000
   34       37.753141   0.000000
   35       39.482632   0.000000
   36       40.225134   0.000000
   37       40.414555   0.000000
   38       41.024893   0.000000
   39       42.225733   0.000000
   40       42.823399   0.000000
 
  0.2750000E+00  0.2500000E-01  0.2500000E-01  0.3000000E-02
    1      -25.644677   1.000000
    2      -25.469890   1.000000
    3      -25.446547   1.000000
    4      -25.046913   1.000000
    5      -24.852652   1.000000
    6      -24.838470   1.000000
    7        0.367460   1.000000
    8        1.945202   1.000000
    9        2.194871   1.000000
   10        5.077953   0.056586
   11        5.098262   0.042021
   12        5.983565   0.000000
   13        6.285131   0.000000
   14        7.503146   0.000000
   15        7.690294   0.000000
   16        8.765127   0.000000
   17        9.327485   0.000000
   18       11.435414   0.000000
   19       18.539549   0.000000
   20       18.626924   0.000000
   21       21.893645   0.000000
   22       22.364388   0.000000
   23       22.540198   0.000000
   24       22.835485   0.000000
   25       23.685391   0.000000
   26       25.176421   0.000000
   27       29.003726   0.000000
   28       31.167407   0.000000
   29       31.317896   0.000000
   30       32.041482   0.000000
   31       33.351464   0.000000
   32       36.144067   0.000000
   33       36.311232   0.000000
   34       37.821561   0.000000
   35       38.892832   0.000000
   36       40.359160   0.000000
   37       40.517351   0.000000
   38       40.725008   0.000000
   39       42.237139   0.000000
   40       42.825617   0.000000
 
  0.3250000E+00  0.2500000E-01  0.2500000E-01  0.3000000E-02
    1      -25.626472   1.000000
    2      -25.408440   1.000000
    3      -25.385594   1.000000
    4      -25.147691   1.000000
    5      -24.911698   1.000000
    6      -24.896224   1.000000
    7        0.842667   1.000000
    8        2.271098   1.000000
    9        2.447479   1.000000
   10        5.100582   0.040570
   11        5.138884   0.021955
   12        5.794321   0.000000
   13        6.260198   0.000000
   14        7.002930   0.000000
   15        7.172108   0.000000
   16        8.933478   0.000000
   17        8.973389   0.000000
   18       10.819282   0.000000
   19       19.612683   0.000000
   20       19.766287   0.000000
   21       21.707351   0.000000
   22       22.011600   0.000000
   23       22.311012   0.000000
   24       23.551147   0.000000
   25       23.779745   0.000000
   26       24.910509   0.000000
   27       30.292631   0.000000
   28       30.477468   0.000000
   29       30.529394   0.000000
   30       32.669417   0.000000
   31       34.349153   0.000000
   32       34.784160   0.000000
   33       34.852361   0.000000
   34       38.009095   0.000000
   35       38.273214   0.000000
   36       40.437835   0.000000
   37       40.585136   0.000000
   38       40.747130   0.000000
   39       42.065203   0.000000
   40       42.801905   0.000000
 
  0.3750000E+00  0.2500000E-01  0.2500000E-01  0.3000000E-02
    1      -25.596572   1.000000
    2      -25.340972   1.000000
    3      -25.318894   1.000000
    4      -25.247193   1.000000
    5      -24.977057   1.000000
    6      -24.960339   1.000000
    7        1.329453   1.000000
    8        2.606553   1.000000
    9        2.645006   1.000000
   10        4.943969   0.262165
   11        5.244382   0.002882
   12        5.499348   0.000003
   13        6.563413   0.000000
   14        6.574090   0.000000
   15        6.713004   0.000000
   16        8.521792   0.000000
   17        9.166810   0.000000
   18       10.309994   0.000000
   19       20.407579   0.000000
   20       20.914455   0.000000
   21       21.163934   0.000000
   22       21.436010   0.000000
   23       22.720901   0.000000
   24       24.138737   0.000000
   25       24.289430   0.000000
   26       24.615931   0.000000
   27       29.589620   0.000000
   28       29.845908   0.000000
   29       32.046202   0.000000
   30       32.930729   0.000000
   31       33.422812   0.000000
   32       33.855671   0.000000
   33       35.584077   0.000000
   34       37.434736   0.000000
   35       38.303633   0.000000
   36       40.151351   0.000000
   37       40.524731   0.000000
   38       41.105296   0.000000
   39       41.531697   0.000000
   40       42.760335   0.000000
 
  0.4250000E+00  0.2500000E-01  0.2500000E-01  0.3000000E-02
    1      -25.553253   1.000000
    2      -25.340708   1.000000
    3      -25.269242   1.000000
    4      -25.247978   1.000000
    5      -25.047221   1.000000
    6      -25.029281   1.000000
    7        1.793383   1.000000
    8        2.625622   1.000000
    9        3.063137   1.000000
   10        4.505371   0.993143
   11        5.399575   0.000057
   12        5.545090   0.000001
   13        6.186712   0.000000
   14        6.317624   0.000000
   15        6.921261   0.000000
   16        8.105244   0.000000
   17        9.335862   0.000000
   18        9.930154   0.000000
   19       20.319458   0.000000
   20       20.534066   0.000000
   21       22.030744   0.000000
   22       22.193299   0.000000
   23       23.107809   0.000000
   24       24.302187   0.000000
   25       24.349054   0.000000
   26       24.447064   0.000000
   27       29.351047   0.000000
   28       29.593774   0.000000
   29       31.854626   0.000000
   30       32.073543   0.000000
   31       33.691838   0.000000
   32       34.357776   0.000000
   33       36.672638   0.000000
   34       36.983528   0.000000
   35       38.160024   0.000000
   36       39.615786   0.000000
   37       39.868233   0.000000
   38       41.565519   0.000000
   39       41.695416   0.000000
   40       41.832578   0.000000
 
  0.4750000E+00  0.2500000E-01  0.2500000E-01  0.3000000E-02
    1      -25.495741   1.000000
    2      -25.424379   1.000000
    3      -25.195113   1.000000
    4      -25.174885   1.000000
    5      -25.120516   1.000000
    6      -25.101395   1.000000
    7        2.193178   1.000000
    8        2.483216   1.000000
    9        3.519891   1.000000
   10        4.006715   1.000000
   11        5.607655   0.000000
   12        5.727945   0.000000
   13        5.869436   0.000000
   14        5.988440   0.000000
   15        7.296641   0.000000
   16        7.693856   0.000000
   17        9.491030   0.000000
   18        9.671186   0.000000
   19       20.139742   0.000000
   20       20.192044   0.000000
   21       23.022278   0.000000
   22       23.189312   0.000000
   23       23.412367   0.000000
   24       23.999381   0.000000
   25       24.026840   0.000000
   26       24.057209   0.000000
   27       29.773081   0.000000
   28       29.980028   0.000000
   29       30.691173   0.000000
   30       30.880388   0.000000
   31       35.101673   0.000000
   32       35.371645   0.000000
   33       35.888766   0.000000
   34       36.989834   0.000000
   35       38.518098   0.000000
   36       39.398134   0.000000
   37       39.598191   0.000000
   38       40.154430   0.000000
   39       42.122645   0.000000
   40       42.140968   0.000000
 
  0.7500000E-01  0.7500000E-01  0.2500000E-01  0.3000000E-02
    1      -25.660895   1.000000
    2      -25.620276   1.000000
    3      -25.579666   1.000000
    4      -24.780621   1.000000
    5      -24.713547   1.000000
    6      -24.693526   1.000000
    7       -0.841877   1.000000
    8        1.238019   1.000000
    9        1.276125   1.000000
   10        5.021584   0.117908
   11        5.110055   0.035064
   12        5.418842   0.000032
   13        7.885466   0.000000
   14        8.068868   0.000000
   15        9.318588   0.000000
   16        9.786741   0.000000
   17       10.434414   0.000000
   18       14.215412   0.000000
   19       14.685764   0.000000
   20       15.138612   0.000000
   21       20.582783   0.000000
   22       20.832584   0.000000
   23       20.896802   0.000000
   24       24.040605   0.000000
   25       25.688986   0.000000
   26       25.793406   0.000000
   27       28.942035   0.000000
   28       29.829488   0.000000
   29       30.396385   0.000000
   30       33.239540   0.000000
   31       34.558414   0.000000
   32       36.225870   0.000000
   33       39.907145   0.000000
   34       40.014135   0.000000
   35       40.588257   0.000000
   36       40.944018   0.000000
   37       41.105276   0.000000
   38       41.948356   0.000000
   39       42.250547   0.000000
   40       42.581240   0.000000
 
  0.1250000E+00  0.7500000E-01  0.2500000E-01  0.6000000E-02
    1      -25.675870   1.000000
    2      -25.597613   1.000000
    3      -25.543657   1.000000
    4      -24.843155   1.000000
    5      -24.735032   1.000000
    6      -24.701142   1.000000
    7       -0.641934   1.000000
    8        1.352926   1.000000
    9        1.446014   1.000000
   10        4.938610   0.274656
   11        5.079353   0.055469
   12        5.587114   0.000000
   13        7.669960   0.000000
   14        8.147108   0.000000
   15        8.758237   0.000000
   16        9.271791   0.000000
   17       10.395547   0.000000
   18       13.811524   0.000000
   19       15.281953   0.000000
   20       15.776487   0.000000
   21       20.750899   0.000000
   22       21.162616   0.000000
   23       21.238147   0.000000
   24       24.259567   0.000000
   25       25.600204   0.000000
   26       25.889110   0.000000
   27       27.804093   0.000000
   28       29.920542   0.000000
   29       30.669961   0.000000
   30       32.823508   0.000000
   31       34.284267   0.000000
   32       37.183060   0.000000
   33       38.989516   0.000000
   34       39.575767   0.000000
   35       40.301258   0.000000
   36       40.317610   0.000000
   37       40.840988   0.000000
   38       42.067708   0.000000
   39       42.136765   0.000000
   40       42.976452   0.000000
 
  0.1750000E+00  0.7500000E-01  0.2500000E-01  0.6000000E-02
    1      -25.686818   1.000000
    2      -25.563485   1.000000
    3      -25.500687   1.000000
    4      -24.921812   1.000000
    5      -24.766857   1.000000
    6      -24.722567   1.000000
    7       -0.353288   1.000000
    8        1.516790   1.000000
    9        1.687258   1.000000
   10        4.875927   0.438191
   11        5.043920   0.089564
   12        5.785898   0.000000
   13        7.329505   0.000000
   14        8.175734   0.000000
   15        8.302174   0.000000
   16        8.687700   0.000000
   17       10.228352   0.000000
   18       13.153852   0.000000
   19       16.150248   0.000000
   20       16.614994   0.000000
   21       21.020983   0.000000
   22       21.609042   0.000000
   23       21.689176   0.000000
   24       23.935331   0.000000
   25       25.483883   0.000000
   26       26.417312   0.000000
   27       26.609402   0.000000
   28       30.297589   0.000000
   29       31.058914   0.000000
   30       32.309183   0.000000
   31       33.844725   0.000000
   32       37.690619   0.000000
   33       38.003028   0.000000
   34       39.178553   0.000000
   35       39.541114   0.000000
   36       40.062745   0.000000
   37       40.648321   0.000000
   38       41.894727   0.000000
   39       42.155147   0.000000
   40       43.100676   0.000000
 
  0.2250000E+00  0.7500000E-01  0.2500000E-01  0.6000000E-02
    1      -25.691709   1.000000
    2      -25.519177   1.000000
    3      -25.450688   1.000000
    4      -25.012737   1.000000
    5      -24.808284   1.000000
    6      -24.756247   1.000000
    7        0.010807   1.000000
    8        1.731436   1.000000
    9        1.971697   1.000000
   10        4.841189   0.535889
   11        5.009213   0.136097
   12        6.017034   0.000000
   13        6.921648   0.000000
   14        7.611063   0.000000
   15        8.109239   0.000000
   16        8.496841   0.000000
   17        9.962153   0.000000
   18       12.431051   0.000000
   19       17.111419   0.000000
   20       17.585078   0.000000
   21       21.354339   0.000000
   22       22.033315   0.000000
   23       22.281447   0.000000
   24       23.314525   0.000000
   25       25.159219   0.000000
   26       25.306396   0.000000
   27       27.752227   0.000000
   28       30.621986   0.000000
   29       31.538987   0.000000
   30       31.671305   0.000000
   31       33.459445   0.000000
   32       36.929004   0.000000
   33       37.708178   0.000000
   34       37.881376   0.000000
   35       39.611321   0.000000
   36       40.037477   0.000000
   37       40.589344   0.000000
   38       41.531438   0.000000
   39       42.227632   0.000000
   40       43.015606   0.000000
 
  0.2750000E+00  0.7500000E-01  0.2500000E-01  0.6000000E-02
    1      -25.688390   1.000000
    2      -25.465921   1.000000
    3      -25.394038   1.000000
    4      -25.111341   1.000000
    5      -24.858458   1.000000
    6      -24.800587   1.000000
    7        0.432710   1.000000
    8        1.994367   1.000000
    9        2.262947   1.000000
   10        4.839437   0.540808
   11        4.972457   0.200981
   12        6.281240   0.000000
   13        6.491797   0.000000
   14        7.088478   0.000000
   15        7.571462   0.000000
   16        8.711686   0.000000
   17        9.628187   0.000000
   18       11.713338   0.000000
   19       18.101591   0.000000
   20       18.639060   0.000000
   21       21.685054   0.000000
   22       22.189397   0.000000
   23       22.642840   0.000000
   24       22.968996   0.000000
   25       24.381775   0.000000
   26       25.090341   0.000000
   27       29.095458   0.000000
   28       30.439793   0.000000
   29       31.032146   0.000000
   30       32.068148   0.000000
   31       33.535614   0.000000
   32       35.774837   0.000000
   33       36.515551   0.000000
   34       37.641402   0.000000
   35       39.109722   0.000000
   36       40.398767   0.000000
   37       40.781313   0.000000
   38       41.091975   0.000000
   39       42.299428   0.000000
   40       42.892800   0.000000
 
  0.3250000E+00  0.7500000E-01  0.2500000E-01  0.6000000E-02
    1      -25.674621   1.000000
    2      -25.405237   1.000000
    3      -25.331525   1.000000
    4      -25.212516   1.000000
    5      -24.916249   1.000000
    6      -24.853858   1.000000
    7        0.890254   1.000000
    8        2.296895   1.000000
    9        2.517881   1.000000
   10        4.857612   0.489610
   11        4.923163   0.312221
   12        6.104117   0.000000
   13        6.579679   0.000000
   14        6.621782   0.000000
   15        7.095229   0.000000
   16        8.928549   0.000000
   17        9.251807   0.000000
   18       11.050297   0.000000
   19       19.033901   0.000000
   20       19.741725   0.000000
   21       21.538203   0.000000
   22       22.085620   0.000000
   23       22.210680   0.000000
   24       23.666083   0.000000
   25       24.406170   0.000000
   26       24.846757   0.000000
   27       29.758863   0.000000
   28       30.415458   0.000000
   29       30.557628   0.000000
   30       32.532012   0.000000
   31       34.238103   0.000000
   32       34.586706   0.000000
   33       35.220528   0.000000
   34       37.635925   0.000000
   35       38.493283   0.000000
   36       40.633328   0.000000
   37       40.681053   0.000000
   38       41.055197   0.000000
   39       42.396684   0.000000
   40       42.777485   0.000000
 
  0.3750000E+00  0.7500000E-01  0.2500000E-01  0.6000000E-02
    1      -25.648557   1.000000
    2      -25.338641   1.000000
    3      -25.311316   1.000000
    4      -25.264328   1.000000
    5      -24.980348   1.000000
    6      -24.914392   1.000000
    7        1.356789   1.000000
    8        2.572260   1.000000
    9        2.744199   1.000000
   10        4.702237   0.858279
   11        4.984739   0.177490
   12        5.862227   0.000000
   13        6.215509   0.000000
   14        6.694149   0.000000
   15        6.909352   0.000000
   16        8.853473   0.000000
   17        9.131618   0.000000
   18       10.481974   0.000000
   19       19.697108   0.000000
   20       20.858255   0.000000
   21       20.861444   0.000000
   22       21.901821   0.000000
   23       22.529533   0.000000
   24       24.224449   0.000000
   25       24.589865   0.000000
   26       24.728615   0.000000
   27       29.141318   0.000000
   28       29.872585   0.000000
   29       32.037868   0.000000
   30       32.526316   0.000000
   31       33.384182   0.000000
   32       34.514734   0.000000
   33       35.300653   0.000000
   34       37.529583   0.000000
   35       37.953892   0.000000
   36       40.183085   0.000000
   37       40.701623   0.000000
   38       41.223128   0.000000
   39       42.588778   0.000000
   40       42.592050   0.000000
 
  0.4250000E+00  0.7500000E-01  0.2500000E-01  0.6000000E-02
    1      -25.608544   1.000000
    2      -25.403336   1.000000
    3      -25.267848   1.000000
    4      -25.193961   1.000000
    5      -25.049246   1.000000
    6      -24.980425   1.000000
    7        1.800824   1.000000
    8        2.616987   1.000000
    9        3.097049   1.000000
   10        4.369183   0.999696
   11        5.124566   0.027829
   12        5.823604   0.000000
   13        5.865938   0.000000
   14        6.371815   0.000000
   15        7.267203   0.000000
   16        8.447628   0.000000
   17        9.315697   0.000000
   18       10.037031   0.000000
   19       19.869883   0.000000
   20       20.289494   0.000000
   21       21.923860   0.000000
   22       22.352331   0.000000
   23       22.831831   0.000000
   24       24.350011   0.000000
   25       24.404201   0.000000
   26       24.767716   0.000000
   27       29.004366   0.000000
   28       29.711637   0.000000
   29       31.528929   0.000000
   30       32.139627   0.000000
   31       33.719272   0.000000
   32       34.817247   0.000000
   33       36.449986   0.000000
   34       36.926842   0.000000
   35       37.815988   0.000000
   36       39.754871   0.000000
   37       39.996935   0.000000
   38       41.481411   0.000000
   39       41.624454   0.000000
   40       42.674454   0.000000
 
  0.4750000E+00  0.7500000E-01  0.2500000E-01  0.6000000E-02
    1      -25.553936   1.000000
    2      -25.485013   1.000000
    3      -25.194820   1.000000
    4      -25.122036   1.000000
    5      -25.121314   1.000000
    6      -25.050243   1.000000
    7        2.185847   1.000000
    8        2.471479   1.000000
    9        3.514204   1.000000
   10        3.950444   1.000000
   11        5.319619   0.000496
   12        5.567393   0.000000
   13        5.929733   0.000000
   14        6.119165   0.000000
   15        7.647569   0.000000
   16        8.043328   0.000000
   17        9.496551   0.000000
   18        9.719205   0.000000
   19       19.847558   0.000000
   20       19.951220   0.000000
   21       22.732475   0.000000
   22       22.997383   0.000000
   23       23.197227   0.000000
   24       24.017805   0.000000
   25       24.226593   0.000000
   26       24.432225   0.000000
   27       29.516978   0.000000
   28       30.124804   0.000000
   29       30.449531   0.000000
   30       31.001204   0.000000
   31       35.239969   0.000000
   32       35.484885   0.000000
   33       36.181097   0.000000
   34       36.545520   0.000000
   35       38.312936   0.000000
   36       39.284539   0.000000
   37       39.595161   0.000000
   38       40.127386   0.000000
   39       42.136045   0.000000
   40       42.556172   0.000000
 
  0.1250000E+00  0.1250000E+00  0.2500000E-01  0.3000000E-02
    1      -25.702269   1.000000
    2      -25.576379   1.000000
    3      -25.497521   1.000000
    4      -24.916479   1.000000
    5      -24.755169   1.000000
    6      -24.694762   1.000000
    7       -0.451912   1.000000
    8        1.473734   1.000000
    9        1.602867   1.000000
   10        4.795846   0.659354
   11        5.026942   0.110591
   12        5.820570   0.000000
   13        7.653556   0.000000
   14        8.091200   0.000000
   15        8.197878   0.000000
   16        8.809727   0.000000
   17       10.502359   0.000000
   18       14.064907   0.000000
   19       15.140478   0.000000
   20       16.246449   0.000000
   21       20.810826   0.000000
   22       21.490785   0.000000
   23       21.527257   0.000000
   24       24.503299   0.000000
   25       25.374633   0.000000
   26       26.124992   0.000000
   27       27.628234   0.000000
   28       29.111657   0.000000
   29       30.924645   0.000000
   30       32.393541   0.000000
   31       34.162937   0.000000
   32       38.064673   0.000000
   33       38.376916   0.000000
   34       38.831466   0.000000
   35       39.899105   0.000000
   36       40.065238   0.000000
   37       40.913221   0.000000
   38       42.117033   0.000000
   39       42.229959   0.000000
   40       43.481210   0.000000
 
  0.1750000E+00  0.1250000E+00  0.2500000E-01  0.6000000E-02
    1      -25.724501   1.000000
    2      -25.543691   1.000000
    3      -25.445570   1.000000
    4      -25.004004   1.000000
    5      -24.785078   1.000000
    6      -24.702711   1.000000
    7       -0.178919   1.000000
    8        1.630396   1.000000
    9        1.841444   1.000000
   10        4.677740   0.893588
   11        4.964811   0.216502
   12        6.081202   0.000000
   13        7.453784   0.000000
   14        7.629039   0.000000
   15        8.189987   0.000000
   16        8.275636   0.000000
   17       10.470146   0.000000
   18       13.620770   0.000000
   19       15.700716   0.000000
   20       16.921122   0.000000
   21       20.945655   0.000000
   22       21.828599   0.000000
   23       21.969311   0.000000
   24       24.177926   0.000000
   25       25.267185   0.000000
   26       26.716301   0.000000
   27       26.881136   0.000000
   28       29.138203   0.000000
   29       31.280341   0.000000
   30       31.856297   0.000000
   31       33.873836   0.000000
   32       37.147593   0.000000
   33       38.078977   0.000000
   34       39.131290   0.000000
   35       39.582213   0.000000
   36       39.903966   0.000000
   37       40.869041   0.000000
   38       42.151296   0.000000
   39       42.160718   0.000000
   40       43.518640   0.000000
 
  0.2250000E+00  0.1250000E+00  0.2500000E-01  0.6000000E-02
    1      -25.739793   1.000000
    2      -25.501129   1.000000
    3      -25.388419   1.000000
    4      -25.101248   1.000000
    5      -24.824087   1.000000
    6      -24.724412   1.000000
    7        0.162612   1.000000
    8        1.824832   1.000000
    9        2.129362   1.000000
   10        4.593886   0.967026
   11        4.900111   0.371999
   12        6.367178   0.000000
   13        7.086059   0.000000
   14        7.142852   0.000000
   15        7.752166   0.000000
   16        8.384136   0.000000
   17       10.304081   0.000000
   18       12.906000   0.000000
   19       16.540330   0.000000
   20       17.757219   0.000000
   21       21.115329   0.000000