       N       E                     dE             d eps       ncg     rms          rms(c)
DAV:   1    -0.141041801828E+01   -0.14104E+01   -0.11095E+04 18360   0.405E+02
DAV:   2    -0.222774450452E+02   -0.20867E+02   -0.20466E+02 23040   0.562E+01
DAV:   3    -0.223036677667E+02   -0.26223E-01   -0.26213E-01 21960   0.211E+00
DAV:   4    -0.223036756143E+02   -0.78476E-05   -0.78472E-05 29160   0.334E-02
DAV:   5    -0.223036756138E+02    0.46975E-09   -0.21153E-10 22120   0.481E-05
DAV:   6    -0.223036756137E+02    0.74579E-10    0.66150E-13 29320   0.586E-07
   1 F= -.22303676E+02 E0= -.22273395E+02  d E =-.605610E-01
