 vasp.5.4.4.18Apr17-6-g9f103f2a35 (build May 20 2018 16:52:39) complex          
  
 executed on             LinuxIFC date 2022.11.17  22:01:43
 running on   40 total cores
 distrk:  each k-point on   40 cores,    1 groups
 distr:  one band on NCORES_PER_BAND=   1 cores,   40 groups


--------------------------------------------------------------------------------------------------------


 INCAR:
 POTCAR:    PAW Nb_pv 09Jan2002                   

 ----------------------------------------------------------------------------- 
|                                                                             |
|           W    W    AA    RRRRR   N    N  II  N    N   GGGG   !!!           |
|           W    W   A  A   R    R  NN   N  II  NN   N  G    G  !!!           |
|           W    W  A    A  R    R  N N  N  II  N N  N  G       !!!           |
|           W WW W  AAAAAA  RRRRR   N  N N  II  N  N N  G  GGG   !            |
|           WW  WW  A    A  R   R   N   NN  II  N   NN  G    G                |
|           W    W  A    A  R    R  N    N  II  N    N   GGGG   !!!           |
|                                                                             |
|      For optimal performance we recommend to set                            |
|        NCORE= 4 - approx SQRT( number of cores)                             |
|      NCORE specifies how many cores store one orbital (NPAR=cpu/NCORE).     |
|      This setting can  greatly improve the performance of VASP for DFT.     |
|      The default,   NCORE=1            might be grossly inefficient         |
|      on modern multi-core architectures or massively parallel machines.     |
|      Do your own testing !!!!                                               |
|      Unfortunately you need to use the default for GW and RPA calculations. |
|      (for HF NCORE is supported but not extensively tested yet)             |
|                                                                             |
 ----------------------------------------------------------------------------- 

 POTCAR:    PAW Nb_pv 09Jan2002                   
   VRHFIN =Nb: s1d4                                                             
   LEXCH  = CA                                                                  
   EATOM  =  1046.3740 eV,   76.9063 Ry                                         
                                                                                
   TITEL  = PAW Nb_pv 09Jan2002                                                 
   LULTRA =        F    use ultrasoft PP ?                                      
   IUNSCR =        1    unscreen: 0-lin 1-nonlin 2-no                           
   RPACOR =    2.200    partial core radius                                     
   POMASS =   92.910; ZVAL   =   11.000    mass and valenz                      
   RCORE  =    2.750    outmost cutoff radius                                   
   RWIGS  =    2.840; RWIGS  =    1.503    wigner-seitz radius (au A)           
   ENMAX  =  207.263; ENMIN  =  155.447 eV                                      
   RCLOC  =    2.209    cutoff for local pot                                    
   LCOR   =        T    correct aug charges                                     
   LPAW   =        T    paw PP                                                  
   EAUG   =  352.745                                                            
   DEXC   =    0.000                                                            
   RMAX   =    2.814    core radius for proj-oper                               
   RAUG   =    1.300    factor for augmentation sphere                          
   RDEP   =    2.785    radius for radial grids                                 
   RDEPT  =    2.205    core radius for aug-charge                              
                                                                                
   Atomic configuration                                                         
   11 entries                                                                   
     n  l   j            E        occ.                                          
     1  0  0.50    -18704.9804   2.0000                                         
     2  0  0.50     -2619.6337   2.0000                                         
     2  1  1.50     -2343.2033   6.0000                                         
     3  0  0.50      -436.6391   2.0000                                         
     3  1  1.50      -345.9106   6.0000                                         
     3  2  2.50      -196.5794  10.0000                                         
     4  0  0.50       -58.2950   2.0000                                         
     4  1  1.50       -34.5590   6.0000                                         
     4  2  2.50        -3.2208   4.0000                                         
     5  0  0.50        -4.1880   1.0000                                         
     4  3  2.50        -1.3606   0.0000                                         
   Description                                                                  
     l       E           TYP  RCUT    TYP  RCUT                                 
     1    -34.5590103     23  2.600                                             
     1     -1.3605826     23  2.600                                             
     2     -3.2207521     23  2.600                                             
     2     -1.6263194     23  2.600                                             
     0     -4.1879630     23  2.750                                             
     0     20.4087390     23  2.750                                             
  local pseudopotential read in
  partial core-charges read in
  partial kinetic energy density read in
  atomic valenz-charges read in
  non local Contribution for L=           1  read in
    real space projection operators read in
  non local Contribution for L=           1  read in
    real space projection operators read in
  non local Contribution for L=           2  read in
    real space projection operators read in
  non local Contribution for L=           2  read in
    real space projection operators read in
  non local Contribution for L=           0  read in
    real space projection operators read in
  non local Contribution for L=           0  read in
    real space projection operators read in
    PAW grid and wavefunctions read in
 
   number of l-projection  operators is LMAX  =           6
   number of lm-projection operators is LMMAX =          18
 
  PAW Nb_pv 09Jan2002                   :
 energy of atom  1       EATOM=-1046.3740
 kinetic energy error for atom=    0.0109 (will be added to EATOM!!)
 
 
 POSCAR: sic2 Nb                                 
  positions in direct lattice
  No initial velocities read in
 exchange correlation table for  LEXCH =        2
   RHO(1)=    0.500       N(1)  =     2000
   RHO(2)=  100.500       N(2)  =     4000
 


--------------------------------------------------------------------------------------------------------


 ion  position               nearest neighbor table
   1  0.000  0.000  0.000-   2 2.86   2 2.86   2 2.86   2 2.86   2 2.86   2 2.86   2 2.86   2 2.86

   2  0.500  0.500  0.500-   1 2.86   1 2.86   1 2.86   1 2.86   1 2.86   1 2.86   1 2.86   1 2.86

 
  LATTYP: Found a simple cubic cell.
 ALAT       =     3.3008000000
  
  Lattice vectors:
  
 A1 = (   3.3008000000,   0.0000000000,   0.0000000000)
 A2 = (   0.0000000000,   3.3008000000,   0.0000000000)
 A3 = (   0.0000000000,   0.0000000000,   3.3008000000)


Analysis of symmetry for initial positions (statically):
=====================================================================
 Subroutine PRICEL returns following result:
 
  LATTYP: Found a body centered cubic cell.
 ALAT       =     3.3008000000
  
  Lattice vectors:
  
 A1 = (   1.6504000000,   1.6504000000,   1.6504000000)
 A2 = (   1.6504000000,  -1.6504000000,  -1.6504000000)
 A3 = (  -1.6504000000,   1.6504000000,  -1.6504000000)
 
   2 primitive cells build up your supercell.
 

 Routine SETGRP: Setting up the symmetry group for a 
 simple cubic supercell.


 Subroutine GETGRP returns: Found 48 space group operations
 (whereof 48 operations were pure point group operations)
 out of a pool of 48 trial point group operations.


The static configuration has the point symmetry O_h .


Analysis of symmetry for dynamics (positions and initial velocities):
=====================================================================
 Subroutine PRICEL returns following result:
 
  LATTYP: Found a body centered cubic cell.
 ALAT       =     3.3008000000
  
  Lattice vectors:
  
 A1 = (   1.6504000000,   1.6504000000,   1.6504000000)
 A2 = (   1.6504000000,  -1.6504000000,  -1.6504000000)
 A3 = (  -1.6504000000,   1.6504000000,  -1.6504000000)
 
   2 primitive cells build up your supercell.
 

 Routine SETGRP: Setting up the symmetry group for a 
 simple cubic supercell.


 Subroutine GETGRP returns: Found 48 space group operations
 (whereof 48 operations were pure point group operations)
 out of a pool of 48 trial point group operations.


The dynamic configuration has the point symmetry O_h .


 Subroutine INISYM returns: Found 48 space group operations
 (whereof 48 operations are pure point group operations),
 and found     2 'primitive' translations

 
 
 KPOINTS: 20*20*20                                

Automatic generation of k-mesh.
Space group operators:
 irot       det(A)        alpha          n_x          n_y          n_z        tau_x        tau_y        tau_z
    1     1.000000     0.000000     1.000000     0.000000     0.000000     0.000000     0.000000     0.000000
    2    -1.000000     0.000000     1.000000     0.000000     0.000000     0.000000     0.000000     0.000000
    3     1.000000   120.000000    -0.577350    -0.577350    -0.577350     0.000000     0.000000     0.000000
    4    -1.000000   120.000000    -0.577350    -0.577350    -0.577350     0.000000     0.000000     0.000000
    5     1.000000   120.000000     0.577350     0.577350     0.577350     0.000000     0.000000     0.000000
    6    -1.000000   120.000000     0.577350     0.577350     0.577350     0.000000     0.000000     0.000000
    7     1.000000    90.000000     0.000000     0.000000    -1.000000     0.000000     0.000000     0.000000
    8    -1.000000    90.000000     0.000000     0.000000    -1.000000     0.000000     0.000000     0.000000
    9     1.000000   180.000000     0.000000     0.707107     0.707107     0.000000     0.000000     0.000000
   10    -1.000000   180.000000     0.000000     0.707107     0.707107     0.000000     0.000000     0.000000
   11     1.000000    90.000000     0.000000     1.000000     0.000000     0.000000     0.000000     0.000000
   12    -1.000000    90.000000     0.000000     1.000000     0.000000     0.000000     0.000000     0.000000
   13     1.000000   180.000000     0.000000     0.000000     1.000000     0.000000     0.000000     0.000000
   14    -1.000000   180.000000     0.000000     0.000000     1.000000     0.000000     0.000000     0.000000
   15     1.000000   120.000000    -0.577350     0.577350     0.577350     0.000000     0.000000     0.000000
   16    -1.000000   120.000000    -0.577350     0.577350     0.577350     0.000000     0.000000     0.000000
   17     1.000000   120.000000    -0.577350     0.577350    -0.577350     0.000000     0.000000     0.000000
   18    -1.000000   120.000000    -0.577350     0.577350    -0.577350     0.000000     0.000000     0.000000
   19     1.000000    90.000000     0.000000     0.000000     1.000000     0.000000     0.000000     0.000000
   20    -1.000000    90.000000     0.000000     0.000000     1.000000     0.000000     0.000000     0.000000
   21     1.000000    90.000000    -1.000000     0.000000     0.000000     0.000000     0.000000     0.000000
   22    -1.000000    90.000000    -1.000000     0.000000     0.000000     0.000000     0.000000     0.000000
   23     1.000000   180.000000     0.707107     0.000000     0.707107     0.000000     0.000000     0.000000
   24    -1.000000   180.000000     0.707107     0.000000     0.707107     0.000000     0.000000     0.000000
   25     1.000000   120.000000     0.577350    -0.577350     0.577350     0.000000     0.000000     0.000000
   26    -1.000000   120.000000     0.577350    -0.577350     0.577350     0.000000     0.000000     0.000000
   27     1.000000   120.000000    -0.577350    -0.577350     0.577350     0.000000     0.000000     0.000000
   28    -1.000000   120.000000    -0.577350    -0.577350     0.577350     0.000000     0.000000     0.000000
   29     1.000000   180.000000     1.000000     0.000000     0.000000     0.000000     0.000000     0.000000
   30    -1.000000   180.000000     1.000000     0.000000     0.000000     0.000000     0.000000     0.000000
   31     1.000000    90.000000     0.000000    -1.000000     0.000000     0.000000     0.000000     0.000000
   32    -1.000000    90.000000     0.000000    -1.000000     0.000000     0.000000     0.000000     0.000000
   33     1.000000   180.000000     0.707107     0.707107     0.000000     0.000000     0.000000     0.000000
   34    -1.000000   180.000000     0.707107     0.707107     0.000000     0.000000     0.000000     0.000000
   35     1.000000    90.000000     1.000000     0.000000     0.000000     0.000000     0.000000     0.000000
   36    -1.000000    90.000000     1.000000     0.000000     0.000000     0.000000     0.000000     0.000000
   37     1.000000   120.000000     0.577350    -0.577350    -0.577350     0.000000     0.000000     0.000000
   38    -1.000000   120.000000     0.577350    -0.577350    -0.577350     0.000000     0.000000     0.000000
   39     1.000000   180.000000     0.000000     1.000000     0.000000     0.000000     0.000000     0.000000
   40    -1.000000   180.000000     0.000000     1.000000     0.000000     0.000000     0.000000     0.000000
   41     1.000000   120.000000     0.577350     0.577350    -0.577350     0.000000     0.000000     0.000000
   42    -1.000000   120.000000     0.577350     0.577350    -0.577350     0.000000     0.000000     0.000000
   43     1.000000   180.000000     0.000000    -0.707107     0.707107     0.000000     0.000000     0.000000
   44    -1.000000   180.000000     0.000000    -0.707107     0.707107     0.000000     0.000000     0.000000
   45     1.000000   180.000000     0.707107    -0.707107     0.000000     0.000000     0.000000     0.000000
   46    -1.000000   180.000000     0.707107    -0.707107     0.000000     0.000000     0.000000     0.000000
   47     1.000000   180.000000     0.707107     0.000000    -0.707107     0.000000     0.000000     0.000000
   48    -1.000000   180.000000     0.707107     0.000000    -0.707107     0.000000     0.000000     0.000000
 
 Subroutine IBZKPT returns following result:
 ===========================================
 
 Found    220 irreducible k-points:
 
 Following reciprocal coordinates:
            Coordinates               Weight
  0.025000  0.025000  0.025000      8.000000
  0.075000  0.025000  0.025000     24.000000
  0.125000  0.025000  0.025000     24.000000
  0.175000  0.025000  0.025000     24.000000
  0.225000  0.025000  0.025000     24.000000
  0.275000  0.025000  0.025000     24.000000
  0.325000  0.025000  0.025000     24.000000
  0.375000  0.025000  0.025000     24.000000
  0.425000  0.025000  0.025000     24.000000
  0.475000  0.025000  0.025000     24.000000
  0.075000  0.075000  0.025000     24.000000
  0.125000  0.075000  0.025000     48.000000
  0.175000  0.075000  0.025000     48.000000
  0.225000  0.075000  0.025000     48.000000
  0.275000  0.075000  0.025000     48.000000
  0.325000  0.075000  0.025000     48.000000
  0.375000  0.075000  0.025000     48.000000
  0.425000  0.075000  0.025000     48.000000
  0.475000  0.075000  0.025000     48.000000
  0.125000  0.125000  0.025000     24.000000
  0.175000  0.125000  0.025000     48.000000
  0.225000  0.125000  0.025000     48.000000
  0.275000  0.125000  0.025000     48.000000
  0.325000  0.125000  0.025000     48.000000
  0.375000  0.125000  0.025000     48.000000
  0.425000  0.125000  0.025000     48.000000
  0.475000  0.125000  0.025000     48.000000
  0.175000  0.175000  0.025000     24.000000
  0.225000  0.175000  0.025000     48.000000
  0.275000  0.175000  0.025000     48.000000
  0.325000  0.175000  0.025000     48.000000
  0.375000  0.175000  0.025000     48.000000
  0.425000  0.175000  0.025000     48.000000
  0.475000  0.175000  0.025000     48.000000
  0.225000  0.225000  0.025000     24.000000
  0.275000  0.225000  0.025000     48.000000
  0.325000  0.225000  0.025000     48.000000
  0.375000  0.225000  0.025000     48.000000
  0.425000  0.225000  0.025000     48.000000
  0.475000  0.225000  0.025000     48.000000
  0.275000  0.275000  0.025000     24.000000
  0.325000  0.275000  0.025000     48.000000
  0.375000  0.275000  0.025000     48.000000
  0.425000  0.275000  0.025000     48.000000
  0.475000  0.275000  0.025000     48.000000
  0.325000  0.325000  0.025000     24.000000
  0.375000  0.325000  0.025000     48.000000
  0.425000  0.325000  0.025000     48.000000
  0.475000  0.325000  0.025000     48.000000
  0.375000  0.375000  0.025000     24.000000
  0.425000  0.375000  0.025000     48.000000
  0.475000  0.375000  0.025000     48.000000
  0.425000  0.425000  0.025000     24.000000
  0.475000  0.425000  0.025000     48.000000
  0.475000  0.475000  0.025000     24.000000
  0.075000  0.075000  0.075000      8.000000
  0.125000  0.075000  0.075000     24.000000
  0.175000  0.075000  0.075000     24.000000
  0.225000  0.075000  0.075000     24.000000
  0.275000  0.075000  0.075000     24.000000
  0.325000  0.075000  0.075000     24.000000
  0.375000  0.075000  0.075000     24.000000
  0.425000  0.075000  0.075000     24.000000
  0.475000  0.075000  0.075000     24.000000
  0.125000  0.125000  0.075000     24.000000
  0.175000  0.125000  0.075000     48.000000
  0.225000  0.125000  0.075000     48.000000
  0.275000  0.125000  0.075000     48.000000
  0.325000  0.125000  0.075000     48.000000
  0.375000  0.125000  0.075000     48.000000
  0.425000  0.125000  0.075000     48.000000
  0.475000  0.125000  0.075000     48.000000
  0.175000  0.175000  0.075000     24.000000
  0.225000  0.175000  0.075000     48.000000
  0.275000  0.175000  0.075000     48.000000
  0.325000  0.175000  0.075000     48.000000
  0.375000  0.175000  0.075000     48.000000
  0.425000  0.175000  0.075000     48.000000
  0.475000  0.175000  0.075000     48.000000
  0.225000  0.225000  0.075000     24.000000
  0.275000  0.225000  0.075000     48.000000
  0.325000  0.225000  0.075000     48.000000
  0.375000  0.225000  0.075000     48.000000
  0.425000  0.225000  0.075000     48.000000
  0.475000  0.225000  0.075000     48.000000
  0.275000  0.275000  0.075000     24.000000
  0.325000  0.275000  0.075000     48.000000
  0.375000  0.275000  0.075000     48.000000
  0.425000  0.275000  0.075000     48.000000
  0.475000  0.275000  0.075000     48.000000
  0.325000  0.325000  0.075000     24.000000
  0.375000  0.325000  0.075000     48.000000
  0.425000  0.325000  0.075000     48.000000
  0.475000  0.325000  0.075000     48.000000
  0.375000  0.375000  0.075000     24.000000
  0.425000  0.375000  0.075000     48.000000
  0.475000  0.375000  0.075000     48.000000
  0.425000  0.425000  0.075000     24.000000
  0.475000  0.425000  0.075000     48.000000
  0.475000  0.475000  0.075000     24.000000
  0.125000  0.125000  0.125000      8.000000
  0.175000  0.125000  0.125000     24.000000
  0.225000  0.125000  0.125000     24.000000
  0.275000  0.125000  0.125000     24.000000
  0.325000  0.125000  0.125000     24.000000
  0.375000  0.125000  0.125000     24.000000
  0.425000  0.125000  0.125000     24.000000
  0.475000  0.125000  0.125000     24.000000
  0.175000  0.175000  0.125000     24.000000
  0.225000  0.175000  0.125000     48.000000
  0.275000  0.175000  0.125000     48.000000
  0.325000  0.175000  0.125000     48.000000
  0.375000  0.175000  0.125000     48.000000
  0.425000  0.175000  0.125000     48.000000
  0.475000  0.175000  0.125000     48.000000
  0.225000  0.225000  0.125000     24.000000
  0.275000  0.225000  0.125000     48.000000
  0.325000  0.225000  0.125000     48.000000
  0.375000  0.225000  0.125000     48.000000
  0.425000  0.225000  0.125000     48.000000
  0.475000  0.225000  0.125000     48.000000
  0.275000  0.275000  0.125000     24.000000
  0.325000  0.275000  0.125000     48.000000
  0.375000  0.275000  0.125000     48.000000
  0.425000  0.275000  0.125000     48.000000
  0.475000  0.275000  0.125000     48.000000
  0.325000  0.325000  0.125000     24.000000
  0.375000  0.325000  0.125000     48.000000
  0.425000  0.325000  0.125000     48.000000
  0.475000  0.325000  0.125000     48.000000
  0.375000  0.375000  0.125000     24.000000
  0.425000  0.375000  0.125000     48.000000
  0.475000  0.375000  0.125000     48.000000
  0.425000  0.425000  0.125000     24.000000
  0.475000  0.425000  0.125000     48.000000
  0.475000  0.475000  0.125000     24.000000
  0.175000  0.175000  0.175000      8.000000
  0.225000  0.175000  0.175000     24.000000
  0.275000  0.175000  0.175000     24.000000
  0.325000  0.175000  0.175000     24.000000
  0.375000  0.175000  0.175000     24.000000
  0.425000  0.175000  0.175000     24.000000
  0.475000  0.175000  0.175000     24.000000
  0.225000  0.225000  0.175000     24.000000
  0.275000  0.225000  0.175000     48.000000
  0.325000  0.225000  0.175000     48.000000
  0.375000  0.225000  0.175000     48.000000
  0.425000  0.225000  0.175000     48.000000
  0.475000  0.225000  0.175000     48.000000
  0.275000  0.275000  0.175000     24.000000
  0.325000  0.275000  0.175000     48.000000
  0.375000  0.275000  0.175000     48.000000
  0.425000  0.275000  0.175000     48.000000
  0.475000  0.275000  0.175000     48.000000
  0.325000  0.325000  0.175000     24.000000
  0.375000  0.325000  0.175000     48.000000
  0.425000  0.325000  0.175000     48.000000
  0.475000  0.325000  0.175000     48.000000
  0.375000  0.375000  0.175000     24.000000
  0.425000  0.375000  0.175000     48.000000
  0.475000  0.375000  0.175000     48.000000
  0.425000  0.425000  0.175000     24.000000
  0.475000  0.425000  0.175000     48.000000
  0.475000  0.475000  0.175000     24.000000
  0.225000  0.225000  0.225000      8.000000
  0.275000  0.225000  0.225000     24.000000
  0.325000  0.225000  0.225000     24.000000
  0.375000  0.225000  0.225000     24.000000
  0.425000  0.225000  0.225000     24.000000
  0.475000  0.225000  0.225000     24.000000
  0.275000  0.275000  0.225000     24.000000
  0.325000  0.275000  0.225000     48.000000
  0.375000  0.275000  0.225000     48.000000
  0.425000  0.275000  0.225000     48.000000
  0.475000  0.275000  0.225000     48.000000
  0.325000  0.325000  0.225000     24.000000
  0.375000  0.325000  0.225000     48.000000
  0.425000  0.325000  0.225000     48.000000
  0.475000  0.325000  0.225000     48.000000
  0.375000  0.375000  0.225000     24.000000
  0.425000  0.375000  0.225000     48.000000
  0.475000  0.375000  0.225000     48.000000
  0.425000  0.425000  0.225000     24.000000
  0.475000  0.425000  0.225000     48.000000
  0.475000  0.475000  0.225000     24.000000
  0.275000  0.275000  0.275000      8.000000
  0.325000  0.275000  0.275000     24.000000
  0.375000  0.275000  0.275000     24.000000
  0.425000  0.275000  0.275000     24.000000
  0.475000  0.275000  0.275000     24.000000
  0.325000  0.325000  0.275000     24.000000
  0.375000  0.325000  0.275000     48.000000
  0.425000  0.325000  0.275000     48.000000
  0.475000  0.325000  0.275000     48.000000
  0.375000  0.375000  0.275000     24.000000
  0.425000  0.375000  0.275000     48.000000
  0.475000  0.375000  0.275000     48.000000
  0.425000  0.425000  0.275000     24.000000
  0.475000  0.425000  0.275000     48.000000
  0.475000  0.475000  0.275000     24.000000
  0.325000  0.325000  0.325000      8.000000
  0.375000  0.325000  0.325000     24.000000
  0.425000  0.325000  0.325000     24.000000
  0.475000  0.325000  0.325000     24.000000
  0.375000  0.375000  0.325000     24.000000
  0.425000  0.375000  0.325000     48.000000
  0.475000  0.375000  0.325000     48.000000
  0.425000  0.425000  0.325000     24.000000
  0.475000  0.425000  0.325000     48.000000
  0.475000  0.475000  0.325000     24.000000
  0.375000  0.375000  0.375000      8.000000
  0.425000  0.375000  0.375000     24.000000
  0.475000  0.375000  0.375000     24.000000
  0.425000  0.425000  0.375000     24.000000
  0.475000  0.425000  0.375000     48.000000
  0.475000  0.475000  0.375000     24.000000
  0.425000  0.425000  0.425000      8.000000
  0.475000  0.425000  0.425000     24.000000
  0.475000  0.475000  0.425000     24.000000
  0.475000  0.475000  0.475000      8.000000
 
 Following cartesian coordinates:
            Coordinates               Weight
  0.025000  0.025000  0.025000      8.000000
  0.075000  0.025000  0.025000     24.000000
  0.125000  0.025000  0.025000     24.000000
  0.175000  0.025000  0.025000     24.000000
  0.225000  0.025000  0.025000     24.000000
  0.275000  0.025000  0.025000     24.000000
  0.325000  0.025000  0.025000     24.000000
  0.375000  0.025000  0.025000     24.000000
  0.425000  0.025000  0.025000     24.000000
  0.475000  0.025000  0.025000     24.000000
  0.075000  0.075000  0.025000     24.000000
  0.125000  0.075000  0.025000     48.000000
  0.175000  0.075000  0.025000     48.000000
  0.225000  0.075000  0.025000     48.000000
  0.275000  0.075000  0.025000     48.000000
  0.325000  0.075000  0.025000     48.000000
  0.375000  0.075000  0.025000     48.000000
  0.425000  0.075000  0.025000     48.000000
  0.475000  0.075000  0.025000     48.000000
  0.125000  0.125000  0.025000     24.000000
  0.175000  0.125000  0.025000     48.000000
  0.225000  0.125000  0.025000     48.000000
  0.275000  0.125000  0.025000     48.000000
  0.325000  0.125000  0.025000     48.000000
  0.375000  0.125000  0.025000     48.000000
  0.425000  0.125000  0.025000     48.000000
  0.475000  0.125000  0.025000     48.000000
  0.175000  0.175000  0.025000     24.000000
  0.225000  0.175000  0.025000     48.000000
  0.275000  0.175000  0.025000     48.000000
  0.325000  0.175000  0.025000     48.000000
  0.375000  0.175000  0.025000     48.000000
  0.425000  0.175000  0.025000     48.000000
  0.475000  0.175000  0.025000     48.000000
  0.225000  0.225000  0.025000     24.000000
  0.275000  0.225000  0.025000     48.000000
  0.325000  0.225000  0.025000     48.000000
  0.375000  0.225000  0.025000     48.000000
  0.425000  0.225000  0.025000     48.000000
  0.475000  0.225000  0.025000     48.000000
  0.275000  0.275000  0.025000     24.000000
  0.325000  0.275000  0.025000     48.000000
  0.375000  0.275000  0.025000     48.000000
  0.425000  0.275000  0.025000     48.000000
  0.475000  0.275000  0.025000     48.000000
  0.325000  0.325000  0.025000     24.000000
  0.375000  0.325000  0.025000     48.000000
  0.425000  0.325000  0.025000     48.000000
  0.475000  0.325000  0.025000     48.000000
  0.375000  0.375000  0.025000     24.000000
  0.425000  0.375000  0.025000     48.000000
  0.475000  0.375000  0.025000     48.000000
  0.425000  0.425000  0.025000     24.000000
  0.475000  0.425000  0.025000     48.000000
  0.475000  0.475000  0.025000     24.000000
  0.075000  0.075000  0.075000      8.000000
  0.125000  0.075000  0.075000     24.000000
  0.175000  0.075000  0.075000     24.000000
  0.225000  0.075000  0.075000     24.000000
  0.275000  0.075000  0.075000     24.000000
  0.325000  0.075000  0.075000     24.000000
  0.375000  0.075000  0.075000     24.000000
  0.425000  0.075000  0.075000     24.000000
  0.475000  0.075000  0.075000     24.000000
  0.125000  0.125000  0.075000     24.000000
  0.175000  0.125000  0.075000     48.000000
  0.225000  0.125000  0.075000     48.000000
  0.275000  0.125000  0.075000     48.000000
  0.325000  0.125000  0.075000     48.000000
  0.375000  0.125000  0.075000     48.000000
  0.425000  0.125000  0.075000     48.000000
  0.475000  0.125000  0.075000     48.000000
  0.175000  0.175000  0.075000     24.000000
  0.225000  0.175000  0.075000     48.000000
  0.275000  0.175000  0.075000     48.000000
  0.325000  0.175000  0.075000     48.000000
  0.375000  0.175000  0.075000     48.000000
  0.425000  0.175000  0.075000     48.000000
  0.475000  0.175000  0.075000     48.000000
  0.225000  0.225000  0.075000     24.000000
  0.275000  0.225000  0.075000     48.000000
  0.325000  0.225000  0.075000     48.000000
  0.375000  0.225000  0.075000     48.000000
  0.425000  0.225000  0.075000     48.000000
  0.475000  0.225000  0.075000     48.000000
  0.275000  0.275000  0.075000     24.000000
  0.325000  0.275000  0.075000     48.000000
  0.375000  0.275000  0.075000     48.000000
  0.425000  0.275000  0.075000     48.000000
  0.475000  0.275000  0.075000     48.000000
  0.325000  0.325000  0.075000     24.000000
  0.375000  0.325000  0.075000     48.000000
  0.425000  0.325000  0.075000     48.000000
  0.475000  0.325000  0.075000     48.000000
  0.375000  0.375000  0.075000     24.000000
  0.425000  0.375000  0.075000     48.000000
  0.475000  0.375000  0.075000     48.000000
  0.425000  0.425000  0.075000     24.000000
  0.475000  0.425000  0.075000     48.000000
  0.475000  0.475000  0.075000     24.000000
  0.125000  0.125000  0.125000      8.000000
  0.175000  0.125000  0.125000     24.000000
  0.225000  0.125000  0.125000     24.000000
  0.275000  0.125000  0.125000     24.000000
  0.325000  0.125000  0.125000     24.000000
  0.375000  0.125000  0.125000     24.000000
  0.425000  0.125000  0.125000     24.000000
  0.475000  0.125000  0.125000     24.000000
  0.175000  0.175000  0.125000     24.000000
  0.225000  0.175000  0.125000     48.000000
  0.275000  0.175000  0.125000     48.000000
  0.325000  0.175000  0.125000     48.000000
  0.375000  0.175000  0.125000     48.000000
  0.425000  0.175000  0.125000     48.000000
  0.475000  0.175000  0.125000     48.000000
  0.225000  0.225000  0.125000     24.000000
  0.275000  0.225000  0.125000     48.000000
  0.325000  0.225000  0.125000     48.000000
  0.375000  0.225000  0.125000     48.000000
  0.425000  0.225000  0.125000     48.000000
  0.475000  0.225000  0.125000     48.000000
  0.275000  0.275000  0.125000     24.000000
  0.325000  0.275000  0.125000     48.000000
  0.375000  0.275000  0.125000     48.000000
  0.425000  0.275000  0.125000     48.000000
  0.475000  0.275000  0.125000     48.000000
  0.325000  0.325000  0.125000     24.000000
  0.375000  0.325000  0.125000     48.000000
  0.425000  0.325000  0.125000     48.000000
  0.475000  0.325000  0.125000     48.000000
  0.375000  0.375000  0.125000     24.000000
  0.425000  0.375000  0.125000     48.000000
  0.475000  0.375000  0.125000     48.000000
  0.425000  0.425000  0.125000     24.000000
  0.475000  0.425000  0.125000     48.000000
  0.475000  0.475000  0.125000     24.000000
  0.175000  0.175000  0.175000      8.000000
  0.225000  0.175000  0.175000     24.000000
  0.275000  0.175000  0.175000     24.000000
  0.325000  0.175000  0.175000     24.000000
  0.375000  0.175000  0.175000     24.000000
  0.425000  0.175000  0.175000     24.000000
  0.475000  0.175000  0.175000     24.000000
  0.225000  0.225000  0.175000     24.000000
  0.275000  0.225000  0.175000     48.000000
  0.325000  0.225000  0.175000     48.000000
  0.375000  0.225000  0.175000     48.000000
  0.425000  0.225000  0.175000     48.000000
  0.475000  0.225000  0.175000     48.000000
  0.275000  0.275000  0.175000     24.000000
  0.325000  0.275000  0.175000     48.000000
  0.375000  0.275000  0.175000     48.000000
  0.425000  0.275000  0.175000     48.000000
  0.475000  0.275000  0.175000     48.000000
  0.325000  0.325000  0.175000     24.000000
  0.375000  0.325000  0.175000     48.000000
  0.425000  0.325000  0.175000     48.000000
  0.475000  0.325000  0.175000     48.000000
  0.375000  0.375000  0.175000     24.000000
  0.425000  0.375000  0.175000     48.000000
  0.475000  0.375000  0.175000     48.000000
  0.425000  0.425000  0.175000     24.000000
  0.475000  0.425000  0.175000     48.000000
  0.475000  0.475000  0.175000     24.000000
  0.225000  0.225000  0.225000      8.000000
  0.275000  0.225000  0.225000     24.000000
  0.325000  0.225000  0.225000     24.000000
  0.375000  0.225000  0.225000     24.000000
  0.425000  0.225000  0.225000     24.000000
  0.475000  0.225000  0.225000     24.000000
  0.275000  0.275000  0.225000     24.000000
  0.325000  0.275000  0.225000     48.000000
  0.375000  0.275000  0.225000     48.000000
  0.425000  0.275000  0.225000     48.000000
  0.475000  0.275000  0.225000     48.000000
  0.325000  0.325000  0.225000     24.000000
  0.375000  0.325000  0.225000     48.000000
  0.425000  0.325000  0.225000     48.000000
  0.475000  0.325000  0.225000     48.000000
  0.375000  0.375000  0.225000     24.000000
  0.425000  0.375000  0.225000     48.000000
  0.475000  0.375000  0.225000     48.000000
  0.425000  0.425000  0.225000     24.000000
  0.475000  0.425000  0.225000     48.000000
  0.475000  0.475000  0.225000     24.000000
  0.275000  0.275000  0.275000      8.000000
  0.325000  0.275000  0.275000     24.000000
  0.375000  0.275000  0.275000     24.000000
  0.425000  0.275000  0.275000     24.000000
  0.475000  0.275000  0.275000     24.000000
  0.325000  0.325000  0.275000     24.000000
  0.375000  0.325000  0.275000     48.000000
  0.425000  0.325000  0.275000     48.000000
  0.475000  0.325000  0.275000     48.000000
  0.375000  0.375000  0.275000     24.000000
  0.425000  0.375000  0.275000     48.000000
  0.475000  0.375000  0.275000     48.000000
  0.425000  0.425000  0.275000     24.000000
  0.475000  0.425000  0.275000     48.000000
  0.475000  0.475000  0.275000     24.000000
  0.325000  0.325000  0.325000      8.000000
  0.375000  0.325000  0.325000     24.000000
  0.425000  0.325000  0.325000     24.000000
  0.475000  0.325000  0.325000     24.000000
  0.375000  0.375000  0.325000     24.000000
  0.425000  0.375000  0.325000     48.000000
  0.475000  0.375000  0.325000     48.000000
  0.425000  0.425000  0.325000     24.000000
  0.475000  0.425000  0.325000     48.000000
  0.475000  0.475000  0.325000     24.000000
  0.375000  0.375000  0.375000      8.000000
  0.425000  0.375000  0.375000     24.000000
  0.475000  0.375000  0.375000     24.000000
  0.425000  0.425000  0.375000     24.000000
  0.475000  0.425000  0.375000     48.000000
  0.475000  0.475000  0.375000     24.000000
  0.425000  0.425000  0.425000      8.000000
  0.475000  0.425000  0.425000     24.000000
  0.475000  0.475000  0.425000     24.000000
  0.475000  0.475000  0.475000      8.000000
 


--------------------------------------------------------------------------------------------------------




 Dimension of arrays:
   k-points           NKPTS =    220   k-points in BZ     NKDIM =    220   number of bands    NBANDS=     40
   number of dos      NEDOS =    301   number of ions     NIONS =      2
   non local maximal  LDIM  =      6   non local SUM 2l+1 LMDIM =     18
   total plane-waves  NPLWV =   2744
   max r-space proj   IRMAX =      1   max aug-charges    IRDMAX=   4943
   dimension x,y,z NGX =    14 NGY =   14 NGZ =   14
   dimension x,y,z NGXF=    28 NGYF=   28 NGZF=   28
   support grid    NGXF=    28 NGYF=   28 NGZF=   28
   ions per type =               2
   NGX,Y,Z   is equivalent  to a cutoff of   7.05,  7.05,  7.05 a.u.
   NGXF,Y,Z  is equivalent  to a cutoff of  14.10, 14.10, 14.10 a.u.

 SYSTEM =  Nb gaussian                             
 POSCAR =  sic2 Nb                                 

 Startparameter for this run:
   NWRITE =      2    write-flag & timer
   PREC   = normal    normal or accurate (medium, high low for compatibility)
   ISTART =      0    job   : 0-new  1-cont  2-samecut
   ICHARG =     11    charge: 1-file 2-atom 10-const
   ISPIN  =      1    spin polarized calculation?
   LNONCOLLINEAR =      F non collinear calculations
   LSORBIT =      F    spin-orbit coupling
   INIWAV =      1    electr: 0-lowe 1-rand  2-diag
   LASPH  =      F    aspherical Exc in radial PAW
   METAGGA=      F    non-selfconsistent MetaGGA calc.

 Electronic Relaxation 1
   ENCUT  =  300.0 eV  22.05 Ry    4.70 a.u.   4.66  4.66  4.66*2*pi/ulx,y,z
   ENINI  =  300.0     initial cutoff
   ENAUG  =  352.7 eV  augmentation charge cutoff
   NELM   =     60;   NELMIN=  2; NELMDL= -5     # of ELM steps 
   EDIFF  = 0.1E-06   stopping-criterion for ELM
   LREAL  =      F    real-space projection
   NLSPLINE    = F    spline interpolate recip. space projectors
   LCOMPAT=      F    compatible to vasp.4.4
   GGA_COMPAT  = T    GGA compatible to vasp.4.4-vasp.4.6
   LMAXPAW     = -100 max onsite density
   LMAXMIX     =    2 max onsite mixed and CHGCAR
   VOSKOWN=      0    Vosko Wilk Nusair interpolation
   ROPT   =    0.00000
 Ionic relaxation
   EDIFFG = 0.1E-05   stopping-criterion for IOM
   NSW    =      0    number of steps for IOM
   NBLOCK =      1;   KBLOCK =      1    inner block; outer block 
   IBRION =     -1    ionic relax: 0-MD 1-quasi-New 2-CG
   NFREE  =      0    steps in history (QN), initial steepest desc. (CG)
   ISIF   =      2    stress and relaxation
   IWAVPR =     10    prediction:  0-non 1-charg 2-wave 3-comb
   ISYM   =      2    0-nonsym 1-usesym 2-fastsym
   LCORR  =      T    Harris-Foulkes like correction to forces

   POTIM  = 0.5000    time-step for ionic-motion
   TEIN   =    0.0    initial temperature
   TEBEG  =    0.0;   TEEND  =   0.0 temperature during run
   SMASS  =  -3.00    Nose mass-parameter (am)
   estimated Nose-frequenzy (Omega)   =  0.10E-29 period in steps =****** mass=  -0.249E-27a.u.
   SCALEE = 1.0000    scale energy and forces
   NPACO  =    256;   APACO  = 16.0  distance and # of slots for P.C.
   PSTRESS=    0.0 pullay stress

  Mass of Ions in am
   POMASS =  92.91
  Ionic Valenz
   ZVAL   =  11.00
  Atomic Wigner-Seitz radii
   RWIGS  =  -1.00
  virtual crystal weights 
   VCA    =   1.00
   NELECT =      22.0000    total number of electrons
   NUPDOWN=      -1.0000    fix difference up-down

 DOS related values:
   EMIN   =  10.00;   EMAX   =-10.00  energy-range for DOS
   EFERMI =   0.00
   ISMEAR =     0;   SIGMA  =   0.20  broadening in eV -4-tet -1-fermi 0-gaus

 Electronic relaxation 2 (details)
   IALGO  =     38    algorithm
   LDIAG  =      T    sub-space diagonalisation (order eigenvalues)
   LSUBROT=      F    optimize rotation matrix (better conditioning)
   TURBO    =      0    0=normal 1=particle mesh
   IRESTART =      0    0=no restart 2=restart with 2 vectors
   NREBOOT  =      0    no. of reboots
   NMIN     =      0    reboot dimension
   EREF     =   0.00    reference energy to select bands
   IMIX   =      4    mixing-type and parameters
     AMIX     =   0.40;   BMIX     =  1.00
     AMIX_MAG =   1.60;   BMIX_MAG =  1.00
     AMIN     =   0.10
     WC   =   100.;   INIMIX=   1;  MIXPRE=   1;  MAXMIX= -45

 Intra band minimization:
   WEIMIN = 0.0000     energy-eigenvalue tresh-hold
   EBREAK =  0.63E-09  absolut break condition
   DEPER  =   0.30     relativ break condition  

   TIME   =   0.40     timestep for ELM

  volume/ion in A,a.u.               =      17.98       121.35
  Fermi-wavevector in a.u.,A,eV,Ry     =   1.389728  2.626205 26.277534  1.931344
  Thomas-Fermi vector in A             =   2.513731
 
 Write flags
   LWAVE        =      T    write WAVECAR
   LDOWNSAMPLE  =      F    k-point downsampling of WAVECAR
   LCHARG       =      F    write CHGCAR
   LVTOT        =      F    write LOCPOT, total local potential
   LVHAR        =      F    write LOCPOT, Hartree potential only
   LELF         =      F    write electronic localiz. function (ELF)
   LORBIT       =      0    0 simple, 1 ext, 2 COOP (PROOUT), +10 PAW based schemes


 Dipole corrections
   LMONO  =      F    monopole corrections only (constant potential shift)
   LDIPOL =      F    correct potential (dipole corrections)
   IDIPOL =      0    1-x, 2-y, 3-z, 4-all directions 
   EPSILON=  1.0000000 bulk dielectric constant

 Exchange correlation treatment:
   GGA     =    --    GGA type
   LEXCH   =     2    internal setting for exchange type
   VOSKOWN=      0    Vosko Wilk Nusair interpolation
   LHFCALC =     F    Hartree Fock is set to
   LHFONE  =     F    Hartree Fock one center treatment
   AEXX    =    0.0000 exact exchange contribution

 Linear response parameters
   LEPSILON=     F    determine dielectric tensor
   LRPA    =     F    only Hartree local field effects (RPA)
   LNABLA  =     F    use nabla operator in PAW spheres
   LVEL    =     F    velocity operator in full k-point grid
   LINTERFAST=   F  fast interpolation
   KINTER  =     0    interpolate to denser k-point grid
   CSHIFT  =0.1000    complex shift for real part using Kramers Kronig
   OMEGAMAX=  -1.0    maximum frequency
   DEG_THRESHOLD= 0.2000000E-02 threshold for treating states as degnerate
   RTIME   =   -0.100 relaxation time in fs
  (WPLASMAI=    0.000 imaginary part of plasma frequency in eV, 0.658/RTIME)
   DFIELD  = 0.0000000 0.0000000 0.0000000 field for delta impulse in time
 
 Orbital magnetization related:
   ORBITALMAG=     F  switch on orbital magnetization
   LCHIMAG   =     F  perturbation theory with respect to B field
   DQ        =  0.001000  dq finite difference perturbation B field
   LLRAUG    =     F  two centre corrections for induced B field



--------------------------------------------------------------------------------------------------------


 Static calculation
 charge density and potential remain constant during run
 non-spin polarized calculation
 Variant of blocked Davidson
 Davidson routine will perform the subspace rotation
 perform sub-space diagonalisation
    after iterative eigenvector-optimisation
 no mixing
 using additional bands           29
 reciprocal scheme for non local part
 use partial core corrections
 calculate Harris-corrections to forces 
   (improved forces if not selfconsistent)
 use of overlap-Matrix (Vanderbilt PP)
 Gauss-broadening in eV      SIGMA  =   0.20


--------------------------------------------------------------------------------------------------------


  energy-cutoff  :      300.00
  volume of cell :       35.96
      direct lattice vectors                 reciprocal lattice vectors
     3.300800000  0.000000000  0.000000000     0.302956859  0.000000000  0.000000000
     0.000000000  3.300800000  0.000000000     0.000000000  0.302956859  0.000000000
     0.000000000  0.000000000  3.300800000     0.000000000  0.000000000  0.302956859

  length of vectors
     3.300800000  3.300800000  3.300800000     0.302956859  0.302956859  0.302956859


 
 k-points in units of 2pi/SCALE and weight: 20*20*20                                
   0.02500000  0.02500000  0.02500000       0.001
   0.07500000  0.02500000  0.02500000       0.003
   0.12500000  0.02500000  0.02500000       0.003
   0.17500000  0.02500000  0.02500000       0.003
   0.22500000  0.02500000  0.02500000       0.003
   0.27500000  0.02500000  0.02500000       0.003
   0.32500000  0.02500000  0.02500000       0.003
   0.37500000  0.02500000  0.02500000       0.003
   0.42500000  0.02500000  0.02500000       0.003
   0.47500000  0.02500000  0.02500000       0.003
   0.07500000  0.07500000  0.02500000       0.003
   0.12500000  0.07500000  0.02500000       0.006
   0.17500000  0.07500000  0.02500000       0.006
   0.22500000  0.07500000  0.02500000       0.006
   0.27500000  0.07500000  0.02500000       0.006
   0.32500000  0.07500000  0.02500000       0.006
   0.37500000  0.07500000  0.02500000       0.006
   0.42500000  0.07500000  0.02500000       0.006
   0.47500000  0.07500000  0.02500000       0.006
   0.12500000  0.12500000  0.02500000       0.003
   0.17500000  0.12500000  0.02500000       0.006
   0.22500000  0.12500000  0.02500000       0.006
   0.27500000  0.12500000  0.02500000       0.006
   0.32500000  0.12500000  0.02500000       0.006
   0.37500000  0.12500000  0.02500000       0.006
   0.42500000  0.12500000  0.02500000       0.006
   0.47500000  0.12500000  0.02500000       0.006
   0.17500000  0.17500000  0.02500000       0.003
   0.22500000  0.17500000  0.02500000       0.006
   0.27500000  0.17500000  0.02500000       0.006
   0.32500000  0.17500000  0.02500000       0.006
   0.37500000  0.17500000  0.02500000       0.006
   0.42500000  0.17500000  0.02500000       0.006
   0.47500000  0.17500000  0.02500000       0.006
   0.22500000  0.22500000  0.02500000       0.003
   0.27500000  0.22500000  0.02500000       0.006
   0.32500000  0.22500000  0.02500000       0.006
   0.37500000  0.22500000  0.02500000       0.006
   0.42500000  0.22500000  0.02500000       0.006
   0.47500000  0.22500000  0.02500000       0.006
   0.27500000  0.27500000  0.02500000       0.003
   0.32500000  0.27500000  0.02500000       0.006
   0.37500000  0.27500000  0.02500000       0.006
   0.42500000  0.27500000  0.02500000       0.006
   0.47500000  0.27500000  0.02500000       0.006
   0.32500000  0.32500000  0.02500000       0.003
   0.37500000  0.32500000  0.02500000       0.006
   0.42500000  0.32500000  0.02500000       0.006
   0.47500000  0.32500000  0.02500000       0.006
   0.37500000  0.37500000  0.02500000       0.003
   0.42500000  0.37500000  0.02500000       0.006
   0.47500000  0.37500000  0.02500000       0.006
   0.42500000  0.42500000  0.02500000       0.003
   0.47500000  0.42500000  0.02500000       0.006
   0.47500000  0.47500000  0.02500000       0.003
   0.07500000  0.07500000  0.07500000       0.001
   0.12500000  0.07500000  0.07500000       0.003
   0.17500000  0.07500000  0.07500000       0.003
   0.22500000  0.07500000  0.07500000       0.003
   0.27500000  0.07500000  0.07500000       0.003
   0.32500000  0.07500000  0.07500000       0.003
   0.37500000  0.07500000  0.07500000       0.003
   0.42500000  0.07500000  0.07500000       0.003
   0.47500000  0.07500000  0.07500000       0.003
   0.12500000  0.12500000  0.07500000       0.003
   0.17500000  0.12500000  0.07500000       0.006
   0.22500000  0.12500000  0.07500000       0.006
   0.27500000  0.12500000  0.07500000       0.006
   0.32500000  0.12500000  0.07500000       0.006
   0.37500000  0.12500000  0.07500000       0.006
   0.42500000  0.12500000  0.07500000       0.006
   0.47500000  0.12500000  0.07500000       0.006
   0.17500000  0.17500000  0.07500000       0.003
   0.22500000  0.17500000  0.07500000       0.006
   0.27500000  0.17500000  0.07500000       0.006
   0.32500000  0.17500000  0.07500000       0.006
   0.37500000  0.17500000  0.07500000       0.006
   0.42500000  0.17500000  0.07500000       0.006
   0.47500000  0.17500000  0.07500000       0.006
   0.22500000  0.22500000  0.07500000       0.003
   0.27500000  0.22500000  0.07500000       0.006
   0.32500000  0.22500000  0.07500000       0.006
   0.37500000  0.22500000  0.07500000       0.006
   0.42500000  0.22500000  0.07500000       0.006
   0.47500000  0.22500000  0.07500000       0.006
   0.27500000  0.27500000  0.07500000       0.003
   0.32500000  0.27500000  0.07500000       0.006
   0.37500000  0.27500000  0.07500000       0.006
   0.42500000  0.27500000  0.07500000       0.006
   0.47500000  0.27500000  0.07500000       0.006
   0.32500000  0.32500000  0.07500000       0.003
   0.37500000  0.32500000  0.07500000       0.006
   0.42500000  0.32500000  0.07500000       0.006
   0.47500000  0.32500000  0.07500000       0.006
   0.37500000  0.37500000  0.07500000       0.003
   0.42500000  0.37500000  0.07500000       0.006
   0.47500000  0.37500000  0.07500000       0.006
   0.42500000  0.42500000  0.07500000       0.003
   0.47500000  0.42500000  0.07500000       0.006
   0.47500000  0.47500000  0.07500000       0.003
   0.12500000  0.12500000  0.12500000       0.001
   0.17500000  0.12500000  0.12500000       0.003
   0.22500000  0.12500000  0.12500000       0.003
   0.27500000  0.12500000  0.12500000       0.003
   0.32500000  0.12500000  0.12500000       0.003
   0.37500000  0.12500000  0.12500000       0.003
   0.42500000  0.12500000  0.12500000       0.003
   0.47500000  0.12500000  0.12500000       0.003
   0.17500000  0.17500000  0.12500000       0.003
   0.22500000  0.17500000  0.12500000       0.006
   0.27500000  0.17500000  0.12500000       0.006
   0.32500000  0.17500000  0.12500000       0.006
   0.37500000  0.17500000  0.12500000       0.006
   0.42500000  0.17500000  0.12500000       0.006
   0.47500000  0.17500000  0.12500000       0.006
   0.22500000  0.22500000  0.12500000       0.003
   0.27500000  0.22500000  0.12500000       0.006
   0.32500000  0.22500000  0.12500000       0.006
   0.37500000  0.22500000  0.12500000       0.006
   0.42500000  0.22500000  0.12500000       0.006
   0.47500000  0.22500000  0.12500000       0.006
   0.27500000  0.27500000  0.12500000       0.003
   0.32500000  0.27500000  0.12500000       0.006
   0.37500000  0.27500000  0.12500000       0.006
   0.42500000  0.27500000  0.12500000       0.006
   0.47500000  0.27500000  0.12500000       0.006
   0.32500000  0.32500000  0.12500000       0.003
   0.37500000  0.32500000  0.12500000       0.006
   0.42500000  0.32500000  0.12500000       0.006
   0.47500000  0.32500000  0.12500000       0.006
   0.37500000  0.37500000  0.12500000       0.003
   0.42500000  0.37500000  0.12500000       0.006
   0.47500000  0.37500000  0.12500000       0.006
   0.42500000  0.42500000  0.12500000       0.003
   0.47500000  0.42500000  0.12500000       0.006
   0.47500000  0.47500000  0.12500000       0.003
   0.17500000  0.17500000  0.17500000       0.001
   0.22500000  0.17500000  0.17500000       0.003
   0.27500000  0.17500000  0.17500000       0.003
   0.32500000  0.17500000  0.17500000       0.003
   0.37500000  0.17500000  0.17500000       0.003
   0.42500000  0.17500000  0.17500000       0.003
   0.47500000  0.17500000  0.17500000       0.003
   0.22500000  0.22500000  0.17500000       0.003
   0.27500000  0.22500000  0.17500000       0.006
   0.32500000  0.22500000  0.17500000       0.006
   0.37500000  0.22500000  0.17500000       0.006
   0.42500000  0.22500000  0.17500000       0.006
   0.47500000  0.22500000  0.17500000       0.006
   0.27500000  0.27500000  0.17500000       0.003
   0.32500000  0.27500000  0.17500000       0.006
   0.37500000  0.27500000  0.17500000       0.006
   0.42500000  0.27500000  0.17500000       0.006
   0.47500000  0.27500000  0.17500000       0.006
   0.32500000  0.32500000  0.17500000       0.003
   0.37500000  0.32500000  0.17500000       0.006
   0.42500000  0.32500000  0.17500000       0.006
   0.47500000  0.32500000  0.17500000       0.006
   0.37500000  0.37500000  0.17500000       0.003
   0.42500000  0.37500000  0.17500000       0.006
   0.47500000  0.37500000  0.17500000       0.006
   0.42500000  0.42500000  0.17500000       0.003
   0.47500000  0.42500000  0.17500000       0.006
   0.47500000  0.47500000  0.17500000       0.003
   0.22500000  0.22500000  0.22500000       0.001
   0.27500000  0.22500000  0.22500000       0.003
   0.32500000  0.22500000  0.22500000       0.003
   0.37500000  0.22500000  0.22500000       0.003
   0.42500000  0.22500000  0.22500000       0.003
   0.47500000  0.22500000  0.22500000       0.003
   0.27500000  0.27500000  0.22500000       0.003
   0.32500000  0.27500000  0.22500000       0.006
   0.37500000  0.27500000  0.22500000       0.006
   0.42500000  0.27500000  0.22500000       0.006
   0.47500000  0.27500000  0.22500000       0.006
   0.32500000  0.32500000  0.22500000       0.003
   0.37500000  0.32500000  0.22500000       0.006
   0.42500000  0.32500000  0.22500000       0.006
   0.47500000  0.32500000  0.22500000       0.006
   0.37500000  0.37500000  0.22500000       0.003
   0.42500000  0.37500000  0.22500000       0.006
   0.47500000  0.37500000  0.22500000       0.006
   0.42500000  0.42500000  0.22500000       0.003
   0.47500000  0.42500000  0.22500000       0.006
   0.47500000  0.47500000  0.22500000       0.003
   0.27500000  0.27500000  0.27500000       0.001
   0.32500000  0.27500000  0.27500000       0.003
   0.37500000  0.27500000  0.27500000       0.003
   0.42500000  0.27500000  0.27500000       0.003
   0.47500000  0.27500000  0.27500000       0.003
   0.32500000  0.32500000  0.27500000       0.003
   0.37500000  0.32500000  0.27500000       0.006
   0.42500000  0.32500000  0.27500000       0.006
   0.47500000  0.32500000  0.27500000       0.006
   0.37500000  0.37500000  0.27500000       0.003
   0.42500000  0.37500000  0.27500000       0.006
   0.47500000  0.37500000  0.27500000       0.006
   0.42500000  0.42500000  0.27500000       0.003
   0.47500000  0.42500000  0.27500000       0.006
   0.47500000  0.47500000  0.27500000       0.003
   0.32500000  0.32500000  0.32500000       0.001
   0.37500000  0.32500000  0.32500000       0.003
   0.42500000  0.32500000  0.32500000       0.003
   0.47500000  0.32500000  0.32500000       0.003
   0.37500000  0.37500000  0.32500000       0.003
   0.42500000  0.37500000  0.32500000       0.006
   0.47500000  0.37500000  0.32500000       0.006
   0.42500000  0.42500000  0.32500000       0.003
   0.47500000  0.42500000  0.32500000       0.006
   0.47500000  0.47500000  0.32500000       0.003
   0.37500000  0.37500000  0.37500000       0.001
   0.42500000  0.37500000  0.37500000       0.003
   0.47500000  0.37500000  0.37500000       0.003
   0.42500000  0.42500000  0.37500000       0.003
   0.47500000  0.42500000  0.37500000       0.006
   0.47500000  0.47500000  0.37500000       0.003
   0.42500000  0.42500000  0.42500000       0.001
   0.47500000  0.42500000  0.42500000       0.003
   0.47500000  0.47500000  0.42500000       0.003
   0.47500000  0.47500000  0.47500000       0.001
 
 k-points in reciprocal lattice and weights: 20*20*20                                
   0.02500000  0.02500000  0.02500000       0.001
   0.07500000  0.02500000  0.02500000       0.003
   0.12500000  0.02500000  0.02500000       0.003
   0.17500000  0.02500000  0.02500000       0.003
   0.22500000  0.02500000  0.02500000       0.003
   0.27500000  0.02500000  0.02500000       0.003
   0.32500000  0.02500000  0.02500000       0.003
   0.37500000  0.02500000  0.02500000       0.003
   0.42500000  0.02500000  0.02500000       0.003
   0.47500000  0.02500000  0.02500000       0.003
   0.07500000  0.07500000  0.02500000       0.003
   0.12500000  0.07500000  0.02500000       0.006
   0.17500000  0.07500000  0.02500000       0.006
   0.22500000  0.07500000  0.02500000       0.006
   0.27500000  0.07500000  0.02500000       0.006
   0.32500000  0.07500000  0.02500000       0.006
   0.37500000  0.07500000  0.02500000       0.006
   0.42500000  0.07500000  0.02500000       0.006
   0.47500000  0.07500000  0.02500000       0.006
   0.12500000  0.12500000  0.02500000       0.003
   0.17500000  0.12500000  0.02500000       0.006
   0.22500000  0.12500000  0.02500000       0.006
   0.27500000  0.12500000  0.02500000       0.006
   0.32500000  0.12500000  0.02500000       0.006
   0.37500000  0.12500000  0.02500000       0.006
   0.42500000  0.12500000  0.02500000       0.006
   0.47500000  0.12500000  0.02500000       0.006
   0.17500000  0.17500000  0.02500000       0.003
   0.22500000  0.17500000  0.02500000       0.006
   0.27500000  0.17500000  0.02500000       0.006
   0.32500000  0.17500000  0.02500000       0.006
   0.37500000  0.17500000  0.02500000       0.006
   0.42500000  0.17500000  0.02500000       0.006
   0.47500000  0.17500000  0.02500000       0.006
   0.22500000  0.22500000  0.02500000       0.003
   0.27500000  0.22500000  0.02500000       0.006
   0.32500000  0.22500000  0.02500000       0.006
   0.37500000  0.22500000  0.02500000       0.006
   0.42500000  0.22500000  0.02500000       0.006
   0.47500000  0.22500000  0.02500000       0.006
   0.27500000  0.27500000  0.02500000       0.003
   0.32500000  0.27500000  0.02500000       0.006
   0.37500000  0.27500000  0.02500000       0.006
   0.42500000  0.27500000  0.02500000       0.006
   0.47500000  0.27500000  0.02500000       0.006
   0.32500000  0.32500000  0.02500000       0.003
   0.37500000  0.32500000  0.02500000       0.006
   0.42500000  0.32500000  0.02500000       0.006
   0.47500000  0.32500000  0.02500000       0.006
   0.37500000  0.37500000  0.02500000       0.003
   0.42500000  0.37500000  0.02500000       0.006
   0.47500000  0.37500000  0.02500000       0.006
   0.42500000  0.42500000  0.02500000       0.003
   0.47500000  0.42500000  0.02500000       0.006
   0.47500000  0.47500000  0.02500000       0.003
   0.07500000  0.07500000  0.07500000       0.001
   0.12500000  0.07500000  0.07500000       0.003
   0.17500000  0.07500000  0.07500000       0.003
   0.22500000  0.07500000  0.07500000       0.003
   0.27500000  0.07500000  0.07500000       0.003
   0.32500000  0.07500000  0.07500000       0.003
   0.37500000  0.07500000  0.07500000       0.003
   0.42500000  0.07500000  0.07500000       0.003
   0.47500000  0.07500000  0.07500000       0.003
   0.12500000  0.12500000  0.07500000       0.003
   0.17500000  0.12500000  0.07500000       0.006
   0.22500000  0.12500000  0.07500000       0.006
   0.27500000  0.12500000  0.07500000       0.006
   0.32500000  0.12500000  0.07500000       0.006
   0.37500000  0.12500000  0.07500000       0.006
   0.42500000  0.12500000  0.07500000       0.006
   0.47500000  0.12500000  0.07500000       0.006
   0.17500000  0.17500000  0.07500000       0.003
   0.22500000  0.17500000  0.07500000       0.006
   0.27500000  0.17500000  0.07500000       0.006
   0.32500000  0.17500000  0.07500000       0.006
   0.37500000  0.17500000  0.07500000       0.006
   0.42500000  0.17500000  0.07500000       0.006
   0.47500000  0.17500000  0.07500000       0.006
   0.22500000  0.22500000  0.07500000       0.003
   0.27500000  0.22500000  0.07500000       0.006
   0.32500000  0.22500000  0.07500000       0.006
   0.37500000  0.22500000  0.07500000       0.006
   0.42500000  0.22500000  0.07500000       0.006
   0.47500000  0.22500000  0.07500000       0.006
   0.27500000  0.27500000  0.07500000       0.003
   0.32500000  0.27500000  0.07500000       0.006
   0.37500000  0.27500000  0.07500000       0.006
   0.42500000  0.27500000  0.07500000       0.006
   0.47500000  0.27500000  0.07500000       0.006
   0.32500000  0.32500000  0.07500000       0.003
   0.37500000  0.32500000  0.07500000       0.006
   0.42500000  0.32500000  0.07500000       0.006
   0.47500000  0.32500000  0.07500000       0.006
   0.37500000  0.37500000  0.07500000       0.003
   0.42500000  0.37500000  0.07500000       0.006
   0.47500000  0.37500000  0.07500000       0.006
   0.42500000  0.42500000  0.07500000       0.003
   0.47500000  0.42500000  0.07500000       0.006
   0.47500000  0.47500000  0.07500000       0.003
   0.12500000  0.12500000  0.12500000       0.001
   0.17500000  0.12500000  0.12500000       0.003
   0.22500000  0.12500000  0.12500000       0.003
   0.27500000  0.12500000  0.12500000       0.003
   0.32500000  0.12500000  0.12500000       0.003
   0.37500000  0.12500000  0.12500000       0.003
   0.42500000  0.12500000  0.12500000       0.003
   0.47500000  0.12500000  0.12500000       0.003
   0.17500000  0.17500000  0.12500000       0.003
   0.22500000  0.17500000  0.12500000       0.006
   0.27500000  0.17500000  0.12500000       0.006
   0.32500000  0.17500000  0.12500000       0.006
   0.37500000  0.17500000  0.12500000       0.006
   0.42500000  0.17500000  0.12500000       0.006
   0.47500000  0.17500000  0.12500000       0.006
   0.22500000  0.22500000  0.12500000       0.003
   0.27500000  0.22500000  0.12500000       0.006
   0.32500000  0.22500000  0.12500000       0.006
   0.37500000  0.22500000  0.12500000       0.006
   0.42500000  0.22500000  0.12500000       0.006
   0.47500000  0.22500000  0.12500000       0.006
   0.27500000  0.27500000  0.12500000       0.003
   0.32500000  0.27500000  0.12500000       0.006
   0.37500000  0.27500000  0.12500000       0.006
   0.42500000  0.27500000  0.12500000       0.006
   0.47500000  0.27500000  0.12500000       0.006
   0.32500000  0.32500000  0.12500000       0.003
   0.37500000  0.32500000  0.12500000       0.006
   0.42500000  0.32500000  0.12500000       0.006
   0.47500000  0.32500000  0.12500000       0.006
   0.37500000  0.37500000  0.12500000       0.003
   0.42500000  0.37500000  0.12500000       0.006
   0.47500000  0.37500000  0.12500000       0.006
   0.42500000  0.42500000  0.12500000       0.003
   0.47500000  0.42500000  0.12500000       0.006
   0.47500000  0.47500000  0.12500000       0.003
   0.17500000  0.17500000  0.17500000       0.001
   0.22500000  0.17500000  0.17500000       0.003
   0.27500000  0.17500000  0.17500000       0.003
   0.32500000  0.17500000  0.17500000       0.003
   0.37500000  0.17500000  0.17500000       0.003
   0.42500000  0.17500000  0.17500000       0.003
   0.47500000  0.17500000  0.17500000       0.003
   0.22500000  0.22500000  0.17500000       0.003
   0.27500000  0.22500000  0.17500000       0.006
   0.32500000  0.22500000  0.17500000       0.006
   0.37500000  0.22500000  0.17500000       0.006
   0.42500000  0.22500000  0.17500000       0.006
   0.47500000  0.22500000  0.17500000       0.006
   0.27500000  0.27500000  0.17500000       0.003
   0.32500000  0.27500000  0.17500000       0.006
   0.37500000  0.27500000  0.17500000       0.006
   0.42500000  0.27500000  0.17500000       0.006
   0.47500000  0.27500000  0.17500000       0.006
   0.32500000  0.32500000  0.17500000       0.003
   0.37500000  0.32500000  0.17500000       0.006
   0.42500000  0.32500000  0.17500000       0.006
   0.47500000  0.32500000  0.17500000       0.006
   0.37500000  0.37500000  0.17500000       0.003
   0.42500000  0.37500000  0.17500000       0.006
   0.47500000  0.37500000  0.17500000       0.006
   0.42500000  0.42500000  0.17500000       0.003
   0.47500000  0.42500000  0.17500000       0.006
   0.47500000  0.47500000  0.17500000       0.003
   0.22500000  0.22500000  0.22500000       0.001
   0.27500000  0.22500000  0.22500000       0.003
   0.32500000  0.22500000  0.22500000       0.003
   0.37500000  0.22500000  0.22500000       0.003
   0.42500000  0.22500000  0.22500000       0.003
   0.47500000  0.22500000  0.22500000       0.003
   0.27500000  0.27500000  0.22500000       0.003
   0.32500000  0.27500000  0.22500000       0.006
   0.37500000  0.27500000  0.22500000       0.006
   0.42500000  0.27500000  0.22500000       0.006
   0.47500000  0.27500000  0.22500000       0.006
   0.32500000  0.32500000  0.22500000       0.003
   0.37500000  0.32500000  0.22500000       0.006
   0.42500000  0.32500000  0.22500000       0.006
   0.47500000  0.32500000  0.22500000       0.006
   0.37500000  0.37500000  0.22500000       0.003
   0.42500000  0.37500000  0.22500000       0.006
   0.47500000  0.37500000  0.22500000       0.006
   0.42500000  0.42500000  0.22500000       0.003
   0.47500000  0.42500000  0.22500000       0.006
   0.47500000  0.47500000  0.22500000       0.003
   0.27500000  0.27500000  0.27500000       0.001
   0.32500000  0.27500000  0.27500000       0.003
   0.37500000  0.27500000  0.27500000       0.003
   0.42500000  0.27500000  0.27500000       0.003
   0.47500000  0.27500000  0.27500000       0.003
   0.32500000  0.32500000  0.27500000       0.003
   0.37500000  0.32500000  0.27500000       0.006
   0.42500000  0.32500000  0.27500000       0.006
   0.47500000  0.32500000  0.27500000       0.006
   0.37500000  0.37500000  0.27500000       0.003
   0.42500000  0.37500000  0.27500000       0.006
   0.47500000  0.37500000  0.27500000       0.006
   0.42500000  0.42500000  0.27500000       0.003
   0.47500000  0.42500000  0.27500000       0.006
   0.47500000  0.47500000  0.27500000       0.003
   0.32500000  0.32500000  0.32500000       0.001
   0.37500000  0.32500000  0.32500000       0.003
   0.42500000  0.32500000  0.32500000       0.003
   0.47500000  0.32500000  0.32500000       0.003
   0.37500000  0.37500000  0.32500000       0.003
   0.42500000  0.37500000  0.32500000       0.006
   0.47500000  0.37500000  0.32500000       0.006
   0.42500000  0.42500000  0.32500000       0.003
   0.47500000  0.42500000  0.32500000       0.006
   0.47500000  0.47500000  0.32500000       0.003
   0.37500000  0.37500000  0.37500000       0.001
   0.42500000  0.37500000  0.37500000       0.003
   0.47500000  0.37500000  0.37500000       0.003
   0.42500000  0.42500000  0.37500000       0.003
   0.47500000  0.42500000  0.37500000       0.006
   0.47500000  0.47500000  0.37500000       0.003
   0.42500000  0.42500000  0.42500000       0.001
   0.47500000  0.42500000  0.42500000       0.003
   0.47500000  0.47500000  0.42500000       0.003
   0.47500000  0.47500000  0.47500000       0.001
 
 position of ions in fractional coordinates (direct lattice) 
   0.00000000  0.00000000  0.00000000
   0.50000000  0.50000000  0.50000000
 
 position of ions in cartesian coordinates  (Angst):
   0.00000000  0.00000000  0.00000000
   1.65040000  1.65040000  1.65040000
 


--------------------------------------------------------------------------------------------------------


 k-point  1 :   0.0250 0.0250 0.0250  plane waves:     440
 k-point  2 :   0.0750 0.0250 0.0250  plane waves:     444
 k-point  3 :   0.1250 0.0250 0.0250  plane waves:     438
 k-point  4 :   0.1750 0.0250 0.0250  plane waves:     437
 k-point  5 :   0.2250 0.0250 0.0250  plane waves:     429
 k-point  6 :   0.2750 0.0250 0.0250  plane waves:     428
 k-point  7 :   0.3250 0.0250 0.0250  plane waves:     429
 k-point  8 :   0.3750 0.0250 0.0250  plane waves:     426
 k-point  9 :   0.4250 0.0250 0.0250  plane waves:     422
 k-point 10 :   0.4750 0.0250 0.0250  plane waves:     418
 k-point 11 :   0.0750 0.0750 0.0250  plane waves:     439
 k-point 12 :   0.1250 0.0750 0.0250  plane waves:     433
 k-point 13 :   0.1750 0.0750 0.0250  plane waves:     432
 k-point 14 :   0.2250 0.0750 0.0250  plane waves:     429
 k-point 15 :   0.2750 0.0750 0.0250  plane waves:     428
 k-point 16 :   0.3250 0.0750 0.0250  plane waves:     427
 k-point 17 :   0.3750 0.0750 0.0250  plane waves:     426
 k-point 18 :   0.4250 0.0750 0.0250  plane waves:     423
 k-point 19 :   0.4750 0.0750 0.0250  plane waves:     424
 k-point 20 :   0.1250 0.1250 0.0250  plane waves:     433
 k-point 21 :   0.1750 0.1250 0.0250  plane waves:     428
 k-point 22 :   0.2250 0.1250 0.0250  plane waves:     427
 k-point 23 :   0.2750 0.1250 0.0250  plane waves:     427
 k-point 24 :   0.3250 0.1250 0.0250  plane waves:     427
 k-point 25 :   0.3750 0.1250 0.0250  plane waves:     428
 k-point 26 :   0.4250 0.1250 0.0250  plane waves:     427
 k-point 27 :   0.4750 0.1250 0.0250  plane waves:     427
 k-point 28 :   0.1750 0.1750 0.0250  plane waves:     425
 k-point 29 :   0.2250 0.1750 0.0250  plane waves:     426
 k-point 30 :   0.2750 0.1750 0.0250  plane waves:     426
 k-point 31 :   0.3250 0.1750 0.0250  plane waves:     425
 k-point 32 :   0.3750 0.1750 0.0250  plane waves:     427
 k-point 33 :   0.4250 0.1750 0.0250  plane waves:     430
 k-point 34 :   0.4750 0.1750 0.0250  plane waves:     429
 k-point 35 :   0.2250 0.2250 0.0250  plane waves:     419
 k-point 36 :   0.2750 0.2250 0.0250  plane waves:     424
 k-point 37 :   0.3250 0.2250 0.0250  plane waves:     424
 k-point 38 :   0.3750 0.2250 0.0250  plane waves:     422
 k-point 39 :   0.4250 0.2250 0.0250  plane waves:     424
 k-point 40 :   0.4750 0.2250 0.0250  plane waves:     431
 k-point 41 :   0.2750 0.2750 0.0250  plane waves:     421
 k-point 42 :   0.3250 0.2750 0.0250  plane waves:     420
 k-point 43 :   0.3750 0.2750 0.0250  plane waves:     420
 k-point 44 :   0.4250 0.2750 0.0250  plane waves:     424
 k-point 45 :   0.4750 0.2750 0.0250  plane waves:     428
 k-point 46 :   0.3250 0.3250 0.0250  plane waves:     425
 k-point 47 :   0.3750 0.3250 0.0250  plane waves:     418
 k-point 48 :   0.4250 0.3250 0.0250  plane waves:     417
 k-point 49 :   0.4750 0.3250 0.0250  plane waves:     420
 k-point 50 :   0.3750 0.3750 0.0250  plane waves:     416
 k-point 51 :   0.4250 0.3750 0.0250  plane waves:     417
 k-point 52 :   0.4750 0.3750 0.0250  plane waves:     421
 k-point 53 :   0.4250 0.4250 0.0250  plane waves:     416
 k-point 54 :   0.4750 0.4250 0.0250  plane waves:     413
 k-point 55 :   0.4750 0.4750 0.0250  plane waves:     419
 k-point 56 :   0.0750 0.0750 0.0750  plane waves:     437
 k-point 57 :   0.1250 0.0750 0.0750  plane waves:     435
 k-point 58 :   0.1750 0.0750 0.0750  plane waves:     430
 k-point 59 :   0.2250 0.0750 0.0750  plane waves:     431
 k-point 60 :   0.2750 0.0750 0.0750  plane waves:     425
 k-point 61 :   0.3250 0.0750 0.0750  plane waves:     428
 k-point 62 :   0.3750 0.0750 0.0750  plane waves:     427
 k-point 63 :   0.4250 0.0750 0.0750  plane waves:     425
 k-point 64 :   0.4750 0.0750 0.0750  plane waves:     424
 k-point 65 :   0.1250 0.1250 0.0750  plane waves:     431
 k-point 66 :   0.1750 0.1250 0.0750  plane waves:     427
 k-point 67 :   0.2250 0.1250 0.0750  plane waves:     429
 k-point 68 :   0.2750 0.1250 0.0750  plane waves:     427
 k-point 69 :   0.3250 0.1250 0.0750  plane waves:     427
 k-point 70 :   0.3750 0.1250 0.0750  plane waves:     427
 k-point 71 :   0.4250 0.1250 0.0750  plane waves:     428
 k-point 72 :   0.4750 0.1250 0.0750  plane waves:     428
 k-point 73 :   0.1750 0.1750 0.0750  plane waves:     425
 k-point 74 :   0.2250 0.1750 0.0750  plane waves:     424
 k-point 75 :   0.2750 0.1750 0.0750  plane waves:     426
 k-point 76 :   0.3250 0.1750 0.0750  plane waves:     424
 k-point 77 :   0.3750 0.1750 0.0750  plane waves:     429
 k-point 78 :   0.4250 0.1750 0.0750  plane waves:     426
 k-point 79 :   0.4750 0.1750 0.0750  plane waves:     428
 k-point 80 :   0.2250 0.2250 0.0750  plane waves:     423
 k-point 81 :   0.2750 0.2250 0.0750  plane waves:     424
 k-point 82 :   0.3250 0.2250 0.0750  plane waves:     423
 k-point 83 :   0.3750 0.2250 0.0750  plane waves:     424
 k-point 84 :   0.4250 0.2250 0.0750  plane waves:     421
 k-point 85 :   0.4750 0.2250 0.0750  plane waves:     425
 k-point 86 :   0.2750 0.2750 0.0750  plane waves:     418
 k-point 87 :   0.3250 0.2750 0.0750  plane waves:     418
 k-point 88 :   0.3750 0.2750 0.0750  plane waves:     421
 k-point 89 :   0.4250 0.2750 0.0750  plane waves:     423
 k-point 90 :   0.4750 0.2750 0.0750  plane waves:     425
 k-point 91 :   0.3250 0.3250 0.0750  plane waves:     419
 k-point 92 :   0.3750 0.3250 0.0750  plane waves:     419
 k-point 93 :   0.4250 0.3250 0.0750  plane waves:     420
 k-point 94 :   0.4750 0.3250 0.0750  plane waves:     417
 k-point 95 :   0.3750 0.3750 0.0750  plane waves:     415
 k-point 96 :   0.4250 0.3750 0.0750  plane waves:     423
 k-point 97 :   0.4750 0.3750 0.0750  plane waves:     420
 k-point 98 :   0.4250 0.4250 0.0750  plane waves:     420
 k-point 99 :   0.4750 0.4250 0.0750  plane waves:     420
 k-point ** :   0.4750 0.4750 0.0750  plane waves:     413
 k-point ** :   0.1250 0.1250 0.1250  plane waves:     431
 k-point ** :   0.1750 0.1250 0.1250  plane waves:     428
 k-point ** :   0.2250 0.1250 0.1250  plane waves:     428
 k-point ** :   0.2750 0.1250 0.1250  plane waves:     426
 k-point ** :   0.3250 0.1250 0.1250  plane waves:     427
 k-point ** :   0.3750 0.1250 0.1250  plane waves:     426
 k-point ** :   0.4250 0.1250 0.1250  plane waves:     429
 k-point ** :   0.4750 0.1250 0.1250  plane waves:     424
 k-point ** :   0.1750 0.1750 0.1250  plane waves:     430
 k-point ** :   0.2250 0.1750 0.1250  plane waves:     424
 k-point ** :   0.2750 0.1750 0.1250  plane waves:     424
 k-point ** :   0.3250 0.1750 0.1250  plane waves:     423
 k-point ** :   0.3750 0.1750 0.1250  plane waves:     424
 k-point ** :   0.4250 0.1750 0.1250  plane waves:     427
 k-point ** :   0.4750 0.1750 0.1250  plane waves:     425
 k-point ** :   0.2250 0.2250 0.1250  plane waves:     423
 k-point ** :   0.2750 0.2250 0.1250  plane waves:     422
 k-point ** :   0.3250 0.2250 0.1250  plane waves:     421
 k-point ** :   0.3750 0.2250 0.1250  plane waves:     422
 k-point ** :   0.4250 0.2250 0.1250  plane waves:     427
 k-point ** :   0.4750 0.2250 0.1250  plane waves:     425
 k-point ** :   0.2750 0.2750 0.1250  plane waves:     420
 k-point ** :   0.3250 0.2750 0.1250  plane waves:     418
 k-point ** :   0.3750 0.2750 0.1250  plane waves:     421
 k-point ** :   0.4250 0.2750 0.1250  plane waves:     425
 k-point ** :   0.4750 0.2750 0.1250  plane waves:     423
 k-point ** :   0.3250 0.3250 0.1250  plane waves:     421
 k-point ** :   0.3750 0.3250 0.1250  plane waves:     421
 k-point ** :   0.4250 0.3250 0.1250  plane waves:     420
 k-point ** :   0.4750 0.3250 0.1250  plane waves:     421
 k-point ** :   0.3750 0.3750 0.1250  plane waves:     419
 k-point ** :   0.4250 0.3750 0.1250  plane waves:     419
 k-point ** :   0.4750 0.3750 0.1250  plane waves:     422
 k-point ** :   0.4250 0.4250 0.1250  plane waves:     418
 k-point ** :   0.4750 0.4250 0.1250  plane waves:     419
 k-point ** :   0.4750 0.4750 0.1250  plane waves:     422
 k-point ** :   0.1750 0.1750 0.1750  plane waves:     428
 k-point ** :   0.2250 0.1750 0.1750  plane waves:     424
 k-point ** :   0.2750 0.1750 0.1750  plane waves:     421
 k-point ** :   0.3250 0.1750 0.1750  plane waves:     423
 k-point ** :   0.3750 0.1750 0.1750  plane waves:     427
 k-point ** :   0.4250 0.1750 0.1750  plane waves:     426
 k-point ** :   0.4750 0.1750 0.1750  plane waves:     428
 k-point ** :   0.2250 0.2250 0.1750  plane waves:     423
 k-point ** :   0.2750 0.2250 0.1750  plane waves:     422
 k-point ** :   0.3250 0.2250 0.1750  plane waves:     421
 k-point ** :   0.3750 0.2250 0.1750  plane waves:     425
 k-point ** :   0.4250 0.2250 0.1750  plane waves:     428
 k-point ** :   0.4750 0.2250 0.1750  plane waves:     426
 k-point ** :   0.2750 0.2750 0.1750  plane waves:     424
 k-point ** :   0.3250 0.2750 0.1750  plane waves:     423
 k-point ** :   0.3750 0.2750 0.1750  plane waves:     424
 k-point ** :   0.4250 0.2750 0.1750  plane waves:     424
 k-point ** :   0.4750 0.2750 0.1750  plane waves:     425
 k-point ** :   0.3250 0.3250 0.1750  plane waves:     419
 k-point ** :   0.3750 0.3250 0.1750  plane waves:     421
 k-point ** :   0.4250 0.3250 0.1750  plane waves:     424
 k-point ** :   0.4750 0.3250 0.1750  plane waves:     423
 k-point ** :   0.3750 0.3750 0.1750  plane waves:     421
 k-point ** :   0.4250 0.3750 0.1750  plane waves:     421
 k-point ** :   0.4750 0.3750 0.1750  plane waves:     422
 k-point ** :   0.4250 0.4250 0.1750  plane waves:     419
 k-point ** :   0.4750 0.4250 0.1750  plane waves:     418
 k-point ** :   0.4750 0.4750 0.1750  plane waves:     418
 k-point ** :   0.2250 0.2250 0.2250  plane waves:     425
 k-point ** :   0.2750 0.2250 0.2250  plane waves:     427
 k-point ** :   0.3250 0.2250 0.2250  plane waves:     423
 k-point ** :   0.3750 0.2250 0.2250  plane waves:     423
 k-point ** :   0.4250 0.2250 0.2250  plane waves:     429
 k-point ** :   0.4750 0.2250 0.2250  plane waves:     431
 k-point ** :   0.2750 0.2750 0.2250  plane waves:     424
 k-point ** :   0.3250 0.2750 0.2250  plane waves:     424
 k-point ** :   0.3750 0.2750 0.2250  plane waves:     426
 k-point ** :   0.4250 0.2750 0.2250  plane waves:     424
 k-point ** :   0.4750 0.2750 0.2250  plane waves:     425
 k-point ** :   0.3250 0.3250 0.2250  plane waves:     425
 k-point ** :   0.3750 0.3250 0.2250  plane waves:     424
 k-point ** :   0.4250 0.3250 0.2250  plane waves:     425
 k-point ** :   0.4750 0.3250 0.2250  plane waves:     423
 k-point ** :   0.3750 0.3750 0.2250  plane waves:     422
 k-point ** :   0.4250 0.3750 0.2250  plane waves:     422
 k-point ** :   0.4750 0.3750 0.2250  plane waves:     422
 k-point ** :   0.4250 0.4250 0.2250  plane waves:     422
 k-point ** :   0.4750 0.4250 0.2250  plane waves:     418
 k-point ** :   0.4750 0.4750 0.2250  plane waves:     418
 k-point ** :   0.2750 0.2750 0.2750  plane waves:     422
 k-point ** :   0.3250 0.2750 0.2750  plane waves:     427
 k-point ** :   0.3750 0.2750 0.2750  plane waves:     427
 k-point ** :   0.4250 0.2750 0.2750  plane waves:     426
 k-point ** :   0.4750 0.2750 0.2750  plane waves:     430
 k-point ** :   0.3250 0.3250 0.2750  plane waves:     424
 k-point ** :   0.3750 0.3250 0.2750  plane waves:     423
 k-point ** :   0.4250 0.3250 0.2750  plane waves:     424
 k-point ** :   0.4750 0.3250 0.2750  plane waves:     424
 k-point ** :   0.3750 0.3750 0.2750  plane waves:     424
 k-point ** :   0.4250 0.3750 0.2750  plane waves:     426
 k-point ** :   0.4750 0.3750 0.2750  plane waves:     421
 k-point ** :   0.4250 0.4250 0.2750  plane waves:     426
 k-point ** :   0.4750 0.4250 0.2750  plane waves:     421
 k-point ** :   0.4750 0.4750 0.2750  plane waves:     420
 k-point ** :   0.3250 0.3250 0.3250  plane waves:     426
 k-point ** :   0.3750 0.3250 0.3250  plane waves:     423
 k-point ** :   0.4250 0.3250 0.3250  plane waves:     427
 k-point ** :   0.4750 0.3250 0.3250  plane waves:     424
 k-point ** :   0.3750 0.3750 0.3250  plane waves:     422
 k-point ** :   0.4250 0.3750 0.3250  plane waves:     428
 k-point ** :   0.4750 0.3750 0.3250  plane waves:     424
 k-point ** :   0.4250 0.4250 0.3250  plane waves:     430
 k-point ** :   0.4750 0.4250 0.3250  plane waves:     428
 k-point ** :   0.4750 0.4750 0.3250  plane waves:     424
 k-point ** :   0.3750 0.3750 0.3750  plane waves:     423
 k-point ** :   0.4250 0.3750 0.3750  plane waves:     428
 k-point ** :   0.4750 0.3750 0.3750  plane waves:     424
 k-point ** :   0.4250 0.4250 0.3750  plane waves:     426
 k-point ** :   0.4750 0.4250 0.3750  plane waves:     426
 k-point ** :   0.4750 0.4750 0.3750  plane waves:     432
 k-point ** :   0.4250 0.4250 0.4250  plane waves:     426
 k-point ** :   0.4750 0.4250 0.4250  plane waves:     430
 k-point ** :   0.4750 0.4750 0.4250  plane waves:     432
 k-point ** :   0.4750 0.4750 0.4750  plane waves:     432

 maximum and minimum number of plane-waves per node :       444      413

 maximum number of plane-waves:       444
 maximum index in each direction: 
   IXMAX=    4   IYMAX=    4   IZMAX=    4
   IXMIN=   -5   IYMIN=   -5   IZMIN=   -5


 serial   3D FFT for wavefunctions
 parallel 3D FFT for charge:
    minimum data exchange during FFTs selected (reduces bandwidth)


 total amount of memory used by VASP MPI-rank0    47311. kBytes
=======================================================================

   base      :      30000. kBytes
   nonl-proj :      15221. kBytes
   fftplans  :         79. kBytes
   grid      :        150. kBytes
   one-center:         31. kBytes
   wavefun   :       1830. kBytes
 
     INWAV:  cpu time    0.0001: real time    0.0001
 initial charge density was supplied:
 number of electron      22.0000104 magnetization 
 keeping initial charge density in first step


--------------------------------------------------------------------------------------------------------


 Maximum index for augmentation-charges          341 (set IRDMAX)


--------------------------------------------------------------------------------------------------------


 First call to EWALD:  gamma=   0.537
 Maximum number of real-space cells 3x 3x 3
 Maximum number of reciprocal cells 3x 3x 3

    FEWALD:  cpu time    0.0018: real time    0.0026


--------------------------------------- Iteration      1(   1)  ---------------------------------------


[...]
     15       8.8310      0.00000
     16       8.8333      0.00000
     17      14.4509      0.00000
     18      14.9093      0.00000
     19      15.6066      0.00000
     20      15.7651      0.00000
     21      16.7455      0.00000
     22      18.1816      0.00000
     23      18.3401      0.00000
     24      19.5326      0.00000
     25      27.2714      0.00000
     26      28.0169      0.00000
     27      28.6753      0.00000
     28      31.2238      0.00000
     29      31.9407      0.00000
     30      32.6126      0.00000
     31      33.5683      0.00000
     32      34.0223      0.00000
     33      35.4150      0.00000
     34      36.3500      0.00000
     35      36.7812      0.00000
     36      37.0920      0.00000
     37      42.0238      0.00000
     38      42.0777      0.00000
     39      42.8509      0.00000
     40      43.3332      0.00000

 k-point   215 :       0.4750    0.4250    0.3750
  band No.  band energies     occupation 
      1     -25.6938      2.00000
      2     -25.6630      2.00000
      3     -25.4094      2.00000
      4     -25.3189      2.00000
      5     -25.1052      2.00000
      6     -25.0649      2.00000
      7       2.9511      2.00000
      8       3.1207      2.00000
      9       3.4612      2.00000
     10       3.6408      2.00000
     11       4.3428      1.99970
     12       4.4022      1.99860
     13       8.7448      0.00000
     14       8.7522      0.00000
     15       8.8720      0.00000
     16       8.8730      0.00000
     17      14.7495      0.00000
     18      14.8888      0.00000
     19      15.4115      0.00000
     20      15.4550      0.00000
     21      17.2199      0.00000
     22      17.7471      0.00000
     23      18.5303      0.00000
     24      18.9801      0.00000
     25      27.7762      0.00000
     26      28.0588      0.00000
     27      29.5345      0.00000
     28      30.5332      0.00000
     29      32.0392      0.00000
     30      32.6766      0.00000
     31      33.0268      0.00000
     32      33.5745      0.00000
     33      35.5482      0.00000
     34      36.0702      0.00000
     35      36.4492      0.00000
     36      36.6924      0.00000
     37      42.0531      0.00000
     38      42.0671      0.00000
     39      43.8880      0.00000
     40      44.5224      0.00000

 k-point   216 :       0.4750    0.4750    0.3750
  band No.  band energies     occupation 
      1     -25.6669      2.00000
      2     -25.6541      2.00000
      3     -25.3779      2.00000
      4     -25.3397      2.00000
      5     -25.1302      2.00000
      6     -25.1112      2.00000
      7       3.1051      2.00000
      8       3.2683      2.00000
      9       3.2998      2.00000
     10       3.4673      2.00000
     11       4.4518      1.99554
     12       4.4726      1.99300
     13       8.7785      0.00000
     14       8.7812      0.00000
     15       8.8957      0.00000
     16       8.8963      0.00000
     17      14.8565      0.00000
     18      14.8655      0.00000
     19      15.3558      0.00000
     20      15.3852      0.00000
     21      17.5011      0.00000
     22      17.8472      0.00000
     23      18.1626      0.00000
     24      18.4768      0.00000
     25      28.2567      0.00000
     26      28.3907      0.00000
     27      30.1264      0.00000
     28      30.9106      0.00000
     29      31.1716      0.00000
     30      31.7950      0.00000
     31      33.3167      0.00000
     32      33.5656      0.00000
     33      35.2287      0.00000
     34      35.4714      0.00000
     35      36.3201      0.00000
     36      36.3960      0.00000
     37      42.0655      0.00000
     38      42.0694      0.00000
     39      45.2020      0.00000
     40      45.5169      0.00000

 k-point   217 :       0.4250    0.4250    0.4250
  band No.  band energies     occupation 
      1     -25.6745      2.00000
      2     -25.5388      2.00000
      3     -25.5388      2.00000
      4     -25.2238      2.00000
      5     -25.2238      2.00000
      6     -25.0793      2.00000
      7       2.9635      2.00000
      8       3.4255      2.00000
      9       3.4255      2.00000
     10       4.0496      2.00000
     11       4.0496      2.00000
     12       4.0795      2.00000
     13       8.8309      0.00000
     14       8.8309      0.00000
     15       8.8369      0.00000
     16       8.8369      0.00000
     17      14.7421      0.00000
     18      14.7629      0.00000
     19      15.6218      0.00000
     20      16.2773      0.00000
     21      16.2773      0.00000
     22      17.9760      0.00000
     23      17.9760      0.00000
     24      19.0326      0.00000
     25      27.8193      0.00000
     26      28.7767      0.00000
     27      28.7767      0.00000
     28      31.8473      0.00000
     29      31.8473      0.00000
     30      31.9542      0.00000
     31      33.9112      0.00000
     32      33.9112      0.00000
     33      33.9438      0.00000
     34      35.8278      0.00000
     35      36.1142      0.00000
     36      36.1142      0.00000
     37      42.0498      0.00000
     38      42.0696      0.00000
     39      44.3148      0.00000
     40      44.3148      0.00000

 k-point   218 :       0.4750    0.4250    0.4250
  band No.  band energies     occupation 
      1     -25.6286      2.00000
      2     -25.5846      2.00000
      3     -25.4345      2.00000
      4     -25.3286      2.00000
      5     -25.1891      2.00000
      6     -25.1389      2.00000
      7       3.1249      2.00000
      8       3.3009      2.00000
      9       3.5893      2.00000
     10       3.7980      2.00000
     11       4.1524      2.00000
     12       4.1665      2.00000
     13       8.8339      0.00000
     14       8.8372      0.00000
     15       8.8843      0.00000
     16       8.8857      0.00000
     17      14.7282      0.00000
     18      14.7708      0.00000
     19      15.6909      0.00000
     20      15.9197      0.00000
     21      16.9110      0.00000
     22      17.4870      0.00000
     23      18.1289      0.00000
     24      18.5294      0.00000
     25      28.3589      0.00000
     26      28.6946      0.00000
     27      29.7539      0.00000
     28      30.8395      0.00000
     29      32.0832      0.00000
     30      32.6715      0.00000
     31      32.7822      0.00000
     32      33.3894      0.00000
     33      34.4867      0.00000
     34      35.2312      0.00000
     35      35.6907      0.00000
     36      35.8009      0.00000
     37      42.0567      0.00000
     38      42.0618      0.00000
     39      45.2720      0.00000
     40      45.7160      0.00000

 k-point   219 :       0.4750    0.4750    0.4250
  band No.  band energies     occupation 
      1     -25.5777      2.00000
      2     -25.5524      2.00000
      3     -25.4120      2.00000
      4     -25.3525      2.00000
      5     -25.2328      2.00000
      6     -25.2025      2.00000
      7       3.3000      2.00000
      8       3.4381      2.00000
      9       3.5445      2.00000
     10       3.6993      2.00000
     11       4.1420      2.00000
     12       4.1424      2.00000
     13       8.8660      0.00000
     14       8.8673      0.00000
     15       8.9068      0.00000
     16       8.9073      0.00000
     17      14.6442      0.00000
     18      14.6693      0.00000
     19      15.9473      0.00000
     20      16.0778      0.00000
     21      17.0533      0.00000
     22      17.4148      0.00000
     23      17.8137      0.00000
     24      18.0730      0.00000
     25      28.9209      0.00000
     26      29.1242      0.00000
     27      30.2131      0.00000
     28      31.0071      0.00000
     29      31.4567      0.00000
     30      32.0336      0.00000
     31      33.1098      0.00000
     32      33.7455      0.00000
     33      33.8668      0.00000
     34      34.5352      0.00000
     35      35.3312      0.00000
     36      35.3505      0.00000
     37      42.0552      0.00000
     38      42.0564      0.00000
     39      46.6039      0.00000
     40      46.6129      0.00000

 k-point   220 :       0.4750    0.4750    0.4750
  band No.  band energies     occupation 
      1     -25.4990      2.00000
      2     -25.4466      2.00000
      3     -25.4466      2.00000
      4     -25.3391      2.00000
      5     -25.3391      2.00000
      6     -25.2855      2.00000
      7       3.4833      2.00000
      8       3.6236      2.00000
      9       3.6236      2.00000
     10       3.8583      2.00000
     11       3.8583      2.00000
     12       3.9470      2.00000
     13       8.9128      0.00000
     14       8.9128      0.00000
     15       8.9132      0.00000
     16       8.9132      0.00000
     17      14.5316      0.00000
     18      14.5422      0.00000
     19      16.4379      0.00000
     20      16.7325      0.00000
     21      16.7325      0.00000
     22      17.3229      0.00000
     23      17.3229      0.00000
     24      17.6302      0.00000
     25      29.6609      0.00000
     26      30.0946      0.00000
     27      30.0946      0.00000
     28      31.1154      0.00000
     29      31.1154      0.00000
     30      31.7032      0.00000
     31      33.1487      0.00000
     32      33.6441      0.00000
     33      33.6441      0.00000
     34      34.3794      0.00000
     35      34.3794      0.00000
     36      34.5962      0.00000
     37      42.0488      0.00000
     38      42.0490      0.00000
     39      47.4594      0.00000
     40      47.6122      0.00000


--------------------------------------------------------------------------------------------------------


 soft charge-density along one line, spin component           1
         0         1         2         3         4         5         6         7         8         9
 total charge-density along one line
 
 pseudopotential strength for first ion, spin component:           1
-27.829   0.000  -0.000   0.000  -0.000   0.000   5.816   0.000   0.000   0.000   0.000   0.000   0.000   0.000  -0.000   0.000
 -0.000   0.000 -27.829   0.000  -0.000   0.000   0.000   0.000   5.816   0.000   0.000   0.000  -0.000   0.000  -0.000   0.000
 -0.000   0.000  -0.000   0.000 -27.829   0.000   0.000   0.000   0.000   0.000   5.816   0.000  -0.000   0.000  -0.000   0.000
  5.816   0.000   0.000   0.000   0.000   0.000   4.386   0.000  -0.000   0.000   0.000   0.000   0.000   0.000   0.000   0.000
  0.000   0.000   5.816   0.000   0.000   0.000  -0.000   0.000   4.386   0.000  -0.000   0.000   0.000   0.000   0.000   0.000
  0.000   0.000   0.000   0.000   5.816   0.000   0.000   0.000  -0.000   0.000   4.386   0.000   0.000   0.000   0.000   0.000
  0.000   0.000  -0.000   0.000  -0.000   0.000   0.000   0.000   0.000   0.000   0.000   0.000  -6.228   0.000  -0.000   0.000
 -0.000   0.000  -0.000   0.000  -0.000   0.000   0.000   0.000   0.000   0.000   0.000   0.000  -0.000   0.000  -6.228   0.000
  0.000   0.000  -0.000   0.000   0.000   0.000  -0.000   0.000   0.000   0.000  -0.000   0.000  -0.000   0.000  -0.000   0.000
 -0.000   0.000   0.000   0.000  -0.000   0.000   0.000   0.000  -0.000   0.000   0.000   0.000  -0.000   0.000  -0.000   0.000
  0.000   0.000   0.000   0.000   0.000   0.000  -0.000   0.000  -0.000   0.000  -0.000   0.000   0.000   0.000   0.000   0.000
 -0.000   0.000  -0.000   0.000  -0.000   0.000   0.000   0.000   0.000   0.000   0.000   0.000  -7.057   0.000  -0.000   0.000
 -0.000   0.000  -0.000   0.000  -0.000   0.000   0.000   0.000   0.000   0.000   0.000   0.000  -0.000   0.000  -7.057   0.000
  0.000   0.000  -0.000   0.000   0.000   0.000  -0.000   0.000   0.000   0.000   0.000   0.000  -0.000   0.000  -0.000   0.000
 -0.000   0.000   0.000   0.000  -0.000   0.000   0.000   0.000  -0.000   0.000   0.000   0.000  -0.000   0.000  -0.000   0.000
  0.000   0.000   0.000   0.000  -0.000   0.000  -0.000   0.000  -0.000   0.000   0.000   0.000   0.000   0.000   0.000   0.000
  0.000   0.000   0.000   0.000   0.000   0.000  -0.000   0.000  -0.000   0.000  -0.000   0.000   0.000   0.000   0.000   0.000
 -0.000   0.000  -0.000   0.000   0.000   0.000  -0.000   0.000  -0.000   0.000  -0.000   0.000  -0.000   0.000  -0.000   0.000
 total augmentation occupancy for first ion, spin component:           1
  2.000   0.000   0.000   0.000   0.000   0.000   0.000   0.000   0.000   0.000   0.000   0.000   0.000   0.000   0.000   0.000
  0.000   2.000   0.000   0.000   0.000   0.000   0.000   0.000   0.000   0.000   0.000   0.000   0.000   0.000   0.000   0.000
  0.000   0.000   2.000   0.000   0.000   0.000   0.000   0.000   0.000   0.000   0.000   0.000   0.000   0.000   0.000   0.000
  0.000   0.000   0.000   0.000   0.000   0.000   0.000   0.000   0.000   0.000   0.000   0.000   0.000   0.000   0.000   0.000
  0.000   0.000   0.000   0.000   0.000   0.000   0.000   0.000   0.000   0.000   0.000   0.000   0.000   0.000   0.000   0.000
  0.000   0.000   0.000   0.000   0.000   0.000   0.000   0.000   0.000   0.000   0.000   0.000   0.000   0.000   0.000   0.000
  0.000   0.000   0.000   0.000   0.000   0.000   0.800   0.000   0.000   0.000   0.000   0.000   0.000   0.000   0.000   0.000
  0.000   0.000   0.000   0.000   0.000   0.000   0.000   0.800   0.000   0.000   0.000   0.000   0.000   0.000   0.000   0.000
  0.000   0.000   0.000   0.000   0.000   0.000   0.000   0.000   0.800   0.000   0.000   0.000   0.000   0.000   0.000   0.000
  0.000   0.000   0.000   0.000   0.000   0.000   0.000   0.000   0.000   0.800   0.000   0.000   0.000   0.000   0.000   0.000
  0.000   0.000   0.000   0.000   0.000   0.000   0.000   0.000   0.000   0.000   0.800   0.000   0.000   0.000   0.000   0.000
  0.000   0.000   0.000   0.000   0.000   0.000   0.000   0.000   0.000   0.000   0.000   0.000   0.000   0.000   0.000   0.000
  0.000   0.000   0.000   0.000   0.000   0.000   0.000   0.000   0.000   0.000   0.000   0.000   0.000   0.000   0.000   0.000
  0.000   0.000   0.000   0.000   0.000   0.000   0.000   0.000   0.000   0.000   0.000   0.000   0.000   0.000   0.000   0.000
  0.000   0.000   0.000   0.000   0.000   0.000   0.000   0.000   0.000   0.000   0.000   0.000   0.000   0.000   0.000   0.000
  0.000   0.000   0.000   0.000   0.000   0.000   0.000   0.000   0.000   0.000   0.000   0.000   0.000   0.000   0.000   0.000
  0.000   0.000   0.000   0.000   0.000   0.000   0.000   0.000   0.000   0.000   0.000   0.000   0.000   0.000   0.000   0.000
  0.000   0.000   0.000   0.000   0.000   0.000   0.000   0.000   0.000   0.000   0.000   0.000   0.000   0.000   0.000   0.000


------------------------ aborting loop because EDIFF is reached ----------------------------------------


    CHARGE:  cpu time    0.0093: real time    0.0145
    FORLOC:  cpu time    0.0001: real time    0.0001
    FORNL :  cpu time    0.0340: real time    0.0355
    STRESS:  cpu time    0.3170: real time    0.3199
    FORCOR:  cpu time    0.0014: real time    0.0022
    FORHAR:  cpu time    0.0006: real time    0.0010
    OFIELD:  cpu time    0.0000: real time    0.0000

  FORCE on cell =-STRESS in cart. coord.  units (eV):
  Direction    XX          YY          ZZ          XY          YZ          ZX
  --------------------------------------------------------------------------------------
  Alpha Z   249.60524   249.60524   249.60524
  Ewald    -640.34034  -640.34034  -640.34034    -0.00000     0.00000    -0.00000
  Hartree    80.11418    80.11418    80.11418    -0.00000    -0.00000    -0.00000
  E(xc)     -93.76997   -93.76997   -93.76997    -0.00000     0.00000    -0.00000
  Local     205.58396   205.58396   205.58396    -0.00000     0.00000    -0.00000
  n-local   -89.36162   -84.33679   -77.71630     2.21197    -0.92726     0.40169
  augment    52.35485    52.35485    52.35485     0.00000     0.00000     0.00000
  Kinetic   219.52708   225.00133   241.91809     3.34246    -2.06844     1.22411
  Fock        0.00000     0.00000     0.00000     0.00000     0.00000     0.00000
  -------------------------------------------------------------------------------------
  Total      -1.44148    -1.44148    -1.44148     0.00000     0.00000     0.00000
  in kB     -64.21857   -64.21857   -64.21857     0.00000     0.00000     0.00000
  external pressure =      -64.22 kB  Pullay stress =        0.00 kB


 VOLUME and BASIS-vectors are now :
 -----------------------------------------------------------------------------
  energy-cutoff  :      300.00
  volume of cell :       35.96
      direct lattice vectors                 reciprocal lattice vectors
     3.300800000  0.000000000  0.000000000     0.302956859  0.000000000  0.000000000
     0.000000000  3.300800000  0.000000000     0.000000000  0.302956859  0.000000000
     0.000000000  0.000000000  3.300800000     0.000000000  0.000000000  0.302956859

  length of vectors
     3.300800000  3.300800000  3.300800000     0.302956859  0.302956859  0.302956859


 FORCES acting on ions
    electron-ion (+dipol)            ewald-force                    non-local-force                 convergence-correction
 -----------------------------------------------------------------------------------------------
   -.196E-13 -.197E-13 -.183E-13   0.268E-14 -.614E-14 -.437E-14   -.162E-26 -.121E-26 -.172E-26   0.980E-14 0.405E-14 0.897E-14
   0.128E-12 0.126E-12 0.122E-12   -.201E-14 0.363E-14 0.345E-14   0.000E+00 0.404E-27 0.000E+00   -.636E-13 -.678E-13 -.708E-13
 -----------------------------------------------------------------------------------------------
   0.108E-12 0.106E-12 0.104E-12   0.666E-15 -.251E-14 -.919E-15   -.162E-26 -.808E-27 -.172E-26   -.538E-13 -.638E-13 -.619E-13
 
 
 POSITION                                       TOTAL-FORCE (eV/Angst)
 -----------------------------------------------------------------------------------
      0.00000      0.00000      0.00000        -0.000000      0.000000      0.000000
      1.65040      1.65040      1.65040         0.000000      0.000000     -0.000000
 -----------------------------------------------------------------------------------
    total drift:                                0.000000      0.000000      0.000000


--------------------------------------------------------------------------------------------------------



  FREE ENERGIE OF THE ION-ELECTRON SYSTEM (eV)
  ---------------------------------------------------
  free  energy   TOTEN  =       -22.30367561 eV

  energy  without entropy=      -22.24311460  energy(sigma->0) =      -22.27339510
 


--------------------------------------------------------------------------------------------------------


    POTLOK:  cpu time    0.0031: real time    0.0034


--------------------------------------------------------------------------------------------------------


 writing wavefunctions
     LOOP+:  cpu time   22.5685: real time   22.7777
    4ORBIT:  cpu time    0.0000: real time    0.0000

 total amount of memory used by VASP MPI-rank0    47311. kBytes
=======================================================================

   base      :      30000. kBytes
   nonl-proj :      15221. kBytes
   fftplans  :         79. kBytes
   grid      :        150. kBytes
   one-center:         31. kBytes
   wavefun   :       1830. kBytes
 
  
  
 General timing and accounting informations for this job:
 ========================================================
  
                  Total CPU time used (sec):       25.040
                            User time (sec):       22.907
                          System time (sec):        2.133
                         Elapsed time (sec):       25.384
  
                   Maximum memory used (kb):       71100.
                   Average memory used (kb):           0.
  
                          Minor page faults:        25150
                          Major page faults:           50
                 Voluntary context switches:         1115
