<?xml version="1.0" encoding="ISO-8859-1"?>
<modeling>
 <generator>
  <i name="program" type="string">vasp </i>
  <i name="version" type="string">5.4.4.18Apr17-6-g9f103f2a35  </i>
  <i name="subversion" type="string">(build May 20 2018 16:52:39) complex            parallel </i>
  <i name="platform" type="string">LinuxIFC </i>
  <i name="date" type="string">2022 11 17 </i>
  <i name="time" type="string">22:01:43 </i>
 </generator>
 <incar>
  <i type="string" name="SYSTEM"> Nb gaussian</i>
  <i type="string" name="PREC">normal</i>
  <i type="int" name="ICHARG">    11</i>
  <i name="EDIFF">      0.00000010</i>
  <i name="ENCUT">    300.00000000</i>
  <i type="int" name="ISMEAR">     0</i>
  <i type="logical" name="LCHARG"> F  </i>
  <v type="int" name="KPOINT_BSE">    -1     0     0     0</v>
 </incar>
 <structure name="primitive_cell" >
  <crystal>
   <varray name="basis" >
    <v>       1.65040000       1.65040000       1.65040000 </v>
    <v>       1.65040000      -1.65040000      -1.65040000 </v>
    <v>      -1.65040000       1.65040000      -1.65040000 </v>
   </varray>
   <i name="volume">     17.98157117 </i>
   <varray name="rec_basis" >
    <v>       0.30295686       0.30295686       0.00000000 </v>
    <v>       0.30295686      -0.00000000      -0.30295686 </v>
    <v>      -0.00000000       0.30295686      -0.30295686 </v>
   </varray>
  </crystal>
  <varray name="positions" >
   <v>       0.00000000       0.00000000       0.00000000 </v>
  </varray>
 </structure>
 <varray name="primitive_index" >
  <v type="int" >        1 </v>
 </varray>
 <kpoints>
  <generation param="Monkhorst-Pack">
   <v type="int" name="divisions">      20       20       20 </v>
   <v name="usershift">      0.00000000       0.00000000       0.00000000 </v>
   <v name="genvec1">      0.05000000       0.00000000       0.00000000 </v>
   <v name="genvec2">      0.00000000       0.05000000       0.00000000 </v>
   <v name="genvec3">      0.00000000       0.00000000       0.05000000 </v>
   <v name="shift">      0.50000000       0.50000000       0.50000000 </v>
  </generation>
  <varray name="kpointlist" >
   <v>       0.02500000       0.02500000       0.02500000 </v>
   <v>       0.07500000       0.02500000       0.02500000 </v>
   <v>       0.12500000       0.02500000       0.02500000 </v>
   <v>       0.17500000       0.02500000       0.02500000 </v>
   <v>       0.22500000       0.02500000       0.02500000 </v>
   <v>       0.27500000       0.02500000       0.02500000 </v>
   <v>       0.32500000       0.02500000       0.02500000 </v>
   <v>       0.37500000       0.02500000       0.02500000 </v>
   <v>       0.42500000       0.02500000       0.02500000 </v>
   <v>       0.47500000       0.02500000       0.02500000 </v>
   <v>       0.07500000       0.07500000       0.02500000 </v>
   <v>       0.12500000       0.07500000       0.02500000 </v>
   <v>       0.17500000       0.07500000       0.02500000 </v>
   <v>       0.22500000       0.07500000       0.02500000 </v>
   <v>       0.27500000       0.07500000       0.02500000 </v>
   <v>       0.32500000       0.07500000       0.02500000 </v>
   <v>       0.37500000       0.07500000       0.02500000 </v>
   <v>       0.42500000       0.07500000       0.02500000 </v>
   <v>       0.47500000       0.07500000       0.02500000 </v>
   <v>       0.12500000       0.12500000       0.02500000 </v>
   <v>       0.17500000       0.12500000       0.02500000 </v>
   <v>       0.22500000       0.12500000       0.02500000 </v>
   <v>       0.27500000       0.12500000       0.02500000 </v>
   <v>       0.32500000       0.12500000       0.02500000 </v>
   <v>       0.37500000       0.12500000       0.02500000 </v>
   <v>       0.42500000       0.12500000       0.02500000 </v>
   <v>       0.47500000       0.12500000       0.02500000 </v>
   <v>       0.17500000       0.17500000       0.02500000 </v>
   <v>       0.22500000       0.17500000       0.02500000 </v>
   <v>       0.27500000       0.17500000       0.02500000 </v>
   <v>       0.32500000       0.17500000       0.02500000 </v>
   <v>       0.37500000       0.17500000       0.02500000 </v>
   <v>       0.42500000       0.17500000       0.02500000 </v>
   <v>       0.47500000       0.17500000       0.02500000 </v>
   <v>       0.22500000       0.22500000       0.02500000 </v>
   <v>       0.27500000       0.22500000       0.02500000 </v>
   <v>       0.32500000       0.22500000       0.02500000 </v>
   <v>       0.37500000       0.22500000       0.02500000 </v>
   <v>       0.42500000       0.22500000       0.02500000 </v>
   <v>       0.47500000       0.22500000       0.02500000 </v>
   <v>       0.27500000       0.27500000       0.02500000 </v>
   <v>       0.32500000       0.27500000       0.02500000 </v>
   <v>       0.37500000       0.27500000       0.02500000 </v>
   <v>       0.42500000       0.27500000       0.02500000 </v>
   <v>       0.47500000       0.27500000       0.02500000 </v>
   <v>       0.32500000       0.32500000       0.02500000 </v>
   <v>       0.37500000       0.32500000       0.02500000 </v>
   <v>       0.42500000       0.32500000       0.02500000 </v>
   <v>       0.47500000       0.32500000       0.02500000 </v>
   <v>       0.37500000       0.37500000       0.02500000 </v>
   <v>       0.42500000       0.37500000       0.02500000 </v>
   <v>       0.47500000       0.37500000       0.02500000 </v>
   <v>       0.42500000       0.42500000       0.02500000 </v>
   <v>       0.47500000       0.42500000       0.02500000 </v>
   <v>       0.47500000       0.47500000       0.02500000 </v>
   <v>       0.07500000       0.07500000       0.07500000 </v>
   <v>       0.12500000       0.07500000       0.07500000 </v>
   <v>       0.17500000       0.07500000       0.07500000 </v>
   <v>       0.22500000       0.07500000       0.07500000 </v>
   <v>       0.27500000       0.07500000       0.07500000 </v>
   <v>       0.32500000       0.07500000       0.07500000 </v>
   <v>       0.37500000       0.07500000       0.07500000 </v>
   <v>       0.42500000       0.07500000       0.07500000 </v>
   <v>       0.47500000       0.07500000       0.07500000 </v>
   <v>       0.12500000       0.12500000       0.07500000 </v>
   <v>       0.17500000       0.12500000       0.07500000 </v>
   <v>       0.22500000       0.12500000       0.07500000 </v>
   <v>       0.27500000       0.12500000       0.07500000 </v>
   <v>       0.32500000       0.12500000       0.07500000 </v>
   <v>       0.37500000       0.12500000       0.07500000 </v>
   <v>       0.42500000       0.12500000       0.07500000 </v>
   <v>       0.47500000       0.12500000       0.07500000 </v>
   <v>       0.17500000       0.17500000       0.07500000 </v>
   <v>       0.22500000       0.17500000       0.07500000 </v>
   <v>       0.27500000       0.17500000       0.07500000 </v>
   <v>       0.32500000       0.17500000       0.07500000 </v>
   <v>       0.37500000       0.17500000       0.07500000 </v>
   <v>       0.42500000       0.17500000       0.07500000 </v>
   <v>       0.47500000       0.17500000       0.07500000 </v>
   <v>       0.22500000       0.22500000       0.07500000 </v>
   <v>       0.27500000       0.22500000       0.07500000 </v>
   <v>       0.32500000       0.22500000       0.07500000 </v>
   <v>       0.37500000       0.22500000       0.07500000 </v>
   <v>       0.42500000       0.22500000       0.07500000 </v>
   <v>       0.47500000       0.22500000       0.07500000 </v>
   <v>       0.27500000       0.27500000       0.07500000 </v>
   <v>       0.32500000       0.27500000       0.07500000 </v>
   <v>       0.37500000       0.27500000       0.07500000 </v>
   <v>       0.42500000       0.27500000       0.07500000 </v>
   <v>       0.47500000       0.27500000       0.07500000 </v>
   <v>       0.32500000       0.32500000       0.07500000 </v>
   <v>       0.37500000       0.32500000       0.07500000 </v>
   <v>       0.42500000       0.32500000       0.07500000 </v>
   <v>       0.47500000       0.32500000       0.07500000 </v>
   <v>       0.37500000       0.37500000       0.07500000 </v>
   <v>       0.42500000       0.37500000       0.07500000 </v>
   <v>       0.47500000       0.37500000       0.07500000 </v>
   <v>       0.42500000       0.42500000       0.07500000 </v>
   <v>       0.47500000       0.42500000       0.07500000 </v>
   <v>       0.47500000       0.47500000       0.07500000 </v>
   <v>       0.12500000       0.12500000       0.12500000 </v>
   <v>       0.17500000       0.12500000       0.12500000 </v>
   <v>       0.22500000       0.12500000       0.12500000 </v>
   <v>       0.27500000       0.12500000       0.12500000 </v>
   <v>       0.32500000       0.12500000       0.12500000 </v>
   <v>       0.37500000       0.12500000       0.12500000 </v>
   <v>       0.42500000       0.12500000       0.12500000 </v>
   <v>       0.47500000       0.12500000       0.12500000 </v>
   <v>       0.17500000       0.17500000       0.12500000 </v>
   <v>       0.22500000       0.17500000       0.12500000 </v>
   <v>       0.27500000       0.17500000       0.12500000 </v>
   <v>       0.32500000       0.17500000       0.12500000 </v>
   <v>       0.37500000       0.17500000       0.12500000 </v>
   <v>       0.42500000       0.17500000       0.12500000 </v>
   <v>       0.47500000       0.17500000       0.12500000 </v>
   <v>       0.22500000       0.22500000       0.12500000 </v>
   <v>       0.27500000       0.22500000       0.12500000 </v>
   <v>       0.32500000       0.22500000       0.12500000 </v>
   <v>       0.37500000       0.22500000       0.12500000 </v>
   <v>       0.42500000       0.22500000       0.12500000 </v>
   <v>       0.47500000       0.22500000       0.12500000 </v>
   <v>       0.27500000       0.27500000       0.12500000 </v>
   <v>       0.32500000       0.27500000       0.12500000 </v>
   <v>       0.37500000       0.27500000       0.12500000 </v>
   <v>       0.42500000       0.27500000       0.12500000 </v>
   <v>       0.47500000       0.27500000       0.12500000 </v>
   <v>       0.32500000       0.32500000       0.12500000 </v>
   <v>       0.37500000       0.32500000       0.12500000 </v>
   <v>       0.42500000       0.32500000       0.12500000 </v>
   <v>       0.47500000       0.32500000       0.12500000 </v>
   <v>       0.37500000       0.37500000       0.12500000 </v>
   <v>       0.42500000       0.37500000       0.12500000 </v>
   <v>       0.47500000       0.37500000       0.12500000 </v>
   <v>       0.42500000       0.42500000       0.12500000 </v>
   <v>       0.47500000       0.42500000       0.12500000 </v>
   <v>       0.47500000       0.47500000       0.12500000 </v>
   <v>       0.17500000       0.17500000       0.17500000 </v>
   <v>       0.22500000       0.17500000       0.17500000 </v>
   <v>       0.27500000       0.17500000       0.17500000 </v>
   <v>       0.32500000       0.17500000       0.17500000 </v>
   <v>       0.37500000       0.17500000       0.17500000 </v>
   <v>       0.42500000       0.17500000       0.17500000 </v>
   <v>       0.47500000       0.17500000       0.17500000 </v>
   <v>       0.22500000       0.22500000       0.17500000 </v>
   <v>       0.27500000       0.22500000       0.17500000 </v>
   <v>       0.32500000       0.22500000       0.17500000 </v>
   <v>       0.37500000       0.22500000       0.17500000 </v>
   <v>       0.42500000       0.22500000       0.17500000 </v>
   <v>       0.47500000       0.22500000       0.17500000 </v>
   <v>       0.27500000       0.27500000       0.17500000 </v>
   <v>       0.32500000       0.27500000       0.17500000 </v>
   <v>       0.37500000       0.27500000       0.17500000 </v>
   <v>       0.42500000       0.27500000       0.17500000 </v>
   <v>       0.47500000       0.27500000       0.17500000 </v>
   <v>       0.32500000       0.32500000       0.17500000 </v>
   <v>       0.37500000       0.32500000       0.17500000 </v>
   <v>       0.42500000       0.32500000       0.17500000 </v>
   <v>       0.47500000       0.32500000       0.17500000 </v>
   <v>       0.37500000       0.37500000       0.17500000 </v>
   <v>       0.42500000       0.37500000       0.17500000 </v>
   <v>       0.47500000       0.37500000       0.17500000 </v>
   <v>       0.42500000       0.42500000       0.17500000 </v>
   <v>       0.47500000       0.42500000       0.17500000 </v>
   <v>       0.47500000       0.47500000       0.17500000 </v>
   <v>       0.22500000       0.22500000       0.22500000 </v>
   <v>       0.27500000       0.22500000       0.22500000 </v>
   <v>       0.32500000       0.22500000       0.22500000 </v>
   <v>       0.37500000       0.22500000       0.22500000 </v>
   <v>       0.42500000       0.22500000       0.22500000 </v>
   <v>       0.47500000       0.22500000       0.22500000 </v>
   <v>       0.27500000       0.27500000       0.22500000 </v>
   <v>       0.32500000       0.27500000       0.22500000 </v>
   <v>       0.37500000       0.27500000       0.22500000 </v>
   <v>       0.42500000       0.27500000       0.22500000 </v>
   <v>       0.47500000       0.27500000       0.22500000 </v>
   <v>       0.32500000       0.32500000       0.22500000 </v>
   <v>       0.37500000       0.32500000       0.22500000 </v>
   <v>       0.42500000       0.32500000       0.22500000 </v>
   <v>       0.47500000       0.32500000       0.22500000 </v>
   <v>       0.37500000       0.37500000       0.22500000 </v>
   <v>       0.42500000       0.37500000       0.22500000 </v>
   <v>       0.47500000       0.37500000       0.22500000 </v>
   <v>       0.42500000       0.42500000       0.22500000 </v>
   <v>       0.47500000       0.42500000       0.22500000 </v>
   <v>       0.47500000       0.47500000       0.22500000 </v>
   <v>       0.27500000       0.27500000       0.27500000 </v>
   <v>       0.32500000       0.27500000       0.27500000 </v>
   <v>       0.37500000       0.27500000       0.27500000 </v>
   <v>       0.42500000       0.27500000       0.27500000 </v>
   <v>       0.47500000       0.27500000       0.27500000 </v>
   <v>       0.32500000       0.32500000       0.27500000 </v>
   <v>       0.37500000       0.32500000       0.27500000 </v>
   <v>       0.42500000       0.32500000       0.27500000 </v>
   <v>       0.47500000       0.32500000       0.27500000 </v>
   <v>       0.37500000       0.37500000       0.27500000 </v>
   <v>       0.42500000       0.37500000       0.27500000 </v>
   <v>       0.47500000       0.37500000       0.27500000 </v>
   <v>       0.42500000       0.42500000       0.27500000 </v>
   <v>       0.47500000       0.42500000       0.27500000 </v>
   <v>       0.47500000       0.47500000       0.27500000 </v>
   <v>       0.32500000       0.32500000       0.32500000 </v>
   <v>       0.37500000       0.32500000       0.32500000 </v>
   <v>       0.42500000       0.32500000       0.32500000 </v>
   <v>       0.47500000       0.32500000       0.32500000 </v>
   <v>       0.37500000       0.37500000       0.32500000 </v>
   <v>       0.42500000       0.37500000       0.32500000 </v>
   <v>       0.47500000       0.37500000       0.32500000 </v>
   <v>       0.42500000       0.42500000       0.32500000 </v>
   <v>       0.47500000       0.42500000       0.32500000 </v>
   <v>       0.47500000       0.47500000       0.32500000 </v>
   <v>       0.37500000       0.37500000       0.37500000 </v>
   <v>       0.42500000       0.37500000       0.37500000 </v>
   <v>       0.47500000       0.37500000       0.37500000 </v>
   <v>       0.42500000       0.42500000       0.37500000 </v>
   <v>       0.47500000       0.42500000       0.37500000 </v>
   <v>       0.47500000       0.47500000       0.37500000 </v>
   <v>       0.42500000       0.42500000       0.42500000 </v>
   <v>       0.47500000       0.42500000       0.42500000 </v>
   <v>       0.47500000       0.47500000       0.42500000 </v>
   <v>       0.47500000       0.47500000       0.47500000 </v>
  </varray>
  <varray name="weights" >
   <v>       0.00100000 </v>
   <v>       0.00300000 </v>
   <v>       0.00300000 </v>
   <v>       0.00300000 </v>
   <v>       0.00300000 </v>
   <v>       0.00300000 </v>
   <v>       0.00300000 </v>
   <v>       0.00300000 </v>
   <v>       0.00300000 </v>
   <v>       0.00300000 </v>
   <v>       0.00300000 </v>
   <v>       0.00600000 </v>
   <v>       0.00600000 </v>
   <v>       0.00600000 </v>
   <v>       0.00600000 </v>
   <v>       0.00600000 </v>
   <v>       0.00600000 </v>
   <v>       0.00600000 </v>
   <v>       0.00600000 </v>
   <v>       0.00300000 </v>
   <v>       0.00600000 </v>
   <v>       0.00600000 </v>
   <v>       0.00600000 </v>
   <v>       0.00600000 </v>
   <v>       0.00600000 </v>
   <v>       0.00600000 </v>
   <v>       0.00600000 </v>
   <v>       0.00300000 </v>
   <v>       0.00600000 </v>
   <v>       0.00600000 </v>
   <v>       0.00600000 </v>
   <v>       0.00600000 </v>
   <v>       0.00600000 </v>
   <v>       0.00600000 </v>
   <v>       0.00300000 </v>
   <v>       0.00600000 </v>
   <v>       0.00600000 </v>
   <v>       0.00600000 </v>
   <v>       0.00600000 </v>
   <v>       0.00600000 </v>
   <v>       0.00300000 </v>
   <v>       0.00600000 </v>
   <v>       0.00600000 </v>
   <v>       0.00600000 </v>
   <v>       0.00600000 </v>
   <v>       0.00300000 </v>
   <v>       0.00600000 </v>
   <v>       0.00600000 </v>
   <v>       0.00600000 </v>
   <v>       0.00300000 </v>
   <v>       0.00600000 </v>
   <v>       0.00600000 </v>
   <v>       0.00300000 </v>
   <v>       0.00600000 </v>
   <v>       0.00300000 </v>
   <v>       0.00100000 </v>
   <v>       0.00300000 </v>
   <v>       0.00300000 </v>
   <v>       0.00300000 </v>
   <v>       0.00300000 </v>
   <v>       0.00300000 </v>
   <v>       0.00300000 </v>
   <v>       0.00300000 </v>
   <v>       0.00300000 </v>
   <v>       0.00300000 </v>
   <v>       0.00600000 </v>
   <v>       0.00600000 </v>
   <v>       0.00600000 </v>
   <v>       0.00600000 </v>
   <v>       0.00600000 </v>
   <v>       0.00600000 </v>
   <v>       0.00600000 </v>
   <v>       0.00300000 </v>
   <v>       0.00600000 </v>
   <v>       0.00600000 </v>
   <v>       0.00600000 </v>
   <v>       0.00600000 </v>
   <v>       0.00600000 </v>
   <v>       0.00600000 </v>
   <v>       0.00300000 </v>
   <v>       0.00600000 </v>
   <v>       0.00600000 </v>
   <v>       0.00600000 </v>
   <v>       0.00600000 </v>
   <v>       0.00600000 </v>
   <v>       0.00300000 </v>
   <v>       0.00600000 </v>
   <v>       0.00600000 </v>
   <v>       0.00600000 </v>
   <v>       0.00600000 </v>
   <v>       0.00300000 </v>
   <v>       0.00600000 </v>
   <v>       0.00600000 </v>
   <v>       0.00600000 </v>
   <v>       0.00300000 </v>
   <v>       0.00600000 </v>
   <v>       0.00600000 </v>
   <v>       0.00300000 </v>
   <v>       0.00600000 </v>
   <v>       0.00300000 </v>
   <v>       0.00100000 </v>
   <v>       0.00300000 </v>
   <v>       0.00300000 </v>
   <v>       0.00300000 </v>
   <v>       0.00300000 </v>
   <v>       0.00300000 </v>
   <v>       0.00300000 </v>
   <v>       0.00300000 </v>
   <v>       0.00300000 </v>
   <v>       0.00600000 </v>
   <v>       0.00600000 </v>
   <v>       0.00600000 </v>
   <v>       0.00600000 </v>
   <v>       0.00600000 </v>
   <v>       0.00600000 </v>
   <v>       0.00300000 </v>
   <v>       0.00600000 </v>
   <v>       0.00600000 </v>
   <v>       0.00600000 </v>
   <v>       0.00600000 </v>
   <v>       0.00600000 </v>
   <v>       0.00300000 </v>
   <v>       0.00600000 </v>
   <v>       0.00600000 </v>
   <v>       0.00600000 </v>
   <v>       0.00600000 </v>
   <v>       0.00300000 </v>
   <v>       0.00600000 </v>
   <v>       0.00600000 </v>
   <v>       0.00600000 </v>
   <v>       0.00300000 </v>
   <v>       0.00600000 </v>
   <v>       0.00600000 </v>
   <v>       0.00300000 </v>
   <v>       0.00600000 </v>
   <v>       0.00300000 </v>
   <v>       0.00100000 </v>
   <v>       0.00300000 </v>
   <v>       0.00300000 </v>
   <v>       0.00300000 </v>
   <v>       0.00300000 </v>
   <v>       0.00300000 </v>
   <v>       0.00300000 </v>
   <v>       0.00300000 </v>
   <v>       0.00600000 </v>
   <v>       0.00600000 </v>
   <v>       0.00600000 </v>
   <v>       0.00600000 </v>
   <v>       0.00600000 </v>
   <v>       0.00300000 </v>
   <v>       0.00600000 </v>
   <v>       0.00600000 </v>
   <v>       0.00600000 </v>
   <v>       0.00600000 </v>
   <v>       0.00300000 </v>
   <v>       0.00600000 </v>
   <v>       0.00600000 </v>
   <v>       0.00600000 </v>
   <v>       0.00300000 </v>
   <v>       0.00600000 </v>
   <v>       0.00600000 </v>
   <v>       0.00300000 </v>
   <v>       0.00600000 </v>
   <v>       0.00300000 </v>
   <v>       0.00100000 </v>
   <v>       0.00300000 </v>
   <v>       0.00300000 </v>
   <v>       0.00300000 </v>
   <v>       0.00300000 </v>
   <v>       0.00300000 </v>
   <v>       0.00300000 </v>
   <v>       0.00600000 </v>
   <v>       0.00600000 </v>
   <v>       0.00600000 </v>
   <v>       0.00600000 </v>
   <v>       0.00300000 </v>
   <v>       0.00600000 </v>
   <v>       0.00600000 </v>
   <v>       0.00600000 </v>
   <v>       0.00300000 </v>
   <v>       0.00600000 </v>
   <v>       0.00600000 </v>
   <v>       0.00300000 </v>
   <v>       0.00600000 </v>
   <v>       0.00300000 </v>
   <v>       0.00100000 </v>
   <v>       0.00300000 </v>
   <v>       0.00300000 </v>
   <v>       0.00300000 </v>
   <v>       0.00300000 </v>
   <v>       0.00300000 </v>
   <v>       0.00600000 </v>
   <v>       0.00600000 </v>
   <v>       0.00600000 </v>
   <v>       0.00300000 </v>
   <v>       0.00600000 </v>
   <v>       0.00600000 </v>
   <v>       0.00300000 </v>
   <v>       0.00600000 </v>
   <v>       0.00300000 </v>
   <v>       0.00100000 </v>
   <v>       0.00300000 </v>
   <v>       0.00300000 </v>
   <v>       0.00300000 </v>
   <v>       0.00300000 </v>
   <v>       0.00600000 </v>
   <v>       0.00600000 </v>
   <v>       0.00300000 </v>
   <v>       0.00600000 </v>
   <v>       0.00300000 </v>
   <v>       0.00100000 </v>
   <v>       0.00300000 </v>
   <v>       0.00300000 </v>
   <v>       0.00300000 </v>
   <v>       0.00600000 </v>
   <v>       0.00300000 </v>
   <v>       0.00100000 </v>
   <v>       0.00300000 </v>
   <v>       0.00300000 </v>
   <v>       0.00100000 </v>
  </varray>
 </kpoints>
 <parameters>
  <separator name="general" >
   <i type="string" name="SYSTEM">Nb gaussian</i>
   <i type="logical" name="LCOMPAT"> F  </i>
  </separator>
  <separator name="electronic" >
   <i type="string" name="PREC">normal</i>
   <i name="ENMAX">    300.00000000</i>
   <i name="ENAUG">    352.74500000</i>
   <i name="EDIFF">      0.00000010</i>
   <i type="int" name="IALGO">    38</i>
   <i type="int" name="IWAVPR">    10</i>
   <i type="int" name="NBANDS">    40</i>
   <i name="NELECT">     22.00000000</i>
   <i type="int" name="TURBO">     0</i>
   <i type="int" name="IRESTART">     0</i>
   <i type="int" name="NREBOOT">     0</i>
   <i type="int" name="NMIN">     0</i>
   <i name="EREF">      0.00000000</i>
   <separator name="electronic smearing" >
    <i type="int" name="ISMEAR">     0</i>
    <i name="SIGMA">      0.20000000</i>
    <i name="KSPACING">      0.50000000</i>
    <i type="logical" name="KGAMMA"> T  </i>
   </separator>
   <separator name="electronic projectors" >
    <i type="logical" name="LREAL"> F  </i>
    <v name="ROPT">      0.00000000</v>
    <i type="int" name="LMAXPAW">  -100</i>
    <i type="int" name="LMAXMIX">     2</i>
    <i type="logical" name="NLSPLINE"> F  </i>
   </separator>
   <separator name="electronic startup" >
    <i type="int" name="ISTART">     0</i>
    <i type="int" name="ICHARG">    11</i>
    <i type="int" name="INIWAV">     1</i>
   </separator>
   <separator name="electronic spin" >
    <i type="int" name="ISPIN">     1</i>
    <i type="logical" name="LNONCOLLINEAR"> F  </i>
    <v name="MAGMOM">      1.00000000      1.00000000</v>
    <i name="NUPDOWN">     -1.00000000</i>
    <i type="logical" name="LSORBIT"> F  </i>
    <v name="SAXIS">      0.00000000      0.00000000      1.00000000</v>
    <i type="logical" name="LSPIRAL"> F  </i>
    <v name="QSPIRAL">      0.00000000      0.00000000      0.00000000</v>
    <i type="logical" name="LZEROZ"> F  </i>
   </separator>
   <separator name="electronic exchange-correlation" >
    <i type="logical" name="LASPH"> F  </i>
    <i type="logical" name="LMETAGGA"> F  </i>
   </separator>
   <separator name="electronic convergence" >
    <i type="int" name="NELM">    60</i>
    <i type="int" name="NELMDL">    -5</i>
    <i type="int" name="NELMIN">     2</i>
    <i name="ENINI">    300.00000000</i>
    <separator name="electronic convergence detail" >
     <i type="logical" name="LDIAG"> T  </i>
     <i type="logical" name="LSUBROT"> F  </i>
     <i name="WEIMIN">      0.00000000</i>
     <i name="EBREAK">      0.00000000</i>
     <i name="DEPER">      0.30000000</i>
     <i type="int" name="NRMM">     4</i>
     <i name="TIME">      0.40000000</i>
    </separator>
   </separator>
   <separator name="electronic mixer" >
    <i name="AMIX">      0.40000000</i>
    <i name="BMIX">      1.00000000</i>
    <i name="AMIN">      0.10000000</i>
    <i name="AMIX_MAG">      1.60000000</i>
    <i name="BMIX_MAG">      1.00000000</i>
    <separator name="electronic mixer details" >
     <i type="int" name="IMIX">     4</i>
     <i type="logical" name="MIXFIRST"> F  </i>
     <i type="int" name="MAXMIX">   -45</i>
     <i name="WC">    100.00000000</i>
     <i type="int" name="INIMIX">     1</i>
     <i type="int" name="MIXPRE">     1</i>
     <i type="int" name="MREMOVE">     5</i>
    </separator>
   </separator>
   <separator name="electronic dipolcorrection" >
    <i type="logical" name="LDIPOL"> F  </i>
    <i type="logical" name="LMONO"> F  </i>
    <i type="int" name="IDIPOL">     0</i>
    <i name="EPSILON">      1.00000000</i>
    <v name="DIPOL">   -100.00000000   -100.00000000   -100.00000000</v>
    <i name="EFIELD">      0.00000000</i>
   </separator>
  </separator>
  <separator name="grids" >
   <i type="int" name="NGX">    14</i>
   <i type="int" name="NGY">    14</i>
   <i type="int" name="NGZ">    14</i>
   <i type="int" name="NGXF">    28</i>
   <i type="int" name="NGYF">    28</i>
   <i type="int" name="NGZF">    28</i>
   <i type="logical" name="ADDGRID"> F  </i>
  </separator>
  <separator name="ionic" >
   <i type="int" name="NSW">     0</i>
   <i type="int" name="IBRION">    -1</i>
   <i type="int" name="MDALGO">     0</i>
   <i type="int" name="ISIF">     2</i>
   <i name="PSTRESS">      0.00000000</i>
   <i name="EDIFFG">      0.00000100</i>
   <i type="int" name="NFREE">     0</i>
   <i name="POTIM">      0.50000000</i>
   <i name="SMASS">     -3.00000000</i>
   <i name="SCALEE">      1.00000000</i>
  </separator>
  <separator name="ionic md" >
   <i name="TEBEG">      0.00010000</i>
   <i name="TEEND">      0.00010000</i>
   <i type="int" name="NBLOCK">     1</i>
   <i type="int" name="KBLOCK">     1</i>
   <i type="int" name="NPACO">   256</i>
   <i name="APACO">     16.00000000</i>
  </separator>
  <separator name="symmetry" >
   <i type="int" name="ISYM">     2</i>
   <i name="SYMPREC">      0.00001000</i>
  </separator>
  <separator name="dos" >
   <i type="int" name="LORBIT">     0</i>
   <v name="RWIGS">     -1.00000000</v>
   <i type="int" name="NEDOS">   301</i>
   <i name="EMIN">     10.00000000</i>
   <i name="EMAX">    -10.00000000</i>
   <i name="EFERMI">      0.00000000</i>
  </separator>
  <separator name="writing" >
   <i type="int" name="NWRITE">     2</i>
   <i type="logical" name="LWAVE"> T  </i>
   <i type="logical" name="LDOWNSAMPLE"> F  </i>
   <i type="logical" name="LCHARG"> F  </i>
   <i type="logical" name="LPARD"> F  </i>
   <i type="logical" name="LVTOT"> F  </i>
   <i type="logical" name="LVHAR"> F  </i>
   <i type="logical" name="LELF"> F  </i>
   <i type="logical" name="LOPTICS"> F  </i>
   <v name="STM">      0.00000000      0.00000000      0.00000000      0.00000000      0.00000000      0.00000000      0.00000000</v>
  </separator>
  <separator name="performance" >
   <i type="int" name="NPAR">    40</i>
   <i type="int" name="NSIM">     4</i>
   <i type="int" name="NBLK">    -1</i>
   <i type="logical" name="LPLANE"> T  </i>
   <i type="logical" name="LSCALAPACK"> T  </i>
   <i type="logical" name="LSCAAWARE"> T  </i>
   <i type="logical" name="LSCALU"> F  </i>
   <i type="logical" name="LASYNC"> F  </i>
   <i type="logical" name="LORBITALREAL"> F  </i>
  </separator>
  <separator name="miscellaneous" >
   <i type="int" name="IDIOT">     3</i>
   <i type="int" name="ISPECIAL">     0</i>
   <i type="logical" name="LMUSIC"> F  </i>
   <v name="POMASS">     92.91000000</v>
   <v name="DARWINR">      0.00000000</v>
   <v name="DARWINV">      1.00000000</v>
   <i type="logical" name="LCORR"> T  </i>
  </separator>
  <i type="logical" name="GGA_COMPAT"> T  </i>
  <i type="logical" name="LBERRY"> F  </i>
  <i type="int" name="ICORELEVEL">     0</i>
  <i type="logical" name="LDAU"> F  </i>
  <i type="int" name="I_CONSTRAINED_M">     0</i>
  <separator name="electronic exchange-correlation" >
   <i type="string" name="GGA">--</i>
   <i type="int" name="VOSKOWN">     0</i>
   <i type="logical" name="LHFCALC"> F  </i>
   <i type="string" name="PRECFOCK"></i>
   <i type="logical" name="LSYMGRAD"> F  </i>
   <i type="logical" name="LHFONE"> F  </i>
   <i type="logical" name="LRHFCALC"> F  </i>
   <i type="logical" name="LTHOMAS"> F  </i>
   <i type="logical" name="LMODELHF"> F  </i>
   <i name="ENCUT4O">     -1.00000000</i>
   <i type="int" name="EXXOEP">     0</i>
   <i type="int" name="FOURORBIT">     0</i>
   <i name="AEXX">      0.00000000</i>
   <i name="HFALPHA">      0.00000000</i>
   <i name="MCALPHA">      0.00000000</i>
   <i name="ALDAX">      1.00000000</i>
   <i name="AGGAX">      1.00000000</i>
   <i name="ALDAC">      1.00000000</i>
   <i name="AGGAC">      1.00000000</i>
   <i type="int" name="NKREDX">     1</i>
   <i type="int" name="NKREDY">     1</i>
   <i type="int" name="NKREDZ">     1</i>
   <i type="logical" name="SHIFTRED"> F  </i>
   <i type="logical" name="ODDONLY"> F  </i>
   <i type="logical" name="EVENONLY"> F  </i>
   <i type="int" name="LMAXFOCK">     0</i>
   <i type="int" name="NMAXFOCKAE">     0</i>
   <i type="logical" name="LFOCKAEDFT"> F  </i>
   <i name="HFSCREEN">      0.00000000</i>
   <i name="HFSCREENC">      0.00000000</i>
   <i type="int" name="NBANDSGWLOW">     0</i>
  </separator>
  <separator name="vdW DFT" >
   <i type="logical" name="LUSE_VDW"> F  </i>
   <i name="Zab_VDW">     -0.84910000</i>
   <i name="PARAM1">      0.12340000</i>
   <i name="PARAM2">      1.00000000</i>
   <i name="PARAM3">      0.00000000</i>
  </separator>
  <separator name="model GW" >
   <i type="int" name="MODEL_GW">     0</i>
   <i name="MODEL_EPS0">     10.78894270</i>
   <i name="MODEL_ALPHA">      1.00000000</i>
  </separator>
  <separator name="linear response parameters" >
   <i type="logical" name="LEPSILON"> F  </i>
   <i type="logical" name="LRPA"> F  </i>
   <i type="logical" name="LNABLA"> F  </i>
   <i type="logical" name="LVEL"> F  </i>
   <i type="int" name="KINTER">     0</i>
   <i name="CSHIFT">      0.10000000</i>
   <i name="OMEGAMAX">     -1.00000000</i>
   <i name="DEG_THRESHOLD">      0.00200000</i>
   <i name="RTIME">     -0.10000000</i>
   <i name="WPLASMAI">      0.00000000</i>
   <v name="DFIELD">      0.00000000      0.00000000      0.00000000</v>
   <v name="WPLASMA">      0.00000000      0.00000000      0.00000000      0.00000000      0.00000000      0.00000000      0.00000000      0.00000000      0.00000000</v>
  </separator>
  <separator name="orbital magnetization" >
   <i type="logical" name="NUCIND"> F  </i>
   <v name="MAGPOS">      0.00000000      0.00000000      0.00000000</v>
   <i type="logical" name="LNICSALL"> T  </i>
   <i type="logical" name="ORBITALMAG"> F  </i>
   <i type="logical" name="LMAGBLOCH"> F  </i>
   <i type="logical" name="LCHIMAG"> F  </i>
   <i type="logical" name="LGAUGE"> T  </i>
   <i type="int" name="MAGATOM">     0</i>
   <v name="MAGDIPOL">      0.00000000      0.00000000      0.00000000</v>
   <v name="AVECCONST">      0.00000000      0.00000000      0.00000000</v>
  </separator>
  <separator name="response functions" >
   <i type="logical" name="LADDER"> F  </i>
   <i type="logical" name="LRPAFORCE"> F  </i>
   <i type="logical" name="LFXC"> F  </i>
   <i type="logical" name="LHARTREE"> T  </i>
   <i type="int" name="IBSE">     0</i>
   <v type="int" name="KPOINT">    -1     0     0     0</v>
   <i type="logical" name="LTCTE"> F  </i>
   <i type="logical" name="LTETE"> F  </i>
   <i type="logical" name="LTRIPLET"> F  </i>
   <i type="logical" name="LFXCEPS"> F  </i>
   <i type="logical" name="LFXHEG"> F  </i>
   <i type="int" name="NATURALO">     2</i>
   <i type="logical" name="L2ORDER"> F  </i>
   <i type="logical" name="LMP2LT"> F  </i>
   <i type="logical" name="LUSEW"> F  </i>
   <i name="ENCUTGW">     -2.00000000</i>
   <i name="ENCUTGWSOFT">     -2.00000000</i>
   <i name="ENCUTLF">     -1.00000000</i>
   <i type="int" name="LMAXMP2">    -1</i>
   <i name="SCISSOR">      0.00000000</i>
   <i type="int" name="NOMEGA">     0</i>
   <i type="int" name="NOMEGAR">     0</i>
   <i type="int" name="NBANDSGW">    -1</i>
   <i type="int" name="NBANDSO">    -1</i>
   <i type="int" name="NBANDSV">    -1</i>
   <i type="int" name="NELM">     1</i>
   <i type="int" name="NELMHF">     1</i>
   <i type="int" name="DIM">     3</i>
   <i type="int" name="ANTIRES">     0</i>
   <i name="OMEGAMAX">    -30.00000000</i>
   <i name="OMEGAMIN">    -30.00000000</i>
   <i name="OMEGATL">   -200.00000000</i>
   <i type="int" name="OMEGAGRID">   140</i>
   <i name="CSHIFT">     -0.10000000</i>
   <i type="logical" name="SELFENERGY"> F  </i>
   <i type="logical" name="LSPECTRAL"> F  </i>
   <i type="logical" name="LSPECTRALGW"> F  </i>
   <i type="logical" name="LSINGLES"> F  </i>
   <i type="logical" name="LFERMIGW"> F  </i>
   <i type="logical" name="ODDONLYGW"> F  </i>
   <i type="logical" name="EVENONLYGW"> F  </i>
   <i type="int" name="NKREDLFX">     1</i>
   <i type="int" name="NKREDLFY">     1</i>
   <i type="int" name="NKREDLFZ">     1</i>
   <i type="int" name="MAXMEM">  2800</i>
   <i type="int" name="TELESCOPE">     0</i>
   <i type="int" name="TAUPAR">     1</i>
   <i type="int" name="OMEGAPAR">    -1</i>
   <i name="LAMBDA">      1.00000000</i>
  </separator>
  <separator name="External order field" >
   <i name="OFIELD_KAPPA">      0.00000000</i>
   <v name="OFIELD_K">      0.00000000      0.00000000      0.00000000</v>
   <i name="OFIELD_Q6_NEAR">      0.00000000</i>
   <i name="OFIELD_Q6_FAR">      0.00000000</i>
   <i name="OFIELD_A">      0.00000000</i>
  </separator>
 </parameters>
 <atominfo>
  <atoms>       2 </atoms>
  <types>       1 </types>
  <array name="atoms" >
   <dimension dim="1">ion</dimension>
   <field type="string">element</field>
   <field type="int">atomtype</field>
   <set>
    <rc><c>Nb</c><c>   1</c></rc>
    <rc><c>Nb</c><c>   1</c></rc>
   </set>
  </array>
  <array name="atomtypes" >
   <dimension dim="1">type</dimension>
   <field type="int">atomspertype</field>
   <field type="string">element</field>
   <field>mass</field>
   <field>valence</field>
   <field type="string">pseudopotential</field>
   <set>
    <rc><c>   2</c><c>Nb</c><c>     92.91000000</c><c>     11.00000000</c><c>  PAW Nb_pv 09Jan2002                   </c></rc>
   </set>
  </array>
 </atominfo>
 <structure name="initialpos" >
  <crystal>
   <varray name="basis" >
    <v>       3.30080000       0.00000000       0.00000000 </v>
    <v>       0.00000000       3.30080000       0.00000000 </v>
    <v>       0.00000000       0.00000000       3.30080000 </v>
   </varray>
   <i name="volume">     35.96314234 </i>
   <varray name="rec_basis" >
    <v>       0.30295686       0.00000000       0.00000000 </v>
    <v>       0.00000000       0.30295686       0.00000000 </v>
    <v>       0.00000000       0.00000000       0.30295686 </v>
   </varray>
  </crystal>
  <varray name="positions" >
   <v>       0.00000000       0.00000000       0.00000000 </v>
   <v>       0.50000000       0.50000000       0.50000000 </v>
  </varray>
 </structure>
 <calculation>
  <scstep>
   <time name="dav">    2.11    2.13</time>
   <time name="total">    2.13    2.17</time>
   <energy>
    <i name="alphaZ">    249.60523850 </i>
    <i name="ewald">  -1921.02116984 </i>
    <i name="hartreedc">   -240.24840956 </i>
    <i name="XCdc">     52.87382943 </i>
    <i name="pawpsdc">   2998.17375884 </i>
    <i name="pawaedc">  -2981.53861473 </i>
    <i name="eentropy">     -0.04357028 </i>
    <i name="bandstr">   -251.93775887 </i>
    <i name="atom">   2092.72627849 </i>
    <i name="e_fr_energy">     -1.41041802 </i>
    <i name="e_wo_entrp">     -1.36684774 </i>
    <i name="e_0_energy">     -1.38863288 </i>
   </energy>
  </scstep>
  <scstep>
   <time name="dav">    3.08    3.09</time>
   <time name="total">    3.08    3.09</time>
   <energy>
    <i name="e_fr_energy">    -22.27744505 </i>
    <i name="e_wo_entrp">    -22.21686852 </i>
    <i name="e_0_energy">    -22.24715678 </i>
   </energy>
  </scstep>
  <scstep>
   <time name="dav">    3.20    3.21</time>
   <time name="total">    3.20    3.21</time>
   <energy>
    <i name="e_fr_energy">    -22.30366777 </i>
    <i name="e_wo_entrp">    -22.24310676 </i>
    <i name="e_0_energy">    -22.27338727 </i>
   </energy>
  </scstep>
  <scstep>
   <time name="dav">    4.98    5.00</time>
   <time name="total">    4.99    5.00</time>
   <energy>
    <i name="e_fr_energy">    -22.30367561 </i>
    <i name="e_wo_entrp">    -22.24311460 </i>
    <i name="e_0_energy">    -22.27339510 </i>
   </energy>
  </scstep>
  <scstep>
   <time name="dav">    3.32    3.37</time>
   <time name="total">    3.33    3.37</time>
   <energy>
    <i name="e_fr_energy">    -22.30367561 </i>
    <i name="e_wo_entrp">    -22.24311460 </i>
    <i name="e_0_energy">    -22.27339510 </i>
   </energy>
  </scstep>
  <scstep>
   <time name="dav">    5.04    5.06</time>
   <time name="total">    5.04    5.06</time>
   <energy>
    <i name="alphaZ">    249.60523850 </i>
    <i name="ewald">  -1921.02116984 </i>
    <i name="hartreedc">   -240.24840956 </i>
    <i name="XCdc">     52.87382943 </i>
    <i name="pawpsdc">   2998.17375884 </i>
    <i name="pawaedc">  -2981.53861473 </i>
    <i name="eentropy">     -0.06056102 </i>
    <i name="bandstr">   -272.81402572 </i>
    <i name="atom">   2092.72627849 </i>
    <i name="e_fr_energy">    -22.30367561 </i>
    <i name="e_wo_entrp">    -22.24311460 </i>
    <i name="e_0_energy">    -22.27339510 </i>
   </energy>
  </scstep>
  <structure>
   <crystal>
    <varray name="basis" >
     <v>       3.30080000       0.00000000       0.00000000 </v>
     <v>       0.00000000       3.30080000       0.00000000 </v>
     <v>       0.00000000       0.00000000       3.30080000 </v>
    </varray>
    <i name="volume">     35.96314234 </i>
    <varray name="rec_basis" >
     <v>       0.30295686       0.00000000       0.00000000 </v>
     <v>       0.00000000       0.30295686       0.00000000 </v>
     <v>       0.00000000       0.00000000       0.30295686 </v>
    </varray>
   </crystal>
   <varray name="positions" >
    <v>       0.00000000       0.00000000       0.00000000 </v>
    <v>       0.50000000       0.50000000       0.50000000 </v>
   </varray>
  </structure>
  <varray name="forces" >
   <v>      -0.00000000       0.00000000       0.00000000 </v>
   <v>       0.00000000       0.00000000      -0.00000000 </v>
  </varray>
  <varray name="stress" >
   <v>     -64.21857392      -0.00000000       0.00000000 </v>
   <v>       0.00000000     -64.21857392       0.00000000 </v>
   <v>       0.00000000       0.00000000     -64.21857392 </v>
  </varray>
  <energy>
   <i name="e_fr_energy">    -22.30367561 </i>
   <i name="e_wo_entrp">    -22.27339510 </i>
   <i name="e_0_energy">     -0.06056102 </i>
  </energy>
  <time name="totalsc">   22.57   22.78</time>
  <eigenvalues>
   <array>
    <dimension dim="1">band</dimension>
    <dimension dim="2">kpoint</dimension>
    <dimension dim="3">spin</dimension>
    <field>eigene</field>
    <field>occ</field>
    <set>
     <set comment="spin 1">
      <set comment="kpoint 1">
       <r>  -25.6390    1.0000 </r>
       <r>  -25.6390    1.0000 </r>
       <r>  -25.6268    1.0000 </r>
       <r>  -24.7068    1.0000 </r>
       <r>  -24.6929    1.0000 </r>
       <r>  -24.6929    1.0000 </r>
       <r>   -1.0486    1.0000 </r>
       <r>    1.1101    1.0000 </r>
       <r>    1.1101    1.0000 </r>
       <r>    5.1464    0.0193 </r>
       <r>    5.1464    0.0193 </r>
       <r>    5.2080    0.0061 </r>
       <r>    8.0601    0.0000 </r>
       <r>    8.0601    0.0000 </r>
       <r>   10.2024    0.0000 </r>
       <r>   10.3989    0.0000 </r>
       <r>   10.3989    0.0000 </r>
       <r>   14.2778    0.0000 </r>
       <r>   14.2778    0.0000 </r>
       <r>   14.3719    0.0000 </r>
       <r>   20.4306    0.0000 </r>
       <r>   20.4837    0.0000 </r>
       <r>   20.4837    0.0000 </r>
       <r>   23.4817    0.0000 </r>
       <r>   25.8958    0.0000 </r>
       <r>   25.8958    0.0000 </r>
       <r>   30.1114    0.0000 </r>
       <r>   30.2056    0.0000 </r>
       <r>   30.2056    0.0000 </r>
       <r>   34.0337    0.0000 </r>
       <r>   34.5698    0.0000 </r>
       <r>   34.5698    0.0000 </r>
       <r>   40.8060    0.0000 </r>
       <r>   40.9897    0.0000 </r>
       <r>   40.9897    0.0000 </r>
       <r>   41.4496    0.0000 </r>
       <r>   41.6270    0.0000 </r>
       <r>   41.9873    0.0000 </r>
       <r>   41.9873    0.0000 </r>
       <r>   42.2149    0.0000 </r>
      </set>
      <set comment="kpoint 2">
       <r>  -25.6470    1.0000 </r>
       <r>  -25.6270    1.0000 </r>
       <r>  -25.6085    1.0000 </r>
       <r>  -24.7384    1.0000 </r>
       <r>  -24.7041    1.0000 </r>
       <r>  -24.6982    1.0000 </r>
       <r>   -0.9441    1.0000 </r>
       <r>    1.1665    1.0000 </r>
       <r>    1.2012    1.0000 </r>
       <r>    5.1072    0.0366 </r>
       <r>    5.1344    0.0237 </r>
       <r>    5.2856    0.0011 </r>
       <r>    7.9125    0.0000 </r>
       <r>    8.1149    0.0000 </r>
       <r>    9.7901    0.0000 </r>
       <r>   10.0332    0.0000 </r>
       <r>   10.3899    0.0000 </r>
       <r>   13.9908    0.0000 </r>
       <r>   14.7559    0.0000 </r>
       <r>   14.8015    0.0000 </r>
       <r>   20.5348    0.0000 </r>
       <r>   20.6571    0.0000 </r>
       <r>   20.6828    0.0000 </r>
       <r>   23.7455    0.0000 </r>
       <r>   25.8000    0.0000 </r>
       <r>   25.8444    0.0000 </r>
       <r>   29.1663    0.0000 </r>
       <r>   30.2556    0.0000 </r>
       <r>   30.3847    0.0000 </r>
       <r>   33.7262    0.0000 </r>
       <r>   34.3775    0.0000 </r>
       <r>   35.4679    0.0000 </r>
       <r>   40.5003    0.0000 </r>
       <r>   40.7474    0.0000 </r>
       <r>   40.7912    0.0000 </r>
       <r>   40.8817    0.0000 </r>
       <r>   41.3791    0.0000 </r>
       <r>   41.8091    0.0000 </r>
       <r>   41.9622    0.0000 </r>
       <r>   42.4400    0.0000 </r>
      </set>
      <set comment="kpoint 3">
       <r>  -25.6525    1.0000 </r>
       <r>  -25.6033    1.0000 </r>
       <r>  -25.5817    1.0000 </r>
       <r>  -24.7913    1.0000 </r>
       <r>  -24.7263    1.0000 </r>
       <r>  -24.7171    1.0000 </r>
       <r>   -0.7394    1.0000 </r>
       <r>    1.2793    1.0000 </r>
       <r>    1.3761    1.0000 </r>
       <r>    5.0756    0.0585 </r>
       <r>    5.1167    0.0316 </r>
       <r>    5.3990    0.0001 </r>
       <r>    7.6329    0.0000 </r>
       <r>    8.2214    0.0000 </r>
       <r>    9.2409    0.0000 </r>
       <r>    9.4777    0.0000 </r>
       <r>   10.2430    0.0000 </r>
       <r>   13.4693    0.0000 </r>
       <r>   15.5356    0.0000 </r>
       <r>   15.5397    0.0000 </r>
       <r>   20.7677    0.0000 </r>
       <r>   20.9951    0.0000 </r>
       <r>   21.0322    0.0000 </r>
       <r>   23.9515    0.0000 </r>
       <r>   25.7452    0.0000 </r>
       <r>   25.8969    0.0000 </r>
       <r>   27.7292    0.0000 </r>
       <r>   30.5367    0.0000 </r>
       <r>   30.7373    0.0000 </r>
       <r>   33.3360    0.0000 </r>
       <r>   33.9906    0.0000 </r>
       <r>   36.3650    0.0000 </r>
       <r>   39.8489    0.0000 </r>
       <r>   40.1878    0.0000 </r>
       <r>   40.3704    0.0000 </r>
       <r>   40.5914    0.0000 </r>
       <r>   40.6137    0.0000 </r>
       <r>   41.6772    0.0000 </r>
       <r>   42.0057    0.0000 </r>
       <r>   42.6632    0.0000 </r>
      </set>
      <set comment="kpoint 4">
       <r>  -25.6552    1.0000 </r>
       <r>  -25.5686    1.0000 </r>
       <r>  -25.5456    1.0000 </r>
       <r>  -24.8633    1.0000 </r>
       <r>  -24.7589    1.0000 </r>
       <r>  -24.7477    1.0000 </r>
       <r>   -0.4433    1.0000 </r>
       <r>    1.4474    1.0000 </r>
       <r>    1.6179    1.0000 </r>
       <r>    5.0552    0.0773 </r>
       <r>    5.0998    0.0410 </r>
       <r>    5.5520    0.0000 </r>
       <r>    7.2472    0.0000 </r>
       <r>    8.3727    0.0000 </r>
       <r>    8.6445    0.0000 </r>
       <r>    8.8652    0.0000 </r>
       <r>   10.0007    0.0000 </r>
       <r>   12.8176    0.0000 </r>
       <r>   16.4521    0.0000 </r>
       <r>   16.4805    0.0000 </r>
       <r>   21.0960    0.0000 </r>
       <r>   21.4772    0.0000 </r>
       <r>   21.5220    0.0000 </r>
       <r>   23.6791    0.0000 </r>
       <r>   25.5980    0.0000 </r>
       <r>   26.2227    0.0000 </r>
       <r>   26.5659    0.0000 </r>
       <r>   30.9409    0.0000 </r>
       <r>   31.2333    0.0000 </r>
       <r>   32.7697    0.0000 </r>
       <r>   33.4409    0.0000 </r>
       <r>   37.0445    0.0000 </r>
       <r>   38.7501    0.0000 </r>
       <r>   39.1273    0.0000 </r>
       <r>   39.9085    0.0000 </r>
       <r>   40.3073    0.0000 </r>
       <r>   40.4416    0.0000 </r>
       <r>   41.3455    0.0000 </r>
       <r>   42.1464    0.0000 </r>
       <r>   42.7785    0.0000 </r>
      </set>
      <set comment="kpoint 5">
       <r>  -25.6534    1.0000 </r>
       <r>  -25.5237    1.0000 </r>
       <r>  -25.5003    1.0000 </r>
       <r>  -24.9502    1.0000 </r>
       <r>  -24.8014    1.0000 </r>
       <r>  -24.7885    1.0000 </r>
       <r>   -0.0685    1.0000 </r>
       <r>    1.6700    1.0000 </r>
       <r>    1.9028    1.0000 </r>
       <r>    5.0532    0.0794 </r>
       <r>    5.0922    0.0460 </r>
       <r>    5.7470    0.0000 </r>
       <r>    6.7867    0.0000 </r>
       <r>    8.0556    0.0000 </r>
       <r>    8.2596    0.0000 </r>
       <r>    8.5592    0.0000 </r>
       <r>    9.6890    0.0000 </r>
       <r>   12.1184    0.0000 </r>
       <r>   17.4672    0.0000 </r>
       <r>   17.5231    0.0000 </r>
       <r>   21.4816    0.0000 </r>
       <r>   22.0599    0.0000 </r>
       <r>   22.1352    0.0000 </r>
       <r>   23.0718    0.0000 </r>
       <r>   24.7967    0.0000 </r>
       <r>   25.4076    0.0000 </r>
       <r>   27.6711    0.0000 </r>
       <r>   31.4512    0.0000 </r>
       <r>   31.6697    0.0000 </r>
       <r>   32.0293    0.0000 </r>
       <r>   32.9646    0.0000 </r>
       <r>   37.4939    0.0000 </r>
       <r>   37.5082    0.0000 </r>
       <r>   37.7531    0.0000 </r>
       <r>   39.4826    0.0000 </r>
       <r>   40.2251    0.0000 </r>
       <r>   40.4146    0.0000 </r>
       <r>   41.0249    0.0000 </r>
       <r>   42.2257    0.0000 </r>
       <r>   42.8234    0.0000 </r>
      </set>
      <set comment="kpoint 6">
       <r>  -25.6447    1.0000 </r>
       <r>  -25.4699    1.0000 </r>
       <r>  -25.4465    1.0000 </r>
       <r>  -25.0469    1.0000 </r>
       <r>  -24.8527    1.0000 </r>
       <r>  -24.8385    1.0000 </r>
       <r>    0.3675    1.0000 </r>
       <r>    1.9452    1.0000 </r>
       <r>    2.1949    1.0000 </r>
       <r>    5.0780    0.0566 </r>
       <r>    5.0983    0.0420 </r>
       <r>    5.9836    0.0000 </r>
       <r>    6.2851    0.0000 </r>
       <r>    7.5031    0.0000 </r>
       <r>    7.6903    0.0000 </r>
       <r>    8.7651    0.0000 </r>
       <r>    9.3275    0.0000 </r>
       <r>   11.4354    0.0000 </r>
       <r>   18.5395    0.0000 </r>
       <r>   18.6269    0.0000 </r>
       <r>   21.8936    0.0000 </r>
       <r>   22.3644    0.0000 </r>
       <r>   22.5402    0.0000 </r>
       <r>   22.8355    0.0000 </r>
       <r>   23.6854    0.0000 </r>
       <r>   25.1764    0.0000 </r>
       <r>   29.0037    0.0000 </r>
       <r>   31.1674    0.0000 </r>
       <r>   31.3179    0.0000 </r>
       <r>   32.0415    0.0000 </r>
       <r>   33.3515    0.0000 </r>
       <r>   36.1441    0.0000 </r>
       <r>   36.3112    0.0000 </r>
       <r>   37.8216    0.0000 </r>
       <r>   38.8928    0.0000 </r>
       <r>   40.3592    0.0000 </r>
       <r>   40.5174    0.0000 </r>
       <r>   40.7250    0.0000 </r>
       <r>   42.2371    0.0000 </r>
       <r>   42.8256    0.0000 </r>
      </set>
      <set comment="kpoint 7">
       <r>  -25.6265    1.0000 </r>
       <r>  -25.4084    1.0000 </r>
       <r>  -25.3856    1.0000 </r>
       <r>  -25.1477    1.0000 </r>
       <r>  -24.9117    1.0000 </r>
       <r>  -24.8962    1.0000 </r>
       <r>    0.8427    1.0000 </r>
       <r>    2.2711    1.0000 </r>
       <r>    2.4475    1.0000 </r>
       <r>    5.1006    0.0406 </r>
       <r>    5.1389    0.0220 </r>
       <r>    5.7943    0.0000 </r>
       <r>    6.2602    0.0000 </r>
       <r>    7.0029    0.0000 </r>
       <r>    7.1721    0.0000 </r>
       <r>    8.9335    0.0000 </r>
       <r>    8.9734    0.0000 </r>
       <r>   10.8193    0.0000 </r>
       <r>   19.6127    0.0000 </r>
       <r>   19.7663    0.0000 </r>
       <r>   21.7074    0.0000 </r>
       <r>   22.0116    0.0000 </r>
       <r>   22.3110    0.0000 </r>
       <r>   23.5511    0.0000 </r>
       <r>   23.7797    0.0000 </r>
       <r>   24.9105    0.0000 </r>
       <r>   30.2926    0.0000 </r>
       <r>   30.4775    0.0000 </r>
       <r>   30.5294    0.0000 </r>
       <r>   32.6694    0.0000 </r>
       <r>   34.3492    0.0000 </r>
       <r>   34.7842    0.0000 </r>
       <r>   34.8524    0.0000 </r>
       <r>   38.0091    0.0000 </r>
       <r>   38.2732    0.0000 </r>
       <r>   40.4378    0.0000 </r>
       <r>   40.5851    0.0000 </r>
       <r>   40.7471    0.0000 </r>
       <r>   42.0652    0.0000 </r>
       <r>   42.8019    0.0000 </r>
      </set>
      <set comment="kpoint 8">
       <r>  -25.5966    1.0000 </r>
       <r>  -25.3410    1.0000 </r>
       <r>  -25.3189    1.0000 </r>
       <r>  -25.2472    1.0000 </r>
       <r>  -24.9771    1.0000 </r>
       <r>  -24.9603    1.0000 </r>
       <r>    1.3295    1.0000 </r>
       <r>    2.6066    1.0000 </r>
       <r>    2.6450    1.0000 </r>
       <r>    4.9440    0.2622 </r>
       <r>    5.2444    0.0029 </r>
       <r>    5.4993    0.0000 </r>
       <r>    6.5634    0.0000 </r>
       <r>    6.5741    0.0000 </r>
       <r>    6.7130    0.0000 </r>
       <r>    8.5218    0.0000 </r>
       <r>    9.1668    0.0000 </r>
       <r>   10.3100    0.0000 </r>
       <r>   20.4076    0.0000 </r>
       <r>   20.9145    0.0000 </r>
       <r>   21.1639    0.0000 </r>
       <r>   21.4360    0.0000 </r>
       <r>   22.7209    0.0000 </r>
       <r>   24.1387    0.0000 </r>
       <r>   24.2894    0.0000 </r>
       <r>   24.6159    0.0000 </r>
       <r>   29.5896    0.0000 </r>
       <r>   29.8459    0.0000 </r>
       <r>   32.0462    0.0000 </r>
       <r>   32.9307    0.0000 </r>
       <r>   33.4228    0.0000 </r>
       <r>   33.8557    0.0000 </r>
       <r>   35.5841    0.0000 </r>
       <r>   37.4347    0.0000 </r>
       <r>   38.3036    0.0000 </r>
       <r>   40.1514    0.0000 </r>
       <r>   40.5247    0.0000 </r>
       <r>   41.1053    0.0000 </r>
       <r>   41.5317    0.0000 </r>
       <r>   42.7603    0.0000 </r>
      </set>
      <set comment="kpoint 9">
       <r>  -25.5533    1.0000 </r>
       <r>  -25.3407    1.0000 </r>
       <r>  -25.2692    1.0000 </r>
       <r>  -25.2480    1.0000 </r>
       <r>  -25.0472    1.0000 </r>
       <r>  -25.0293    1.0000 </r>
       <r>    1.7934    1.0000 </r>
       <r>    2.6256    1.0000 </r>
       <r>    3.0631    1.0000 </r>
       <r>    4.5054    0.9931 </r>
       <r>    5.3996    0.0001 </r>
       <r>    5.5451    0.0000 </r>
       <r>    6.1867    0.0000 </r>
       <r>    6.3176    0.0000 </r>
       <r>    6.9213    0.0000 </r>
       <r>    8.1052    0.0000 </r>
       <r>    9.3359    0.0000 </r>
       <r>    9.9302    0.0000 </r>
       <r>   20.3195    0.0000 </r>
       <r>   20.5341    0.0000 </r>
       <r>   22.0307    0.0000 </r>
       <r>   22.1933    0.0000 </r>
       <r>   23.1078    0.0000 </r>
       <r>   24.3022    0.0000 </r>
       <r>   24.3491    0.0000 </r>
       <r>   24.4471    0.0000 </r>
       <r>   29.3510    0.0000 </r>
       <r>   29.5938    0.0000 </r>
       <r>   31.8546    0.0000 </r>
       <r>   32.0735    0.0000 </r>
       <r>   33.6918    0.0000 </r>
       <r>   34.3578    0.0000 </r>
       <r>   36.6726    0.0000 </r>
       <r>   36.9835    0.0000 </r>
       <r>   38.1600    0.0000 </r>
       <r>   39.6158    0.0000 </r>
       <r>   39.8682    0.0000 </r>
       <r>   41.5655    0.0000 </r>
       <r>   41.6954    0.0000 </r>
       <r>   41.8326    0.0000 </r>
      </set>
      <set comment="kpoint 10">
       <r>  -25.4957    1.0000 </r>
       <r>  -25.4244    1.0000 </r>
       <r>  -25.1951    1.0000 </r>
       <r>  -25.1749    1.0000 </r>
       <r>  -25.1205    1.0000 </r>
       <r>  -25.1014    1.0000 </r>
       <r>    2.1932    1.0000 </r>
       <r>    2.4832    1.0000 </r>
       <r>    3.5199    1.0000 </r>
       <r>    4.0067    1.0000 </r>
       <r>    5.6077    0.0000 </r>
       <r>    5.7279    0.0000 </r>
       <r>    5.8694    0.0000 </r>
       <r>    5.9884    0.0000 </r>
       <r>    7.2966    0.0000 </r>
       <r>    7.6939    0.0000 </r>
       <r>    9.4910    0.0000 </r>
       <r>    9.6712    0.0000 </r>
       <r>   20.1397    0.0000 </r>
       <r>   20.1920    0.0000 </r>
       <r>   23.0223    0.0000 </r>
       <r>   23.1893    0.0000 </r>
       <r>   23.4124    0.0000 </r>
       <r>   23.9994    0.0000 </r>
       <r>   24.0268    0.0000 </r>
       <r>   24.0572    0.0000 </r>
       <r>   29.7731    0.0000 </r>
       <r>   29.9800    0.0000 </r>
       <r>   30.6912    0.0000 </r>
       <r>   30.8804    0.0000 </r>
       <r>   35.1017    0.0000 </r>
       <r>   35.3716    0.0000 </r>
       <r>   35.8888    0.0000 </r>
       <r>   36.9898    0.0000 </r>
       <r>   38.5181    0.0000 </r>
       <r>   39.3981    0.0000 </r>
       <r>   39.5982    0.0000 </r>
       <r>   40.1544    0.0000 </r>
       <r>   42.1226    0.0000 </r>
       <r>   42.1410    0.0000 </r>
      </set>
      <set comment="kpoint 11">
       <r>  -25.6609    1.0000 </r>
       <r>  -25.6203    1.0000 </r>
       <r>  -25.5797    1.0000 </r>
       <r>  -24.7806    1.0000 </r>
       <r>  -24.7135    1.0000 </r>
       <r>  -24.6935    1.0000 </r>
       <r>   -0.8419    1.0000 </r>
       <r>    1.2380    1.0000 </r>
       <r>    1.2761    1.0000 </r>
       <r>    5.0216    0.1179 </r>
       <r>    5.1101    0.0351 </r>
       <r>    5.4188    0.0000 </r>
       <r>    7.8855    0.0000 </r>
       <r>    8.0689    0.0000 </r>
       <r>    9.3186    0.0000 </r>
       <r>    9.7867    0.0000 </r>
       <r>   10.4344    0.0000 </r>
       <r>   14.2154    0.0000 </r>
       <r>   14.6858    0.0000 </r>
       <r>   15.1386    0.0000 </r>
       <r>   20.5828    0.0000 </r>
       <r>   20.8326    0.0000 </r>
       <r>   20.8968    0.0000 </r>
       <r>   24.0406    0.0000 </r>
       <r>   25.6890    0.0000 </r>
       <r>   25.7934    0.0000 </r>
       <r>   28.9420    0.0000 </r>
       <r>   29.8295    0.0000 </r>
       <r>   30.3964    0.0000 </r>
       <r>   33.2395    0.0000 </r>
       <r>   34.5584    0.0000 </r>
       <r>   36.2259    0.0000 </r>
       <r>   39.9071    0.0000 </r>
       <r>   40.0141    0.0000 </r>
       <r>   40.5883    0.0000 </r>
       <r>   40.9440    0.0000 </r>
       <r>   41.1053    0.0000 </r>
       <r>   41.9484    0.0000 </r>
       <r>   42.2505    0.0000 </r>
       <r>   42.5812    0.0000 </r>
      </set>
      <set comment="kpoint 12">
       <r>  -25.6759    1.0000 </r>
       <r>  -25.5976    1.0000 </r>
       <r>  -25.5437    1.0000 </r>
       <r>  -24.8432    1.0000 </r>
       <r>  -24.7350    1.0000 </r>
       <r>  -24.7011    1.0000 </r>
       <r>   -0.6419    1.0000 </r>
       <r>    1.3529    1.0000 </r>
       <r>    1.4460    1.0000 </r>
       <r>    4.9386    0.2747 </r>
       <r>    5.0794    0.0555 </r>
       <r>    5.5871    0.0000 </r>
       <r>    7.6700    0.0000 </r>
       <r>    8.1471    0.0000 </r>
       <r>    8.7582    0.0000 </r>
       <r>    9.2718    0.0000 </r>
       <r>   10.3955    0.0000 </r>
       <r>   13.8115    0.0000 </r>
       <r>   15.2820    0.0000 </r>
       <r>   15.7765    0.0000 </r>
       <r>   20.7509    0.0000 </r>
       <r>   21.1626    0.0000 </r>
       <r>   21.2381    0.0000 </r>
       <r>   24.2596    0.0000 </r>
       <r>   25.6002    0.0000 </r>
       <r>   25.8891    0.0000 </r>
       <r>   27.8041    0.0000 </r>
       <r>   29.9205    0.0000 </r>
       <r>   30.6700    0.0000 </r>
       <r>   32.8235    0.0000 </r>
       <r>   34.2843    0.0000 </r>
       <r>   37.1831    0.0000 </r>
       <r>   38.9895    0.0000 </r>
       <r>   39.5758    0.0000 </r>
       <r>   40.3013    0.0000 </r>
       <r>   40.3176    0.0000 </r>
       <r>   40.8410    0.0000 </r>
       <r>   42.0677    0.0000 </r>
       <r>   42.1368    0.0000 </r>
       <r>   42.9765    0.0000 </r>
      </set>
      <set comment="kpoint 13">
       <r>  -25.6868    1.0000 </r>
       <r>  -25.5635    1.0000 </r>
       <r>  -25.5007    1.0000 </r>
       <r>  -24.9218    1.0000 </r>
       <r>  -24.7669    1.0000 </r>
       <r>  -24.7226    1.0000 </r>
       <r>   -0.3533    1.0000 </r>
       <r>    1.5168    1.0000 </r>
       <r>    1.6873    1.0000 </r>
       <r>    4.8759    0.4382 </r>
       <r>    5.0439    0.0896 </r>
       <r>    5.7859    0.0000 </r>
       <r>    7.3295    0.0000 </r>
       <r>    8.1757    0.0000 </r>
       <r>    8.3022    0.0000 </r>
       <r>    8.6877    0.0000 </r>
       <r>   10.2284    0.0000 </r>
       <r>   13.1539    0.0000 </r>
       <r>   16.1502    0.0000 </r>
       <r>   16.6150    0.0000 </r>
       <r>   21.0210    0.0000 </r>
       <r>   21.6090    0.0000 </r>
       <r>   21.6892    0.0000 </r>
       <r>   23.9353    0.0000 </r>
       <r>   25.4839    0.0000 </r>
       <r>   26.4173    0.0000 </r>
       <r>   26.6094    0.0000 </r>
       <r>   30.2976    0.0000 </r>
       <r>   31.0589    0.0000 </r>
       <r>   32.3092    0.0000 </r>
       <r>   33.8447    0.0000 </r>
       <r>   37.6906    0.0000 </r>
       <r>   38.0030    0.0000 </r>
       <r>   39.1786    0.0000 </r>
       <r>   39.5411    0.0000 </r>
       <r>   40.0627    0.0000 </r>
       <r>   40.6483    0.0000 </r>
       <r>   41.8947    0.0000 </r>
       <r>   42.1551    0.0000 </r>
       <r>   43.1007    0.0000 </r>
      </set>
      <set comment="kpoint 14">
       <r>  -25.6917    1.0000 </r>
       <r>  -25.5192    1.0000 </r>
       <r>  -25.4507    1.0000 </r>
       <r>  -25.0127    1.0000 </r>
       <r>  -24.8083    1.0000 </r>
       <r>  -24.7562    1.0000 </r>
       <r>    0.0108    1.0000 </r>
       <r>    1.7314    1.0000 </r>
       <r>    1.9717    1.0000 </r>
       <r>    4.8412    0.5359 </r>
       <r>    5.0092    0.1361 </r>
       <r>    6.0170    0.0000 </r>
       <r>    6.9216    0.0000 </r>
       <r>    7.6111    0.0000 </r>
       <r>    8.1092    0.0000 </r>
       <r>    8.4968    0.0000 </r>
       <r>    9.9622    0.0000 </r>
       <r>   12.4311    0.0000 </r>
       <r>   17.1114    0.0000 </r>
       <r>   17.5851    0.0000 </r>
       <r>   21.3543    0.0000 </r>
       <r>   22.0333    0.0000 </r>
       <r>   22.2814    0.0000 </r>
       <r>   23.3145    0.0000 </r>
       <r>   25.1592    0.0000 </r>
       <r>   25.3064    0.0000 </r>
       <r>   27.7522    0.0000 </r>
       <r>   30.6220    0.0000 </r>
       <r>   31.5390    0.0000 </r>
       <r>   31.6713    0.0000 </r>
       <r>   33.4594    0.0000 </r>
       <r>   36.9290    0.0000 </r>
       <r>   37.7082    0.0000 </r>
       <r>   37.8814    0.0000 </r>
       <r>   39.6113    0.0000 </r>
       <r>   40.0375    0.0000 </r>
       <r>   40.5893    0.0000 </r>
       <r>   41.5314    0.0000 </r>
       <r>   42.2276    0.0000 </r>
       <r>   43.0156    0.0000 </r>
      </set>
      <set comment="kpoint 15">
       <r>  -25.6884    1.0000 </r>
       <r>  -25.4659    1.0000 </r>
       <r>  -25.3940    1.0000 </r>
       <r>  -25.1113    1.0000 </r>
       <r>  -24.8585    1.0000 </r>
       <r>  -24.8006    1.0000 </r>
       <r>    0.4327    1.0000 </r>
       <r>    1.9944    1.0000 </r>
       <r>    2.2629    1.0000 </r>
       <r>    4.8394    0.5408 </r>
       <r>    4.9725    0.2010 </r>
       <r>    6.2812    0.0000 </r>
       <r>    6.4918    0.0000 </r>
       <r>    7.0885    0.0000 </r>
       <r>    7.5715    0.0000 </r>
       <r>    8.7117    0.0000 </r>
       <r>    9.6282    0.0000 </r>
       <r>   11.7133    0.0000 </r>
       <r>   18.1016    0.0000 </r>
       <r>   18.6391    0.0000 </r>
       <r>   21.6851    0.0000 </r>
       <r>   22.1894    0.0000 </r>
       <r>   22.6428    0.0000 </r>
       <r>   22.9690    0.0000 </r>
       <r>   24.3818    0.0000 </r>
       <r>   25.0903    0.0000 </r>
       <r>   29.0955    0.0000 </r>
       <r>   30.4398    0.0000 </r>
       <r>   31.0321    0.0000 </r>
       <r>   32.0681    0.0000 </r>
       <r>   33.5356    0.0000 </r>
       <r>   35.7748    0.0000 </r>
       <r>   36.5156    0.0000 </r>
       <r>   37.6414    0.0000 </r>
       <r>   39.1097    0.0000 </r>
       <r>   40.3988    0.0000 </r>
       <r>   40.7813    0.0000 </r>
       <r>   41.0920    0.0000 </r>
       <r>   42.2994    0.0000 </r>
       <r>   42.8928    0.0000 </r>
      </set>
      <set comment="kpoint 16">
       <r>  -25.6746    1.0000 </r>
       <r>  -25.4052    1.0000 </r>
       <r>  -25.3315    1.0000 </r>
       <r>  -25.2125    1.0000 </r>
       <r>  -24.9162    1.0000 </r>
       <r>  -24.8539    1.0000 </r>
       <r>    0.8903    1.0000 </r>
       <r>    2.2969    1.0000 </r>
       <r>    2.5179    1.0000 </r>
       <r>    4.8576    0.4896 </r>
       <r>    4.9232    0.3122 </r>
       <r>    6.1041    0.0000 </r>
       <r>    6.5797    0.0000 </r>
       <r>    6.6218    0.0000 </r>
       <r>    7.0952    0.0000 </r>
       <r>    8.9285    0.0000 </r>
       <r>    9.2518    0.0000 </r>
       <r>   11.0503    0.0000 </r>
       <r>   19.0339    0.0000 </r>
       <r>   19.7417    0.0000 </r>
       <r>   21.5382    0.0000 </r>
       <r>   22.0856    0.0000 </r>
       <r>   22.2107    0.0000 </r>
       <r>   23.6661    0.0000 </r>
       <r>   24.4062    0.0000 </r>
       <r>   24.8468    0.0000 </r>
       <r>   29.7589    0.0000 </r>
       <r>   30.4155    0.0000 </r>
       <r>   30.5576    0.0000 </r>
       <r>   32.5320    0.0000 </r>
       <r>   34.2381    0.0000 </r>
       <r>   34.5867    0.0000 </r>
       <r>   35.2205    0.0000 </r>
       <r>   37.6359    0.0000 </r>
       <r>   38.4933    0.0000 </r>
       <r>   40.6333    0.0000 </r>
       <r>   40.6811    0.0000 </r>
       <r>   41.0552    0.0000 </r>
       <r>   42.3967    0.0000 </r>
       <r>   42.7775    0.0000 </r>
      </set>
      <set comment="kpoint 17">
       <r>  -25.6486    1.0000 </r>
       <r>  -25.3386    1.0000 </r>
       <r>  -25.3113    1.0000 </r>
       <r>  -25.2643    1.0000 </r>
       <r>  -24.9803    1.0000 </r>
       <r>  -24.9144    1.0000 </r>
       <r>    1.3568    1.0000 </r>
       <r>    2.5723    1.0000 </r>
       <r>    2.7442    1.0000 </r>
       <r>    4.7022    0.8583 </r>
       <r>    4.9847    0.1775 </r>
       <r>    5.8622    0.0000 </r>
       <r>    6.2155    0.0000 </r>
       <r>    6.6941    0.0000 </r>
       <r>    6.9094    0.0000 </r>
       <r>    8.8535    0.0000 </r>
       <r>    9.1316    0.0000 </r>
       <r>   10.4820    0.0000 </r>
       <r>   19.6971    0.0000 </r>
       <r>   20.8583    0.0000 </r>
       <r>   20.8614    0.0000 </r>
       <r>   21.9018    0.0000 </r>
       <r>   22.5295    0.0000 </r>
       <r>   24.2244    0.0000 </r>
       <r>   24.5899    0.0000 </r>
       <r>   24.7286    0.0000 </r>
       <r>   29.1413    0.0000 </r>
       <r>   29.8726    0.0000 </r>
       <r>   32.0379    0.0000 </r>
       <r>   32.5263    0.0000 </r>
       <r>   33.3842    0.0000 </r>
       <r>   34.5147    0.0000 </r>
       <r>   35.3007    0.0000 </r>
       <r>   37.5296    0.0000 </r>
       <r>   37.9539    0.0000 </r>
       <r>   40.1831    0.0000 </r>
       <r>   40.7016    0.0000 </r>
       <r>   41.2231    0.0000 </r>
       <r>   42.5888    0.0000 </r>
       <r>   42.5920    0.0000 </r>
      </set>
      <set comment="kpoint 18">
       <r>  -25.6085    1.0000 </r>
       <r>  -25.4033    1.0000 </r>
       <r>  -25.2678    1.0000 </r>
       <r>  -25.1940    1.0000 </r>
       <r>  -25.0492    1.0000 </r>
       <r>  -24.9804    1.0000 </r>
       <r>    1.8008    1.0000 </r>
       <r>    2.6170    1.0000 </r>
       <r>    3.0970    1.0000 </r>
       <r>    4.3692    0.9997 </r>
       <r>    5.1246    0.0278 </r>
       <r>    5.8236    0.0000 </r>
       <r>    5.8659    0.0000 </r>
       <r>    6.3718    0.0000 </r>
       <r>    7.2672    0.0000 </r>
       <r>    8.4476    0.0000 </r>
       <r>    9.3157    0.0000 </r>
       <r>   10.0370    0.0000 </r>
       <r>   19.8699    0.0000 </r>
       <r>   20.2895    0.0000 </r>
       <r>   21.9239    0.0000 </r>
       <r>   22.3523    0.0000 </r>
       <r>   22.8318    0.0000 </r>
       <r>   24.3500    0.0000 </r>
       <r>   24.4042    0.0000 </r>
       <r>   24.7677    0.0000 </r>
       <r>   29.0044    0.0000 </r>
       <r>   29.7116    0.0000 </r>
       <r>   31.5289    0.0000 </r>
       <r>   32.1396    0.0000 </r>
       <r>   33.7193    0.0000 </r>
       <r>   34.8172    0.0000 </r>
       <r>   36.4500    0.0000 </r>
       <r>   36.9268    0.0000 </r>
       <r>   37.8160    0.0000 </r>
       <r>   39.7549    0.0000 </r>
       <r>   39.9969    0.0000 </r>
       <r>   41.4814    0.0000 </r>
       <r>   41.6245    0.0000 </r>
       <r>   42.6745    0.0000 </r>
      </set>
      <set comment="kpoint 19">
       <r>  -25.5539    1.0000 </r>
       <r>  -25.4850    1.0000 </r>
       <r>  -25.1948    1.0000 </r>
       <r>  -25.1220    1.0000 </r>
       <r>  -25.1213    1.0000 </r>
       <r>  -25.0502    1.0000 </r>
       <r>    2.1858    1.0000 </r>
       <r>    2.4715    1.0000 </r>
       <r>    3.5142    1.0000 </r>
       <r>    3.9504    1.0000 </r>
       <r>    5.3196    0.0005 </r>
       <r>    5.5674    0.0000 </r>
       <r>    5.9297    0.0000 </r>
       <r>    6.1192    0.0000 </r>
       <r>    7.6476    0.0000 </r>
       <r>    8.0433    0.0000 </r>
       <r>    9.4966    0.0000 </r>
       <r>    9.7192    0.0000 </r>
       <r>   19.8476    0.0000 </r>
       <r>   19.9512    0.0000 </r>
       <r>   22.7325    0.0000 </r>
       <r>   22.9974    0.0000 </r>
       <r>   23.1972    0.0000 </r>
       <r>   24.0178    0.0000 </r>
       <r>   24.2266    0.0000 </r>
       <r>   24.4322    0.0000 </r>
       <r>   29.5170    0.0000 </r>
       <r>   30.1248    0.0000 </r>
       <r>   30.4495    0.0000 </r>
       <r>   31.0012    0.0000 </r>
       <r>   35.2400    0.0000 </r>
       <r>   35.4849    0.0000 </r>
       <r>   36.1811    0.0000 </r>
       <r>   36.5455    0.0000 </r>
       <r>   38.3129    0.0000 </r>
       <r>   39.2845    0.0000 </r>
       <r>   39.5952    0.0000 </r>
       <r>   40.1274    0.0000 </r>
       <r>   42.1360    0.0000 </r>
       <r>   42.5562    0.0000 </r>
      </set>
      <set comment="kpoint 20">
       <r>  -25.7023    1.0000 </r>
       <r>  -25.5764    1.0000 </r>
       <r>  -25.4975    1.0000 </r>
       <r>  -24.9165    1.0000 </r>
       <r>  -24.7552    1.0000 </r>
       <r>  -24.6948    1.0000 </r>
       <r>   -0.4519    1.0000 </r>
       <r>    1.4737    1.0000 </r>
       <r>    1.6029    1.0000 </r>
       <r>    4.7958    0.6594 </r>
       <r>    5.0269    0.1106 </r>
       <r>    5.8206    0.0000 </r>
       <r>    7.6536    0.0000 </r>
       <r>    8.0912    0.0000 </r>
       <r>    8.1979    0.0000 </r>
       <r>    8.8097    0.0000 </r>
       <r>   10.5024    0.0000 </r>
       <r>   14.0649    0.0000 </r>
       <r>   15.1405    0.0000 </r>
       <r>   16.2464    0.0000 </r>
       <r>   20.8108    0.0000 </r>
       <r>   21.4908    0.0000 </r>
       <r>   21.5273    0.0000 </r>
       <r>   24.5033    0.0000 </r>
       <r>   25.3746    0.0000 </r>
       <r>   26.1250    0.0000 </r>
       <r>   27.6282    0.0000 </r>
       <r>   29.1117    0.0000 </r>
       <r>   30.9246    0.0000 </r>
       <r>   32.3935    0.0000 </r>
       <r>   34.1629    0.0000 </r>
       <r>   38.0647    0.0000 </r>
       <r>   38.3769    0.0000 </r>
       <r>   38.8315    0.0000 </r>
       <r>   39.8991    0.0000 </r>
       <r>   40.0652    0.0000 </r>
       <r>   40.9132    0.0000 </r>
       <r>   42.1170    0.0000 </r>
       <r>   42.2300    0.0000 </r>
       <r>   43.4812    0.0000 </r>
      </set>
      <set comment="kpoint 21">
       <r>  -25.7245    1.0000 </r>
       <r>  -25.5437    1.0000 </r>
       <r>  -25.4456    1.0000 </r>
       <r>  -25.0040    1.0000 </r>
       <r>  -24.7851    1.0000 </r>
       <r>  -24.7027    1.0000 </r>
       <r>   -0.1789    1.0000 </r>
       <r>    1.6304    1.0000 </r>
       <r>    1.8414    1.0000 </r>
       <r>    4.6777    0.8936 </r>
       <r>    4.9648    0.2165 </r>
       <r>    6.0812    0.0000 </r>
       <r>    7.4538    0.0000 </r>
       <r>    7.6290    0.0000 </r>
       <r>    8.1900    0.0000 </r>
       <r>    8.2756    0.0000 </r>
       <r>   10.4701    0.0000 </r>
       <r>   13.6208    0.0000 </r>
       <r>   15.7007    0.0000 </r>
       <r>   16.9211    0.0000 </r>
       <r>   20.9457    0.0000 </r>
       <r>   21.8286    0.0000 </r>
       <r>   21.9693    0.0000 </r>
       <r>   24.1779    0.0000 </r>
       <r>   25.2672    0.0000 </r>
       <r>   26.7163    0.0000 </r>
       <r>   26.8811    0.0000 </r>
       <r>   29.1382    0.0000 </r>
       <r>   31.2803    0.0000 </r>
       <r>   31.8563    0.0000 </r>
       <r>   33.8738    0.0000 </r>
       <r>   37.1476    0.0000 </r>
       <r>   38.0790    0.0000 </r>
       <r>   39.1313    0.0000 </r>
       <r>   39.5822    0.0000 </r>
       <r>   39.9040    0.0000 </r>
       <r>   40.8690    0.0000 </r>
       <r>   42.1513    0.0000 </r>
       <r>   42.1607    0.0000 </r>
       <r>   43.5186    0.0000 </r>
      </set>
      <set comment="kpoint 22">
       <r>  -25.7398    1.0000 </r>
       <r>  -25.5011    1.0000 </r>
       <r>  -25.3884    1.0000 </r>
       <r>  -25.1012    1.0000 </r>
       <r>  -24.8241    1.0000 </r>
       <r>  -24.7244    1.0000 </r>
       <r>    0.1626    1.0000 </r>
       <r>    1.8248    1.0000 </r>
       <r>    2.1294    1.0000 </r>
       <r>    4.5939    0.9670 </r>
       <r>    4.9001    0.3720 </r>
       <r>    6.3672    0.0000 </r>
       <r>    7.0861    0.0000 </r>
       <r>    7.1429    0.0000 </r>
       <r>    7.7522    0.0000 </r>
       <r>    8.3841    0.0000 </r>
       <r>   10.3041    0.0000 </r>
       <r>   12.9060    0.0000 </r>
       <r>   16.5403    0.0000 </r>
       <r>   17.7572    0.0000 </r>
       <r>   21.1153    0.0000 </r>
       <r>   22.0404    0.0000 </r>
       <r>   22.5690    0.0000 </r>
       <r>   23.5597    0.0000 </r>
       <r>   25.1415    0.0000 </r>
       <r>   25.7404    0.0000 </r>
       <r>   28.0131    0.0000 </r>
       <r>   29.4572    0.0000 </r>
       <r>   31.1852    0.0000 </r>
       <r>   31.7005    0.0000 </r>
       <r>   33.5841    0.0000 </r>
       <r>   36.2173    0.0000 </r>
       <r>   37.5675    0.0000 </r>
       <r>   38.0729    0.0000 </r>
       <r>   39.7175    0.0000 </r>
       <r>   40.3189    0.0000 </r>
       <r>   41.0343    0.0000 </r>
       <r>   41.9364    0.0000 </r>
       <r>   42.2316    0.0000 </r>
       <r>   43.4732    0.0000 </r>
      </set>
      <set comment="kpoint 23">
       <r>  -25.7457    1.0000 </r>
       <r>  -25.4500    1.0000 </r>
       <r>  -25.3266    1.0000 </r>
       <r>  -25.2036    1.0000 </r>
       <r>  -24.8714    1.0000 </r>
       <r>  -24.7584    1.0000 </r>
       <r>    0.5541    1.0000 </r>
       <r>    2.0510    1.0000 </r>
       <r>    2.4305    1.0000 </r>
       <r>    4.5503    0.9841 </r>
       <r>    4.8310    0.5643 </r>
       <r>    6.5890    0.0000 </r>
       <r>    6.6765    0.0000 </r>
       <r>    6.8074    0.0000 </r>
       <r>    7.2844    0.0000 </r>
       <r>    8.6109    0.0000 </r>
       <r>   10.0365    0.0000 </r>
       <r>   12.1506    0.0000 </r>
       <r>   17.4269    0.0000 </r>
       <r>   18.7093    0.0000 </r>
       <r>   21.2105    0.0000 </r>
       <r>   22.0321    0.0000 </r>
       <r>   22.9060    0.0000 </r>
       <r>   23.2506    0.0000 </r>
       <r>   24.9799    0.0000 </r>
       <r>   25.2116    0.0000 </r>
       <r>   29.3281    0.0000 </r>
       <r>   29.5361    0.0000 </r>
       <r>   30.5172    0.0000 </r>
       <r>   32.1174    0.0000 </r>
       <r>   33.5112    0.0000 </r>
       <r>   35.2558    0.0000 </r>
       <r>   36.9045    0.0000 </r>
       <r>   37.3195    0.0000 </r>
       <r>   39.3550    0.0000 </r>
       <r>   40.5391    0.0000 </r>
       <r>   41.4975    0.0000 </r>
       <r>   41.5083    0.0000 </r>
       <r>   42.4316    0.0000 </r>
       <r>   42.9945    0.0000 </r>
      </set>
      <set comment="kpoint 24">
       <r>  -25.7402    1.0000 </r>
       <r>  -25.3918    1.0000 </r>
       <r>  -25.3063    1.0000 </r>
       <r>  -25.2607    1.0000 </r>
       <r>  -24.9260    1.0000 </r>
       <r>  -24.8030    1.0000 </r>
       <r>    0.9730    1.0000 </r>
       <r>    2.2866    1.0000 </r>
       <r>    2.7110    1.0000 </r>
       <r>    4.5481    0.9847 </r>
       <r>    4.7403    0.7892 </r>
       <r>    6.1476    0.0000 </r>
       <r>    6.5033    0.0000 </r>
       <r>    6.9054    0.0000 </r>
       <r>    7.0169    0.0000 </r>
       <r>    8.8419    0.0000 </r>
       <r>    9.7009    0.0000 </r>
       <r>   11.4250    0.0000 </r>
       <r>   18.2547    0.0000 </r>
       <r>   19.7364    0.0000 </r>
       <r>   20.9546    0.0000 </r>
       <r>   22.0081    0.0000 </r>
       <r>   22.3627    0.0000 </r>
       <r>   23.9343    0.0000 </r>
       <r>   24.8076    0.0000 </r>
       <r>   25.2112    0.0000 </r>
       <r>   29.0895    0.0000 </r>
       <r>   30.0587    0.0000 </r>
       <r>   30.7275    0.0000 </r>
       <r>   32.3796    0.0000 </r>
       <r>   33.8733    0.0000 </r>
       <r>   34.2639    0.0000 </r>
       <r>   35.8693    0.0000 </r>
       <r>   37.3162    0.0000 </r>
       <r>   38.8113    0.0000 </r>
       <r>   40.7905    0.0000 </r>
       <r>   40.8566    0.0000 </r>
       <r>   41.6470    0.0000 </r>
       <r>   42.7018    0.0000 </r>
       <r>   42.8403    0.0000 </r>
      </set>
      <set comment="kpoint 25">
       <r>  -25.7212    1.0000 </r>
       <r>  -25.4047    1.0000 </r>
       <r>  -25.3280    1.0000 </r>
       <r>  -25.1920    1.0000 </r>
       <r>  -24.9867    1.0000 </r>
       <r>  -24.8564    1.0000 </r>
       <r>    1.3940    1.0000 </r>
       <r>    2.4717    1.0000 </r>
       <r>    2.9716    1.0000 </r>
       <r>    4.5169    0.9914 </r>
       <r>    4.6637    0.9107 </r>
       <r>    5.7623    0.0000 </r>
       <r>    6.3036    0.0000 </r>
       <r>    6.6344    0.0000 </r>
       <r>    7.3768    0.0000 </r>
       <r>    9.0623    0.0000 </r>
       <r>    9.3268    0.0000 </r>
       <r>   10.7724    0.0000 </r>
       <r>   18.8918    0.0000 </r>
       <r>   20.4034    0.0000 </r>
       <r>   20.7952    0.0000 </r>
       <r>   22.0882    0.0000 </r>
       <r>   22.1477    0.0000 </r>
       <r>   24.4532    0.0000 </r>
       <r>   24.6583    0.0000 </r>
       <r>   25.3752    0.0000 </r>
       <r>   28.5884    0.0000 </r>
       <r>   29.7536    0.0000 </r>
       <r>   31.8165    0.0000 </r>
       <r>   32.4826    0.0000 </r>
       <r>   33.2460    0.0000 </r>
       <r>   34.5903    0.0000 </r>
       <r>   35.3707    0.0000 </r>
       <r>   37.4966    0.0000 </r>
       <r>   38.1894    0.0000 </r>
       <r>   40.1618    0.0000 </r>
       <r>   41.0905    0.0000 </r>
       <r>   41.4381    0.0000 </r>
       <r>   42.4008    0.0000 </r>
       <r>   43.0820    0.0000 </r>
      </set>
      <set comment="kpoint 26">
       <r>  -25.6873    1.0000 </r>
       <r>  -25.4949    1.0000 </r>
       <r>  -25.2604    1.0000 </r>
       <r>  -25.1216    1.0000 </r>
       <r>  -25.0521    1.0000 </r>
       <r>  -24.9168    1.0000 </r>
       <r>    1.7901    1.0000 </r>
       <r>    2.5136    1.0000 </r>
       <r>    3.2642    1.0000 </r>
       <r>    4.2830    1.0000 </r>
       <r>    4.7531    0.7621 </r>
       <r>    5.4293    0.0000 </r>
       <r>    6.2353    0.0000 </r>
       <r>    6.4631    0.0000 </r>
       <r>    7.7558    0.0000 </r>
       <r>    8.9365    0.0000 </r>
       <r>    9.2739    0.0000 </r>
       <r>   10.2263    0.0000 </r>
       <r>   19.2303    0.0000 </r>
       <r>   19.8925    0.0000 </r>
       <r>   21.7600    0.0000 </r>
       <r>   22.2661    0.0000 </r>
       <r>   22.2985    0.0000 </r>
       <r>   24.5231    0.0000 </r>
       <r>   24.5897    0.0000 </r>
       <r>   25.2862    0.0000 </r>
       <r>   28.6113    0.0000 </r>
       <r>   29.7667    0.0000 </r>
       <r>   31.1968    0.0000 </r>
       <r>   32.1231    0.0000 </r>
       <r>   33.7683    0.0000 </r>
       <r>   35.3391    0.0000 </r>
       <r>   35.5519    0.0000 </r>
       <r>   37.3785    0.0000 </r>
       <r>   37.9901    0.0000 </r>
       <r>   39.5186    0.0000 </r>
       <r>   40.6352    0.0000 </r>
       <r>   41.5954    0.0000 </r>
       <r>   41.6509    0.0000 </r>
       <r>   42.7243    0.0000 </r>
      </set>
      <set comment="kpoint 27">
       <r>  -25.6380    1.0000 </r>
       <r>  -25.5734    1.0000 </r>
       <r>  -25.1906    1.0000 </r>
       <r>  -25.1206    1.0000 </r>
       <r>  -25.0512    1.0000 </r>
       <r>  -24.9823    1.0000 </r>
       <r>    2.1323    1.0000 </r>
       <r>    2.3873    1.0000 </r>
       <r>    3.6034    1.0000 </r>
       <r>    3.9576    1.0000 </r>
       <r>    4.9211    0.3174 </r>
       <r>    5.1479    0.0188 </r>
       <r>    6.2688    0.0000 </r>
       <r>    6.3510    0.0000 </r>
       <r>    8.1468    0.0000 </r>
       <r>    8.5419    0.0000 </r>
       <r>    9.5047    0.0000 </r>
       <r>    9.8069    0.0000 </r>
       <r>   19.3752    0.0000 </r>
       <r>   19.5528    0.0000 </r>
       <r>   22.2176    0.0000 </r>
       <r>   22.3547    0.0000 </r>
       <r>   23.0834    0.0000 </r>
       <r>   23.9793    0.0000 </r>
[...]
       <r>    8.8843    0.0000 </r>
       <r>    8.8857    0.0000 </r>
       <r>   14.7282    0.0000 </r>
       <r>   14.7708    0.0000 </r>
       <r>   15.6909    0.0000 </r>
       <r>   15.9197    0.0000 </r>
       <r>   16.9110    0.0000 </r>
       <r>   17.4870    0.0000 </r>
       <r>   18.1289    0.0000 </r>
       <r>   18.5294    0.0000 </r>
       <r>   28.3589    0.0000 </r>
       <r>   28.6946    0.0000 </r>
       <r>   29.7539    0.0000 </r>
       <r>   30.8395    0.0000 </r>
       <r>   32.0832    0.0000 </r>
       <r>   32.6715    0.0000 </r>
       <r>   32.7822    0.0000 </r>
       <r>   33.3894    0.0000 </r>
       <r>   34.4867    0.0000 </r>
       <r>   35.2312    0.0000 </r>
       <r>   35.6907    0.0000 </r>
       <r>   35.8009    0.0000 </r>
       <r>   42.0567    0.0000 </r>
       <r>   42.0618    0.0000 </r>
       <r>   45.2720    0.0000 </r>
       <r>   45.7160    0.0000 </r>
      </set>
      <set comment="kpoint 219">
       <r>  -25.5777    1.0000 </r>
       <r>  -25.5524    1.0000 </r>
       <r>  -25.4120    1.0000 </r>
       <r>  -25.3525    1.0000 </r>
       <r>  -25.2328    1.0000 </r>
       <r>  -25.2025    1.0000 </r>
       <r>    3.3000    1.0000 </r>
       <r>    3.4381    1.0000 </r>
       <r>    3.5445    1.0000 </r>
       <r>    3.6993    1.0000 </r>
       <r>    4.1420    1.0000 </r>
       <r>    4.1424    1.0000 </r>
       <r>    8.8660    0.0000 </r>
       <r>    8.8673    0.0000 </r>
       <r>    8.9068    0.0000 </r>
       <r>    8.9073    0.0000 </r>
       <r>   14.6442    0.0000 </r>
       <r>   14.6693    0.0000 </r>
       <r>   15.9473    0.0000 </r>
       <r>   16.0778    0.0000 </r>
       <r>   17.0533    0.0000 </r>
       <r>   17.4148    0.0000 </r>
       <r>   17.8137    0.0000 </r>
       <r>   18.0730    0.0000 </r>
       <r>   28.9209    0.0000 </r>
       <r>   29.1242    0.0000 </r>
       <r>   30.2131    0.0000 </r>
       <r>   31.0071    0.0000 </r>
       <r>   31.4567    0.0000 </r>
       <r>   32.0336    0.0000 </r>
       <r>   33.1098    0.0000 </r>
       <r>   33.7455    0.0000 </r>
       <r>   33.8668    0.0000 </r>
       <r>   34.5352    0.0000 </r>
       <r>   35.3312    0.0000 </r>
       <r>   35.3505    0.0000 </r>
       <r>   42.0552    0.0000 </r>
       <r>   42.0564    0.0000 </r>
       <r>   46.6039    0.0000 </r>
       <r>   46.6129    0.0000 </r>
      </set>
      <set comment="kpoint 220">
       <r>  -25.4990    1.0000 </r>
       <r>  -25.4466    1.0000 </r>
       <r>  -25.4466    1.0000 </r>
       <r>  -25.3391    1.0000 </r>
       <r>  -25.3391    1.0000 </r>
       <r>  -25.2855    1.0000 </r>
       <r>    3.4833    1.0000 </r>
       <r>    3.6236    1.0000 </r>
       <r>    3.6236    1.0000 </r>
       <r>    3.8583    1.0000 </r>
       <r>    3.8583    1.0000 </r>
       <r>    3.9470    1.0000 </r>
       <r>    8.9128    0.0000 </r>
       <r>    8.9128    0.0000 </r>
       <r>    8.9132    0.0000 </r>
       <r>    8.9132    0.0000 </r>
       <r>   14.5316    0.0000 </r>
       <r>   14.5422    0.0000 </r>
       <r>   16.4379    0.0000 </r>
       <r>   16.7325    0.0000 </r>
       <r>   16.7325    0.0000 </r>
       <r>   17.3229    0.0000 </r>
       <r>   17.3229    0.0000 </r>
       <r>   17.6302    0.0000 </r>
       <r>   29.6609    0.0000 </r>
       <r>   30.0946    0.0000 </r>
       <r>   30.0946    0.0000 </r>
       <r>   31.1154    0.0000 </r>
       <r>   31.1154    0.0000 </r>
       <r>   31.7032    0.0000 </r>
       <r>   33.1487    0.0000 </r>
       <r>   33.6441    0.0000 </r>
       <r>   33.6441    0.0000 </r>
       <r>   34.3794    0.0000 </r>
       <r>   34.3794    0.0000 </r>
       <r>   34.5962    0.0000 </r>
       <r>   42.0488    0.0000 </r>
       <r>   42.0490    0.0000 </r>
       <r>   47.4594    0.0000 </r>
       <r>   47.6122    0.0000 </r>
      </set>
     </set>
    </set>
   </array>
  </eigenvalues>
  <separator name="orbital magnetization" >
   <v name="MAGDIPOLOUT">      0.00000000      0.00000000      0.00000000</v>
  </separator>
  <dos>
   <i name="efermi">      4.85392826 </i>
   <total>
    <array>
     <dimension dim="1">gridpoints</dimension>
     <dimension dim="2">spin</dimension>
     <field>energy</field>
     <field>total</field>
     <field>integrated</field>
     <set>
      <set comment="spin 1">
       <r>   -29.7536     0.0000     0.0000 </r>
       <r>   -29.4834     0.0000     0.0000 </r>
       <r>   -29.2133     0.0000     0.0000 </r>
       <r>   -28.9431     0.0000     0.0000 </r>
       <r>   -28.6730     0.0000     0.0000 </r>
       <r>   -28.4028     0.0000     0.0000 </r>
       <r>   -28.1326     0.0000     0.0000 </r>
       <r>   -27.8625     0.0000     0.0000 </r>
       <r>   -27.5923     0.0000     0.0000 </r>
       <r>   -27.3221     0.0000     0.0000 </r>
       <r>   -27.0520     0.0000     0.0000 </r>
       <r>   -26.7818     0.0000     0.0000 </r>
       <r>   -26.5116     0.0003     0.0001 </r>
       <r>   -26.2415     0.0914     0.0248 </r>
       <r>   -25.9713     2.1117     0.5953 </r>
       <r>   -25.7011     6.9959     2.4854 </r>
       <r>   -25.4310     7.0102     4.3793 </r>
       <r>   -25.1608     8.3957     6.6475 </r>
       <r>   -24.8906    10.3427     9.4417 </r>
       <r>   -24.6205     8.1763    11.6507 </r>
       <r>   -24.3503     1.2771    11.9957 </r>
       <r>   -24.0801     0.0158    12.0000 </r>
       <r>   -23.8100     0.0000    12.0000 </r>
       <r>   -23.5398     0.0000    12.0000 </r>
       <r>   -23.2696     0.0000    12.0000 </r>
       <r>   -22.9995     0.0000    12.0000 </r>
       <r>   -22.7293     0.0000    12.0000 </r>
       <r>   -22.4591     0.0000    12.0000 </r>
       <r>   -22.1890     0.0000    12.0000 </r>
       <r>   -21.9188     0.0000    12.0000 </r>
       <r>   -21.6486     0.0000    12.0000 </r>
       <r>   -21.3785     0.0000    12.0000 </r>
       <r>   -21.1083     0.0000    12.0000 </r>
       <r>   -20.8381     0.0000    12.0000 </r>
       <r>   -20.5680     0.0000    12.0000 </r>
       <r>   -20.2978     0.0000    12.0000 </r>
       <r>   -20.0276     0.0000    12.0000 </r>
       <r>   -19.7575     0.0000    12.0000 </r>
       <r>   -19.4873     0.0000    12.0000 </r>
       <r>   -19.2171     0.0000    12.0000 </r>
       <r>   -18.9470     0.0000    12.0000 </r>
       <r>   -18.6768     0.0000    12.0000 </r>
       <r>   -18.4066     0.0000    12.0000 </r>
       <r>   -18.1365     0.0000    12.0000 </r>
       <r>   -17.8663     0.0000    12.0000 </r>
       <r>   -17.5961     0.0000    12.0000 </r>
       <r>   -17.3260     0.0000    12.0000 </r>
       <r>   -17.0558     0.0000    12.0000 </r>
       <r>   -16.7856     0.0000    12.0000 </r>
       <r>   -16.5155     0.0000    12.0000 </r>
       <r>   -16.2453     0.0000    12.0000 </r>
       <r>   -15.9751     0.0000    12.0000 </r>
       <r>   -15.7050     0.0000    12.0000 </r>
       <r>   -15.4348     0.0000    12.0000 </r>
       <r>   -15.1646     0.0000    12.0000 </r>
       <r>   -14.8945     0.0000    12.0000 </r>
       <r>   -14.6243     0.0000    12.0000 </r>
       <r>   -14.3541     0.0000    12.0000 </r>
       <r>   -14.0840     0.0000    12.0000 </r>
       <r>   -13.8138     0.0000    12.0000 </r>
       <r>   -13.5436     0.0000    12.0000 </r>
       <r>   -13.2735     0.0000    12.0000 </r>
       <r>   -13.0033     0.0000    12.0000 </r>
       <r>   -12.7331     0.0000    12.0000 </r>
       <r>   -12.4630     0.0000    12.0000 </r>
       <r>   -12.1928     0.0000    12.0000 </r>
       <r>   -11.9226     0.0000    12.0000 </r>
       <r>   -11.6525     0.0000    12.0000 </r>
       <r>   -11.3823     0.0000    12.0000 </r>
       <r>   -11.1121     0.0000    12.0000 </r>
       <r>   -10.8420     0.0000    12.0000 </r>
       <r>   -10.5718     0.0000    12.0000 </r>
       <r>   -10.3016     0.0000    12.0000 </r>
       <r>   -10.0315     0.0000    12.0000 </r>
       <r>    -9.7613     0.0000    12.0000 </r>
       <r>    -9.4911     0.0000    12.0000 </r>
       <r>    -9.2210     0.0000    12.0000 </r>
       <r>    -8.9508     0.0000    12.0000 </r>
       <r>    -8.6806     0.0000    12.0000 </r>
       <r>    -8.4105     0.0000    12.0000 </r>
       <r>    -8.1403     0.0000    12.0000 </r>
       <r>    -7.8701     0.0000    12.0000 </r>
       <r>    -7.6000     0.0000    12.0000 </r>
       <r>    -7.3298     0.0000    12.0000 </r>
       <r>    -7.0596     0.0000    12.0000 </r>
       <r>    -6.7895     0.0000    12.0000 </r>
       <r>    -6.5193     0.0000    12.0000 </r>
       <r>    -6.2491     0.0000    12.0000 </r>
       <r>    -5.9790     0.0000    12.0000 </r>
       <r>    -5.7088     0.0000    12.0000 </r>
       <r>    -5.4386     0.0000    12.0000 </r>
       <r>    -5.1685     0.0000    12.0000 </r>
       <r>    -4.8983     0.0000    12.0000 </r>
       <r>    -4.6281     0.0000    12.0000 </r>
       <r>    -4.3580     0.0000    12.0000 </r>
       <r>    -4.0878     0.0000    12.0000 </r>
       <r>    -3.8176     0.0000    12.0000 </r>
       <r>    -3.5475     0.0000    12.0000 </r>
       <r>    -3.2773     0.0000    12.0000 </r>
       <r>    -3.0071     0.0000    12.0000 </r>
       <r>    -2.7370     0.0000    12.0000 </r>
       <r>    -2.4668     0.0000    12.0000 </r>
       <r>    -2.1966     0.0000    12.0000 </r>
       <r>    -1.9265     0.0000    12.0000 </r>
       <r>    -1.6563     0.0000    12.0000 </r>
       <r>    -1.3861     0.0001    12.0000 </r>
       <r>    -1.1160     0.0055    12.0015 </r>
       <r>    -0.8458     0.0395    12.0122 </r>
       <r>    -0.5756     0.0840    12.0349 </r>
       <r>    -0.3055     0.1202    12.0673 </r>
       <r>    -0.0353     0.1527    12.1086 </r>
       <r>     0.2349     0.1901    12.1599 </r>
       <r>     0.5050     0.2356    12.2236 </r>
       <r>     0.7752     0.2857    12.3008 </r>
       <r>     1.0454     0.4609    12.4253 </r>
       <r>     1.3155     1.1436    12.7343 </r>
       <r>     1.5857     1.8807    13.2424 </r>
       <r>     1.8559     2.1720    13.8292 </r>
       <r>     2.1260     2.5277    14.5121 </r>
       <r>     2.3962     2.7644    15.2589 </r>
       <r>     2.6664     2.4324    15.9161 </r>
       <r>     2.9365     1.5165    16.3258 </r>
       <r>     3.2067     1.8834    16.8346 </r>
       <r>     3.4769     3.6232    17.8135 </r>
       <r>     3.7470     3.5273    18.7664 </r>
       <r>     4.0172     2.5170    19.4464 </r>
       <r>     4.2874     2.3635    20.0850 </r>
       <r>     4.5575     3.1816    20.9445 </r>
       <r>     4.8277     3.6068    21.9190 </r>
       <r>     5.0979     2.5687    22.6130 </r>
       <r>     5.3680     1.5259    23.0252 </r>
       <r>     5.6382     1.0844    23.3182 </r>
       <r>     5.9084     0.9333    23.5703 </r>
       <r>     6.1785     0.9836    23.8360 </r>
       <r>     6.4487     1.0613    24.1228 </r>
       <r>     6.7189     1.5238    24.5345 </r>
       <r>     6.9890     1.7677    25.0120 </r>
       <r>     7.2592     2.0079    25.5545 </r>
       <r>     7.5294     2.2547    26.1637 </r>
       <r>     7.7995     2.5694    26.8578 </r>
       <r>     8.0697     2.6994    27.5871 </r>
       <r>     8.3399     2.9808    28.3924 </r>
       <r>     8.6100     3.0279    29.2105 </r>
       <r>     8.8802     4.3468    30.3848 </r>
       <r>     9.1504     3.5932    31.3556 </r>
       <r>     9.4205     2.1056    31.9244 </r>
       <r>     9.6907     1.5419    32.3410 </r>
       <r>     9.9609     1.4114    32.7223 </r>
       <r>    10.2310     1.1910    33.0441 </r>
       <r>    10.5012     1.1416    33.3525 </r>
       <r>    10.7714     0.8795    33.5901 </r>
       <r>    11.0415     0.7574    33.7947 </r>
       <r>    11.3117     0.7037    33.9848 </r>
       <r>    11.5819     0.7279    34.1815 </r>
       <r>    11.8520     0.6034    34.3445 </r>
       <r>    12.1222     0.6518    34.5206 </r>
       <r>    12.3924     0.5817    34.6777 </r>
       <r>    12.6625     0.5928    34.8379 </r>
       <r>    12.9327     0.5712    34.9922 </r>
       <r>    13.2029     0.5269    35.1345 </r>
       <r>    13.4730     0.5535    35.2841 </r>
       <r>    13.7432     0.4707    35.4112 </r>
       <r>    14.0133     0.4933    35.5445 </r>
       <r>    14.2835     0.4268    35.6598 </r>
       <r>    14.5537     0.3691    35.7595 </r>
       <r>    14.8238     0.4812    35.8895 </r>
       <r>    15.0940     0.3546    35.9853 </r>
       <r>    15.3642     0.4529    36.1077 </r>
       <r>    15.6343     0.7301    36.3049 </r>
       <r>    15.9045     0.8717    36.5405 </r>
       <r>    16.1747     0.9890    36.8076 </r>
       <r>    16.4448     0.9991    37.0776 </r>
       <r>    16.7150     1.1754    37.3951 </r>
       <r>    16.9852     1.1744    37.7124 </r>
       <r>    17.2553     1.0835    38.0051 </r>
       <r>    17.5255     1.2133    38.3329 </r>
       <r>    17.7957     1.3195    38.6894 </r>
       <r>    18.0658     1.4557    39.0827 </r>
       <r>    18.3360     1.7930    39.5671 </r>
       <r>    18.6062     1.6868    40.0228 </r>
       <r>    18.8763     1.5988    40.4548 </r>
       <r>    19.1465     1.6134    40.8907 </r>
       <r>    19.4167     1.3454    41.2542 </r>
       <r>    19.6868     1.4428    41.6439 </r>
       <r>    19.9570     1.4878    42.0459 </r>
       <r>    20.2272     1.1466    42.3557 </r>
       <r>    20.4973     1.2029    42.6806 </r>
       <r>    20.7675     1.3441    43.0438 </r>
       <r>    21.0377     1.5071    43.4509 </r>
       <r>    21.3078     1.4108    43.8321 </r>
       <r>    21.5780     1.6771    44.2851 </r>
       <r>    21.8482     1.8554    44.7864 </r>
       <r>    22.1183     1.7602    45.2619 </r>
       <r>    22.3885     1.5796    45.6887 </r>
       <r>    22.6587     1.2894    46.0370 </r>
       <r>    22.9288     1.2126    46.3647 </r>
       <r>    23.1990     1.1531    46.6762 </r>
       <r>    23.4692     0.9049    46.9206 </r>
       <r>    23.7393     0.9224    47.1698 </r>
       <r>    24.0095     0.9650    47.4305 </r>
       <r>    24.2797     1.0669    47.7188 </r>
       <r>    24.5498     1.3600    48.0862 </r>
       <r>    24.8200     1.5085    48.4938 </r>
       <r>    25.0902     1.9524    49.0212 </r>
       <r>    25.3603     1.7318    49.4891 </r>
       <r>    25.6305     1.3023    49.8410 </r>
       <r>    25.9007     1.2460    50.1776 </r>
       <r>    26.1708     1.1617    50.4914 </r>
       <r>    26.4410     1.0549    50.7765 </r>
       <r>    26.7112     1.0233    51.0529 </r>
       <r>    26.9813     1.1405    51.3610 </r>
       <r>    27.2515     0.9789    51.6255 </r>
       <r>    27.5217     0.9365    51.8785 </r>
       <r>    27.7918     1.2264    52.2098 </r>
       <r>    28.0620     1.4218    52.5940 </r>
       <r>    28.3322     1.0127    52.8675 </r>
       <r>    28.6023     1.1387    53.1752 </r>
       <r>    28.8725     1.5464    53.5930 </r>
       <r>    29.1427     1.7893    54.0764 </r>
       <r>    29.4128     1.5335    54.4907 </r>
       <r>    29.6830     1.4409    54.8799 </r>
       <r>    29.9532     1.4433    55.2699 </r>
       <r>    30.2233     1.3094    55.6236 </r>
       <r>    30.4935     1.3427    55.9864 </r>
       <r>    30.7637     1.4727    56.3842 </r>
       <r>    31.0338     1.2088    56.7108 </r>
       <r>    31.3040     1.2991    57.0618 </r>
       <r>    31.5742     1.3563    57.4282 </r>
       <r>    31.8443     1.4195    57.8117 </r>
       <r>    32.1145     1.4172    58.1946 </r>
       <r>    32.3847     1.5197    58.6051 </r>
       <r>    32.6548     1.8975    59.1178 </r>
       <r>    32.9250     1.7720    59.5965 </r>
       <r>    33.1952     1.7056    60.0573 </r>
       <r>    33.4653     1.8200    60.5490 </r>
       <r>    33.7355     1.7465    61.0209 </r>
       <r>    34.0057     1.8710    61.5264 </r>
       <r>    34.2758     1.6021    61.9592 </r>
       <r>    34.5460     1.6222    62.3975 </r>
       <r>    34.8162     1.5606    62.8191 </r>
       <r>    35.0863     1.4911    63.2219 </r>
       <r>    35.3565     1.4470    63.6129 </r>
       <r>    35.6267     1.3426    63.9756 </r>
       <r>    35.8968     1.1031    64.2736 </r>
       <r>    36.1670     1.0450    64.5559 </r>
       <r>    36.4372     1.2273    64.8875 </r>
       <r>    36.7073     1.3984    65.2653 </r>
       <r>    36.9775     1.4690    65.6622 </r>
       <r>    37.2477     1.8019    66.1490 </r>
       <r>    37.5178     2.1275    66.7238 </r>
       <r>    37.7880     1.9464    67.2496 </r>
       <r>    38.0582     1.7639    67.7262 </r>
       <r>    38.3283     1.7261    68.1925 </r>
       <r>    38.5985     1.7115    68.6549 </r>
       <r>    38.8687     1.5098    69.0628 </r>
       <r>    39.1388     1.4605    69.4574 </r>
       <r>    39.4090     1.5629    69.8796 </r>
       <r>    39.6792     1.6678    70.3302 </r>
       <r>    39.9493     1.6204    70.7680 </r>
       <r>    40.2195     1.5460    71.1856 </r>
       <r>    40.4897     1.6412    71.6290 </r>
       <r>    40.7598     1.7716    72.1077 </r>
       <r>    41.0300     1.7510    72.5808 </r>
       <r>    41.3002     1.8295    73.0750 </r>
       <r>    41.5703     2.3265    73.7036 </r>
       <r>    41.8405     2.8577    74.4756 </r>
       <r>    42.1107     5.3578    75.9231 </r>
       <r>    42.3808     6.3497    77.6386 </r>
       <r>    42.6510     3.1593    78.4921 </r>
       <r>    42.9212     2.0578    79.0481 </r>
       <r>    43.1913     1.1863    79.3686 </r>
       <r>    43.4615     0.7262    79.5648 </r>
       <r>    43.7317     0.4963    79.6989 </r>
       <r>    44.0018     0.4070    79.8088 </r>
       <r>    44.2720     0.1913    79.8605 </r>
       <r>    44.5422     0.2285    79.9223 </r>
       <r>    44.8123     0.1206    79.9548 </r>
       <r>    45.0825     0.0249    79.9616 </r>
       <r>    45.3527     0.0319    79.9702 </r>
       <r>    45.6228     0.0293    79.9781 </r>
       <r>    45.8930     0.0193    79.9833 </r>
       <r>    46.1632     0.0024    79.9840 </r>
       <r>    46.4333     0.0048    79.9853 </r>
       <r>    46.7035     0.0285    79.9930 </r>
       <r>    46.9737     0.0109    79.9959 </r>
       <r>    47.2438     0.0007    79.9961 </r>
       <r>    47.5140     0.0061    79.9978 </r>
       <r>    47.7842     0.0073    79.9998 </r>
       <r>    48.0543     0.0009    80.0000 </r>
       <r>    48.3245     0.0000    80.0000 </r>
       <r>    48.5947     0.0000    80.0000 </r>
       <r>    48.8648     0.0000    80.0000 </r>
       <r>    49.1350     0.0000    80.0000 </r>
       <r>    49.4052     0.0000    80.0000 </r>
       <r>    49.6753     0.0000    80.0000 </r>
       <r>    49.9455     0.0000    80.0000 </r>
       <r>    50.2157     0.0000    80.0000 </r>
       <r>    50.4858     0.0000    80.0000 </r>
       <r>    50.7560     0.0000    80.0000 </r>
       <r>    51.0262     0.0000    80.0000 </r>
       <r>    51.2963     0.0000    80.0000 </r>
      </set>
     </set>
    </array>
   </total>
  </dos>
 </calculation>
 <structure name="finalpos" >
  <crystal>
   <varray name="basis" >
    <v>       3.30080000       0.00000000       0.00000000 </v>
    <v>       0.00000000       3.30080000       0.00000000 </v>
    <v>       0.00000000       0.00000000       3.30080000 </v>
   </varray>
   <i name="volume">     35.96314234 </i>
   <varray name="rec_basis" >
    <v>       0.30295686       0.00000000       0.00000000 </v>
    <v>       0.00000000       0.30295686       0.00000000 </v>
    <v>       0.00000000       0.00000000       0.30295686 </v>
   </varray>
  </crystal>
  <varray name="positions" >
   <v>       0.00000000       0.00000000       0.00000000 </v>
   <v>       0.50000000       0.50000000       0.50000000 </v>
  </varray>
 </structure>
</modeling>
