GaAs                                    
   5.65000000000000     
     0.500000    0.500000    0.000000
     0.000000    0.500000    0.500000
     0.500000    0.000000    0.500000
   Ga   As
     1     1
Direct
  0.000000  0.000000  0.000000
  0.250000  0.250000  0.250000
 
   32   32   32
  739.41      697.23      583.60      430.89      276.69      150.88      68.566      28.583      16.351      12.675    
  10.459      9.0505      8.1826      7.7040      7.3915      7.1333      7.0196      7.1332      7.3914      7.7040    
  8.1827      9.0506      10.459      12.675      16.351      28.583      68.567      150.88      276.70      430.89    
  583.60      697.23      697.23      619.24      486.45      334.76      198.22      98.760      42.464      20.655    
  15.235      12.656      11.046      10.003      9.4488      9.1682      8.9112      8.7109      8.7291      8.9225    
  9.1409      9.4416      10.042      11.055      12.608      15.222      20.713      42.494      98.723      198.21    
  334.81      486.39      619.04      697.11      583.60      486.45      356.35      226.27      122.20      56.373    
  26.164      17.623      14.690      13.036      11.988      11.342      11.056      10.907      10.728      10.629    
  10.728      10.907      11.056      11.342      11.988      13.036      14.690      17.623      26.165      56.373    
  122.20      226.27      356.35      486.45      583.60      619.69      430.89      334.76      226.27      131.02    
  64.990      30.927      19.693      16.470      14.742      13.828      13.301      13.043      12.965      12.917    
  12.844      12.832      12.909      12.984      13.047      13.273      13.821      14.777      16.479      19.645    
  30.895      65.020      131.06      226.27      334.81      431.00      487.79      487.73      276.69      198.22    
  122.20      64.990      32.776      20.916      17.707      16.083      15.326      15.014      14.952      15.028    
  15.124      15.174      15.184      15.174      15.124      15.028      14.952      15.014      15.326      16.084    
  17.708      20.916      32.776      64.989      122.20      198.22      276.69      336.21      358.45      336.21    
  150.88      98.760      56.373      30.927      20.916      18.116      16.788      16.330      16.320      16.532    
  16.863      17.204      17.451      17.568      17.572      17.453      17.197      16.863      16.543      16.321    
  16.315      16.791      18.148      20.936      30.895      56.313      98.722      150.87      198.90      227.77    
  227.76      198.89      68.566      42.464      26.164      19.693      17.707      16.788      16.660      17.013    
  17.599      18.267      18.913      19.407      19.691      19.781      19.692      19.408      18.913      18.267    
  17.598      17.014      16.661      16.789      17.708      19.693      26.165      42.464      68.567      98.303    
  122.01      131.05      122.01      98.302      28.583      20.655      17.623      16.470      16.083      16.330    
  17.013      17.964      19.030      20.046      20.812      21.277      21.489      21.491      21.280      20.810    
  20.042      19.031      17.968      17.011      16.315      16.069      16.479      17.667      20.713      28.610    
  41.119      54.295      62.773      62.804      54.356      41.150      16.351      15.235      14.690      14.742    
  15.326      16.320      17.599      19.030      20.435      21.540      22.238      22.590      22.694      22.590    
  22.238      21.540      20.435      19.030      17.598      16.320      15.326      14.742      14.690      15.235    
  16.351      18.834      22.889      26.808      28.431      26.808      22.889      18.834      12.675      12.656    
  13.036      13.828      15.014      16.532      18.267      20.046      21.540      22.553      23.114      23.345    
  23.344      23.112      22.555      21.541      20.042      18.267      16.543      15.027      13.821      12.999    
  12.608      12.648      13.054      13.678      14.406      14.974      14.954      14.358      13.634      13.042    
  10.459      11.046      11.988      13.301      14.952      16.863      18.913      20.812      22.238      23.114    
  23.543      23.666      23.543      23.114      22.238      20.813      18.913      16.863      14.952      13.301    
  11.988      11.046      10.459      10.185      10.165      10.309      10.485      10.563      10.485      10.309    
  10.165      10.185      9.0505      10.003      11.342      13.043      15.028      17.204      19.407      21.277    
  22.590      23.345      23.666      23.664      23.343      22.591      21.280      19.406      17.198      15.022    
  13.048      11.368      10.042      9.0768      8.4234      8.0175      7.8003      7.7105      7.6853      7.6874    
  7.7255      7.8350      8.0540      8.4320      8.1826      9.4488      11.056      12.965      15.124      17.451    
  19.691      21.489      22.694      23.344      23.543      23.343      22.694      21.489      19.692      17.451    
  15.125      12.965      11.056      9.4488      8.1827      7.2593      6.6297      6.2175      5.9578      5.8131    
  5.7664      5.8129      5.9576      6.2173      6.6295      7.2592      7.7040      9.1682      10.907      12.917    
  15.174      17.568      19.781      21.491      22.590      23.112      23.114      22.591      21.489      19.780    
  17.572      15.178      12.909      10.884      9.1410      7.6890      6.5433      5.7092      5.1483      4.7859    
  4.5587      4.4458      4.4485      4.5591      4.7718      5.1207      5.6836      6.5361      7.3915      8.9112    
  10.728      12.844      15.184      17.572      19.692      21.280      22.238      22.555      22.238      21.280    
  19.692      17.572      15.184      12.844      10.728      8.9111      7.3914      6.1464      5.1699      4.4587    
  3.9818      3.6828      3.5148      3.4594      3.5147      3.6828      3.9818      4.4588      5.1700      6.1465    
  7.1333      8.7109      10.629      12.832      15.174      17.453      19.408      20.810      21.540      21.541    
  20.813      19.406      17.451      15.178      12.844      10.648      8.7291      7.1399      5.8575      4.8367    
  4.0479      3.4730      3.0862      2.8545      2.7484      2.7495      2.8552      3.0861      3.4797      4.0670    
  4.8598      5.8690      7.0196      8.7291      10.728      12.909      15.124      17.197      18.913      20.042    
  20.435      20.042      18.913      17.198      15.125      12.909      10.728      8.7291      7.0197      5.6456    
  4.5825      3.7687      3.1516      2.7040      2.4093      2.2469      2.1958      2.2470      2.4094      2.7042    
  3.1517      3.7687      4.5824      5.6455      7.1332      8.9225      10.907      12.984      15.028      16.863    
  18.267      19.031      19.030      18.267      16.863      15.022      12.965      10.884      8.9111      7.1399    
  5.6456      4.4690      3.5903      2.9430      2.4638      2.1237      1.9120      1.8129      1.8114      1.9102    
  2.1251      2.4658      2.9391      3.5775      4.4496      5.6272      7.3914      9.1409      11.056      13.047    
  14.952      16.543      17.598      17.968      17.598      16.543      14.952      13.048      11.056      9.1410    
  7.3914      5.8575      4.5825      3.5903      2.8607      2.3370      1.9638      1.7106      1.5648      1.5176    
  1.5648      1.7106      1.9637      2.3368      2.8605      3.5902      4.5824      5.8575      7.7040      9.4416    
  11.342      13.273      15.014      16.321      17.014      17.011      16.320      15.027      13.301      11.368    
  9.4488      7.6890      6.1464      4.8367      3.7687      2.9430      2.3370      1.9094      1.6178      1.4325    
  1.3397      1.3382      1.4312      1.6198      1.9105      2.3328      2.9391      3.7768      4.8599      6.1738    
  8.1827      10.042      11.988      13.821      15.326      16.315      16.661      16.315      15.326      13.821    
  11.988      10.042      8.1827      6.5433      5.1699      4.0479      3.1516      2.4638      1.9638      1.6178    
  1.3897      1.2571      1.2130      1.2571      1.3897      1.6177      1.9637      2.4638      3.1518      4.0481    
  5.1701      6.5435      9.0506      11.055      13.036      14.777      16.084      16.791      16.789      16.069    
  14.742      12.999      11.046      9.0768      7.2593      5.7092      4.4587      3.4730      2.7040      2.1237    
  1.7106      1.4325      1.2571      1.1705      1.1720      1.2589      1.4312      1.7082      2.1251      2.7110    
  3.4796      4.4537      5.6836      7.2205      10.459      12.608      14.690      16.479      17.708      18.148    
  17.708      16.479      14.690      12.608      10.459      8.4234      6.6297      5.1483      3.9818      3.0862    
  2.4093      1.9120      1.5648      1.3397      1.2130      1.1720      1.2130      1.3397      1.5648      1.9121    
  2.4094      3.0863      3.9817      5.1481      6.6295      8.4233      12.675      15.222      17.623      19.645    
  20.916      20.936      19.693      17.667      15.235      12.648      10.185      8.0175      6.2175      4.7859    
  3.6828      2.8545      2.2469      1.8129      1.5176      1.3382      1.2571      1.2589      1.3397      1.5151    
  1.8114      2.2505      2.8551      3.6715      4.7718      6.2238      8.0539      10.233      16.351      20.713    
  26.165      30.895      32.776      30.895      26.165      20.713      16.351      13.054      10.165      7.8003    
  5.9578      4.5587      3.5148      2.7484      2.1958      1.8114      1.5648      1.4312      1.3897      1.4312    
  1.5648      1.8114      2.1958      2.7484      3.5147      4.5585      5.9577      7.8001      10.165      13.054    
  28.583      42.494      56.373      65.020      64.989      56.313      42.464      28.610      18.834      13.678    
  10.309      7.7105      5.8131      4.4458      3.4594      2.7495      2.2470      1.9102      1.7106      1.6198    
  1.6177      1.7082      1.9121      2.2505      2.7484      3.4552      4.4485      5.8280      7.7256      10.300    
  13.634      18.775      68.567      98.723      122.20      131.06      122.20      98.722      68.567      41.119    
  22.889      14.406      10.485      7.6853      5.7664      4.4485      3.5147      2.8552      2.4094      2.1251    
  1.9637      1.9105      1.9637      2.1251      2.4094      2.8551      3.5147      4.4485      5.7665      7.6854    
  10.485      14.406      22.889      41.120      150.88      198.21      226.27      226.27      198.22      150.87    
  98.303      54.295      26.808      14.974      10.563      7.6874      5.8129      4.5591      3.6828      3.0861    
  2.7042      2.4658      2.3368      2.3328      2.4638      2.7110      3.0863      3.6715      4.5585      5.8280    
  7.6854      10.530      14.954      26.840      54.356      98.341      276.70      334.81      356.35      334.81    
  276.69      198.90      122.01      62.773      28.431      14.954      10.485      7.7255      5.9576      4.7718    
  3.9818      3.4797      3.1517      2.9391      2.8605      2.9391      3.1518      3.4796      3.9817      4.7718    
  5.9577      7.7256      10.485      14.954      28.431      62.773      122.01      198.90      430.89      486.39    
  486.45      431.00      336.21      227.77      131.05      62.804      26.808      14.358      10.309      7.8350    
  6.2173      5.1207      4.4588      4.0670      3.7687      3.5775      3.5902      3.7768      4.0481      4.4537    
  5.1481      6.2238      7.8001      10.300      14.406      26.840      62.773      131.02      227.76      336.17    
  583.60      619.04      583.60      487.79      358.45      227.76      122.01      54.356      22.889      13.634    
  10.165      8.0540      6.6295      5.6836      5.1700      4.8598      4.5824      4.4496      4.5824      4.8599    
  5.1701      5.6836      6.6295      8.0539      10.165      13.634      22.889      54.356      122.01      227.76    
  358.45      487.79      697.23      697.11      619.69      487.73      336.21      198.89      98.302      41.150    
  18.834      13.042      10.185      8.4320      7.2592      6.5361      6.1465      5.8690      5.6455      5.6272    
  5.8575      6.1738      6.5435      7.2205      8.4233      10.233      13.054      18.775      41.120      98.341    
  198.90      336.17      487.79      619.89      697.23      619.24      486.45      334.76      198.22      98.760    
  42.464      20.655      15.235      12.656      11.046      10.003      9.4488      9.1682      8.9112      8.7109    
  8.7291      8.9225      9.1409      9.4416      10.042      11.055      12.608      15.222      20.713      42.494    
  98.723      198.21      334.81      486.39      619.04      697.11      619.24      516.72      379.29      241.66    
  131.09      60.536      27.579      18.068      15.025      13.314      12.233      11.567      11.277      11.130    
  10.945      10.838      10.942      11.130      11.281      11.569      12.231      13.314      15.028      18.067    
  27.581      60.570      131.16      241.68      379.17      516.46      619.01      657.22      486.45      379.29    
  257.93      150.58      74.997      34.814      20.889      17.262      15.402      14.422      13.860      13.589    
  13.514      13.463      13.379      13.364      13.453      13.537      13.597      13.829      14.415      15.442    
  17.273      20.839      34.800      75.071      150.64      257.87      379.18      486.39      549.69      549.69    
  334.76      241.66      150.58      80.578      39.482      23.160      19.041      17.206      16.355      16.004    
  15.932      16.018      16.124      16.167      16.168      16.163      16.123      16.021      15.932      16.000    
  16.355      17.212      19.038      23.140      39.462      80.584      150.62      241.71      334.81      405.13    
  431.38      405.11      198.22      131.09      74.997      39.482      24.068      20.002      18.401      17.832    
  17.803      18.029      18.394      18.767      19.008      19.104      19.107      19.008      18.758      18.394    
  18.040      17.802      17.816      18.400      20.020      24.069      39.461      75.003      131.13      198.23    
  259.18      295.63      295.66      259.22      98.760      60.536      34.814      23.160      20.002      18.814    
  18.604      18.988      19.642      20.391      21.071      21.520      21.730      21.784      21.731      21.519    
  21.069      20.390      19.643      18.988      18.604      18.823      20.021      23.174      34.799      60.491    
  98.713      140.59      173.31      185.68      173.31      140.61      42.464      27.579      20.889      19.041    
  18.401      18.604      19.393      20.505      21.727      22.762      23.408      23.702      23.792      23.793    
  23.703      23.408      22.759      21.723      20.506      19.397      18.604      18.397      19.040      20.893    
  27.581      42.464      63.688      84.826      98.029      98.020      84.810      63.680      20.655      18.068    
  17.262      17.206      17.832      18.988      20.505      22.190      23.646      24.556      24.943      25.027    
  25.027      25.028      24.943      24.554      23.644      22.190      20.506      18.983      17.817      17.191    
  17.273      18.114      20.713      26.956      35.758      43.581      46.722      43.609      35.773      26.927    
  15.235      15.025      15.402      16.355      17.803      19.642      21.727      23.646      24.936      25.520    
  25.629      25.581      25.581      25.631      25.522      24.936      23.643      21.724      19.642      17.804    
  16.355      15.402      15.027      15.235      15.931      17.442      19.658      21.330      21.328      19.656    
  17.443      15.933      12.656      13.314      14.422      16.004      18.029      20.391      22.762      24.556    
  25.520      25.799      25.746      25.685      25.747      25.802      25.522      24.555      22.759      20.393    
  18.041      16.018      14.415      13.277      12.607      12.372      12.485      12.795      13.101      13.223    
  13.073      12.761      12.475      12.399      11.046      12.233      13.860      15.932      18.394      21.071    
  23.408      24.943      25.629      25.746      25.674      25.674      25.747      25.631      24.944      23.407    
  21.070      18.393      15.933      13.860      12.233      11.046      10.252      9.7886      9.5861      9.5542    
  9.5812      9.5821      9.5559      9.5866      9.7877      10.251      10.003      11.567      13.589      16.018    
  18.767      21.520      23.702      25.027      25.581      25.685      25.674      25.686      25.582      25.029    
  23.703      21.517      18.759      16.011      13.596      11.596      10.043      8.9090      8.1248      7.6121    
  7.3066      7.1538      7.1113      7.1643      7.3295      7.6378      8.1317      8.8859      9.4488      11.277    
  13.514      16.124      19.008      21.730      23.792      25.027      25.581      25.747      25.747      25.582    
  25.028      23.793      21.730      19.008      16.123      13.515      11.279      9.4494      8.0373      7.0177    
  6.3211      5.8625      5.5787      5.4413      5.4420      5.5793      5.8614      6.3202      7.0189      8.0389    
  9.1682      11.130      13.463      16.167      19.104      21.784      23.793      25.028      25.631      25.802    
  25.631      25.029      23.793      21.786      19.108      16.168      13.454      11.106      9.1406      7.5486    
  6.3267      5.4546      4.8729      4.5031      4.2904      4.2192      4.2884      4.4948      4.8562      5.4365    
  6.3209      7.5631      8.9112      10.945      13.379      16.168      19.107      21.731      23.703      24.943    
  25.522      25.522      24.944      23.703      21.730      19.108      16.169      13.379      10.943      8.9108    
  7.2539      5.9346      4.9314      4.2204      3.7541      3.4747      3.3421      3.3418      3.4744      3.7546    
  4.2215      4.9319      5.9337      7.2528      8.7109      10.838      13.364      16.163      19.008      21.519    
  23.408      24.554      24.936      24.555      23.407      21.517      19.008      16.168      13.379      10.860    
  8.7297      7.0101      5.6558      4.6063      3.8194      3.2649      2.9086      2.7138      2.6531      2.7156    
  2.9108      3.2694      3.8303      4.6217      5.6654      7.0048      8.7291      10.942      13.453      16.123    
  18.758      21.069      22.759      23.644      23.643      22.759      21.070      18.759      16.123      13.454    
  10.943      8.7297      6.8961      5.4593      4.3708      3.5553      2.9543      2.5371      2.2820      2.1636    
  2.1630      2.2815      2.5380      2.9550      3.5544      4.3702      5.4607      6.8976      8.9225      11.130    
  13.537      16.021      18.394      20.390      21.723      22.190      21.724      20.393      18.393      16.011    
  13.515      11.106      8.9108      7.0101      5.4593      4.2701      3.3975      2.7645      2.3096      2.0042    
  1.8338      1.7802      1.8334      2.0035      2.3088      2.7629      3.3916      4.2572      5.4442      7.0047    
  9.1409      11.281      13.597      15.932      18.040      19.643      20.506      20.506      19.642      18.041    
  15.933      13.596      11.279      9.1406      7.2539      5.6558      4.3708      3.3975      2.6943      2.1974    
  1.8543      1.6368      1.5317      1.5320      1.6372      1.8541      2.1968      2.6943      3.3984      4.3713    
  5.6550      7.2528      9.4416      11.569      13.829      16.000      17.802      18.988      19.397      18.983    
  17.804      16.018      13.860      11.596      9.4494      7.5486      5.9346      4.6063      3.5553      2.7645    
  2.1974      1.8057      1.5476      1.3981      1.3475      1.3962      1.5478      1.8080      2.1970      2.7609    
  3.5575      4.6222      5.9585      7.5633      10.042      12.231      14.415      16.355      17.816      18.604    
  18.604      17.817      16.355      14.415      12.233      10.043      8.0373      6.3267      4.9314      3.8194    
  2.9543      2.3096      1.8543      1.5476      1.3547      1.2598      1.2603      1.3552      1.5470      1.8538    
  2.3103      2.9546      3.8184      4.9311      6.3285      8.0391      11.055      13.314      15.442      17.212    
  18.400      18.823      18.397      17.191      15.402      13.277      11.046      8.9090      7.0177      5.4546    
  4.2204      3.2649      2.5371      2.0042      1.6368      1.3981      1.2598      1.2135      1.2601      1.3985    
  1.6363      2.0035      2.5394      3.2706      4.2201      5.4364      6.9852      8.8858      12.608      15.028    
  17.273      19.038      20.020      20.021      19.040      17.273      15.027      12.607      10.252      8.1248    
  6.3211      4.8729      3.7541      2.9086      2.2820      1.8338      1.5317      1.3475      1.2603      1.2601    
  1.3471      1.5317      1.8342      2.2823      2.9082      3.7538      4.8736      6.3219      8.1243      10.251    
  15.222      18.067      20.839      23.140      24.069      23.174      20.893      18.114      15.235      12.372    
  9.7886      7.6121      5.8625      4.5031      3.4747      2.7138      2.1636      1.7802      1.5320      1.3962    
  1.3552      1.3985      1.5317      1.7774      2.1639      2.7162      3.4705      4.4923      5.8625      7.6388    
  9.8316      12.399      20.713      27.581      34.800      39.462      39.461      34.799      27.581      20.713    
  15.931      12.485      9.5861      7.3066      5.5787      4.2904      3.3421      2.6531      2.1630      1.8334    
  1.6372      1.5478      1.5470      1.6363      1.8342      2.1639      2.6523      3.3410      4.2907      5.5791    
  7.3059      9.5857      12.486      15.932      42.494      60.570      75.071      80.584      75.003      60.491    
  42.464      26.956      17.442      12.795      9.5542      7.1538      5.4413      4.2192      3.3418      2.7156    
  2.2815      2.0035      1.8541      1.8080      1.8538      2.0035      2.2823      2.7162      3.3410      4.2193    
  5.4474      7.1640      9.5520      12.763      17.391      26.927      98.723      131.16      150.64      150.62    
  131.13      98.713      63.688      35.758      19.658      13.101      9.5812      7.1113      5.4420      4.2884    
  3.4744      2.9108      2.5380      2.3088      2.1968      2.1970      2.3103      2.5394      2.9082      3.4705    
  4.2907      5.4474      7.1091      9.5737      13.102      19.666      35.757      63.681      198.21      241.68    
  257.87      241.71      198.23      140.59      84.826      43.581      21.330      13.223      9.5821      7.1643    
  5.5793      4.4948      3.7546      3.2694      2.9550      2.7629      2.6943      2.7609      2.9546      3.2706    
  3.7538      4.4923      5.5791      7.1640      9.5737      13.211      21.335      43.618      84.877      140.62    
  334.81      379.17      379.18      334.81      259.18      173.31      98.029      46.722      21.328      13.073    
  9.5559      7.3295      5.8614      4.8562      4.2215      3.8303      3.5544      3.3916      3.3984      3.5575    
  3.8184      4.2201      4.8736      5.8625      7.3059      9.5520      13.102      21.335      46.685      98.011    
  173.35      259.22      486.39      516.46      486.39      405.13      295.63      185.68      98.020      43.609    
  19.656      12.761      9.5866      7.6378      6.3202      5.4365      4.9319      4.6217      4.3702      4.2572    
  4.3713      4.6222      4.9311      5.4364      6.3219      7.6388      9.5857      12.763      19.666      43.618    
  98.011      185.65      295.59      405.11      619.04      619.01      549.69      431.38      295.66      173.31    
  84.810      35.773      17.443      12.475      9.7877      8.1317      7.0189      6.3209      5.9337      5.6654    
  5.4607      5.4442      5.6550      5.9585      6.3285      6.9852      8.1243      9.8316      12.486      17.391    
  35.757      84.877      173.35      295.59      431.30      549.69      697.11      657.22      549.69      405.11    
  259.22      140.61      63.680      26.927      15.933      12.399      10.251      8.8859      8.0389      7.5631    
  7.2528      7.0048      6.8976      7.0047      7.2528      7.5633      8.0391      8.8858      10.251      12.399    
  15.932      26.927      63.681      140.62      259.22      405.11      549.69      657.22      583.60      486.45    
  356.35      226.27      122.20      56.373      26.164      17.623      14.690      13.036      11.988      11.342    
  11.056      10.907      10.728      10.629      10.728      10.907      11.056      11.342      11.988      13.036    
  14.690      17.623      26.165      56.373      122.20      226.27      356.35      486.45      583.60      619.69    
  486.45      379.29      257.93      150.58      74.997      34.814      20.889      17.262      15.402      14.422    
  13.860      13.589      13.514      13.463      13.379      13.364      13.453      13.537      13.597      13.829    
  14.415      15.442      17.273      20.839      34.800      75.071      150.64      257.87      379.18      486.39    
  549.69      549.69      356.35      257.93      161.32      86.548      42.091      24.026      19.512      17.608    
  16.717      16.350      16.277      16.367      16.472      16.512      16.514      16.512      16.472      16.367    
  16.277      16.350      16.717      17.608      19.512      24.025      42.090      86.547      161.32      257.93    
  356.35      430.57      458.26      430.57      226.27      150.58      86.548      45.005      26.114      21.024    
  19.281      18.655      18.609      18.836      19.220      19.608      19.833      19.908      19.915      19.836    
  19.597      19.219      18.852      18.609      18.634      19.280      21.050      26.107      44.945      86.513    
  150.64      226.38      294.75      335.51      335.49      294.68      122.20      74.997      42.091      26.114    
  21.601      20.206      19.913      20.309      21.009      21.801      22.464      22.847      22.984      23.006    
  22.984      22.847      22.464      21.800      21.009      20.309      19.913      20.206      21.600      26.114    
  42.090      74.997      122.20      172.97      212.27      227.09      212.27      172.97      56.373      34.814    
  24.026      21.024      20.206      20.367      21.217      22.441      23.743      24.709      25.174      25.266    
  25.227      25.228      25.269      25.175      24.706      23.741      22.444      21.219      20.363      20.210    
  21.051      24.053      34.800      56.311      85.331      113.41      130.71      130.71      113.44      85.397    
  26.164      20.889      19.512      19.281      19.913      21.217      22.948      24.772      26.108      26.686    
  26.660      26.412      26.284      26.412      26.660      26.685      26.108      24.772      22.948      21.217    
  19.913      19.281      19.512      20.889      26.164      37.055      51.098      63.018      67.692      63.018    
  51.098      37.055      17.623      17.262      17.608      18.655      20.309      22.441      24.772      26.584    
  27.407      27.326      26.808      26.381      26.379      26.805      27.328      27.408      26.582      24.772    
  22.444      20.304      18.634      17.587      17.273      17.670      19.209      22.862      27.540      30.832    
  30.839      27.547      22.839      19.157      14.690      15.402      16.717      18.609      21.009      23.743    
  26.108      27.407      27.514      26.843      26.060      25.727      26.060      26.843      27.513      27.407    
  26.108      23.743      21.008      18.609      16.717      15.402      14.690      14.541      14.812      15.387    
  16.140      16.500      16.141      15.387      14.812      14.541      13.036      14.422      16.350      18.836    
  21.801      24.709      26.686      27.326      26.843      25.878      25.160      25.159      25.878      26.845    
  27.327      26.684      24.706      21.805      18.852      16.364      14.415      13.000      12.082      11.599    
  11.456      11.507      11.584      11.574      11.486      11.450      11.623      12.126      11.988      13.860    
  16.277      19.220      22.464      25.174      26.660      26.808      26.060      25.160      24.771      25.159    
  26.060      26.807      26.660      25.174      22.464      19.221      16.277      13.860      11.988      10.616    
  9.6680      9.0681      8.7425      8.6050      8.5715      8.6050      8.7425      9.0681      9.6680      10.616    
  11.342      13.589      16.367      19.608      22.847      25.266      26.412      26.381      25.727      25.159    
  25.159      25.727      26.379      26.411      25.269      22.846      19.597      16.357      13.597      11.371    
  9.6684      8.4320      7.5752      7.0115      6.6747      6.5209      6.5266      6.6891      7.0259      7.5770    
  8.4129      9.6346      11.056      13.514      16.472      19.833      22.984      25.227      26.284      26.379    
  26.060      25.878      26.060      26.379      26.284      25.226      22.984      19.833      16.473      13.515    