       N       E                     dE             d eps       ncg     rms          rms(c)
DAV:   1     0.650962248058E+02    0.65096E+02   -0.68494E+03  2873   0.153E+03
DAV:   2    -0.457114536064E+01   -0.69667E+02   -0.67702E+02  3015   0.266E+02
DAV:   3    -0.976082377109E+01   -0.51897E+01   -0.51689E+01  3665   0.681E+01
DAV:   4    -0.983345602060E+01   -0.72632E-01   -0.72621E-01  3095   0.913E+00
DAV:   5    -0.983417193086E+01   -0.71591E-03   -0.71590E-03  3555   0.895E-01    0.246E+00
DAV:   6    -0.965023590496E+01    0.18394E+00   -0.25754E-01  4396   0.106E+01    0.130E+00
DAV:   7    -0.960689514521E+01    0.43341E-01   -0.67971E-02  3522   0.215E+00    0.422E-01
DAV:   8    -0.960327898576E+01    0.36162E-02   -0.87433E-03  3513   0.121E+00    0.711E-02
DAV:   9    -0.960325117687E+01    0.27809E-04   -0.78188E-04  3400   0.452E-01
   1 F= -.96032512E+01 E0= -.96032512E+01  d E =0.000000E+00
 imaginary and real dielectric function
