bulk MoS2                               
   1.00000000000000     
     3.190316    0.000000    0.000000
    -1.595158    2.762894    0.000000
     0.000000    0.000000   14.879004
   Mo   S 
     2     4
Direct
  0.333333  0.666667  0.250000
  0.666667  0.333333  0.750000
  0.666667  0.333333  0.355174
  0.333333  0.666667  0.855174
  0.666667  0.333333  0.144826
  0.333333  0.666667  0.644826
 
   36   36  168
 0.38864     0.39135     0.39961     0.41368     0.43384     0.46018     0.49247     0.53010     0.57213     0.61732    
 0.66430     0.71157     0.75751     0.80043     0.83857     0.87027     0.89406     0.90880     0.91380     0.90880    
 0.89406     0.87027     0.83857     0.80043     0.75751     0.71157     0.66430     0.61732     0.57213     0.53010    
 0.49247     0.46018     0.43384     0.41368     0.39961     0.39135     0.39135     0.39135     0.39684     0.40801    
 0.42516     0.44848     0.47791     0.51303     0.55305     0.59689     0.64324     0.69065     0.73756     0.78231    
 0.82314     0.85834     0.88631     0.90574     0.91569     0.91569     0.90574     0.88631     0.85834     0.82314    
 0.78231     0.73756     0.69065     0.64324     0.59689     0.55305     0.51303     0.47791     0.44848     0.42516    
 0.40801     0.39684     0.39961     0.39684     0.39961     0.40801     0.42229     0.44268     0.46924     0.50174    
 0.53958     0.58183     0.62729     0.67459     0.72222     0.76855     0.81185     0.85033     0.88230     0.90630    
 0.92117     0.92620     0.92117     0.90630     0.88230     0.85033     0.81185     0.76855     0.72222     0.67459    
 0.62729     0.58183     0.53958     0.50174     0.46924     0.44268     0.42229     0.40801     0.41368     0.40801    
 0.40801     0.41368     0.42516     0.44268     0.46637     0.49614     0.53158     0.57194     0.61619     0.66305    
 0.71108     0.75868     0.80415     0.84567     0.88146     0.90990     0.92965     0.93977     0.93977     0.92965    
 0.90990     0.88146     0.84567     0.80415     0.75868     0.71108     0.66305     0.61619     0.57194     0.53158    
 0.49614     0.46637     0.44268     0.42516     0.43384     0.42516     0.42229     0.42516     0.43384     0.44848    
 0.46924     0.49614     0.52893     0.56705     0.60966     0.65562     0.70360     0.75207     0.79933     0.84356    
 0.88292     0.91565     0.94021     0.95543     0.96059     0.95543     0.94021     0.91565     0.88292     0.84356    
 0.79933     0.75207     0.70360     0.65562     0.60966     0.56705     0.52893     0.49614     0.46924     0.44848    
 0.46018     0.44848     0.44268     0.44268     0.44848     0.46018     0.47791     0.50174     0.53158     0.56705    
 0.60751     0.65200     0.69934     0.74809     0.79660     0.84309     0.88563     0.92238     0.95161     0.97192    
 0.98233     0.98233     0.97192     0.95161     0.92238     0.88563     0.84309     0.79660     0.74809     0.69934    
 0.65200     0.60751     0.56705     0.53158     0.50174     0.47791     0.49247     0.47791     0.46924     0.46637    
 0.46924     0.47791     0.49247     0.51303     0.53958     0.57194     0.60966     0.65200     0.69796     0.74623    
 0.79528     0.84335     0.88853     0.92886     0.96248     0.98776      1.0035      1.0088      1.0035     0.98776    
 0.96248     0.92886     0.88853     0.84335     0.79528     0.74623     0.69796     0.65200     0.60966     0.57194    
 0.53958     0.51303     0.53010     0.51303     0.50174     0.49614     0.49614     0.50174     0.51303     0.53011    
 0.55305     0.58183     0.61619     0.65562     0.69934     0.74623     0.79490     0.84367     0.89068     0.93394    
 0.97145      1.0014      1.0223      1.0330      1.0330      1.0223      1.0014     0.97145     0.93394     0.89068    
 0.84367     0.79490     0.74623     0.69934     0.65562     0.61619     0.58183     0.55305     0.57213     0.55305    
 0.53958     0.53158     0.52893     0.53158     0.53958     0.55305     0.57213     0.59689     0.62729     0.66305    
 0.70360     0.74809     0.79528     0.84367     0.89147     0.93672     0.97735      1.0114      1.0372      1.0532    
  1.0586      1.0532      1.0372      1.0114     0.97735     0.93672     0.89147     0.84367     0.79528     0.74809    
 0.70360     0.66305     0.62729     0.59689     0.61732     0.59689     0.58183     0.57194     0.56705     0.56705    
 0.57194     0.58183     0.59689     0.61732     0.64324     0.67459     0.71108     0.75207     0.79660     0.84335    
 0.89068     0.93672     0.97942      1.0167      1.0467      1.0677      1.0785      1.0785      1.0677      1.0467    
  1.0167     0.97942     0.93672     0.89068     0.84335     0.79660     0.75207     0.71108     0.67459     0.64324    
 0.66430     0.64324     0.62729     0.61619     0.60966     0.60751     0.60966     0.61619     0.62729     0.64324    
 0.66430     0.69065     0.72222     0.75868     0.79933     0.84309     0.88853     0.93394     0.97735      1.0167    
  1.0500      1.0753      1.0912      1.0966      1.0912      1.0753      1.0500      1.0167     0.97735     0.93394    
 0.88853     0.84309     0.79933     0.75868     0.72222     0.69065     0.71157     0.69065     0.67459     0.66305    
 0.65562     0.65200     0.65200     0.65562     0.66305     0.67459     0.69065     0.71157     0.73756     0.76855    
 0.80415     0.84356     0.88563     0.92886     0.97145      1.0114      1.0467      1.0753      1.0955      1.1060    
  1.1060      1.0955      1.0753      1.0467      1.0114     0.97145     0.92886     0.88563     0.84356     0.80415    
 0.76855     0.73756     0.75751     0.73756     0.72222     0.71108     0.70360     0.69934     0.69796     0.69934    
 0.70360     0.71108     0.72222     0.73756     0.75751     0.78231     0.81185     0.84567     0.88292     0.92238    
 0.96248      1.0014      1.0372      1.0677      1.0912      1.1060      1.1110      1.1060      1.0912      1.0677    
  1.0372      1.0014     0.96248     0.92238     0.88292     0.84567     0.81185     0.78231     0.80043     0.78231    
 0.76855     0.75868     0.75207     0.74809     0.74623     0.74623     0.74809     0.75207     0.75868     0.76855    
 0.78231     0.80043     0.82314     0.85033     0.88146     0.91565     0.95161     0.98776      1.0223      1.0532    
  1.0785      1.0966      1.1060      1.1060      1.0966      1.0785      1.0532      1.0223     0.98776     0.95161    
 0.91565     0.88146     0.85033     0.82314     0.83857     0.82314     0.81185     0.80415     0.79933     0.79660    
 0.79528     0.79490     0.79528     0.79660     0.79933     0.80415     0.81185     0.82314     0.83857     0.85834    
 0.88230     0.90990     0.94021     0.97192      1.0035      1.0330      1.0586      1.0785      1.0912      1.0955    
  1.0912      1.0785      1.0586      1.0330      1.0035     0.97192     0.94021     0.90990     0.88230     0.85834    
 0.87027     0.85834     0.85033     0.84567     0.84356     0.84309     0.84335     0.84367     0.84367     0.84335    
 0.84309     0.84356     0.84567     0.85033     0.85834     0.87027     0.88631     0.90630     0.92965     0.95543    
 0.98233      1.0088      1.0330      1.0532      1.0677      1.0753      1.0753      1.0677      1.0532      1.0330    
  1.0088     0.98233     0.95543     0.92965     0.90630     0.88631     0.89406     0.88631     0.88230     0.88146    
 0.88292     0.88563     0.88853     0.89068     0.89147     0.89068     0.88853     0.88563     0.88292     0.88146    
 0.88230     0.88631     0.89406     0.90574     0.92117     0.93977     0.96059     0.98233      1.0035      1.0223    
  1.0372      1.0467      1.0500      1.0467      1.0372      1.0223      1.0035     0.98233     0.96059     0.93977    
 0.92117     0.90574     0.90880     0.90574     0.90630     0.90990     0.91565     0.92238     0.92886     0.93394    
 0.93672     0.93672     0.93394     0.92886     0.92238     0.91565     0.90990     0.90630     0.90574     0.90880    
 0.91569     0.92620     0.93977     0.95543     0.97192     0.98776      1.0014      1.0114      1.0167      1.0167    
  1.0114      1.0014     0.98776     0.97192     0.95543     0.93977     0.92620     0.91569     0.91380     0.91569    
 0.92117     0.92965     0.94021     0.95161     0.96248     0.97145     0.97735     0.97942     0.97735     0.97145    
 0.96248     0.95161     0.94021     0.92965     0.92117     0.91569     0.91380     0.91569     0.92117     0.92965    
 0.94021     0.95161     0.96248     0.97145     0.97735     0.97942     0.97735     0.97145     0.96248     0.95161    
 0.94021     0.92965     0.92117     0.91569     0.90880     0.91569     0.92620     0.93977     0.95543     0.97192    
 0.98776      1.0014      1.0114      1.0167      1.0167      1.0114      1.0014     0.98776     0.97192     0.95543    
 0.93977     0.92620     0.91569     0.90880     0.90574     0.90630     0.90990     0.91565     0.92238     0.92886    
 0.93394     0.93672     0.93672     0.93394     0.92886     0.92238     0.91565     0.90990     0.90630     0.90574    
 0.89406     0.90574     0.92117     0.93977     0.96059     0.98233      1.0035      1.0223      1.0372      1.0467    
  1.0500      1.0467      1.0372      1.0223      1.0035     0.98233     0.96059     0.93977     0.92117     0.90574    
 0.89406     0.88631     0.88230     0.88146     0.88292     0.88563     0.88853     0.89068     0.89147     0.89068    
 0.88853     0.88563     0.88292     0.88146     0.88230     0.88631     0.87027     0.88631     0.90630     0.92965    
 0.95543     0.98233      1.0088      1.0330      1.0532      1.0677      1.0753      1.0753      1.0677      1.0532    
  1.0330      1.0088     0.98233     0.95543     0.92965     0.90630     0.88631     0.87027     0.85834     0.85033    
 0.84567     0.84356     0.84309     0.84335     0.84367     0.84367     0.84335     0.84309     0.84356     0.84567    
 0.85033     0.85834     0.83857     0.85834     0.88230     0.90990     0.94021     0.97192      1.0035      1.0330    
  1.0586      1.0785      1.0912      1.0955      1.0912      1.0785      1.0586      1.0330      1.0035     0.97192    
 0.94021     0.90990     0.88230     0.85834     0.83857     0.82314     0.81185     0.80415     0.79933     0.79660    
 0.79528     0.79490     0.79528     0.79660     0.79933     0.80415     0.81185     0.82314     0.80043     0.82314    
 0.85033     0.88146     0.91565     0.95161     0.98776      1.0223      1.0532      1.0785      1.0966      1.1060    
  1.1060      1.0966      1.0785      1.0532      1.0223     0.98776     0.95161     0.91565     0.88146     0.85033    
 0.82314     0.80043     0.78231     0.76855     0.75868     0.75207     0.74809     0.74623     0.74623     0.74809    
 0.75207     0.75868     0.76855     0.78231     0.75751     0.78231     0.81185     0.84567     0.88292     0.92238    
 0.96248      1.0014      1.0372      1.0677      1.0912      1.1060      1.1110      1.1060      1.0912      1.0677    
  1.0372      1.0014     0.96248     0.92238     0.88292     0.84567     0.81185     0.78231     0.75751     0.73756    
 0.72222     0.71108     0.70360     0.69934     0.69796     0.69934     0.70360     0.71108     0.72222     0.73756    
 0.71157     0.73756     0.76855     0.80415     0.84356     0.88563     0.92886     0.97145      1.0114      1.0467    
  1.0753      1.0955      1.1060      1.1060      1.0955      1.0753      1.0467      1.0114     0.97145     0.92886    
 0.88563     0.84356     0.80415     0.76855     0.73756     0.71157     0.69065     0.67459     0.66305     0.65562    
 0.65200     0.65200     0.65562     0.66305     0.67459     0.69065     0.66430     0.69065     0.72222     0.75868    
 0.79933     0.84309     0.88853     0.93394     0.97735      1.0167      1.0500      1.0753      1.0912      1.0966    
  1.0912      1.0753      1.0500      1.0167     0.97735     0.93394     0.88853     0.84309     0.79933     0.75868    
 0.72222     0.69065     0.66430     0.64324     0.62729     0.61619     0.60966     0.60751     0.60966     0.61619    
 0.62729     0.64324     0.61732     0.64324     0.67459     0.71108     0.75207     0.79660     0.84335     0.89068    
 0.93672     0.97942      1.0167      1.0467      1.0677      1.0785      1.0785      1.0677      1.0467      1.0167    
 0.97942     0.93672     0.89068     0.84335     0.79660     0.75207     0.71108     0.67459     0.64324     0.61732    
 0.59689     0.58183     0.57194     0.56705     0.56705     0.57194     0.58183     0.59689     0.57213     0.59689    
 0.62729     0.66305     0.70360     0.74809     0.79528     0.84367     0.89147     0.93672     0.97735      1.0114    
  1.0372      1.0532      1.0586      1.0532      1.0372      1.0114     0.97735     0.93672     0.89147     0.84367    
 0.79528     0.74809     0.70360     0.66305     0.62729     0.59689     0.57213     0.55305     0.53958     0.53158    
 0.52893     0.53158     0.53958     0.55305     0.53010     0.55305     0.58183     0.61619     0.65562     0.69934    
 0.74623     0.79490     0.84367     0.89068     0.93394     0.97145      1.0014      1.0223      1.0330      1.0330    
  1.0223      1.0014     0.97145     0.93394     0.89068     0.84367     0.79490     0.74623     0.69934     0.65562    
 0.61619     0.58183     0.55305     0.53011     0.51303     0.50174     0.49614     0.49614     0.50174     0.51303    
 0.49247     0.51303     0.53958     0.57194     0.60966     0.65200     0.69796     0.74623     0.79528     0.84335    
 0.88853     0.92886     0.96248     0.98776      1.0035      1.0088      1.0035     0.98776     0.96248     0.92886    
 0.88853     0.84335     0.79528     0.74623     0.69796     0.65200     0.60966     0.57194     0.53958     0.51303    
 0.49247     0.47791     0.46924     0.46637     0.46924     0.47791     0.46018     0.47791     0.50174     0.53158    
 0.56705     0.60751     0.65200     0.69934     0.74809     0.79660     0.84309     0.88563     0.92238     0.95161    
 0.97192     0.98233     0.98233     0.97192     0.95161     0.92238     0.88563     0.84309     0.79660     0.74809    
 0.69934     0.65200     0.60751     0.56705     0.53158     0.50174     0.47791     0.46018     0.44848     0.44268    
 0.44268     0.44848     0.43384     0.44848     0.46924     0.49614     0.52893     0.56705     0.60966     0.65562    
 0.70360     0.75207     0.79933     0.84356     0.88292     0.91565     0.94021     0.95543     0.96059     0.95543    
 0.94021     0.91565     0.88292     0.84356     0.79933     0.75207     0.70360     0.65562     0.60966     0.56705    
 0.52893     0.49614     0.46924     0.44848     0.43384     0.42516     0.42229     0.42516     0.41368     0.42516    
 0.44268     0.46637     0.49614     0.53158     0.57194     0.61619     0.66305     0.71108     0.75868     0.80415    
 0.84567     0.88146     0.90990     0.92965     0.93977     0.93977     0.92965     0.90990     0.88146     0.84567    
 0.80415     0.75868     0.71108     0.66305     0.61619     0.57194     0.53158     0.49614     0.46637     0.44268    
 0.42516     0.41368     0.40801     0.40801     0.39961     0.40801     0.42229     0.44268     0.46924     0.50174    
 0.53958     0.58183     0.62729     0.67459     0.72222     0.76855     0.81185     0.85033     0.88230     0.90630    
 0.92117     0.92620     0.92117     0.90630     0.88230     0.85033     0.81185     0.76855     0.72222     0.67459    
 0.62729     0.58183     0.53958     0.50174     0.46924     0.44268     0.42229     0.40801     0.39961     0.39684    
 0.39135     0.39684     0.40801     0.42516     0.44848     0.47791     0.51303     0.55305     0.59689     0.64324    
 0.69065     0.73756     0.78231     0.82314     0.85834     0.88631     0.90574     0.91569     0.91569     0.90574    
 0.88631     0.85834     0.82314     0.78231     0.73756     0.69065     0.64324     0.59689     0.55305     0.51303    
 0.47791     0.44848     0.42516     0.40801     0.39684     0.39135     0.39686     0.39980     0.40872     0.42383    
 0.44533     0.47326     0.50734     0.54694     0.59109     0.63856     0.68795     0.73768     0.78607     0.83131    
 0.87154     0.90501     0.93013     0.94572     0.95100     0.94572     0.93013     0.90501     0.87154     0.83131    
 0.78607     0.73768     0.68795     0.63856     0.59109     0.54694     0.50734     0.47326     0.44533     0.42383    
 0.40872     0.39980     0.39980     0.39980     0.40622     0.41918     0.43887     0.46536     0.49848     0.53773    
 0.58225     0.63092     0.68237     0.73505     0.78726     0.83715     0.88277     0.92216     0.95353     0.97536    
 0.98655     0.98655     0.97536     0.95353     0.92216     0.88277     0.83715     0.78726     0.73505     0.68237    
 0.63092     0.58225     0.53773     0.49848     0.46536     0.43887     0.41918     0.40622     0.40872     0.40525    
 0.40872     0.41918     0.43676     0.46151     0.49333     0.53185     0.57635     0.62583     0.67899     0.73434    
 0.79017     0.84460     0.89560     0.94107     0.97897      1.0075      1.0252      1.0312      1.0252      1.0075    
 0.97897     0.94107     0.89560     0.84460     0.79017     0.73434     0.67899     0.62583     0.57635     0.53185    
 0.49333     0.46151     0.43676     0.41918     0.42383     0.41633     0.41633     0.42383     0.43887     0.46151    
 0.49164     0.52900     0.57301     0.62279     0.67719     0.73477     0.79388     0.85261     0.90887     0.96041    
  1.0050      1.0406      1.0654      1.0781      1.0781      1.0654      1.0406      1.0050     0.96041     0.90887    
 0.85261     0.79388     0.73477     0.67719     0.62279     0.57301     0.52900     0.49164     0.46151     0.43887    
 0.44533     0.43331     0.42930     0.43331     0.44533     0.46536     0.49333     0.52900     0.57193     0.62139    
 0.67637     0.73559     0.79743     0.86002     0.92121     0.97867      1.0300      1.0728      1.1050      1.1251    
  1.1319      1.1251      1.1050      1.0728      1.0300     0.97867     0.92121     0.86002     0.79743     0.73559    
 0.67637     0.62139     0.57193     0.52900     0.49333     0.46536     0.47326     0.45638     0.44792     0.44792    
 0.45638     0.47326     0.49848     0.53185     0.57301     0.62139     0.67615     0.73616     0.79996     0.86571    
 0.93127     0.99423      1.0520      1.1021      1.1420      1.1699      1.1842      1.1842      1.1699      1.1420    
  1.1021      1.0520     0.99423     0.93127     0.86571     0.79996     0.73616     0.67615     0.62139     0.57301    
 0.53185     0.49848     0.50734     0.48548     0.47230     0.46790     0.47230     0.48548     0.50734     0.53773    
 0.57636     0.62279     0.67637     0.73616     0.80087     0.86879     0.93784      1.0056      1.0693      1.1264    
  1.1740      1.2099      1.2322      1.2398      1.2322      1.2099      1.1740      1.1264      1.0693      1.0056    
 0.93784     0.86879     0.80087     0.73616     0.67637     0.62279     0.57635     0.53773     0.54694     0.52021    
 0.50228     0.49328     0.49328     0.50228     0.52021     0.54694     0.58225     0.62583     0.67719     0.73559    
 0.79996     0.86879     0.94013      1.0116      1.0804      1.1438      1.1987      1.2427      1.2733      1.2891    
  1.2891      1.2733      1.2427      1.1987      1.1438      1.0804      1.0116     0.94013     0.86879     0.79996    
 0.73559     0.67719     0.62583     0.58225     0.59109     0.55981     0.53732     0.52377     0.51924     0.52377    
 0.53732     0.55981     0.59109     0.63092     0.67899     0.73477     0.79743     0.86571     0.93784      1.0116    
  1.0842      1.1529      1.2144      1.2660      1.3049      1.3291      1.3374      1.3291      1.3049      1.2660    
  1.2144      1.1529      1.0842      1.0116     0.93784     0.86571     0.79743     0.73477     0.67899     0.63092    
 0.63856     0.60324     0.57659     0.55875     0.54981     0.54981     0.55875     0.57659     0.60324     0.63856    
 0.68237     0.73434     0.79388     0.86002     0.93127      1.0056      1.0804      1.1529      1.2198      1.2781    
  1.3248      1.3574      1.3742      1.3742      1.3574      1.3248      1.2781      1.2198      1.1529      1.0804    
  1.0056     0.93127     0.86002     0.79388     0.73434     0.68237     0.68795     0.64920     0.61897     0.59732    
 0.58431     0.57997     0.58431     0.59732     0.61897     0.64920     0.68795     0.73505     0.79017     0.85261    
 0.92121     0.99423      1.0693      1.1438      1.2144      1.2781      1.3315      1.3721      1.3974      1.4060    
  1.3974      1.3721      1.3315      1.2781      1.2144      1.1438      1.0693     0.99423     0.92121     0.85261    
 0.79017     0.73505     0.73768     0.69627     0.66315     0.63833     0.62180     0.61353     0.61353     0.62179    
 0.63833     0.66315     0.69627     0.73768     0.78726     0.84460     0.90887     0.97867      1.0520      1.1264    
  1.1987      1.2660      1.3248      1.3721      1.4053      1.4224      1.4224      1.4053      1.3721      1.3248    
  1.2660      1.1987      1.1264      1.0520     0.97867     0.90887     0.84460     0.78726     0.78607     0.74286    
 0.70768     0.68047     0.66112     0.64954     0.64569     0.64954     0.66112     0.68047     0.70768     0.74286    
 0.78607     0.83715     0.89560     0.96041      1.0300      1.1021      1.1740      1.2427      1.3049      1.3574    
  1.3974      1.4224      1.4309      1.4224      1.3974      1.3574      1.3049      1.2427      1.1740      1.1021    
  1.0300     0.96041     0.89560     0.83715     0.83131     0.78732     0.75101     0.72229     0.70097     0.68687    
 0.67986     0.67986     0.68687     0.70097     0.72229     0.75101     0.78732     0.83131     0.88277     0.94107    
  1.0050      1.0728      1.1420      1.2099      1.2733      1.3291      1.3742      1.4060      1.4224      1.4224    
  1.4060      1.3742      1.3291      1.2733      1.2099      1.1420      1.0728      1.0050     0.94107     0.88277    
 0.87154     0.82789     0.79148     0.76224     0.73992     0.72422     0.71490     0.71181     0.71490     0.72422    
 0.73992     0.76224     0.79148     0.82789     0.87154     0.92216     0.97897      1.0406      1.1050      1.1699    
  1.2322      1.2891      1.3374      1.3742      1.3974      1.4053      1.3974      1.3742      1.3374      1.2891    
  1.2322      1.1699      1.1050      1.0406     0.97897     0.92216     0.90501     0.86283     0.82741     0.79870    
 0.77641     0.76013     0.74951     0.74426     0.74426     0.74951     0.76013     0.77641     0.79870     0.82741    
 0.86283     0.90501     0.95353      1.0075      1.0654      1.1251      1.1842      1.2398      1.2891      1.3291    
  1.3574      1.3721      1.3721      1.3574      1.3291      1.2891      1.2398      1.1842      1.1251      1.0654    
  1.0075     0.95353     0.93013     0.89059     0.85723     0.83010     0.80888     0.79310     0.78225     0.77592    
 0.77384     0.77592     0.78225     0.79310     0.80888     0.83010     0.85723     0.89059     0.93013     0.97536    
  1.0252      1.0781      1.1319      1.1842      1.2322      1.2733      1.3049      1.3248      1.3315      1.3248    
  1.3049      1.2733      1.2322      1.1842      1.1319      1.0781      1.0252     0.97536     0.94572     0.90985    
 0.87957     0.85500     0.83586     0.82161     0.81164     0.80536     0.80233     0.80233     0.80536     0.81164    
 0.82161     0.83586     0.85500     0.87957     0.90985     0.94572     0.98655      1.0312      1.0781      1.1251    
  1.1699      1.2099      1.2427      1.2660      1.2781      1.2781      1.2660      1.2427      1.2099      1.1699    
  1.1251      1.0781      1.0312     0.98655     0.95100     0.91972     0.89340     0.87226     0.85608     0.84431    
 0.83623     0.83110     0.82829     0.82740     0.82829     0.83110     0.83623     0.84431     0.85608     0.87226    
 0.89340     0.91972     0.95100     0.98655      1.0252      1.0654      1.1050      1.1420      1.1740      1.1987    
  1.2144      1.2198      1.2144      1.1987      1.1740      1.1420      1.1050      1.0654      1.0252     0.98655    
 0.94572     0.91972     0.89808     0.88109     0.86859     0.86008     0.85476     0.85177     0.85031     0.84974    
 0.84974     0.85031     0.85177     0.85476     0.86007     0.86859     0.88109     0.89808     0.91972     0.94572    
 0.97536      1.0075      1.0406      1.0728      1.1021      1.1264      1.1438      1.1529      1.1529      1.1438    
  1.1264      1.1021      1.0728      1.0406      1.0075     0.97536     0.93013     0.90985     0.89340     0.88109    
 0.87283     0.86815     0.86627     0.86624     0.86708     0.86795     0.86831     0.86795     0.86708     0.86624    
 0.86627     0.86815     0.87283     0.88109     0.89340     0.90985     0.93013     0.95353     0.97897      1.0050    
  1.0300      1.0520      1.0693      1.0804      1.0842      1.0804      1.0693      1.0520      1.0300      1.0050    
 0.97897     0.95353     0.90501     0.89059     0.87957     0.87226     0.86859     0.86815     0.87018     0.87369    
 0.87758     0.88084     0.88268     0.88268     0.88084     0.87758     0.87369     0.87018     0.86815     0.86859    
 0.87226     0.87957     0.89059     0.90501     0.92216     0.94107     0.96041     0.97867     0.99423      1.0056    
  1.0116      1.0116      1.0056     0.99423     0.97867     0.96041     0.94107     0.92216     0.87154     0.86283    
 0.85723     0.85500     0.85608     0.86007     0.86627     0.87369     0.88115     0.88751     0.89177     0.89327    
 0.89177     0.88751     0.88115     0.87369     0.86627     0.86007     0.85608     0.85500     0.85723     0.86283    
 0.87154     0.88277     0.89560     0.90887     0.92121     0.93127     0.93784     0.94013     0.93784     0.93127    
 0.92121     0.90887     0.89560     0.88277     0.83131     0.82789     0.82741     0.83010     0.83586     0.84431    
 0.85476     0.86624     0.87758     0.88751     0.89489     0.89882     0.89882     0.89489     0.88751     0.87758    
 0.86624     0.85476     0.84431     0.83586     0.83010     0.82741     0.82789     0.83131     0.83715     0.84460    
 0.85261     0.86002     0.86571     0.86879     0.86879     0.86571     0.86002     0.85261     0.84460     0.83715    
 0.78607     0.78732     0.79148     0.79870     0.80888     0.82161     0.83623     0.85177     0.86708     0.88084    
 0.89177     0.89882     0.90125     0.89882     0.89177     0.88084     0.86708     0.85177     0.83623     0.82161    
 0.80888     0.79870     0.79148     0.78732     0.78607     0.78726     0.79017     0.79388     0.79743     0.79996    
 0.80087     0.79996     0.79743     0.79388     0.79017     0.78726     0.73768     0.74286     0.75101     0.76224    
 0.77641     0.79310     0.81164     0.83110     0.85031     0.86795     0.88268     0.89327     0.89882     0.89882    
 0.89327     0.88268     0.86795     0.85031     0.83110     0.81164     0.79310     0.77641     0.76224     0.75101    
 0.74286     0.73768     0.73505     0.73434     0.73477     0.73559     0.73616     0.73616     0.73559     0.73477    
 0.73434     0.73505     0.68795     0.69627     0.70768     0.72229     0.73992     0.76013     0.78225     0.80536    
 0.82829     0.84974     0.86831     0.88268     0.89177     0.89489     0.89177     0.88268     0.86831     0.84974    
 0.82829     0.80536     0.78225     0.76013     0.73992     0.72229     0.70768     0.69627     0.68795     0.68237    
 0.67899     0.67719     0.67637     0.67615     0.67637     0.67719     0.67899     0.68237     0.63856     0.64920    
 0.66315     0.68047     0.70097     0.72422     0.74951     0.77592     0.80233     0.82740     0.84974     0.86795    
 0.88084     0.88751     0.88751     0.88084     0.86795     0.84974     0.82740     0.80233     0.77592     0.74951    
 0.72422     0.70097     0.68047     0.66315     0.64920     0.63856     0.63092     0.62583     0.62279     0.62139    
 0.62139     0.62279     0.62583     0.63092     0.59109     0.60324     0.61897     0.63833     0.66112     0.68687    
 0.71490     0.74426     0.77384     0.80233     0.82829     0.85031     0.86708     0.87758     0.88115     0.87758    
 0.86708     0.85031     0.82829     0.80233     0.77384     0.74426     0.71490     0.68687     0.66112     0.63833    
 0.61897     0.60324     0.59109     0.58225     0.57636     0.57301     0.57193     0.57301     0.57635     0.58225    
 0.54694     0.55981     0.57659     0.59732     0.62180     0.64954     0.67986     0.71181     0.74426     0.77592    
 0.80536     0.83110     0.85177     0.86624     0.87369     0.87369     0.86624     0.85177     0.83110     0.80536    
 0.77592     0.74426     0.71181     0.67986     0.64954     0.62179     0.59732     0.57659     0.55981     0.54694    
 0.53773     0.53185     0.52900     0.52900     0.53185     0.53773     0.50734     0.52021     0.53732     0.55875    
 0.58431     0.61353     0.64569     0.67986     0.71490     0.74951     0.78225     0.81164     0.83623     0.85476    
 0.86627     0.87018     0.86627     0.85476     0.83623     0.81164     0.78225     0.74951     0.71490     0.67986    
 0.64569     0.61353     0.58431     0.55875     0.53732     0.52021     0.50734     0.49848     0.49333     0.49164    
 0.49333     0.49848     0.47326     0.48548     0.50228     0.52377     0.54981     0.57997     0.61353     0.64954    
 0.68687     0.72422     0.76013     0.79310     0.82161     0.84431     0.86007     0.86815     0.86815     0.86008    
 0.84431     0.82161     0.79310     0.76013     0.72422     0.68687     0.64954     0.61353     0.57997     0.54981    