   6   6   0   0
  0.2185851E+02  0.3190316E-09  0.3190315E-09  0.1487900E-08  0.5000000E-15
  1.000000000000000E-004
  CAR 
 bulk MoS2                               
      8.58662216    -12.65631485  301      3.56797829      1.00000000
    -12.656  0.0000E+00  0.0000E+00
    -12.586  0.0000E+00  0.0000E+00
    -12.515  0.0000E+00  0.0000E+00
    -12.444  0.0000E+00  0.0000E+00
    -12.373  0.0000E+00  0.0000E+00
    -12.302  0.0000E+00  0.0000E+00
    -12.231  0.0000E+00  0.0000E+00
    -12.161  0.0000E+00  0.0000E+00
    -12.090  0.0000E+00  0.0000E+00
    -12.019  0.0000E+00  0.0000E+00
    -11.948  0.0000E+00  0.0000E+00
    -11.877  0.0000E+00  0.0000E+00
    -11.807  0.0000E+00  0.0000E+00
    -11.736  0.0000E+00  0.0000E+00
    -11.665  0.0000E+00  0.0000E+00
    -11.594  0.0000E+00  0.0000E+00
    -11.523  0.0000E+00  0.0000E+00
    -11.453  0.0000E+00  0.0000E+00
    -11.382  0.0000E+00  0.0000E+00
    -11.311  0.0000E+00  0.0000E+00
    -11.240  0.0000E+00  0.0000E+00
    -11.169  0.0000E+00  0.0000E+00
    -11.098  0.0000E+00  0.0000E+00
    -11.028  0.0000E+00  0.0000E+00
    -10.957  0.0000E+00  0.0000E+00
    -10.886  0.0000E+00  0.0000E+00
    -10.815  0.0000E+00  0.0000E+00
    -10.744  0.0000E+00  0.0000E+00
    -10.674  0.0000E+00  0.0000E+00
    -10.603  0.1088E+01  0.4172E-01
    -10.532  0.1069E+01  0.1168E+00
    -10.461  0.1104E+01  0.1927E+00
    -10.390  0.1110E+01  0.2697E+00
    -10.320  0.1118E+01  0.3490E+00
    -10.249  0.1167E+01  0.4299E+00
    -10.178  0.1175E+01  0.5123E+00
    -10.107  0.1214E+01  0.5971E+00
    -10.036  0.1237E+01  0.6836E+00
     -9.966  0.1280E+01  0.7728E+00
     -9.895  0.1312E+01  0.8644E+00
     -9.824  0.1357E+01  0.9588E+00
     -9.753  0.1403E+01  0.1056E+01
     -9.682  0.1454E+01  0.1158E+01
     -9.611  0.1519E+01  0.1263E+01
     -9.541  0.1585E+01  0.1373E+01
     -9.470  0.1665E+01  0.1487E+01
     -9.399  0.3952E+01  0.1708E+01
     -9.328  0.4175E+01  0.1996E+01
     -9.257  0.4462E+01  0.2302E+01
     -9.187  0.4743E+01  0.2627E+01
     -9.116  0.5182E+01  0.2978E+01
     -9.045  0.5674E+01  0.3361E+01
     -8.974  0.6546E+01  0.3791E+01
     -8.903  0.7990E+01  0.4299E+01
     -8.833  0.8812E+01  0.4978E+01
     -8.762  0.8370E+01  0.5574E+01
     -8.691  0.9228E+01  0.6185E+01
     -8.620  0.1319E+02  0.7004E+01
     -8.549  0.6043E+01  0.7551E+01
     -8.479  0.4801E+01  0.7928E+01
     -8.408  0.0000E+00  0.8000E+01
     -8.337  0.0000E+00  0.8000E+01
     -8.266  0.0000E+00  0.8000E+01
     -8.195  0.0000E+00  0.8000E+01
     -8.124  0.0000E+00  0.8000E+01
     -8.054  0.0000E+00  0.8000E+01
     -7.983  0.0000E+00  0.8000E+01
     -7.912  0.0000E+00  0.8000E+01
     -7.841  0.0000E+00  0.8000E+01
     -7.770  0.0000E+00  0.8000E+01
     -7.700  0.0000E+00  0.8000E+01
     -7.629  0.0000E+00  0.8000E+01
     -7.558  0.0000E+00  0.8000E+01
     -7.487  0.0000E+00  0.8000E+01
     -7.416  0.0000E+00  0.8000E+01
     -7.346  0.0000E+00  0.8000E+01
     -7.275  0.0000E+00  0.8000E+01
     -7.204  0.0000E+00  0.8000E+01
     -7.133  0.0000E+00  0.8000E+01
     -7.062  0.0000E+00  0.8000E+01
     -6.992  0.0000E+00  0.8000E+01
     -6.921  0.0000E+00  0.8000E+01
     -6.850  0.0000E+00  0.8000E+01
     -6.779  0.0000E+00  0.8000E+01
     -6.708  0.0000E+00  0.8000E+01
     -6.637  0.0000E+00  0.8000E+01
     -6.567  0.0000E+00  0.8000E+01
     -6.496  0.0000E+00  0.8000E+01
     -6.425  0.0000E+00  0.8000E+01
     -6.354  0.0000E+00  0.8000E+01
     -6.283  0.0000E+00  0.8000E+01
     -6.213  0.0000E+00  0.8000E+01
     -6.142  0.0000E+00  0.8000E+01
     -6.071  0.0000E+00  0.8000E+01
     -6.000  0.0000E+00  0.8000E+01
     -5.929  0.0000E+00  0.8000E+01
     -5.859  0.0000E+00  0.8000E+01
     -5.788  0.0000E+00  0.8000E+01
     -5.717  0.0000E+00  0.8000E+01
     -5.646  0.0000E+00  0.8000E+01
     -5.575  0.0000E+00  0.8000E+01
     -5.505  0.0000E+00  0.8000E+01
     -5.434  0.0000E+00  0.8000E+01
     -5.363  0.0000E+00  0.8000E+01
     -5.292  0.0000E+00  0.8000E+01
     -5.221  0.0000E+00  0.8000E+01
     -5.150  0.0000E+00  0.8000E+01
     -5.080  0.0000E+00  0.8000E+01
     -5.009  0.0000E+00  0.8000E+01
     -4.938  0.0000E+00  0.8000E+01
     -4.867  0.0000E+00  0.8000E+01
     -4.796  0.0000E+00  0.8000E+01
     -4.726  0.0000E+00  0.8000E+01
     -4.655  0.0000E+00  0.8000E+01
     -4.584  0.0000E+00  0.8000E+01
     -4.513  0.0000E+00  0.8000E+01
     -4.442  0.0000E+00  0.8000E+01
     -4.372  0.0000E+00  0.8000E+01
     -4.301  0.0000E+00  0.8000E+01
     -4.230  0.0000E+00  0.8000E+01
     -4.159  0.0000E+00  0.8000E+01
     -4.088  0.0000E+00  0.8000E+01
     -4.018  0.0000E+00  0.8000E+01
     -3.947  0.0000E+00  0.8000E+01
     -3.876  0.0000E+00  0.8000E+01
     -3.805  0.0000E+00  0.8000E+01
     -3.734  0.0000E+00  0.8000E+01
     -3.663  0.0000E+00  0.8000E+01
     -3.593  0.0000E+00  0.8000E+01
     -3.522  0.0000E+00  0.8000E+01
     -3.451  0.0000E+00  0.8000E+01
     -3.380  0.0000E+00  0.8000E+01
     -3.309  0.0000E+00  0.8000E+01
     -3.239  0.0000E+00  0.8000E+01
     -3.168  0.0000E+00  0.8000E+01
     -3.097  0.0000E+00  0.8000E+01
     -3.026  0.0000E+00  0.8000E+01
     -2.955  0.0000E+00  0.8000E+01
     -2.885  0.0000E+00  0.8000E+01
     -2.814  0.0000E+00  0.8000E+01
     -2.743  0.0000E+00  0.8000E+01
     -2.672  0.0000E+00  0.8000E+01
     -2.601  0.0000E+00  0.8000E+01
     -2.531  0.0000E+00  0.8000E+01
     -2.460  0.0000E+00  0.8000E+01
     -2.389  0.0000E+00  0.8000E+01
     -2.318  0.1777E+01  0.8027E+01
     -2.247  0.2216E+01  0.8176E+01
     -2.176  0.2727E+01  0.8354E+01
     -2.106  0.3172E+01  0.8559E+01
     -2.035  0.3527E+01  0.8801E+01
     -1.964  0.5106E+01  0.9070E+01
     -1.893  0.5706E+01  0.9457E+01
     -1.822  0.7071E+01  0.9885E+01
     -1.752  0.6408E+01  0.1039E+02
     -1.681  0.9122E+01  0.1101E+02
     -1.610  0.9806E+01  0.1167E+02
     -1.539  0.7899E+01  0.1232E+02
     -1.468  0.4260E+01  0.1275E+02
     -1.398  0.4811E+01  0.1301E+02
     -1.327  0.3352E+01  0.1331E+02
     -1.256  0.2658E+01  0.1352E+02
     -1.185  0.2089E+01  0.1369E+02
     -1.114  0.1799E+01  0.1382E+02
     -1.044  0.1617E+01  0.1394E+02
     -0.973  0.1516E+01  0.1405E+02
     -0.902  0.1431E+01  0.1416E+02
     -0.831  0.1356E+01  0.1426E+02
     -0.760  0.1282E+01  0.1435E+02
     -0.689  0.2873E+01  0.1446E+02
     -0.619  0.6851E+01  0.1481E+02
     -0.548  0.9253E+01  0.1536E+02
     -0.477  0.1187E+02  0.1614E+02
     -0.406  0.1084E+02  0.1696E+02
     -0.335  0.7970E+01  0.1763E+02
     -0.265  0.5456E+01  0.1810E+02
     -0.194  0.2104E+01  0.1837E+02
     -0.123  0.2561E+01  0.1855E+02
     -0.052  0.2389E+01  0.1872E+02
      0.019  0.2385E+01  0.1889E+02
      0.089  0.4869E+01  0.1914E+02
      0.160  0.8752E+01  0.1964E+02
      0.231  0.1869E+02  0.2070E+02
      0.302  0.8158E+01  0.2147E+02
      0.373  0.6988E+01  0.2197E+02
      0.443  0.5160E+01  0.2239E+02
      0.514  0.3689E+01  0.2271E+02
      0.585  0.3385E+01  0.2296E+02
      0.656  0.3273E+01  0.2319E+02
      0.727  0.3121E+01  0.2341E+02
      0.798  0.3489E+01  0.2364E+02
      0.868  0.3849E+01  0.2389E+02
      0.939  0.2545E+01  0.2412E+02
      1.010  0.3667E+01  0.2434E+02
      1.081  0.4124E+01  0.2460E+02
      1.152  0.3082E+01  0.2487E+02
      1.222  0.3358E+01  0.2508E+02
      1.293  0.5230E+01  0.2539E+02
      1.364  0.5656E+01  0.2580E+02
      1.435  0.9053E+01  0.2628E+02
      1.506  0.1319E+02  0.2690E+02
      1.576  0.8170E+01  0.2765E+02
      1.647  0.7467E+01  0.2819E+02
      1.718  0.6116E+01  0.2867E+02
      1.789  0.4936E+01  0.2908E+02
      1.860  0.4342E+01  0.2940E+02
      1.931  0.4636E+01  0.2973E+02
      2.001  0.4238E+01  0.3004E+02
      2.072  0.4179E+01  0.3034E+02
      2.143  0.4341E+01  0.3064E+02
      2.214  0.4975E+01  0.3097E+02
      2.285  0.4858E+01  0.3131E+02
      2.355  0.3775E+01  0.3164E+02
      2.426  0.4066E+01  0.3188E+02
      2.497  0.5179E+01  0.3222E+02
      2.568  0.9433E+01  0.3276E+02
      2.639  0.5957E+01  0.3324E+02
      2.709  0.5509E+01  0.3363E+02
      2.780  0.5156E+01  0.3403E+02
      2.851  0.4721E+01  0.3438E+02
      2.922  0.4380E+01  0.3470E+02
      2.993  0.3897E+01  0.3500E+02
      3.063  0.3324E+01  0.3525E+02
      3.134  0.2977E+01  0.3547E+02
      3.205  0.2390E+01  0.3567E+02
      3.276  0.1825E+01  0.3582E+02
      3.347  0.6885E+00  0.3592E+02
      3.418  0.5152E+00  0.3596E+02
      3.488  0.3237E+00  0.3599E+02
      3.559  0.0000E+00  0.3600E+02
      3.630  0.0000E+00  0.3600E+02
      3.701  0.0000E+00  0.3600E+02
      3.772  0.0000E+00  0.3600E+02
      3.842  0.0000E+00  0.3600E+02
      3.913  0.0000E+00  0.3600E+02
      3.984  0.0000E+00  0.3600E+02
      4.055  0.0000E+00  0.3600E+02
      4.126  0.0000E+00  0.3600E+02
      4.196  0.0000E+00  0.3600E+02
      4.267  0.0000E+00  0.3600E+02
      4.338  0.0000E+00  0.3600E+02
      4.409  0.0000E+00  0.3600E+02
      4.480  0.0000E+00  0.3600E+02
      4.550  0.0000E+00  0.3600E+02
      4.621  0.0000E+00  0.3600E+02
      4.692  0.0000E+00  0.3600E+02
      4.763  0.0000E+00  0.3600E+02
      4.834  0.0000E+00  0.3600E+02
      4.905  0.0000E+00  0.3600E+02
      4.975  0.0000E+00  0.3600E+02
      5.046  0.7123E+00  0.3603E+02
      5.117  0.9384E+00  0.3609E+02
      5.188  0.2074E+01  0.3618E+02
      5.259  0.3447E+01  0.3638E+02
      5.329  0.5142E+01  0.3668E+02
      5.400  0.8438E+01  0.3716E+02
      5.471  0.1175E+02  0.3787E+02
      5.542  0.1252E+02  0.3918E+02
      5.613  0.3235E+01  0.3957E+02
      5.683  0.4837E+01  0.3984E+02
      5.754  0.1007E+02  0.4036E+02
      5.825  0.1139E+02  0.4113E+02
      5.896  0.8281E+01  0.4186E+02
      5.967  0.5955E+01  0.4238E+02
      6.037  0.5758E+01  0.4280E+02
      6.108  0.2853E+01  0.4311E+02
      6.179  0.2525E+01  0.4331E+02
      6.250  0.1549E+01  0.4345E+02
      6.321  0.2087E+01  0.4357E+02
      6.392  0.2397E+01  0.4374E+02
      6.462  0.2136E+01  0.4391E+02
      6.533  0.4227E+00  0.4399E+02
      6.604  0.0000E+00  0.4400E+02
      6.675  0.0000E+00  0.4400E+02
      6.746  0.0000E+00  0.4400E+02
      6.816  0.0000E+00  0.4400E+02
      6.887  0.0000E+00  0.4400E+02
      6.958  0.0000E+00  0.4400E+02
      7.029  0.0000E+00  0.4400E+02
      7.100  0.0000E+00  0.4400E+02
      7.170  0.0000E+00  0.4400E+02
      7.241  0.0000E+00  0.4400E+02
      7.312  0.0000E+00  0.4400E+02
      7.383  0.0000E+00  0.4400E+02
      7.454  0.0000E+00  0.4400E+02
      7.524  0.0000E+00  0.4400E+02
      7.595  0.0000E+00  0.4400E+02
      7.666  0.0000E+00  0.4400E+02
      7.737  0.0000E+00  0.4400E+02
      7.808  0.0000E+00  0.4400E+02
      7.879  0.0000E+00  0.4400E+02
      7.949  0.0000E+00  0.4400E+02
      8.020  0.0000E+00  0.4400E+02
      8.091  0.0000E+00  0.4400E+02
      8.162  0.0000E+00  0.4400E+02
      8.233  0.0000E+00  0.4400E+02
      8.303  0.0000E+00  0.4400E+02
      8.374  0.0000E+00  0.4400E+02
      8.445  0.0000E+00  0.4400E+02
      8.516  0.0000E+00  0.4400E+02
      8.587  0.0000E+00  0.4400E+02
