    6    6    1    1
  0.2185851E+02  0.3190316E-09  0.3190315E-09  0.1487900E-08  0.5000000E-15
  1.000000000000000E-004
  CAR 
 bulk MoS2                               
     36   1456     22
 
  0.0000000E+00  0.0000000E+00  0.0000000E+00  0.3703704E-04
    1      -10.656315   1.000000
    2      -10.637319   1.000000
    3       -9.463283   1.000000
    4       -9.429423   1.000000
    5       -2.257685   1.000000
    6       -2.097542   1.000000
    7        0.763745   1.000000
    8        0.763757   1.000000
    9        0.764267   1.000000
   10        0.764279   1.000000
   11        1.356759   1.000000
   12        1.865431   1.000000
   13        1.865486   1.000000
   14        1.867257   1.000000
   15        1.867312   1.000000
   16        1.916127   1.000000
   17        3.167098   1.000000
   18        3.535390   1.000000
   19        6.108514   0.000000
   20        6.109228   0.000000
   21        6.113089   0.000000
   22        6.156237   0.000000
 
  0.3333333E-01  0.3469447E-17  0.0000000E+00  0.2222222E-03
    1      -10.640739   1.000000
    2      -10.621750   1.000000
    3       -9.455731   1.000000
    4       -9.422051   1.000000
    5       -2.238957   1.000000
    6       -2.078894   1.000000
    7        0.726477   1.000000
    8        0.727022   1.000000
    9        0.780999   1.000000
   10        0.781572   1.000000
   11        1.273608   1.000000
   12        1.644977   1.000000
   13        1.838239   1.000000
   14        1.840118   1.000000
   15        1.929015   1.000000
   16        2.111373   1.000000
   17        3.163946   1.000000
   18        3.522423   1.000000
   19        6.082588   0.000000
   20        6.087491   0.000000
   21        6.141842   0.000000
   22        6.168678   0.000000
 
  0.6666667E-01  0.6938894E-17  0.0000000E+00  0.2222222E-03
    1      -10.594305   1.000000
    2      -10.575408   1.000000
    3       -9.433266   1.000000
    4       -9.400128   1.000000
    5       -2.183904   1.000000
    6       -2.024170   1.000000
    7        0.619253   1.000000
    8        0.620037   1.000000
    9        0.832194   1.000000
   10        0.832938   1.000000
   11        1.092085   1.000000
   12        1.386238   1.000000
   13        1.760087   1.000000
   14        1.762169   1.000000
   15        2.043016   1.000000
   16        2.290184   1.000000
   17        3.152030   1.000000
   18        3.481278   1.000000
   19        6.006043   0.000000
   20        6.048216   0.000000
   21        6.148793   0.000000
   22        6.208884   0.000000
 
  0.1000000E+00  0.0000000E+00  0.0000000E+00  0.2222222E-03
    1      -10.518103   1.000000
    2      -10.499354   1.000000
    3       -9.396440   1.000000
    4       -9.364191   1.000000
    5       -2.096130   1.000000
    6       -1.937265   1.000000
    7        0.454869   1.000000
    8        0.456376   1.000000
    9        0.875169   1.000000
   10        0.915694   1.000000
   11        0.916679   1.000000
   12        1.118632   1.000000
   13        1.640341   1.000000
   14        1.642675   1.000000
   15        2.138039   1.000000
   16        2.412521   1.000000
   17        3.124198   1.000000
   18        3.406205   1.000000
   19        5.914426   0.000000
   20        5.916970   0.000000
   21        5.960410   0.000000
   22        6.039058   0.000000
 
  0.1333333E+00  0.1387779E-16  0.0000000E+00  0.2222222E-03
    1      -10.413924   1.000000
    2      -10.395400   1.000000
    3       -9.346188   1.000000
    4       -9.315176   1.000000
    5       -1.982511   1.000000
    6       -1.825682   1.000000
    7        0.251395   1.000000
    8        0.254731   1.000000
    9        0.643146   1.000000
   10        0.846303   1.000000
   11        1.028610   1.000000
   12        1.029916   1.000000
   13        1.491139   1.000000
   14        1.493742   1.000000
   15        2.184703   1.000000
   16        2.463599   1.000000
   17        3.069694   1.000000
   18        3.291078   1.000000
   19        5.700959   0.000000
   20        5.858712   0.000000
   21        5.896738   0.000000
   22        5.960479   0.000000
 
  0.1666667E+00  0.1387779E-16  0.0000000E+00  0.2222222E-03
    1      -10.284336   1.000000
    2      -10.266148   1.000000
    3       -9.283873   1.000000
    4       -9.254425   1.000000
    5       -1.854833   1.000000
    6       -1.702570   1.000000
    7        0.030190   1.000000
    8        0.037517   1.000000
    9        0.402896   1.000000
   10        0.571485   1.000000
   11        1.166845   1.000000
   12        1.168578   1.000000
   13        1.324567   1.000000
   14        1.327435   1.000000
   15        2.173230   1.000000
   16        2.439910   1.000000
   17        2.978217   1.000000
   18        3.134877   1.000000
   19        5.521787   0.000000
   20        5.778810   0.000000
   21        5.857437   0.000000
   22        5.946608   0.000000
 
  0.2000000E+00  0.1387779E-16  0.0000000E+00  0.2222222E-03
    1      -10.132790   1.000000
    2      -10.115064   1.000000
    3       -9.211306   1.000000
    4       -9.183718   1.000000
    5       -1.732647   1.000000
    6       -1.590210   1.000000
    7       -0.184256   1.000000
    8       -0.168504   1.000000
    9        0.157549   1.000000
   10        0.295935   1.000000
   11        1.151234   1.000000
   12        1.154327   1.000000
   13        1.324934   1.000000
   14        1.327250   1.000000
   15        2.109291   1.000000
   16        2.353744   1.000000
   17        2.847725   1.000000
   18        2.947472   1.000000
   19        5.403928   0.000000
   20        5.702193   0.000000
   21        5.826985   0.000000
   22        5.841270   0.000000
 
  0.2333333E+00  0.0000000E+00  0.0000000E+00  0.2222222E-03
    1       -9.963633   1.000000
    2       -9.946539   1.000000
    3       -9.130819   1.000000
    4       -9.105365   1.000000
    5       -1.646472   1.000000
    6       -1.523272   1.000000
    7       -0.362963   1.000000
    8       -0.330838   1.000000
    9       -0.090263   1.000000
   10        0.021956   1.000000
   11        0.979684   1.000000
   12        0.983026   1.000000
   13        1.496124   1.000000
   14        1.499160   1.000000
   15        2.009768   1.000000
   16        2.228001   1.000000
   17        2.691749   1.000000
   18        2.751577   1.000000
   19        5.356677   0.000000
   20        5.670309   0.000000
   21        5.718231   0.000000
   22        5.733409   0.000000
 
  0.2666667E+00  0.2775558E-16  0.0000000E+00  0.2222222E-03
    1       -9.782306   1.000000
    2       -9.766050   1.000000
    3       -9.045239   1.000000
    4       -9.022167   1.000000
    5       -1.632324   1.000000
    6       -1.538120   1.000000
    7       -0.478090   1.000000
    8       -0.422143   1.000000
    9       -0.336590   1.000000
   10       -0.246568   1.000000
   11        0.816709   1.000000
   12        0.820231   1.000000
   13        1.672370   1.000000
   14        1.676376   1.000000
   15        1.895104   1.000000
   16        2.086434   1.000000
   17        2.538528   1.000000
   18        2.579399   1.000000
   19        5.373415   0.000000
   20        5.627046   0.000000
   21        5.641566   0.000000
   22        5.677434   0.000000
 
  0.3000000E+00  0.2775558E-16  0.0000000E+00  0.2222222E-03
    1       -9.595464   1.000000
    2       -9.580262   1.000000
    3       -8.957939   1.000000
    4       -8.937462   1.000000
    5       -1.703992   1.000000
    6       -1.638183   1.000000
    7       -0.575646   1.000000
    8       -0.528289   1.000000
    9       -0.503929   1.000000
   10       -0.452013   1.000000
   11        0.667431   1.000000
   12        0.671109   1.000000
   13        1.782471   1.000000
   14        1.844800   1.000000
   15        1.850001   1.000000
   16        1.947223   1.000000
   17        2.423434   1.000000
   18        2.462871   1.000000
   19        5.439435   0.000000
   20        5.557556   0.000000
   21        5.570902   0.000000
   22        5.714554   0.000000
 
  0.3333333E+00  0.0000000E+00  0.0000000E+00  0.2222222E-03
    1       -9.411070   1.000000
    2       -9.397210   1.000000
    3       -8.872844   1.000000
    4       -8.855095   1.000000
    5       -1.835248   1.000000
    6       -1.788394   1.000000
    7       -0.799738   1.000000
    8       -0.742686   1.000000
    9       -0.549333   1.000000
   10       -0.464407   1.000000
   11        0.535738   1.000000
   12        0.539559   1.000000
   13        1.683207   1.000000
   14        1.821656   1.000000
   15        2.004399   1.000000
   16        2.010993   1.000000
   17        2.376500   1.000000
   18        2.421563   1.000000
   19        5.512545   0.000000
   20        5.524149   0.000000
   21        5.538748   0.000000
   22        5.772566   0.000000
 
  0.3666667E+00  0.0000000E+00  0.0000000E+00  0.2222222E-03
    1       -9.238387   1.000000
    2       -9.226106   1.000000
    3       -8.794224   1.000000
    4       -8.779294   1.000000
    5       -1.987481   1.000000
    6       -1.951118   1.000000
    7       -0.999862   1.000000
    8       -0.954433   1.000000
    9       -0.576478   1.000000
   10       -0.491633   1.000000
   11        0.424583   1.000000
   12        0.428532   1.000000
   13        1.603325   1.000000
   14        1.715406   1.000000
   15        2.143058   1.000000
   16        2.151155   1.000000
   17        2.405501   1.000000
   18        2.455273   1.000000
   19        5.491188   0.000000
   20        5.500725   0.000000
   21        5.656739   0.000000
   22        5.843110   0.000000
 
  0.4000000E+00  0.2775558E-16  0.0000000E+00  0.2222222E-03
    1       -9.087765   1.000000
    2       -9.077246   1.000000
    3       -8.726567   1.000000
    4       -8.714484   1.000000
    5       -2.131712   1.000000
    6       -2.100756   1.000000
    7       -1.167036   1.000000
    8       -1.130548   1.000000
    9       -0.618386   1.000000
   10       -0.536875   1.000000
   11        0.336136   1.000000
   12        0.340147   1.000000
   13        1.544887   1.000000
   14        1.630461   1.000000
   15        2.254628   1.000000
   16        2.264189   1.000000
   17        2.491786   1.000000
   18        2.540599   1.000000
   19        5.488776   0.000000
   20        5.496192   0.000000
   21        5.779462   0.000000
   22        5.917875   0.000000
 
  0.4333333E+00  0.0000000E+00  0.0000000E+00  0.2222222E-03
    1       -8.969810   1.000000
    2       -8.961148   1.000000
    3       -8.674223   1.000000
    4       -8.664805   1.000000
    5       -2.248471   1.000000
    6       -2.220142   1.000000
    7       -1.293014   1.000000
    8       -1.263018   1.000000
    9       -0.664405   1.000000
   10       -0.586188   1.000000
   11        0.271934   1.000000
   12        0.275989   1.000000
   13        1.507819   1.000000
   14        1.566954   1.000000
   15        2.335405   1.000000
   16        2.346232   1.000000
   17        2.599595   1.000000
   18        2.639208   1.000000
   19        5.497320   0.000000
   20        5.502828   0.000000
   21        5.891218   0.000000
   22        5.986988   0.000000
 
  0.4666667E+00  0.0000000E+00  0.0000000E+00  0.2222222E-03
    1       -8.894283   1.000000
    2       -8.887130   1.000000
    3       -8.640942   1.000000
    4       -8.633632   1.000000
    5       -2.324242   1.000000
    6       -2.297067   1.000000
    7       -1.371334   1.000000
    8       -1.345389   1.000000
    9       -0.699305   1.000000
   10       -0.623249   1.000000
   11        0.233020   1.000000
   12        0.237100   1.000000
   13        1.490684   1.000000
   14        1.524806   1.000000
   15        2.383993   1.000000
   16        2.395650   1.000000
   17        2.689698   1.000000
   18        2.712145   1.000000
   19        5.507490   0.000000
   20        5.511714   0.000000
   21        5.972414   0.000000
   22        6.037615   0.000000
 
  0.5000000E+00  0.0000000E+00  0.0000000E+00  0.1111111E-03
    1       -8.868216   1.000000
    2       -8.861684   1.000000
    3       -8.629473   1.000000
    4       -8.623040   1.000000
    5       -2.350491   1.000000
    6       -2.323604   1.000000
    7       -1.397885   1.000000
    8       -1.373378   1.000000
    9       -0.712200   1.000000
   10       -0.636879   1.000000
   11        0.219980   1.000000
   12        0.224087   1.000000
   13        1.488235   1.000000
   14        1.507713   1.000000
   15        2.400171   1.000000
   16        2.412112   1.000000
   17        2.730118   1.000000
   18        2.733223   1.000000
   19        5.511857   0.000000
   20        5.515619   0.000000
   21        6.002619   0.000000
   22        6.056508   0.000000
 
  0.3333333E-01  0.3333333E-01  0.0000000E+00  0.2222222E-03
    1      -10.609723   1.000000
    2      -10.590795   1.000000
    3       -9.440725   1.000000
    4       -9.407404   1.000000
    5       -2.202051   1.000000
    6       -2.042201   1.000000
    7        0.654502   1.000000
    8        0.654932   1.000000
    9        0.815141   1.000000
   10        0.815719   1.000000
   11        1.146346   1.000000
   12        1.458418   1.000000
   13        1.781817   1.000000
   14        1.783989   1.000000
   15        2.015633   1.000000
   16        2.249071   1.000000
   17        3.156418   1.000000
   18        3.495364   1.000000
   19        6.026758   0.000000
   20        6.041833   0.000000
   21        6.182969   0.000000
   22        6.216162   0.000000
 
  0.6666667E-01  0.3333333E-01  0.0000000E+00  0.4444444E-03
    1      -10.548397   1.000000
    2      -10.529595   1.000000
    3       -9.411075   1.000000
    4       -9.378471   1.000000
    5       -2.130543   1.000000
    6       -1.971274   1.000000
    7        0.519294   1.000000
    8        0.519943   1.000000
    9        0.882059   1.000000
   10        0.882813   1.000000
   11        0.957609   1.000000
   12        1.219940   1.000000
   13        1.673405   1.000000
   14        1.676134   1.000000
   15        2.119989   1.000000
   16        2.384899   1.000000
   17        3.136593   1.000000
   18        3.437238   1.000000
   19        5.940263   0.000000
   20        5.972144   0.000000
   21        5.992177   0.000000
   22        6.093703   0.000000
 
  0.1000000E+00  0.3333333E-01  0.0000000E+00  0.4444444E-03
    1      -10.458196   1.000000
    2      -10.439578   1.000000
    3       -9.367520   1.000000
    4       -9.335980   1.000000
    5       -2.029509   1.000000
    6       -1.871632   1.000000
    7        0.336243   1.000000
    8        0.338078   1.000000
    9        0.743260   1.000000
   10        0.964782   1.000000
   11        0.979370   1.000000
   12        0.980422   1.000000
   13        1.526944   1.000000
   14        1.530280   1.000000
   15        2.194811   1.000000
   16        2.469953   1.000000
   17        3.095491   1.000000
   18        3.341975   1.000000
   19        5.784562   0.000000
   20        5.861997   0.000000
   21        5.923494   0.000000
   22        5.954748   0.000000
 
  0.1333333E+00  0.3333333E-01  0.0000000E+00  0.4444444E-03
    1      -10.341288   1.000000
    2      -10.322939   1.000000
    3       -9.311200   1.000000
    4       -9.281066   1.000000
    5       -1.907993   1.000000
    6       -1.753246   1.000000
    7        0.125071   1.000000
    8        0.129648   1.000000
    9        0.515773   1.000000
   10        0.701295   1.000000
   11        1.103278   1.000000
   12        1.104734   1.000000
   13        1.357094   1.000000
   14        1.361327   1.000000
   15        2.218500   1.000000
   16        2.486270   1.000000
   17        3.022287   1.000000
   18        3.205768   1.000000
   19        5.590015   0.000000
   20        5.819847   0.000000
   21        5.825989   0.000000
   22        5.940607   0.000000
 
  0.1666667E+00  0.3333333E-01  0.0000000E+00  0.4444444E-03
    1      -10.200653   1.000000
    2      -10.182707   1.000000
    3       -9.243694   1.000000
    4       -9.215268   1.000000
    5       -1.781216   1.000000
    6       -1.633313   1.000000
    7       -0.091542   1.000000
    8       -0.081112   1.000000
    9        0.279427   1.000000
   10        0.432425   1.000000
   11        1.177559   1.000000
   12        1.183216   1.000000
   13        1.248512   1.000000
   14        1.250480   1.000000
   15        2.186236   1.000000
   16        2.434079   1.000000
   17        2.910400   1.000000
   18        3.032981   1.000000
   19        5.441835   0.000000
   20        5.716972   0.000000
   21        5.855009   0.000000
   22        5.874835   0.000000
 
  0.2000000E+00  0.3333333E-01  0.0000000E+00  0.4444444E-03
    1      -10.040199   1.000000
    2      -10.022802   1.000000
    3       -9.167060   1.000000
    4       -9.140627   1.000000
    5       -1.674032   1.000000
    6       -1.540318   1.000000
    7       -0.286939   1.000000
    8       -0.264433   1.000000
    9        0.036396   1.000000
   10        0.160357   1.000000
   11        0.999984   1.000000
   12        1.007242   1.000000
   13        1.408110   1.000000
   14        1.410704   1.000000
   15        2.107330   1.000000
   16        2.329065   1.000000
   17        2.765939   1.000000
   18        2.840419   1.000000
   19        5.357680   0.000000
   20        5.647897   0.000000
   21        5.768016   0.000000
   22        5.800477   0.000000
 
  0.2333333E+00  0.3333333E-01  0.0000000E+00  0.4444444E-03
    1       -9.864774   1.000000
    2       -9.848118   1.000000
    3       -9.083863   1.000000
    4       -9.059684   1.000000
    5       -1.621507   1.000000
    6       -1.512668   1.000000
    7       -0.431003   1.000000
    8       -0.387565   1.000000
    9       -0.210259   1.000000
   10       -0.111390   1.000000
   11        0.833206   1.000000
   12        0.841542   1.000000
   13        1.573205   1.000000
   14        1.576488   1.000000
   15        1.999612   1.000000
   16        2.193916   1.000000
   17        2.611646   1.000000
   18        2.657052   1.000000
   19        5.337175   0.000000
   20        5.600136   0.000000
   21        5.678300   0.000000
   22        5.740465   0.000000
 
  0.2666667E+00  0.3333333E-01  0.0000000E+00  0.4444444E-03
    1       -9.680425   1.000000
    2       -9.664708   1.000000
    3       -8.997192   1.000000
    4       -8.975495   1.000000
    5       -1.652224   1.000000
    6       -1.573632   1.000000
    7       -0.506120   1.000000
    8       -0.455150   1.000000
    9       -0.439048   1.000000
   10       -0.377113   1.000000
   11        0.682933   1.000000
   12        0.691381   1.000000
   13        1.733154   1.000000
   14        1.736819   1.000000
   15        1.881887   1.000000
   16        2.049587   1.000000
   17        2.482604   1.000000
   18        2.518330   1.000000
   19        5.365743   0.000000
   20        5.557696   0.000000
   21        5.615116   0.000000
   22        5.730469   0.000000
 
  0.3000000E+00  0.3333333E-01  0.0000000E+00  0.4444444E-03
    1       -9.494421   1.000000
    2       -9.479902   1.000000
    3       -8.910687   1.000000
    4       -8.891648   1.000000
    5       -1.757982   1.000000
    6       -1.703164   1.000000
    7       -0.690518   1.000000
    8       -0.629131   1.000000
    9       -0.532999   1.000000
   10       -0.451474   1.000000
   11        0.552229   1.000000
   12        0.559830   1.000000
   13        1.769099   1.000000
   14        1.877102   1.000000
   15        1.879909   1.000000
   16        1.911336   1.000000
   17        2.416602   1.000000
   18        2.453151   1.000000
   19        5.416885   0.000000
   20        5.523421   0.000000
   21        5.595299   0.000000
   22        5.760199   0.000000
 
  0.3333333E+00  0.3333333E-01  0.0000000E+00  0.4444444E-03
    1       -9.315357   1.000000
    2       -9.302319   1.000000
    3       -8.828466   1.000000
    4       -8.812200   1.000000
    5       -1.902171   1.000000
    6       -1.861499   1.000000
    7       -0.906963   1.000000
    8       -0.858584   1.000000
    9       -0.552938   1.000000
   10       -0.467977   1.000000
   11        0.442454   1.000000
   12        0.448589   1.000000
   13        1.671030   1.000000
   14        1.788493   1.000000
   15        1.998656   1.000000
   16        2.001232   1.000000
   17        2.431783   1.000000
   18        2.469455   1.000000
   19        5.455020   0.000000
   20        5.504020   0.000000
   21        5.640886   0.000000
   22        5.814287   0.000000
 
  0.3666667E+00  0.3333333E-01  0.0000000E+00  0.4444444E-03
    1       -9.153088   1.000000
    2       -9.141711   1.000000
    3       -8.754926   1.000000
    4       -8.741499   1.000000
    5       -2.050898   1.000000
    6       -2.017761   1.000000
    7       -1.094663   1.000000
    8       -1.056321   1.000000
    9       -0.588034   1.000000
   10       -0.505341   1.000000
   11        0.354189   1.000000
   12        0.358645   1.000000
   13        1.593046   1.000000
   14        1.685963   1.000000
   15        2.101340   1.000000
   16        2.106912   1.000000
   17        2.509376   1.000000
   18        2.546021   1.000000
   19        5.476543   0.000000
   20        5.499968   0.000000
   21        5.736510   0.000000
   22        5.882229   0.000000
 
  0.4000000E+00  0.3333333E-01  0.0000000E+00  0.4444444E-03
    1       -9.018113   1.000000
    2       -9.008599   1.000000
    3       -8.694530   1.000000
    4       -8.683887   1.000000
    5       -2.181111   1.000000
    6       -2.151782   1.000000
    7       -1.244538   1.000000
    8       -1.213670   1.000000
    9       -0.634663   1.000000
   10       -0.555445   1.000000
   11        0.287722   1.000000
   12        0.290600   1.000000
   13        1.537346   1.000000
   14        1.605816   1.000000
   15        2.188650   1.000000
   16        2.195998   1.000000
   17        2.613505   1.000000
   18        2.646623   1.000000
   19        5.494950   0.000000
   20        5.505998   0.000000
   21        5.845734   0.000000
   22        5.954736   0.000000
 
  0.4333333E+00  0.3333333E-01  0.0000000E+00  0.4444444E-03
    1       -8.920778   1.000000
    2       -8.912994   1.000000
    3       -8.651390   1.000000
    4       -8.643181   1.000000
    5       -2.277007   1.000000
    6       -2.249466   1.000000
    7       -1.348962   1.000000
    8       -1.323202   1.000000
    9       -0.677702   1.000000
   10       -0.601190   1.000000
   11        0.243315   1.000000
   12        0.244890   1.000000
   13        1.504151   1.000000
   14        1.548878   1.000000
   15        2.252048   1.000000
   16        2.260983   1.000000
   17        2.711696   1.000000
   18        2.736194   1.000000
   19        5.510251   0.000000
   20        5.514844   0.000000
   21        5.941662   0.000000
   22        6.018862   0.000000
 
  0.4666667E+00  0.3333333E-01  0.0000000E+00  0.4444444E-03
    1       -8.869594   1.000000
    2       -8.862961   1.000000
    3       -8.628801   1.000000
    4       -8.622178   1.000000
    5       -2.327811   1.000000
    6       -2.300942   1.000000
    7       -1.402540   1.000000
    8       -1.379474   1.000000
    9       -0.703046   1.000000
   10       -0.627955   1.000000
   11        0.221221   1.000000
   12        0.221777   1.000000
   13        1.491525   1.000000
   14        1.516696   1.000000
   15        2.284705   1.000000
   16        2.294896   1.000000
   17        2.774635   1.000000
   18        2.785605   1.000000
   19        5.518958   0.000000
   20        5.520653   0.000000
   21        5.999169   0.000000
   22        6.057636   0.000000
 
  0.6666667E-01  0.6666667E-01  0.0000000E+00  0.2222222E-03
    1      -10.473072   1.000000
    2      -10.454421   1.000000
    3       -9.374688   1.000000
    4       -9.342972   1.000000
    5       -2.045530   1.000000
    6       -1.887332   1.000000
    7        0.366796   1.000000
    8        0.367088   1.000000
    9        0.783293   1.000000
   10        0.961997   1.000000
   11        0.962860   1.000000
   12        1.014509   1.000000
   13        1.523773   1.000000
   14        1.528256   1.000000
   15        2.207722   1.000000
   16        2.478764   1.000000
   17        3.103579   1.000000
   18        3.358822   1.000000
   19        5.817021   0.000000
   20        5.859390   0.000000
   21        5.912054   0.000000
   22        5.990804   0.000000
 
  0.1000000E+00  0.6666667E-01  0.0000000E+00  0.4444444E-03
    1      -10.370104   1.000000
    2      -10.351683   1.000000
    3       -9.325028   1.000000
    4       -9.294539   1.000000
    5       -1.935664   1.000000
    6       -1.779787   1.000000
    7        0.177881   1.000000
    8        0.179916   1.000000
    9        0.589291   1.000000
   10        0.789968   1.000000
   11        1.068250   1.000000
   12        1.069421   1.000000
   13        1.334985   1.000000
   14        1.341748   1.000000
   15        2.268041   1.000000
   16        2.531859   1.000000
   17        3.043685   1.000000
   18        3.241943   1.000000
   19        5.631815   0.000000
   20        5.795462   0.000000
   21        5.845241   0.000000
   22        5.881089   0.000000
 
  0.1333333E+00  0.6666667E-01  0.0000000E+00  0.4444444E-03
    1      -10.242053   1.000000
    2      -10.223990   1.000000
    3       -9.263434   1.000000
    4       -9.234495   1.000000
    5       -1.812714   1.000000
    6       -1.661799   1.000000
    7       -0.026409   1.000000
    8       -0.020333   1.000000
    9        0.381421   1.000000
   10        0.550590   1.000000
   11        1.130247   1.000000
   12        1.141121   1.000000
   13        1.195155   1.000000
   14        1.196783   1.000000
   15        2.280432   1.000000
   16        2.524895   1.000000
   17        2.949066   1.000000
   18        3.087739   1.000000
   19        5.470367   0.000000
   20        5.724879   0.000000
   21        5.783326   0.000000
   22        5.928641   0.000000
 
  0.1666667E+00  0.6666667E-01  0.0000000E+00  0.4444444E-03
    1      -10.092374   1.000000
    2      -10.074784   1.000000
    3       -9.191701   1.000000
    4       -9.164600   1.000000
    5       -1.696362   1.000000
    6       -1.555882   1.000000
    7       -0.221701   1.000000
    8       -0.206941   1.000000
    9        0.159182   1.000000
   10        0.296128   1.000000
   11        0.929923   1.000000
   12        0.947632   1.000000
   13        1.334689   1.000000
   14        1.336825   1.000000
   15        2.240296   1.000000
   16        2.457558   1.000000
   17        2.820874   1.000000
   18        2.907769   1.000000
   19        5.355633   0.000000
   20        5.623914   0.000000
   21        5.802568   0.000000
   22        5.850229   0.000000
 
  0.2000000E+00  0.6666667E-01  0.0000000E+00  0.4444444E-03
    1       -9.925380   1.000000
    2       -9.908442   1.000000
    3       -9.112102   1.000000
    4       -9.087110   1.000000
    5       -1.617054   1.000000
    6       -1.496550   1.000000
    7       -0.379047   1.000000
    8       -0.347450   1.000000
    9       -0.077926   1.000000
   10        0.028697   1.000000
   11        0.750050   1.000000
   12        0.775000   1.000000
   13        1.475818   1.000000
   14        1.478441   1.000000
   15        2.156225   1.000000
   16        2.343802   1.000000
   17        2.676137   1.000000
   18        2.726582   1.000000
   19        5.295683   0.000000
   20        5.549354   0.000000
   21        5.724216   0.000000
   22        5.861586   0.000000
 
  0.2333333E+00  0.6666667E-01  0.0000000E+00  0.4444444E-03
    1       -9.746510   1.000000
    2       -9.730421   1.000000
    3       -9.027435   1.000000
    4       -9.004794   1.000000
    5       -1.608820   1.000000
    6       -1.517300   1.000000
    7       -0.472696   1.000000
    8       -0.417435   1.000000
    9       -0.325485   1.000000
   10       -0.244371   1.000000
   11        0.599145   1.000000
   12        0.628643   1.000000
   13        1.604635   1.000000
   14        1.607246   1.000000
   15        2.044147   1.000000
   16        2.203271   1.000000
   17        2.547876   1.000000
   18        2.579878   1.000000
   19        5.285027   0.000000
   20        5.502499   0.000000
   21        5.671091   0.000000
   22        5.782253   0.000000
 
  0.2666667E+00  0.6666667E-01  0.0000000E+00  0.4444444E-03
    1       -9.562360   1.000000
    2       -9.547342   1.000000
    3       -8.941023   1.000000
    4       -8.920936   1.000000
    5       -1.681048   1.000000
    6       -1.616827   1.000000
    7       -0.573657   1.000000
    8       -0.512211   1.000000
    9       -0.506427   1.000000
   10       -0.431883   1.000000
   11        0.478394   1.000000
   12        0.508641   1.000000
   13        1.708100   1.000000
   14        1.710009   1.000000
   15        1.920881   1.000000
   16        2.054171   1.000000
   17        2.475834   1.000000
   18        2.502835   1.000000
   19        5.311662   0.000000
   20        5.483849   0.000000
   21        5.658232   0.000000
   22        5.786093   0.000000
 
  0.3000000E+00  0.6666667E-01  0.0000000E+00  0.4444444E-03
    1       -9.380817   1.000000
    2       -9.367155   1.000000
    3       -8.856752   1.000000
    4       -8.839347   1.000000
    5       -1.806412   1.000000
    6       -1.760245   1.000000
    7       -0.810010   1.000000
    8       -0.763149   1.000000
    9       -0.518817   1.000000
   10       -0.436419   1.000000
   11        0.385007   1.000000
   12        0.412876   1.000000
   13        1.784742   1.000000
   14        1.790198   1.000000
   15        1.800425   1.000000
   16        1.910400   1.000000