 vasp.5.4.4.18Apr17-6-g9f103f2a35 (build May 20 2018 16:52:39) complex          
  
 executed on             LinuxIFC date 2022.11.13  21:45:41
 running on    1 total cores
 distrk:  each k-point on    1 cores,    1 groups
 distr:  one band on NCORES_PER_BAND=   1 cores,    1 groups


--------------------------------------------------------------------------------------------------------


 INCAR:
 POTCAR:   PAW_GGA Mo 08Jan2002                   
 POTCAR:   PAW_GGA S 21Jan2003                    
 POTCAR:   PAW_GGA Mo 08Jan2002                   
   VRHFIN =Mo: 4p5s4d                                                           
   LEXCH  = 91                                                                  
   EATOM  =   218.0124 eV,   16.0235 Ry                                         
                                                                                
   TITEL  = PAW_GGA Mo 08Jan2002                                                
   LULTRA =        F    use ultrasoft PP ?                                      
   IUNSCR =        1    unscreen: 0-lin 1-nonlin 2-no                           
   RPACOR =    2.200    partial core radius                                     
   POMASS =   95.940; ZVAL   =    6.000    mass and valenz                      
   RCORE  =    2.750    outmost cutoff radius                                   
   RWIGS  =    2.750; RWIGS  =    1.455    wigner-seitz radius (au A)           
   ENMAX  =  224.580; ENMIN  =  168.435 eV                                      
   RCLOC  =    2.111    cutoff for local pot                                    
   LCOR   =        T    correct aug charges                                     
   LPAW   =        T    paw PP                                                  
   EAUG   =  345.278                                                            
   DEXC   =    -.054                                                            
   RMAX   =    3.077    core radius for proj-oper                               
   RAUG   =    1.300    factor for augmentation sphere                          
   RDEP   =    2.815    radius for radial grids                                 
   QCUT   =   -4.063; QGAM   =    8.126    optimization parameters              
                                                                                
   Description                                                                  
     l     E      TYP  RCUT    TYP  RCUT                                        
     2   .000     23  2.500                                                     
     2   .000     23  2.500                                                     
     0   .000     23  2.600                                                     
     0  1.000     23  2.600                                                     
     1   .400     23  2.750                                                     
     1  2.000     23  2.750                                                     
     3   .000      7   .000                                                     
  local pseudopotential read in
  partial core-charges read in
  atomic valenz-charges read in
  non local Contribution for L=           2  read in
    real space projection operators read in
  non local Contribution for L=           2  read in
    real space projection operators read in
  non local Contribution for L=           0  read in
    real space projection operators read in
  non local Contribution for L=           0  read in
    real space projection operators read in
  non local Contribution for L=           1  read in
    real space projection operators read in
  non local Contribution for L=           1  read in
    real space projection operators read in
    PAW grid and wavefunctions read in
 
   number of l-projection  operators is LMAX  =           6
   number of lm-projection operators is LMMAX =          18
 
 POTCAR:   PAW_GGA S 21Jan2003                    
   VRHFIN =S : s2p4                                                             
   LEXCH  = 91                                                                  
   EATOM  =   277.2736 eV,   20.3790 Ry                                         
                                                                                
   TITEL  = PAW_GGA S 21Jan2003                                                 
   LULTRA =        F    use ultrasoft PP ?                                      
   IUNSCR =        1    unscreen: 0-lin 1-nonlin 2-no                           
   RPACOR =    1.500    partial core radius                                     
   POMASS =   32.066; ZVAL   =    6.000    mass and valenz                      
   RCORE  =    1.900    outmost cutoff radius                                   
   RWIGS  =    2.200; RWIGS  =    1.164    wigner-seitz radius (au A)           
   ENMAX  =  280.000; ENMIN  =  194.015 eV                                      
   ICORE  =        2    local potential                                         
   LCOR   =        T    correct aug charges                                     
   LPAW   =        T    paw PP                                                  
   EAUG   =  335.092                                                            
   DEXC   =     .000                                                            
   RMAX   =    2.867    core radius for proj-oper                               
   RAUG   =    1.300    factor for augmentation sphere                          
   RDEP   =    1.954    core radius for depl-charge                             
   QCUT   =   -4.360; QGAM   =    8.721    optimization parameters              
                                                                                
   Description                                                                  
     l     E      TYP  RCUT    TYP  RCUT                                        
     0   .000     23  1.900                                                     
     0   .000     23  1.900                                                     
     1   .000     23  1.900                                                     
     1   .000     23  1.900                                                     
     2   .000      7  1.900                                                     
  local pseudopotential read in
  partial core-charges read in
  atomic valenz-charges read in
  non local Contribution for L=           0  read in
    real space projection operators read in
  non local Contribution for L=           0  read in
    real space projection operators read in
  non local Contribution for L=           1  read in
    real space projection operators read in
  non local Contribution for L=           1  read in
    real space projection operators read in
    PAW grid and wavefunctions read in
 
   number of l-projection  operators is LMAX  =           4
   number of lm-projection operators is LMMAX =           8
 
 PAW_GGA Mo 08Jan2002                   :
 energy of atom  1       EATOM= -218.0124
 kinetic energy error for atom=    0.0017 (will be added to EATOM!!)
 PAW_GGA S 21Jan2003                    :
 energy of atom  2       EATOM= -277.2736
 kinetic energy error for atom=    0.0019 (will be added to EATOM!!)
 
 
 POSCAR: Mo2S4                                   
  positions in direct lattice
  No initial velocities read in
 exchange correlation table for  LEXCH =        7
   RHO(1)=    0.500       N(1)  =     2000
   RHO(2)=  100.500       N(2)  =     4000
 


--------------------------------------------------------------------------------------------------------


 ion  position               nearest neighbor table
   1  0.333  0.667  0.250-   3 2.42   5 2.42   3 2.42   5 2.42   3 2.42   5 2.42
   2  0.667  0.333  0.750-   4 2.42   6 2.42   4 2.42   6 2.42   4 2.42   6 2.42
   3  0.667  0.333  0.355-   1 2.42   1 2.42   1 2.42
   4  0.333  0.667  0.855-   2 2.42   2 2.42   2 2.42
   5  0.667  0.333  0.145-   1 2.42   1 2.42   1 2.42
   6  0.333  0.667  0.645-   2 2.42   2 2.42   2 2.42
 
  LATTYP: Found a hexagonal cell.
 ALAT       =     3.1903153920
 C/A-ratio  =     4.6638034714
  
  Lattice vectors:
  
 A1 = (   3.1903160000,   0.0000000000,   0.0000000000)
 A2 = (  -1.5951580000,   2.7628940000,   0.0000000000)
 A3 = (   0.0000000000,   0.0000000000,  14.8790040000)


Analysis of symmetry for initial positions (statically):
=====================================================================
 Subroutine PRICEL returns:
 Original cell was already a primitive cell.
 

 Routine SETGRP: Setting up the symmetry group for a 
 hexagonal supercell.


 Subroutine GETGRP returns: Found 24 space group operations
 (whereof 12 operations were pure point group operations)
 out of a pool of 24 trial point group operations.


The static configuration has the point symmetry D_3d.
 The point group associated with its full space group is D_6h.


Analysis of symmetry for dynamics (positions and initial velocities):
=====================================================================
 Subroutine PRICEL returns:
 Original cell was already a primitive cell.
 

 Routine SETGRP: Setting up the symmetry group for a 
 hexagonal supercell.


 Subroutine GETGRP returns: Found 24 space group operations
 (whereof 12 operations were pure point group operations)
 out of a pool of 24 trial point group operations.


The dynamic configuration has the point symmetry D_3d.
 The point group associated with its full space group is D_6h.


 Subroutine INISYM returns: Found 24 space group operations
 (whereof 12 operations are pure point group operations),
 and found     1 'primitive' translations

 
 
 KPOINTS: 30x30x30 Gamma-centered                 

Automatic generation of k-mesh.
Space group operators:
 irot       det(A)        alpha          n_x          n_y          n_z        tau_x        tau_y        tau_z
    1     1.000000     0.000000     1.000000     0.000000     0.000000     0.000000     0.000000     0.000000
    2    -1.000000     0.000000     1.000000     0.000000     0.000000     0.000000     0.000000     0.000000
    3     1.000000   120.000000     0.000000     0.000000    -1.000000     0.000000     0.000000     0.000000
    4    -1.000000   120.000000     0.000000     0.000000    -1.000000     0.000000     0.000000     0.000000
    5     1.000000   120.000000     0.000000     0.000000     1.000000     0.000000     0.000000     0.000000
    6    -1.000000   120.000000     0.000000     0.000000     1.000000     0.000000     0.000000     0.000000
    7     1.000000   180.000000     1.000000     0.000000     0.000000     0.000000     0.000000     0.000000
    8    -1.000000   180.000000     1.000000     0.000000     0.000000     0.000000     0.000000     0.000000
    9     1.000000   180.000000     0.500000    -0.866025     0.000000     0.000000     0.000000     0.000000
   10    -1.000000   180.000000     0.500000    -0.866025     0.000000     0.000000     0.000000     0.000000
   11     1.000000   180.000000    -0.500000    -0.866025     0.000000     0.000000     0.000000     0.000000
   12    -1.000000   180.000000    -0.500000    -0.866025     0.000000     0.000000     0.000000     0.000000
   13     1.000000    60.000000     0.000000     0.000000    -1.000000     0.000001     0.000000     0.500000
   14    -1.000000    60.000000     0.000000     0.000000    -1.000000     0.000001     0.000000     0.500000
   15     1.000000   180.000000     0.000000     0.000000     1.000000     0.000000     0.000000     0.500000
   16    -1.000000   180.000000     0.000000     0.000000     1.000000     0.000000     0.000000     0.500000
   17     1.000000    60.000000     0.000000     0.000000     1.000000     0.000000     0.000000     0.500000
   18    -1.000000    60.000000     0.000000     0.000000     1.000000     0.000000     0.000000     0.500000
   19     1.000000   180.000000     0.866025    -0.500000     0.000000     0.000000     0.000000     0.500000
   20    -1.000000   180.000000     0.866025    -0.500000     0.000000     0.000000     0.000000     0.500000
   21     1.000000   180.000000     0.000000     1.000000     0.000000     0.000001     0.000000     0.500000
   22    -1.000000   180.000000     0.000000     1.000000     0.000000     0.000001     0.000000     0.500000
   23     1.000000   180.000000     0.866025     0.500000     0.000000     0.000000     0.000000     0.500000
   24    -1.000000   180.000000     0.866025     0.500000     0.000000     0.000000     0.000000     0.500000
 
 Subroutine IBZKPT returns following result:
 ===========================================
 
 Found   1456 irreducible k-points:
 
 Following reciprocal coordinates:
            Coordinates               Weight
  0.000000  0.000000  0.000000      1.000000
  0.033333  0.000000  0.000000      6.000000
  0.066667  0.000000  0.000000      6.000000
  0.100000  0.000000  0.000000      6.000000
  0.133333  0.000000  0.000000      6.000000
  0.166667  0.000000  0.000000      6.000000
  0.200000  0.000000  0.000000      6.000000
  0.233333  0.000000  0.000000      6.000000
  0.266667  0.000000  0.000000      6.000000
  0.300000  0.000000  0.000000      6.000000
  0.333333  0.000000  0.000000      6.000000
  0.366667  0.000000  0.000000      6.000000
  0.400000  0.000000  0.000000      6.000000
  0.433333  0.000000  0.000000      6.000000
  0.466667  0.000000  0.000000      6.000000
  0.500000  0.000000  0.000000      3.000000
  0.033333  0.033333  0.000000      6.000000
  0.066667  0.033333  0.000000     12.000000
  0.100000  0.033333  0.000000     12.000000
  0.133333  0.033333  0.000000     12.000000
  0.166667  0.033333  0.000000     12.000000
  0.200000  0.033333  0.000000     12.000000
  0.233333  0.033333  0.000000     12.000000
  0.266667  0.033333  0.000000     12.000000
  0.300000  0.033333  0.000000     12.000000
  0.333333  0.033333  0.000000     12.000000
  0.366667  0.033333  0.000000     12.000000
  0.400000  0.033333  0.000000     12.000000
  0.433333  0.033333  0.000000     12.000000
  0.466667  0.033333  0.000000     12.000000
  0.066667  0.066667  0.000000      6.000000
  0.100000  0.066667  0.000000     12.000000
  0.133333  0.066667  0.000000     12.000000
  0.166667  0.066667  0.000000     12.000000
  0.200000  0.066667  0.000000     12.000000
  0.233333  0.066667  0.000000     12.000000
  0.266667  0.066667  0.000000     12.000000
  0.300000  0.066667  0.000000     12.000000
  0.333333  0.066667  0.000000     12.000000
  0.366667  0.066667  0.000000     12.000000
  0.400000  0.066667  0.000000     12.000000
  0.433333  0.066667  0.000000     12.000000
  0.466667  0.066667  0.000000      6.000000
  0.100000  0.100000  0.000000      6.000000
  0.133333  0.100000  0.000000     12.000000
  0.166667  0.100000  0.000000     12.000000
  0.200000  0.100000  0.000000     12.000000
  0.233333  0.100000  0.000000     12.000000
  0.266667  0.100000  0.000000     12.000000
  0.300000  0.100000  0.000000     12.000000
  0.333333  0.100000  0.000000     12.000000
  0.366667  0.100000  0.000000     12.000000
  0.400000  0.100000  0.000000     12.000000
  0.433333  0.100000  0.000000     12.000000
  0.133333  0.133333  0.000000      6.000000
  0.166667  0.133333  0.000000     12.000000
  0.200000  0.133333  0.000000     12.000000
  0.233333  0.133333  0.000000     12.000000
  0.266667  0.133333  0.000000     12.000000
  0.300000  0.133333  0.000000     12.000000
  0.333333  0.133333  0.000000     12.000000
  0.366667  0.133333  0.000000     12.000000
  0.400000  0.133333  0.000000     12.000000
  0.433333  0.133333  0.000000      6.000000
  0.166667  0.166667  0.000000      6.000000
  0.200000  0.166667  0.000000     12.000000
  0.233333  0.166667  0.000000     12.000000
  0.266667  0.166667  0.000000     12.000000
  0.300000  0.166667  0.000000     12.000000
  0.333333  0.166667  0.000000     12.000000
  0.366667  0.166667  0.000000     12.000000
  0.400000  0.166667  0.000000     12.000000
  0.200000  0.200000  0.000000      6.000000
  0.233333  0.200000  0.000000     12.000000
  0.266667  0.200000  0.000000     12.000000
  0.300000  0.200000  0.000000     12.000000
  0.333333  0.200000  0.000000     12.000000
  0.366667  0.200000  0.000000     12.000000
  0.400000  0.200000  0.000000      6.000000
  0.233333  0.233333  0.000000      6.000000
  0.266667  0.233333  0.000000     12.000000
  0.300000  0.233333  0.000000     12.000000
  0.333333  0.233333  0.000000     12.000000
  0.366667  0.233333  0.000000     12.000000
  0.266667  0.266667  0.000000      6.000000
  0.300000  0.266667  0.000000     12.000000
  0.333333  0.266667  0.000000     12.000000
  0.366667  0.266667  0.000000      6.000000
  0.300000  0.300000  0.000000      6.000000
  0.333333  0.300000  0.000000     12.000000
  0.333333  0.333333  0.000000      2.000000
  0.000000  0.000000  0.033333      2.000000
  0.033333  0.000000  0.033333     12.000000
  0.066667  0.000000  0.033333     12.000000
  0.100000  0.000000  0.033333     12.000000
  0.133333  0.000000  0.033333     12.000000
  0.166667  0.000000  0.033333     12.000000
  0.200000  0.000000  0.033333     12.000000
  0.233333  0.000000  0.033333     12.000000
  0.266667  0.000000  0.033333     12.000000
  0.300000  0.000000  0.033333     12.000000
  0.333333  0.000000  0.033333     12.000000
  0.366667  0.000000  0.033333     12.000000
  0.400000  0.000000  0.033333     12.000000
  0.433333  0.000000  0.033333     12.000000
  0.466667  0.000000  0.033333     12.000000
  0.500000  0.000000  0.033333      6.000000
  0.033333  0.033333  0.033333     12.000000
  0.066667  0.033333  0.033333     24.000000
  0.100000  0.033333  0.033333     24.000000
  0.133333  0.033333  0.033333     24.000000
  0.166667  0.033333  0.033333     24.000000
  0.200000  0.033333  0.033333     24.000000
  0.233333  0.033333  0.033333     24.000000
  0.266667  0.033333  0.033333     24.000000
  0.300000  0.033333  0.033333     24.000000
  0.333333  0.033333  0.033333     24.000000
  0.366667  0.033333  0.033333     24.000000
  0.400000  0.033333  0.033333     24.000000
  0.433333  0.033333  0.033333     24.000000
  0.466667  0.033333  0.033333     24.000000
  0.066667  0.066667  0.033333     12.000000
  0.100000  0.066667  0.033333     24.000000
  0.133333  0.066667  0.033333     24.000000
  0.166667  0.066667  0.033333     24.000000
  0.200000  0.066667  0.033333     24.000000
  0.233333  0.066667  0.033333     24.000000
  0.266667  0.066667  0.033333     24.000000
  0.300000  0.066667  0.033333     24.000000
  0.333333  0.066667  0.033333     24.000000
  0.366667  0.066667  0.033333     24.000000
  0.400000  0.066667  0.033333     24.000000
  0.433333  0.066667  0.033333     24.000000
  0.466667  0.066667  0.033333     12.000000
  0.100000  0.100000  0.033333     12.000000
  0.133333  0.100000  0.033333     24.000000
  0.166667  0.100000  0.033333     24.000000
  0.200000  0.100000  0.033333     24.000000
  0.233333  0.100000  0.033333     24.000000
  0.266667  0.100000  0.033333     24.000000
  0.300000  0.100000  0.033333     24.000000
  0.333333  0.100000  0.033333     24.000000
  0.366667  0.100000  0.033333     24.000000
  0.400000  0.100000  0.033333     24.000000
  0.433333  0.100000  0.033333     24.000000
  0.133333  0.133333  0.033333     12.000000
  0.166667  0.133333  0.033333     24.000000
  0.200000  0.133333  0.033333     24.000000
  0.233333  0.133333  0.033333     24.000000
  0.266667  0.133333  0.033333     24.000000
  0.300000  0.133333  0.033333     24.000000
  0.333333  0.133333  0.033333     24.000000
  0.366667  0.133333  0.033333     24.000000
  0.400000  0.133333  0.033333     24.000000
  0.433333  0.133333  0.033333     12.000000
  0.166667  0.166667  0.033333     12.000000
  0.200000  0.166667  0.033333     24.000000
  0.233333  0.166667  0.033333     24.000000
  0.266667  0.166667  0.033333     24.000000
  0.300000  0.166667  0.033333     24.000000
  0.333333  0.166667  0.033333     24.000000
  0.366667  0.166667  0.033333     24.000000
  0.400000  0.166667  0.033333     24.000000
  0.200000  0.200000  0.033333     12.000000
  0.233333  0.200000  0.033333     24.000000
  0.266667  0.200000  0.033333     24.000000
  0.300000  0.200000  0.033333     24.000000
  0.333333  0.200000  0.033333     24.000000
  0.366667  0.200000  0.033333     24.000000
  0.400000  0.200000  0.033333     12.000000
  0.233333  0.233333  0.033333     12.000000
  0.266667  0.233333  0.033333     24.000000
  0.300000  0.233333  0.033333     24.000000
  0.333333  0.233333  0.033333     24.000000
  0.366667  0.233333  0.033333     24.000000
  0.266667  0.266667  0.033333     12.000000
  0.300000  0.266667  0.033333     24.000000
  0.333333  0.266667  0.033333     24.000000
  0.366667  0.266667  0.033333     12.000000
  0.300000  0.300000  0.033333     12.000000
  0.333333  0.300000  0.033333     24.000000
  0.333333  0.333333  0.033333      4.000000
  0.000000  0.000000  0.066667      2.000000
  0.033333  0.000000  0.066667     12.000000
  0.066667  0.000000  0.066667     12.000000
  0.100000  0.000000  0.066667     12.000000
  0.133333  0.000000  0.066667     12.000000
  0.166667  0.000000  0.066667     12.000000
  0.200000  0.000000  0.066667     12.000000
  0.233333  0.000000  0.066667     12.000000
  0.266667  0.000000  0.066667     12.000000
  0.300000  0.000000  0.066667     12.000000
  0.333333  0.000000  0.066667     12.000000
  0.366667  0.000000  0.066667     12.000000
  0.400000  0.000000  0.066667     12.000000
  0.433333  0.000000  0.066667     12.000000
  0.466667  0.000000  0.066667     12.000000
  0.500000  0.000000  0.066667      6.000000
  0.033333  0.033333  0.066667     12.000000
  0.066667  0.033333  0.066667     24.000000
  0.100000  0.033333  0.066667     24.000000
  0.133333  0.033333  0.066667     24.000000
  0.166667  0.033333  0.066667     24.000000
  0.200000  0.033333  0.066667     24.000000
  0.233333  0.033333  0.066667     24.000000
  0.266667  0.033333  0.066667     24.000000
  0.300000  0.033333  0.066667     24.000000
  0.333333  0.033333  0.066667     24.000000
  0.366667  0.033333  0.066667     24.000000
  0.400000  0.033333  0.066667     24.000000
  0.433333  0.033333  0.066667     24.000000
  0.466667  0.033333  0.066667     24.000000
  0.066667  0.066667  0.066667     12.000000
  0.100000  0.066667  0.066667     24.000000
  0.133333  0.066667  0.066667     24.000000
  0.166667  0.066667  0.066667     24.000000
  0.200000  0.066667  0.066667     24.000000
  0.233333  0.066667  0.066667     24.000000
  0.266667  0.066667  0.066667     24.000000
  0.300000  0.066667  0.066667     24.000000
  0.333333  0.066667  0.066667     24.000000
  0.366667  0.066667  0.066667     24.000000
  0.400000  0.066667  0.066667     24.000000
  0.433333  0.066667  0.066667     24.000000
  0.466667  0.066667  0.066667     12.000000
  0.100000  0.100000  0.066667     12.000000
  0.133333  0.100000  0.066667     24.000000
  0.166667  0.100000  0.066667     24.000000
  0.200000  0.100000  0.066667     24.000000
  0.233333  0.100000  0.066667     24.000000
  0.266667  0.100000  0.066667     24.000000
  0.300000  0.100000  0.066667     24.000000
  0.333333  0.100000  0.066667     24.000000
  0.366667  0.100000  0.066667     24.000000
  0.400000  0.100000  0.066667     24.000000
  0.433333  0.100000  0.066667     24.000000
  0.133333  0.133333  0.066667     12.000000
  0.166667  0.133333  0.066667     24.000000
  0.200000  0.133333  0.066667     24.000000
  0.233333  0.133333  0.066667     24.000000
  0.266667  0.133333  0.066667     24.000000
  0.300000  0.133333  0.066667     24.000000
  0.333333  0.133333  0.066667     24.000000
  0.366667  0.133333  0.066667     24.000000
  0.400000  0.133333  0.066667     24.000000
  0.433333  0.133333  0.066667     12.000000
  0.166667  0.166667  0.066667     12.000000
  0.200000  0.166667  0.066667     24.000000
  0.233333  0.166667  0.066667     24.000000
  0.266667  0.166667  0.066667     24.000000
  0.300000  0.166667  0.066667     24.000000
  0.333333  0.166667  0.066667     24.000000
  0.366667  0.166667  0.066667     24.000000
  0.400000  0.166667  0.066667     24.000000
  0.200000  0.200000  0.066667     12.000000
  0.233333  0.200000  0.066667     24.000000
  0.266667  0.200000  0.066667     24.000000
  0.300000  0.200000  0.066667     24.000000
  0.333333  0.200000  0.066667     24.000000
  0.366667  0.200000  0.066667     24.000000
  0.400000  0.200000  0.066667     12.000000
  0.233333  0.233333  0.066667     12.000000
  0.266667  0.233333  0.066667     24.000000
  0.300000  0.233333  0.066667     24.000000
  0.333333  0.233333  0.066667     24.000000
  0.366667  0.233333  0.066667     24.000000
  0.266667  0.266667  0.066667     12.000000
  0.300000  0.266667  0.066667     24.000000
  0.333333  0.266667  0.066667     24.000000
  0.366667  0.266667  0.066667     12.000000
  0.300000  0.300000  0.066667     12.000000
  0.333333  0.300000  0.066667     24.000000
  0.333333  0.333333  0.066667      4.000000
  0.000000  0.000000  0.100000      2.000000
  0.033333  0.000000  0.100000     12.000000
  0.066667  0.000000  0.100000     12.000000
  0.100000  0.000000  0.100000     12.000000
  0.133333  0.000000  0.100000     12.000000
  0.166667  0.000000  0.100000     12.000000
  0.200000  0.000000  0.100000     12.000000
  0.233333  0.000000  0.100000     12.000000
  0.266667  0.000000  0.100000     12.000000
  0.300000  0.000000  0.100000     12.000000
  0.333333  0.000000  0.100000     12.000000
  0.366667  0.000000  0.100000     12.000000
  0.400000  0.000000  0.100000     12.000000
  0.433333  0.000000  0.100000     12.000000
  0.466667  0.000000  0.100000     12.000000
  0.500000  0.000000  0.100000      6.000000
  0.033333  0.033333  0.100000     12.000000
  0.066667  0.033333  0.100000     24.000000
  0.100000  0.033333  0.100000     24.000000
  0.133333  0.033333  0.100000     24.000000
  0.166667  0.033333  0.100000     24.000000
  0.200000  0.033333  0.100000     24.000000
  0.233333  0.033333  0.100000     24.000000
  0.266667  0.033333  0.100000     24.000000
  0.300000  0.033333  0.100000     24.000000
  0.333333  0.033333  0.100000     24.000000
  0.366667  0.033333  0.100000     24.000000
  0.400000  0.033333  0.100000     24.000000
  0.433333  0.033333  0.100000     24.000000
  0.466667  0.033333  0.100000     24.000000
  0.066667  0.066667  0.100000     12.000000
  0.100000  0.066667  0.100000     24.000000
  0.133333  0.066667  0.100000     24.000000
  0.166667  0.066667  0.100000     24.000000
  0.200000  0.066667  0.100000     24.000000
  0.233333  0.066667  0.100000     24.000000
  0.266667  0.066667  0.100000     24.000000
  0.300000  0.066667  0.100000     24.000000
  0.333333  0.066667  0.100000     24.000000
  0.366667  0.066667  0.100000     24.000000
  0.400000  0.066667  0.100000     24.000000
  0.433333  0.066667  0.100000     24.000000
  0.466667  0.066667  0.100000     12.000000
  0.100000  0.100000  0.100000     12.000000
  0.133333  0.100000  0.100000     24.000000
  0.166667  0.100000  0.100000     24.000000
  0.200000  0.100000  0.100000     24.000000
  0.233333  0.100000  0.100000     24.000000
  0.266667  0.100000  0.100000     24.000000
  0.300000  0.100000  0.100000     24.000000
  0.333333  0.100000  0.100000     24.000000
  0.366667  0.100000  0.100000     24.000000
  0.400000  0.100000  0.100000     24.000000
  0.433333  0.100000  0.100000     24.000000
  0.133333  0.133333  0.100000     12.000000
  0.166667  0.133333  0.100000     24.000000
  0.200000  0.133333  0.100000     24.000000
  0.233333  0.133333  0.100000     24.000000
  0.266667  0.133333  0.100000     24.000000
  0.300000  0.133333  0.100000     24.000000
  0.333333  0.133333  0.100000     24.000000
  0.366667  0.133333  0.100000     24.000000
  0.400000  0.133333  0.100000     24.000000
  0.433333  0.133333  0.100000     12.000000
  0.166667  0.166667  0.100000     12.000000
  0.200000  0.166667  0.100000     24.000000
  0.233333  0.166667  0.100000     24.000000
  0.266667  0.166667  0.100000     24.000000
  0.300000  0.166667  0.100000     24.000000
  0.333333  0.166667  0.100000     24.000000
  0.366667  0.166667  0.100000     24.000000
  0.400000  0.166667  0.100000     24.000000
  0.200000  0.200000  0.100000     12.000000
  0.233333  0.200000  0.100000     24.000000
  0.266667  0.200000  0.100000     24.000000
  0.300000  0.200000  0.100000     24.000000
  0.333333  0.200000  0.100000     24.000000
  0.366667  0.200000  0.100000     24.000000
  0.400000  0.200000  0.100000     12.000000
  0.233333  0.233333  0.100000     12.000000
  0.266667  0.233333  0.100000     24.000000
  0.300000  0.233333  0.100000     24.000000
  0.333333  0.233333  0.100000     24.000000
  0.366667  0.233333  0.100000     24.000000
  0.266667  0.266667  0.100000     12.000000
  0.300000  0.266667  0.100000     24.000000
  0.333333  0.266667  0.100000     24.000000
  0.366667  0.266667  0.100000     12.000000
  0.300000  0.300000  0.100000     12.000000
  0.333333  0.300000  0.100000     24.000000
  0.333333  0.333333  0.100000      4.000000
  0.000000  0.000000  0.133333      2.000000
  0.033333  0.000000  0.133333     12.000000
  0.066667  0.000000  0.133333     12.000000
  0.100000  0.000000  0.133333     12.000000
  0.133333  0.000000  0.133333     12.000000
  0.166667  0.000000  0.133333     12.000000
  0.200000  0.000000  0.133333     12.000000
  0.233333  0.000000  0.133333     12.000000
  0.266667  0.000000  0.133333     12.000000
  0.300000  0.000000  0.133333     12.000000
  0.333333  0.000000  0.133333     12.000000
  0.366667  0.000000  0.133333     12.000000
  0.400000  0.000000  0.133333     12.000000
  0.433333  0.000000  0.133333     12.000000
  0.466667  0.000000  0.133333     12.000000
  0.500000  0.000000  0.133333      6.000000
  0.033333  0.033333  0.133333     12.000000
  0.066667  0.033333  0.133333     24.000000
  0.100000  0.033333  0.133333     24.000000
  0.133333  0.033333  0.133333     24.000000
  0.166667  0.033333  0.133333     24.000000
  0.200000  0.033333  0.133333     24.000000
  0.233333  0.033333  0.133333     24.000000
  0.266667  0.033333  0.133333     24.000000
  0.300000  0.033333  0.133333     24.000000
  0.333333  0.033333  0.133333     24.000000
  0.366667  0.033333  0.133333     24.000000
  0.400000  0.033333  0.133333     24.000000
  0.433333  0.033333  0.133333     24.000000
  0.466667  0.033333  0.133333     24.000000
  0.066667  0.066667  0.133333     12.000000
  0.100000  0.066667  0.133333     24.000000
  0.133333  0.066667  0.133333     24.000000
  0.166667  0.066667  0.133333     24.000000
  0.200000  0.066667  0.133333     24.000000
  0.233333  0.066667  0.133333     24.000000
  0.266667  0.066667  0.133333     24.000000
  0.300000  0.066667  0.133333     24.000000
  0.333333  0.066667  0.133333     24.000000
  0.366667  0.066667  0.133333     24.000000
  0.400000  0.066667  0.133333     24.000000
  0.433333  0.066667  0.133333     24.000000
  0.466667  0.066667  0.133333     12.000000
  0.100000  0.100000  0.133333     12.000000
  0.133333  0.100000  0.133333     24.000000
  0.166667  0.100000  0.133333     24.000000
  0.200000  0.100000  0.133333     24.000000
  0.233333  0.100000  0.133333     24.000000
  0.266667  0.100000  0.133333     24.000000
  0.300000  0.100000  0.133333     24.000000
  0.333333  0.100000  0.133333     24.000000
  0.366667  0.100000  0.133333     24.000000
  0.400000  0.100000  0.133333     24.000000
  0.433333  0.100000  0.133333     24.000000
  0.133333  0.133333  0.133333     12.000000
  0.166667  0.133333  0.133333     24.000000
  0.200000  0.133333  0.133333     24.000000
  0.233333  0.133333  0.133333     24.000000
  0.266667  0.133333  0.133333     24.000000
  0.300000  0.133333  0.133333     24.000000
  0.333333  0.133333  0.133333     24.000000
  0.366667  0.133333  0.133333     24.000000
  0.400000  0.133333  0.133333     24.000000
  0.433333  0.133333  0.133333     12.000000
  0.166667  0.166667  0.133333     12.000000
  0.200000  0.166667  0.133333     24.000000
  0.233333  0.166667  0.133333     24.000000
  0.266667  0.166667  0.133333     24.000000
  0.300000  0.166667  0.133333     24.000000
  0.333333  0.166667  0.133333     24.000000
  0.366667  0.166667  0.133333     24.000000
  0.400000  0.166667  0.133333     24.000000
  0.200000  0.200000  0.133333     12.000000
  0.233333  0.200000  0.133333     24.000000
  0.266667  0.200000  0.133333     24.000000
  0.300000  0.200000  0.133333     24.000000
  0.333333  0.200000  0.133333     24.000000
  0.366667  0.200000  0.133333     24.000000
  0.400000  0.200000  0.133333     12.000000
  0.233333  0.233333  0.133333     12.000000
  0.266667  0.233333  0.133333     24.000000
  0.300000  0.233333  0.133333     24.000000
  0.333333  0.233333  0.133333     24.000000
  0.366667  0.233333  0.133333     24.000000
  0.266667  0.266667  0.133333     12.000000
  0.300000  0.266667  0.133333     24.000000
  0.333333  0.266667  0.133333     24.000000
  0.366667  0.266667  0.133333     12.000000
  0.300000  0.300000  0.133333     12.000000
  0.333333  0.300000  0.133333     24.000000
  0.333333  0.333333  0.133333      4.000000
  0.000000  0.000000  0.166667      2.000000
  0.033333  0.000000  0.166667     12.000000
  0.066667  0.000000  0.166667     12.000000
  0.100000  0.000000  0.166667     12.000000
  0.133333  0.000000  0.166667     12.000000
  0.166667  0.000000  0.166667     12.000000
  0.200000  0.000000  0.166667     12.000000
  0.233333  0.000000  0.166667     12.000000
  0.266667  0.000000  0.166667     12.000000
  0.300000  0.000000  0.166667     12.000000
  0.333333  0.000000  0.166667     12.000000
  0.366667  0.000000  0.166667     12.000000
  0.400000  0.000000  0.166667     12.000000
  0.433333  0.000000  0.166667     12.000000
  0.466667  0.000000  0.166667     12.000000
  0.500000  0.000000  0.166667      6.000000
  0.033333  0.033333  0.166667     12.000000
  0.066667  0.033333  0.166667     24.000000
  0.100000  0.033333  0.166667     24.000000
  0.133333  0.033333  0.166667     24.000000
  0.166667  0.033333  0.166667     24.000000
  0.200000  0.033333  0.166667     24.000000
  0.233333  0.033333  0.166667     24.000000
  0.266667  0.033333  0.166667     24.000000
  0.300000  0.033333  0.166667     24.000000
  0.333333  0.033333  0.166667     24.000000
  0.366667  0.033333  0.166667     24.000000
  0.400000  0.033333  0.166667     24.000000
  0.433333  0.033333  0.166667     24.000000
  0.466667  0.033333  0.166667     24.000000
  0.066667  0.066667  0.166667     12.000000
  0.100000  0.066667  0.166667     24.000000
  0.133333  0.066667  0.166667     24.000000
  0.166667  0.066667  0.166667     24.000000
  0.200000  0.066667  0.166667     24.000000
  0.233333  0.066667  0.166667     24.000000
  0.266667  0.066667  0.166667     24.000000
  0.300000  0.066667  0.166667     24.000000
  0.333333  0.066667  0.166667     24.000000
  0.366667  0.066667  0.166667     24.000000
  0.400000  0.066667  0.166667     24.000000
  0.433333  0.066667  0.166667     24.000000
  0.466667  0.066667  0.166667     12.000000
  0.100000  0.100000  0.166667     12.000000
  0.133333  0.100000  0.166667     24.000000
  0.166667  0.100000  0.166667     24.000000
  0.200000  0.100000  0.166667     24.000000
  0.233333  0.100000  0.166667     24.000000
  0.266667  0.100000  0.166667     24.000000
  0.300000  0.100000  0.166667     24.000000
  0.333333  0.100000  0.166667     24.000000
  0.366667  0.100000  0.166667     24.000000
  0.400000  0.100000  0.166667     24.000000
  0.433333  0.100000  0.166667     24.000000
  0.133333  0.133333  0.166667     12.000000
  0.166667  0.133333  0.166667     24.000000
  0.200000  0.133333  0.166667     24.000000
  0.233333  0.133333  0.166667     24.000000
  0.266667  0.133333  0.166667     24.000000
  0.300000  0.133333  0.166667     24.000000
  0.333333  0.133333  0.166667     24.000000
  0.366667  0.133333  0.166667     24.000000
  0.400000  0.133333  0.166667     24.000000
  0.433333  0.133333  0.166667     12.000000
  0.166667  0.166667  0.166667     12.000000
  0.200000  0.166667  0.166667     24.000000
  0.233333  0.166667  0.166667     24.000000
  0.266667  0.166667  0.166667     24.000000
  0.300000  0.166667  0.166667     24.000000
  0.333333  0.166667  0.166667     24.000000
  0.366667  0.166667  0.166667     24.000000
  0.400000  0.166667  0.166667     24.000000
  0.200000  0.200000  0.166667     12.000000
  0.233333  0.200000  0.166667     24.000000
  0.266667  0.200000  0.166667     24.000000
  0.300000  0.200000  0.166667     24.000000
  0.333333  0.200000  0.166667     24.000000
  0.366667  0.200000  0.166667     24.000000
  0.400000  0.200000  0.166667     12.000000
  0.233333  0.233333  0.166667     12.000000
  0.266667  0.233333  0.166667     24.000000
  0.300000  0.233333  0.166667     24.000000
  0.333333  0.233333  0.166667     24.000000
  0.366667  0.233333  0.166667     24.000000
  0.266667  0.266667  0.166667     12.000000
  0.300000  0.266667  0.166667     24.000000
  0.333333  0.266667  0.166667     24.000000
  0.366667  0.266667  0.166667     12.000000
  0.300000  0.300000  0.166667     12.000000
  0.333333  0.300000  0.166667     24.000000
  0.333333  0.333333  0.166667      4.000000
  0.000000  0.000000  0.200000      2.000000
  0.033333  0.000000  0.200000     12.000000
  0.066667  0.000000  0.200000     12.000000
  0.100000  0.000000  0.200000     12.000000
  0.133333  0.000000  0.200000     12.000000
  0.166667  0.000000  0.200000     12.000000
  0.200000  0.000000  0.200000     12.000000
  0.233333  0.000000  0.200000     12.000000
  0.266667  0.000000  0.200000     12.000000
  0.300000  0.000000  0.200000     12.000000
  0.333333  0.000000  0.200000     12.000000
  0.366667  0.000000  0.200000     12.000000
  0.400000  0.000000  0.200000     12.000000
  0.433333  0.000000  0.200000     12.000000
  0.466667  0.000000  0.200000     12.000000
  0.500000  0.000000  0.200000      6.000000
  0.033333  0.033333  0.200000     12.000000
  0.066667  0.033333  0.200000     24.000000
  0.100000  0.033333  0.200000     24.000000
  0.133333  0.033333  0.200000     24.000000
  0.166667  0.033333  0.200000     24.000000
  0.200000  0.033333  0.200000     24.000000
  0.233333  0.033333  0.200000     24.000000
  0.266667  0.033333  0.200000     24.000000
  0.300000  0.033333  0.200000     24.000000
  0.333333  0.033333  0.200000     24.000000
  0.366667  0.033333  0.200000     24.000000
  0.400000  0.033333  0.200000     24.000000
  0.433333  0.033333  0.200000     24.000000
  0.466667  0.033333  0.200000     24.000000
  0.066667  0.066667  0.200000     12.000000
  0.100000  0.066667  0.200000     24.000000
  0.133333  0.066667  0.200000     24.000000
  0.166667  0.066667  0.200000     24.000000
  0.200000  0.066667  0.200000     24.000000
  0.233333  0.066667  0.200000     24.000000
  0.266667  0.066667  0.200000     24.000000
  0.300000  0.066667  0.200000     24.000000
  0.333333  0.066667  0.200000     24.000000
  0.366667  0.066667  0.200000     24.000000
  0.400000  0.066667  0.200000     24.000000
  0.433333  0.066667  0.200000     24.000000
  0.466667  0.066667  0.200000     12.000000
  0.100000  0.100000  0.200000     12.000000
  0.133333  0.100000  0.200000     24.000000
  0.166667  0.100000  0.200000     24.000000
  0.200000  0.100000  0.200000     24.000000
  0.233333  0.100000  0.200000     24.000000
  0.266667  0.100000  0.200000     24.000000
  0.300000  0.100000  0.200000     24.000000
  0.333333  0.100000  0.200000     24.000000
  0.366667  0.100000  0.200000     24.000000
  0.400000  0.100000  0.200000     24.000000
  0.433333  0.100000  0.200000     24.000000
  0.133333  0.133333  0.200000     12.000000
  0.166667  0.133333  0.200000     24.000000
  0.200000  0.133333  0.200000     24.000000
  0.233333  0.133333  0.200000     24.000000
  0.266667  0.133333  0.200000     24.000000
  0.300000  0.133333  0.200000     24.000000
  0.333333  0.133333  0.200000     24.000000
  0.366667  0.133333  0.200000     24.000000
  0.400000  0.133333  0.200000     24.000000
  0.433333  0.133333  0.200000     12.000000
  0.166667  0.166667  0.200000     12.000000
  0.200000  0.166667  0.200000     24.000000
  0.233333  0.166667  0.200000     24.000000
  0.266667  0.166667  0.200000     24.000000
  0.300000  0.166667  0.200000     24.000000
  0.333333  0.166667  0.200000     24.000000
  0.366667  0.166667  0.200000     24.000000
  0.400000  0.166667  0.200000     24.000000
  0.200000  0.200000  0.200000     12.000000
  0.233333  0.200000  0.200000     24.000000
  0.266667  0.200000  0.200000     24.000000
  0.300000  0.200000  0.200000     24.000000
  0.333333  0.200000  0.200000     24.000000
  0.366667  0.200000  0.200000     24.000000
  0.400000  0.200000  0.200000     12.000000
  0.233333  0.233333  0.200000     12.000000
  0.266667  0.233333  0.200000     24.000000
  0.300000  0.233333  0.200000     24.000000
  0.333333  0.233333  0.200000     24.000000
  0.366667  0.233333  0.200000     24.000000
  0.266667  0.266667  0.200000     12.000000
  0.300000  0.266667  0.200000     24.000000
  0.333333  0.266667  0.200000     24.000000
  0.366667  0.266667  0.200000     12.000000
  0.300000  0.300000  0.200000     12.000000
  0.333333  0.300000  0.200000     24.000000
  0.333333  0.333333  0.200000      4.000000
  0.000000  0.000000  0.233333      2.000000
  0.033333  0.000000  0.233333     12.000000
  0.066667  0.000000  0.233333     12.000000
  0.100000  0.000000  0.233333     12.000000
  0.133333  0.000000  0.233333     12.000000
  0.166667  0.000000  0.233333     12.000000
  0.200000  0.000000  0.233333     12.000000
  0.233333  0.000000  0.233333     12.000000
  0.266667  0.000000  0.233333     12.000000
  0.300000  0.000000  0.233333     12.000000
  0.333333  0.000000  0.233333     12.000000
  0.366667  0.000000  0.233333     12.000000
  0.400000  0.000000  0.233333     12.000000
  0.433333  0.000000  0.233333     12.000000
  0.466667  0.000000  0.233333     12.000000
  0.500000  0.000000  0.233333      6.000000
  0.033333  0.033333  0.233333     12.000000
  0.066667  0.033333  0.233333     24.000000
  0.100000  0.033333  0.233333     24.000000
  0.133333  0.033333  0.233333     24.000000
  0.166667  0.033333  0.233333     24.000000
  0.200000  0.033333  0.233333     24.000000
  0.233333  0.033333  0.233333     24.000000
  0.266667  0.033333  0.233333     24.000000
  0.300000  0.033333  0.233333     24.000000
  0.333333  0.033333  0.233333     24.000000
  0.366667  0.033333  0.233333     24.000000
  0.400000  0.033333  0.233333     24.000000
  0.433333  0.033333  0.233333     24.000000
  0.466667  0.033333  0.233333     24.000000
  0.066667  0.066667  0.233333     12.000000
  0.100000  0.066667  0.233333     24.000000
  0.133333  0.066667  0.233333     24.000000
  0.166667  0.066667  0.233333     24.000000
  0.200000  0.066667  0.233333     24.000000
  0.233333  0.066667  0.233333     24.000000
  0.266667  0.066667  0.233333     24.000000
  0.300000  0.066667  0.233333     24.000000
  0.333333  0.066667  0.233333     24.000000
  0.366667  0.066667  0.233333     24.000000
  0.400000  0.066667  0.233333     24.000000
  0.433333  0.066667  0.233333     24.000000
  0.466667  0.066667  0.233333     12.000000
  0.100000  0.100000  0.233333     12.000000
  0.133333  0.100000  0.233333     24.000000
  0.166667  0.100000  0.233333     24.000000
  0.200000  0.100000  0.233333     24.000000
  0.233333  0.100000  0.233333     24.000000
  0.266667  0.100000  0.233333     24.000000
  0.300000  0.100000  0.233333     24.000000
  0.333333  0.100000  0.233333     24.000000
  0.366667  0.100000  0.233333     24.000000
  0.400000  0.100000  0.233333     24.000000
  0.433333  0.100000  0.233333     24.000000
  0.133333  0.133333  0.233333     12.000000
  0.166667  0.133333  0.233333     24.000000
  0.200000  0.133333  0.233333     24.000000
  0.233333  0.133333  0.233333     24.000000
  0.266667  0.133333  0.233333     24.000000
  0.300000  0.133333  0.233333     24.000000
  0.333333  0.133333  0.233333     24.000000
  0.366667  0.133333  0.233333     24.000000
  0.400000  0.133333  0.233333     24.000000
  0.433333  0.133333  0.233333     12.000000
  0.166667  0.166667  0.233333     12.000000
  0.200000  0.166667  0.233333     24.000000
  0.233333  0.166667  0.233333     24.000000
  0.266667  0.166667  0.233333     24.000000
  0.300000  0.166667  0.233333     24.000000
  0.333333  0.166667  0.233333     24.000000
  0.366667  0.166667  0.233333     24.000000
  0.400000  0.166667  0.233333     24.000000
  0.200000  0.200000  0.233333     12.000000
  0.233333  0.200000  0.233333     24.000000
  0.266667  0.200000  0.233333     24.000000
  0.300000  0.200000  0.233333     24.000000
  0.333333  0.200000  0.233333     24.000000
  0.366667  0.200000  0.233333     24.000000
  0.400000  0.200000  0.233333     12.000000
  0.233333  0.233333  0.233333     12.000000
  0.266667  0.233333  0.233333     24.000000
  0.300000  0.233333  0.233333     24.000000
  0.333333  0.233333  0.233333     24.000000
  0.366667  0.233333  0.233333     24.000000
  0.266667  0.266667  0.233333     12.000000
  0.300000  0.266667  0.233333     24.000000
  0.333333  0.266667  0.233333     24.000000
  0.366667  0.266667  0.233333     12.000000
  0.300000  0.300000  0.233333     12.000000
  0.333333  0.300000  0.233333     24.000000
  0.333333  0.333333  0.233333      4.000000
  0.000000  0.000000  0.266667      2.000000
  0.033333  0.000000  0.266667     12.000000
  0.066667  0.000000  0.266667     12.000000
  0.100000  0.000000  0.266667     12.000000
  0.133333  0.000000  0.266667     12.000000
  0.166667  0.000000  0.266667     12.000000
  0.200000  0.000000  0.266667     12.000000
  0.233333  0.000000  0.266667     12.000000
  0.266667  0.000000  0.266667     12.000000
  0.300000  0.000000  0.266667     12.000000
  0.333333  0.000000  0.266667     12.000000
  0.366667  0.000000  0.266667     12.000000
  0.400000  0.000000  0.266667     12.000000
  0.433333  0.000000  0.266667     12.000000
  0.466667  0.000000  0.266667     12.000000
  0.500000  0.000000  0.266667      6.000000
  0.033333  0.033333  0.266667     12.000000
  0.066667  0.033333  0.266667     24.000000
  0.100000  0.033333  0.266667     24.000000
  0.133333  0.033333  0.266667     24.000000
  0.166667  0.033333  0.266667     24.000000
  0.200000  0.033333  0.266667     24.000000
  0.233333  0.033333  0.266667     24.000000
  0.266667  0.033333  0.266667     24.000000
  0.300000  0.033333  0.266667     24.000000
  0.333333  0.033333  0.266667     24.000000
  0.366667  0.033333  0.266667     24.000000
  0.400000  0.033333  0.266667     24.000000
  0.433333  0.033333  0.266667     24.000000
  0.466667  0.033333  0.266667     24.000000
  0.066667  0.066667  0.266667     12.000000
  0.100000  0.066667  0.266667     24.000000
  0.133333  0.066667  0.266667     24.000000
  0.166667  0.066667  0.266667     24.000000
  0.200000  0.066667  0.266667     24.000000
  0.233333  0.066667  0.266667     24.000000
  0.266667  0.066667  0.266667     24.000000
  0.300000  0.066667  0.266667     24.000000
  0.333333  0.066667  0.266667     24.000000
  0.366667  0.066667  0.266667     24.000000
  0.400000  0.066667  0.266667     24.000000
  0.433333  0.066667  0.266667     24.000000
  0.466667  0.066667  0.266667     12.000000
  0.100000  0.100000  0.266667     12.000000
  0.133333  0.100000  0.266667     24.000000
  0.166667  0.100000  0.266667     24.000000
  0.200000  0.100000  0.266667     24.000000
  0.233333  0.100000  0.266667     24.000000
  0.266667  0.100000  0.266667     24.000000
  0.300000  0.100000  0.266667     24.000000
  0.333333  0.100000  0.266667     24.000000
  0.366667  0.100000  0.266667     24.000000
  0.400000  0.100000  0.266667     24.000000
  0.433333  0.100000  0.266667     24.000000
  0.133333  0.133333  0.266667     12.000000
  0.166667  0.133333  0.266667     24.000000
  0.200000  0.133333  0.266667     24.000000
  0.233333  0.133333  0.266667     24.000000
  0.266667  0.133333  0.266667     24.000000
  0.300000  0.133333  0.266667     24.000000
  0.333333  0.133333  0.266667     24.000000
  0.366667  0.133333  0.266667     24.000000
  0.400000  0.133333  0.266667     24.000000
  0.433333  0.133333  0.266667     12.000000
  0.166667  0.166667  0.266667     12.000000
  0.200000  0.166667  0.266667     24.000000
  0.233333  0.166667  0.266667     24.000000
  0.266667  0.166667  0.266667     24.000000
  0.300000  0.166667  0.266667     24.000000
  0.333333  0.166667  0.266667     24.000000
  0.366667  0.166667  0.266667     24.000000
  0.400000  0.166667  0.266667     24.000000
  0.200000  0.200000  0.266667     12.000000
  0.233333  0.200000  0.266667     24.000000
  0.266667  0.200000  0.266667     24.000000
  0.300000  0.200000  0.266667     24.000000
  0.333333  0.200000  0.266667     24.000000
  0.366667  0.200000  0.266667     24.000000
  0.400000  0.200000  0.266667     12.000000
  0.233333  0.233333  0.266667     12.000000
  0.266667  0.233333  0.266667     24.000000
  0.300000  0.233333  0.266667     24.000000
  0.333333  0.233333  0.266667     24.000000
  0.366667  0.233333  0.266667     24.000000
  0.266667  0.266667  0.266667     12.000000
  0.300000  0.266667  0.266667     24.000000
  0.333333  0.266667  0.266667     24.000000
  0.366667  0.266667  0.266667     12.000000
  0.300000  0.300000  0.266667     12.000000
  0.333333  0.300000  0.266667     24.000000
  0.333333  0.333333  0.266667      4.000000
  0.000000  0.000000  0.300000      2.000000
  0.033333  0.000000  0.300000     12.000000
  0.066667  0.000000  0.300000     12.000000
  0.100000  0.000000  0.300000     12.000000
  0.133333  0.000000  0.300000     12.000000
  0.166667  0.000000  0.300000     12.000000
  0.200000  0.000000  0.300000     12.000000
  0.233333  0.000000  0.300000     12.000000
  0.266667  0.000000  0.300000     12.000000
  0.300000  0.000000  0.300000     12.000000
  0.333333  0.000000  0.300000     12.000000
  0.366667  0.000000  0.300000     12.000000
  0.400000  0.000000  0.300000     12.000000
  0.433333  0.000000  0.300000     12.000000
  0.466667  0.000000  0.300000     12.000000
  0.500000  0.000000  0.300000      6.000000
  0.033333  0.033333  0.300000     12.000000
  0.066667  0.033333  0.300000     24.000000
  0.100000  0.033333  0.300000     24.000000
  0.133333  0.033333  0.300000     24.000000
  0.166667  0.033333  0.300000     24.000000
  0.200000  0.033333  0.300000     24.000000
  0.233333  0.033333  0.300000     24.000000
  0.266667  0.033333  0.300000     24.000000
  0.300000  0.033333  0.300000     24.000000
  0.333333  0.033333  0.300000     24.000000
  0.366667  0.033333  0.300000     24.000000
  0.400000  0.033333  0.300000     24.000000
  0.433333  0.033333  0.300000     24.000000
  0.466667  0.033333  0.300000     24.000000
  0.066667  0.066667  0.300000     12.000000
  0.100000  0.066667  0.300000     24.000000
  0.133333  0.066667  0.300000     24.000000
  0.166667  0.066667  0.300000     24.000000
  0.200000  0.066667  0.300000     24.000000
  0.233333  0.066667  0.300000     24.000000
  0.266667  0.066667  0.300000     24.000000
  0.300000  0.066667  0.300000     24.000000
  0.333333  0.066667  0.300000     24.000000
  0.366667  0.066667  0.300000     24.000000
  0.400000  0.066667  0.300000     24.000000
  0.433333  0.066667  0.300000     24.000000
  0.466667  0.066667  0.300000     12.000000
  0.100000  0.100000  0.300000     12.000000
  0.133333  0.100000  0.300000     24.000000
  0.166667  0.100000  0.300000     24.000000
  0.200000  0.100000  0.300000     24.000000
  0.233333  0.100000  0.300000     24.000000
  0.266667  0.100000  0.300000     24.000000
  0.300000  0.100000  0.300000     24.000000
  0.333333  0.100000  0.300000     24.000000
  0.366667  0.100000  0.300000     24.000000
  0.400000  0.100000  0.300000     24.000000
  0.433333  0.100000  0.300000     24.000000
  0.133333  0.133333  0.300000     12.000000
  0.166667  0.133333  0.300000     24.000000
  0.200000  0.133333  0.300000     24.000000
  0.233333  0.133333  0.300000     24.000000
  0.266667  0.133333  0.300000     24.000000
  0.300000  0.133333  0.300000     24.000000
  0.333333  0.133333  0.300000     24.000000
  0.366667  0.133333  0.300000     24.000000
  0.400000  0.133333  0.300000     24.000000
  0.433333  0.133333  0.300000     12.000000
  0.166667  0.166667  0.300000     12.000000
  0.200000  0.166667  0.300000     24.000000
  0.233333  0.166667  0.300000     24.000000
  0.266667  0.166667  0.300000     24.000000
  0.300000  0.166667  0.300000     24.000000
  0.333333  0.166667  0.300000     24.000000
  0.366667  0.166667  0.300000     24.000000
  0.400000  0.166667  0.300000     24.000000
  0.200000  0.200000  0.300000     12.000000
  0.233333  0.200000  0.300000     24.000000
  0.266667  0.200000  0.300000     24.000000
  0.300000  0.200000  0.300000     24.000000
  0.333333  0.200000  0.300000     24.000000
  0.366667  0.200000  0.300000     24.000000
  0.400000  0.200000  0.300000     12.000000
  0.233333  0.233333  0.300000     12.000000
  0.266667  0.233333  0.300000     24.000000
  0.300000  0.233333  0.300000     24.000000
  0.333333  0.233333  0.300000     24.000000
  0.366667  0.233333  0.300000     24.000000
  0.266667  0.266667  0.300000     12.000000
  0.300000  0.266667  0.300000     24.000000
  0.333333  0.266667  0.300000     24.000000
  0.366667  0.266667  0.300000     12.000000
  0.300000  0.300000  0.300000     12.000000
  0.333333  0.300000  0.300000     24.000000
  0.333333  0.333333  0.300000      4.000000
  0.000000  0.000000  0.333333      2.000000
  0.033333  0.000000  0.333333     12.000000
  0.066667  0.000000  0.333333     12.000000
  0.100000  0.000000  0.333333     12.000000
  0.133333  0.000000  0.333333     12.000000
  0.166667  0.000000  0.333333     12.000000
  0.200000  0.000000  0.333333     12.000000
  0.233333  0.000000  0.333333     12.000000
  0.266667  0.000000  0.333333     12.000000
  0.300000  0.000000  0.333333     12.000000
  0.333333  0.000000  0.333333     12.000000
  0.366667  0.000000  0.333333     12.000000
  0.400000  0.000000  0.333333     12.000000
  0.433333  0.000000  0.333333     12.000000
  0.466667  0.000000  0.333333     12.000000
  0.500000  0.000000  0.333333      6.000000
  0.033333  0.033333  0.333333     12.000000
  0.066667  0.033333  0.333333     24.000000
  0.100000  0.033333  0.333333     24.000000
  0.133333  0.033333  0.333333     24.000000
  0.166667  0.033333  0.333333     24.000000
  0.200000  0.033333  0.333333     24.000000
  0.233333  0.033333  0.333333     24.000000
  0.266667  0.033333  0.333333     24.000000
  0.300000  0.033333  0.333333     24.000000
  0.333333  0.033333  0.333333     24.000000
  0.366667  0.033333  0.333333     24.000000
  0.400000  0.033333  0.333333     24.000000
  0.433333  0.033333  0.333333     24.000000
  0.466667  0.033333  0.333333     24.000000
  0.066667  0.066667  0.333333     12.000000
  0.100000  0.066667  0.333333     24.000000
  0.133333  0.066667  0.333333     24.000000
  0.166667  0.066667  0.333333     24.000000
  0.200000  0.066667  0.333333     24.000000
  0.233333  0.066667  0.333333     24.000000
  0.266667  0.066667  0.333333     24.000000
  0.300000  0.066667  0.333333     24.000000
  0.333333  0.066667  0.333333     24.000000
  0.366667  0.066667  0.333333     24.000000
  0.400000  0.066667  0.333333     24.000000
  0.433333  0.066667  0.333333     24.000000
  0.466667  0.066667  0.333333     12.000000
  0.100000  0.100000  0.333333     12.000000
  0.133333  0.100000  0.333333     24.000000
  0.166667  0.100000  0.333333     24.000000
  0.200000  0.100000  0.333333     24.000000
  0.233333  0.100000  0.333333     24.000000
  0.266667  0.100000  0.333333     24.000000
  0.300000  0.100000  0.333333     24.000000
  0.333333  0.100000  0.333333     24.000000
  0.366667  0.100000  0.333333     24.000000
  0.400000  0.100000  0.333333     24.000000
  0.433333  0.100000  0.333333     24.000000
  0.133333  0.133333  0.333333     12.000000
  0.166667  0.133333  0.333333     24.000000
  0.200000  0.133333  0.333333     24.000000
  0.233333  0.133333  0.333333     24.000000
  0.266667  0.133333  0.333333     24.000000
  0.300000  0.133333  0.333333     24.000000
  0.333333  0.133333  0.333333     24.000000
  0.366667  0.133333  0.333333     24.000000
  0.400000  0.133333  0.333333     24.000000
  0.433333  0.133333  0.333333     12.000000
  0.166667  0.166667  0.333333     12.000000
  0.200000  0.166667  0.333333     24.000000
  0.233333  0.166667  0.333333     24.000000
  0.266667  0.166667  0.333333     24.000000
  0.300000  0.166667  0.333333     24.000000
  0.333333  0.166667  0.333333     24.000000
  0.366667  0.166667  0.333333     24.000000
  0.400000  0.166667  0.333333     24.000000
  0.200000  0.200000  0.333333     12.000000
  0.233333  0.200000  0.333333     24.000000
  0.266667  0.200000  0.333333     24.000000
  0.300000  0.200000  0.333333     24.000000
  0.333333  0.200000  0.333333     24.000000
  0.366667  0.200000  0.333333     24.000000
  0.400000  0.200000  0.333333     12.000000
  0.233333  0.233333  0.333333     12.000000
  0.266667  0.233333  0.333333     24.000000
  0.300000  0.233333  0.333333     24.000000
  0.333333  0.233333  0.333333     24.000000
  0.366667  0.233333  0.333333     24.000000
  0.266667  0.266667  0.333333     12.000000
  0.300000  0.266667  0.333333     24.000000
  0.333333  0.266667  0.333333     24.000000
  0.366667  0.266667  0.333333     12.000000
  0.300000  0.300000  0.333333     12.000000
  0.333333  0.300000  0.333333     24.000000
  0.333333  0.333333  0.333333      4.000000
  0.000000  0.000000  0.366667      2.000000
  0.033333  0.000000  0.366667     12.000000
  0.066667  0.000000  0.366667     12.000000
  0.100000  0.000000  0.366667     12.000000
  0.133333  0.000000  0.366667     12.000000
  0.166667  0.000000  0.366667     12.000000
  0.200000  0.000000  0.366667     12.000000
  0.233333  0.000000  0.366667     12.000000
  0.266667  0.000000  0.366667     12.000000
  0.300000  0.000000  0.366667     12.000000
  0.333333  0.000000  0.366667     12.000000
  0.366667  0.000000  0.366667     12.000000
  0.400000  0.000000  0.366667     12.000000
  0.433333  0.000000  0.366667     12.000000
  0.466667  0.000000  0.366667     12.000000
  0.500000  0.000000  0.366667      6.000000
  0.033333  0.033333  0.366667     12.000000
  0.066667  0.033333  0.366667     24.000000
  0.100000  0.033333  0.366667     24.000000
  0.133333  0.033333  0.366667     24.000000
  0.166667  0.033333  0.366667     24.000000
  0.200000  0.033333  0.366667     24.000000
  0.233333  0.033333  0.366667     24.000000
  0.266667  0.033333  0.366667     24.000000
  0.300000  0.033333  0.366667     24.000000
  0.333333  0.033333  0.366667     24.000000
  0.366667  0.033333  0.366667     24.000000
  0.400000  0.033333  0.366667     24.000000
  0.433333  0.033333  0.366667     24.000000
  0.466667  0.033333  0.366667     24.000000
  0.066667  0.066667  0.366667     12.000000
  0.100000  0.066667  0.366667     24.000000
  0.133333  0.066667  0.366667     24.000000
  0.166667  0.066667  0.366667     24.000000
  0.200000  0.066667  0.366667     24.000000
  0.233333  0.066667  0.366667     24.000000
  0.266667  0.066667  0.366667     24.000000
  0.300000  0.066667  0.366667     24.000000
  0.333333  0.066667  0.366667     24.000000
  0.366667  0.066667  0.366667     24.000000
  0.400000  0.066667  0.366667     24.000000
  0.433333  0.066667  0.366667     24.000000
  0.466667  0.066667  0.366667     12.000000
  0.100000  0.100000  0.366667     12.000000
  0.133333  0.100000  0.366667     24.000000
  0.166667  0.100000  0.366667     24.000000
  0.200000  0.100000  0.366667     24.000000
  0.233333  0.100000  0.366667     24.000000
  0.266667  0.100000  0.366667     24.000000
  0.300000  0.100000  0.366667     24.000000
  0.333333  0.100000  0.366667     24.000000
  0.366667  0.100000  0.366667     24.000000
  0.400000  0.100000  0.366667     24.000000
  0.433333  0.100000  0.366667     24.000000
  0.133333  0.133333  0.366667     12.000000
  0.166667  0.133333  0.366667     24.000000
  0.200000  0.133333  0.366667     24.000000
  0.233333  0.133333  0.366667     24.000000
  0.266667  0.133333  0.366667     24.000000
  0.300000  0.133333  0.366667     24.000000
  0.333333  0.133333  0.366667     24.000000
  0.366667  0.133333  0.366667     24.000000
  0.400000  0.133333  0.366667     24.000000
  0.433333  0.133333  0.366667     12.000000
  0.166667  0.166667  0.366667     12.000000
  0.200000  0.166667  0.366667     24.000000
  0.233333  0.166667  0.366667     24.000000
  0.266667  0.166667  0.366667     24.000000
  0.300000  0.166667  0.366667     24.000000
  0.333333  0.166667  0.366667     24.000000
  0.366667  0.166667  0.366667     24.000000
  0.400000  0.166667  0.366667     24.000000
  0.200000  0.200000  0.366667     12.000000
  0.233333  0.200000  0.366667     24.000000
  0.266667  0.200000  0.366667     24.000000
  0.300000  0.200000  0.366667     24.000000
  0.333333  0.200000  0.366667     24.000000
  0.366667  0.200000  0.366667     24.000000
  0.400000  0.200000  0.366667     12.000000
  0.233333  0.233333  0.366667     12.000000
  0.266667  0.233333  0.366667     24.000000
  0.300000  0.233333  0.366667     24.000000
  0.333333  0.233333  0.366667     24.000000
  0.366667  0.233333  0.366667     24.000000
  0.266667  0.266667  0.366667     12.000000
  0.300000  0.266667  0.366667     24.000000
  0.333333  0.266667  0.366667     24.000000
  0.366667  0.266667  0.366667     12.000000
  0.300000  0.300000  0.366667     12.000000
  0.333333  0.300000  0.366667     24.000000
  0.333333  0.333333  0.366667      4.000000
  0.000000  0.000000  0.400000      2.000000
  0.033333  0.000000  0.400000     12.000000
  0.066667  0.000000  0.400000     12.000000
  0.100000  0.000000  0.400000     12.000000
  0.133333  0.000000  0.400000     12.000000
  0.166667  0.000000  0.400000     12.000000
  0.200000  0.000000  0.400000     12.000000
  0.233333  0.000000  0.400000     12.000000
  0.266667  0.000000  0.400000     12.000000
  0.300000  0.000000  0.400000     12.000000
  0.333333  0.000000  0.400000     12.000000
  0.366667  0.000000  0.400000     12.000000
  0.400000  0.000000  0.400000     12.000000
  0.433333  0.000000  0.400000     12.000000
  0.466667  0.000000  0.400000     12.000000
  0.500000  0.000000  0.400000      6.000000
  0.033333  0.033333  0.400000     12.000000
  0.066667  0.033333  0.400000     24.000000
  0.100000  0.033333  0.400000     24.000000
  0.133333  0.033333  0.400000     24.000000
  0.166667  0.033333  0.400000     24.000000
  0.200000  0.033333  0.400000     24.000000
  0.233333  0.033333  0.400000     24.000000
  0.266667  0.033333  0.400000     24.000000
  0.300000  0.033333  0.400000     24.000000
  0.333333  0.033333  0.400000     24.000000
  0.366667  0.033333  0.400000     24.000000
  0.400000  0.033333  0.400000     24.000000
  0.433333  0.033333  0.400000     24.000000
  0.466667  0.033333  0.400000     24.000000
  0.066667  0.066667  0.400000     12.000000
  0.100000  0.066667  0.400000     24.000000
  0.133333  0.066667  0.400000     24.000000
  0.166667  0.066667  0.400000     24.000000
  0.200000  0.066667  0.400000     24.000000
  0.233333  0.066667  0.400000     24.000000
  0.266667  0.066667  0.400000     24.000000
  0.300000  0.066667  0.400000     24.000000
  0.333333  0.066667  0.400000     24.000000
  0.366667  0.066667  0.400000     24.000000
  0.400000  0.066667  0.400000     24.000000
  0.433333  0.066667  0.400000     24.000000
  0.466667  0.066667  0.400000     12.000000
  0.100000  0.100000  0.400000     12.000000
  0.133333  0.100000  0.400000     24.000000
  0.166667  0.100000  0.400000     24.000000
  0.200000  0.100000  0.400000     24.000000
  0.233333  0.100000  0.400000     24.000000
  0.266667  0.100000  0.400000     24.000000
  0.300000  0.100000  0.400000     24.000000
  0.333333  0.100000  0.400000     24.000000
  0.366667  0.100000  0.400000     24.000000
  0.400000  0.100000  0.400000     24.000000
  0.433333  0.100000  0.400000     24.000000
  0.133333  0.133333  0.400000     12.000000
  0.166667  0.133333  0.400000     24.000000
  0.200000  0.133333  0.400000     24.000000
  0.233333  0.133333  0.400000     24.000000
  0.266667  0.133333  0.400000     24.000000
  0.300000  0.133333  0.400000     24.000000
  0.333333  0.133333  0.400000     24.000000
  0.366667  0.133333  0.400000     24.000000
  0.400000  0.133333  0.400000     24.000000
  0.433333  0.133333  0.400000     12.000000
  0.166667  0.166667  0.400000     12.000000
  0.200000  0.166667  0.400000     24.000000
  0.233333  0.166667  0.400000     24.000000
  0.266667  0.166667  0.400000     24.000000
  0.300000  0.166667  0.400000     24.000000
  0.333333  0.166667  0.400000     24.000000
  0.366667  0.166667  0.400000     24.000000
  0.400000  0.166667  0.400000     24.000000
  0.200000  0.200000  0.400000     12.000000
  0.233333  0.200000  0.400000     24.000000
  0.266667  0.200000  0.400000     24.000000
  0.300000  0.200000  0.400000     24.000000
  0.333333  0.200000  0.400000     24.000000
  0.366667  0.200000  0.400000     24.000000
  0.400000  0.200000  0.400000     12.000000
  0.233333  0.233333  0.400000     12.000000
  0.266667  0.233333  0.400000     24.000000
  0.300000  0.233333  0.400000     24.000000
  0.333333  0.233333  0.400000     24.000000
  0.366667  0.233333  0.400000     24.000000
  0.266667  0.266667  0.400000     12.000000
  0.300000  0.266667  0.400000     24.000000
  0.333333  0.266667  0.400000     24.000000
  0.366667  0.266667  0.400000     12.000000
  0.300000  0.300000  0.400000     12.000000
  0.333333  0.300000  0.400000     24.000000
  0.333333  0.333333  0.400000      4.000000
  0.000000  0.000000  0.433333      2.000000
  0.033333  0.000000  0.433333     12.000000
  0.066667  0.000000  0.433333     12.000000
  0.100000  0.000000  0.433333     12.000000
  0.133333  0.000000  0.433333     12.000000
  0.166667  0.000000  0.433333     12.000000
  0.200000  0.000000  0.433333     12.000000
  0.233333  0.000000  0.433333     12.000000
  0.266667  0.000000  0.433333     12.000000
  0.300000  0.000000  0.433333     12.000000
  0.333333  0.000000  0.433333     12.000000
  0.366667  0.000000  0.433333     12.000000
  0.400000  0.000000  0.433333     12.000000
  0.433333  0.000000  0.433333     12.000000
  0.466667  0.000000  0.433333     12.000000
  0.500000  0.000000  0.433333      6.000000
  0.033333  0.033333  0.433333     12.000000
  0.066667  0.033333  0.433333     24.000000
  0.100000  0.033333  0.433333     24.000000
  0.133333  0.033333  0.433333     24.000000
  0.166667  0.033333  0.433333     24.000000
  0.200000  0.033333  0.433333     24.000000
  0.233333  0.033333  0.433333     24.000000
  0.266667  0.033333  0.433333     24.000000
  0.300000  0.033333  0.433333     24.000000
  0.333333  0.033333  0.433333     24.000000
  0.366667  0.033333  0.433333     24.000000
  0.400000  0.033333  0.433333     24.000000
  0.433333  0.033333  0.433333     24.000000
  0.466667  0.033333  0.433333     24.000000
  0.066667  0.066667  0.433333     12.000000
  0.100000  0.066667  0.433333     24.000000
  0.133333  0.066667  0.433333     24.000000
  0.166667  0.066667  0.433333     24.000000
  0.200000  0.066667  0.433333     24.000000
  0.233333  0.066667  0.433333     24.000000
  0.266667  0.066667  0.433333     24.000000
  0.300000  0.066667  0.433333     24.000000
  0.333333  0.066667  0.433333     24.000000
  0.366667  0.066667  0.433333     24.000000
  0.400000  0.066667  0.433333     24.000000
  0.433333  0.066667  0.433333     24.000000
  0.466667  0.066667  0.433333     12.000000
  0.100000  0.100000  0.433333     12.000000
  0.133333  0.100000  0.433333     24.000000
  0.166667  0.100000  0.433333     24.000000
  0.200000  0.100000  0.433333     24.000000
  0.233333  0.100000  0.433333     24.000000
  0.266667  0.100000  0.433333     24.000000
  0.300000  0.100000  0.433333     24.000000
  0.333333  0.100000  0.433333     24.000000
  0.366667  0.100000  0.433333     24.000000
  0.400000  0.100000  0.433333     24.000000
  0.433333  0.100000  0.433333     24.000000
  0.133333  0.133333  0.433333     12.000000
  0.166667  0.133333  0.433333     24.000000
  0.200000  0.133333  0.433333     24.000000
  0.233333  0.133333  0.433333     24.000000
  0.266667  0.133333  0.433333     24.000000
  0.300000  0.133333  0.433333     24.000000
  0.333333  0.133333  0.433333     24.000000
  0.366667  0.133333  0.433333     24.000000
  0.400000  0.133333  0.433333     24.000000
  0.433333  0.133333  0.433333     12.000000
  0.166667  0.166667  0.433333     12.000000
  0.200000  0.166667  0.433333     24.000000
  0.233333  0.166667  0.433333     24.000000
  0.266667  0.166667  0.433333     24.000000
  0.300000  0.166667  0.433333     24.000000
  0.333333  0.166667  0.433333     24.000000
  0.366667  0.166667  0.433333     24.000000
  0.400000  0.166667  0.433333     24.000000
  0.200000  0.200000  0.433333     12.000000
  0.233333  0.200000  0.433333     24.000000
  0.266667  0.200000  0.433333     24.000000
  0.300000  0.200000  0.433333     24.000000
  0.333333  0.200000  0.433333     24.000000
  0.366667  0.200000  0.433333     24.000000
  0.400000  0.200000  0.433333     12.000000
  0.233333  0.233333  0.433333     12.000000
  0.266667  0.233333  0.433333     24.000000
  0.300000  0.233333  0.433333     24.000000
  0.333333  0.233333  0.433333     24.000000
  0.366667  0.233333  0.433333     24.000000
  0.266667  0.266667  0.433333     12.000000
  0.300000  0.266667  0.433333     24.000000
  0.333333  0.266667  0.433333     24.000000
  0.366667  0.266667  0.433333     12.000000
  0.300000  0.300000  0.433333     12.000000
  0.333333  0.300000  0.433333     24.000000
  0.333333  0.333333  0.433333      4.000000
  0.000000  0.000000  0.466667      2.000000
  0.033333  0.000000  0.466667     12.000000
  0.066667  0.000000  0.466667     12.000000
  0.100000  0.000000  0.466667     12.000000
  0.133333  0.000000  0.466667     12.000000
  0.166667  0.000000  0.466667     12.000000
  0.200000  0.000000  0.466667     12.000000
  0.233333  0.000000  0.466667     12.000000
  0.266667  0.000000  0.466667     12.000000
  0.300000  0.000000  0.466667     12.000000
  0.333333  0.000000  0.466667     12.000000
  0.366667  0.000000  0.466667     12.000000
  0.400000  0.000000  0.466667     12.000000
  0.433333  0.000000  0.466667     12.000000
  0.466667  0.000000  0.466667     12.000000
  0.500000  0.000000  0.466667      6.000000
  0.033333  0.033333  0.466667     12.000000
  0.066667  0.033333  0.466667     24.000000
  0.100000  0.033333  0.466667     24.000000
  0.133333  0.033333  0.466667     24.000000
  0.166667  0.033333  0.466667     24.000000
  0.200000  0.033333  0.466667     24.000000
  0.233333  0.033333  0.466667     24.000000
  0.266667  0.033333  0.466667     24.000000
  0.300000  0.033333  0.466667     24.000000
  0.333333  0.033333  0.466667     24.000000
  0.366667  0.033333  0.466667     24.000000
  0.400000  0.033333  0.466667     24.000000
  0.433333  0.033333  0.466667     24.000000
  0.466667  0.033333  0.466667     24.000000
  0.066667  0.066667  0.466667     12.000000
  0.100000  0.066667  0.466667     24.000000
  0.133333  0.066667  0.466667     24.000000
  0.166667  0.066667  0.466667     24.000000
  0.200000  0.066667  0.466667     24.000000
  0.233333  0.066667  0.466667     24.000000
  0.266667  0.066667  0.466667     24.000000
  0.300000  0.066667  0.466667     24.000000
  0.333333  0.066667  0.466667     24.000000
  0.366667  0.066667  0.466667     24.000000
  0.400000  0.066667  0.466667     24.000000
  0.433333  0.066667  0.466667     24.000000
  0.466667  0.066667  0.466667     12.000000
  0.100000  0.100000  0.466667     12.000000
  0.133333  0.100000  0.466667     24.000000
  0.166667  0.100000  0.466667     24.000000
  0.200000  0.100000  0.466667     24.000000
  0.233333  0.100000  0.466667     24.000000
  0.266667  0.100000  0.466667     24.000000
  0.300000  0.100000  0.466667     24.000000
  0.333333  0.100000  0.466667     24.000000
  0.366667  0.100000  0.466667     24.000000
  0.400000  0.100000  0.466667     24.000000
  0.433333  0.100000  0.466667     24.000000
  0.133333  0.133333  0.466667     12.000000
  0.166667  0.133333  0.466667     24.000000
  0.200000  0.133333  0.466667     24.000000
  0.233333  0.133333  0.466667     24.000000
  0.266667  0.133333  0.466667     24.000000
  0.300000  0.133333  0.466667     24.000000
  0.333333  0.133333  0.466667     24.000000
  0.366667  0.133333  0.466667     24.000000
  0.400000  0.133333  0.466667     24.000000
  0.433333  0.133333  0.466667     12.000000
  0.166667  0.166667  0.466667     12.000000
  0.200000  0.166667  0.466667     24.000000
  0.233333  0.166667  0.466667     24.000000
  0.266667  0.166667  0.466667     24.000000
  0.300000  0.166667  0.466667     24.000000
  0.333333  0.166667  0.466667     24.000000
  0.366667  0.166667  0.466667     24.000000
  0.400000  0.166667  0.466667     24.000000
  0.200000  0.200000  0.466667     12.000000
  0.233333  0.200000  0.466667     24.000000
  0.266667  0.200000  0.466667     24.000000
  0.300000  0.200000  0.466667     24.000000
  0.333333  0.200000  0.466667     24.000000
  0.366667  0.200000  0.466667     24.000000
  0.400000  0.200000  0.466667     12.000000
  0.233333  0.233333  0.466667     12.000000
  0.266667  0.233333  0.466667     24.000000
  0.300000  0.233333  0.466667     24.000000
  0.333333  0.233333  0.466667     24.000000
  0.366667  0.233333  0.466667     24.000000
  0.266667  0.266667  0.466667     12.000000
  0.300000  0.266667  0.466667     24.000000
  0.333333  0.266667  0.466667     24.000000
  0.366667  0.266667  0.466667     12.000000
  0.300000  0.300000  0.466667     12.000000
  0.333333  0.300000  0.466667     24.000000
  0.333333  0.333333  0.466667      4.000000
  0.000000  0.000000  0.500000      1.000000
  0.033333  0.000000  0.500000      6.000000
  0.066667  0.000000  0.500000      6.000000
  0.100000  0.000000  0.500000      6.000000
  0.133333  0.000000  0.500000      6.000000
  0.166667  0.000000  0.500000      6.000000
  0.200000  0.000000  0.500000      6.000000
  0.233333  0.000000  0.500000      6.000000
  0.266667  0.000000  0.500000      6.000000
  0.300000  0.000000  0.500000      6.000000
  0.333333  0.000000  0.500000      6.000000
  0.366667  0.000000  0.500000      6.000000
  0.400000  0.000000  0.500000      6.000000
  0.433333  0.000000  0.500000      6.000000
  0.466667  0.000000  0.500000      6.000000
  0.500000  0.000000  0.500000      3.000000
  0.033333  0.033333  0.500000      6.000000
  0.066667  0.033333  0.500000     12.000000
  0.100000  0.033333  0.500000     12.000000
  0.133333  0.033333  0.500000     12.000000
  0.166667  0.033333  0.500000     12.000000
  0.200000  0.033333  0.500000     12.000000
  0.233333  0.033333  0.500000     12.000000
  0.266667  0.033333  0.500000     12.000000
  0.300000  0.033333  0.500000     12.000000
  0.333333  0.033333  0.500000     12.000000
  0.366667  0.033333  0.500000     12.000000
  0.400000  0.033333  0.500000     12.000000
  0.433333  0.033333  0.500000     12.000000
  0.466667  0.033333  0.500000     12.000000
  0.066667  0.066667  0.500000      6.000000
  0.100000  0.066667  0.500000     12.000000
  0.133333  0.066667  0.500000     12.000000
  0.166667  0.066667  0.500000     12.000000
  0.200000  0.066667  0.500000     12.000000
  0.233333  0.066667  0.500000     12.000000
  0.266667  0.066667  0.500000     12.000000
  0.300000  0.066667  0.500000     12.000000
  0.333333  0.066667  0.500000     12.000000
  0.366667  0.066667  0.500000     12.000000
  0.400000  0.066667  0.500000     12.000000
  0.433333  0.066667  0.500000     12.000000
  0.466667  0.066667  0.500000      6.000000
  0.100000  0.100000  0.500000      6.000000
  0.133333  0.100000  0.500000     12.000000
  0.166667  0.100000  0.500000     12.000000
  0.200000  0.100000  0.500000     12.000000
  0.233333  0.100000  0.500000     12.000000
  0.266667  0.100000  0.500000     12.000000
  0.300000  0.100000  0.500000     12.000000
  0.333333  0.100000  0.500000     12.000000
  0.366667  0.100000  0.500000     12.000000
  0.400000  0.100000  0.500000     12.000000
  0.433333  0.100000  0.500000     12.000000
  0.133333  0.133333  0.500000      6.000000
  0.166667  0.133333  0.500000     12.000000
  0.200000  0.133333  0.500000     12.000000
  0.233333  0.133333  0.500000     12.000000
  0.266667  0.133333  0.500000     12.000000
  0.300000  0.133333  0.500000     12.000000
  0.333333  0.133333  0.500000     12.000000
  0.366667  0.133333  0.500000     12.000000
  0.400000  0.133333  0.500000     12.000000
  0.433333  0.133333  0.500000      6.000000
  0.166667  0.166667  0.500000      6.000000
  0.200000  0.166667  0.500000     12.000000
  0.233333  0.166667  0.500000     12.000000
  0.266667  0.166667  0.500000     12.000000
  0.300000  0.166667  0.500000     12.000000
  0.333333  0.166667  0.500000     12.000000
  0.366667  0.166667  0.500000     12.000000
  0.400000  0.166667  0.500000     12.000000
  0.200000  0.200000  0.500000      6.000000
  0.233333  0.200000  0.500000     12.000000
  0.266667  0.200000  0.500000     12.000000
  0.300000  0.200000  0.500000     12.000000
  0.333333  0.200000  0.500000     12.000000
  0.366667  0.200000  0.500000     12.000000
  0.400000  0.200000  0.500000      6.000000
  0.233333  0.233333  0.500000      6.000000
  0.266667  0.233333  0.500000     12.000000
  0.300000  0.233333  0.500000     12.000000
  0.333333  0.233333  0.500000     12.000000
  0.366667  0.233333  0.500000     12.000000
  0.266667  0.266667  0.500000      6.000000
  0.300000  0.266667  0.500000     12.000000
  0.333333  0.266667  0.500000     12.000000
  0.366667  0.266667  0.500000      6.000000
  0.300000  0.300000  0.500000      6.000000
  0.333333  0.300000  0.500000     12.000000
  0.333333  0.333333  0.500000      2.000000
 
 Following cartesian coordinates:
            Coordinates               Weight
  0.000000  0.000000  0.000000      1.000000
  0.010448  0.006032  0.000000      6.000000
  0.020897  0.012065  0.000000      6.000000
  0.031345  0.018097  0.000000      6.000000
  0.041793  0.024129  0.000000      6.000000
  0.052241  0.030162  0.000000      6.000000
  0.062690  0.036194  0.000000      6.000000
  0.073138  0.042226  0.000000      6.000000
  0.083586  0.048259  0.000000      6.000000
  0.094035  0.054291  0.000000      6.000000
  0.104483  0.060323  0.000000      6.000000
  0.114931  0.066356  0.000000      6.000000
  0.125379  0.072388  0.000000      6.000000
  0.135828  0.078420  0.000000      6.000000
  0.146276  0.084453  0.000000      6.000000
  0.156724  0.090485  0.000000      3.000000
  0.010448  0.018097  0.000000      6.000000
  0.020897  0.024129  0.000000     12.000000
  0.031345  0.030162  0.000000     12.000000
  0.041793  0.036194  0.000000     12.000000
  0.052241  0.042226  0.000000     12.000000
  0.062690  0.048259  0.000000     12.000000
  0.073138  0.054291  0.000000     12.000000
  0.083586  0.060323  0.000000     12.000000
  0.094035  0.066356  0.000000     12.000000
  0.104483  0.072388  0.000000     12.000000
  0.114931  0.078420  0.000000     12.000000
  0.125379  0.084453  0.000000     12.000000
  0.135828  0.090485  0.000000     12.000000
  0.146276  0.096517  0.000000     12.000000
  0.020897  0.036194  0.000000      6.000000
  0.031345  0.042226  0.000000     12.000000
  0.041793  0.048259  0.000000     12.000000
  0.052241  0.054291  0.000000     12.000000
  0.062690  0.060323  0.000000     12.000000
  0.073138  0.066356  0.000000     12.000000
  0.083586  0.072388  0.000000     12.000000
[...]
     17       2.8453      2.00000
     18       2.8453      2.00000
     19       5.4836      0.00000
     20       5.4836      0.00000
     21       6.0829      0.00000
     22       6.0832      0.00000

 k-point  1447 :       0.3000    0.2333    0.5000
  band No.  band energies     occupation 
      1      -8.7925      2.00000
      2      -8.7925      2.00000
      3      -8.5577      2.00000
      4      -8.5577      2.00000
      5      -1.6807      2.00000
      6      -1.6807      2.00000
      7      -1.6585      2.00000
      8      -1.6585      2.00000
      9      -0.3093      2.00000
     10      -0.3093      2.00000
     11       0.2276      2.00000
     12       0.2276      2.00000
     13       0.3928      2.00000
     14       0.3928      2.00000
     15       1.5767      2.00000
     16       1.5767      2.00000
     17       2.9718      2.00000
     18       2.9718      2.00000
     19       5.3959      0.00000
     20       5.3959      0.00000
     21       6.2745      0.00000
     22       6.2770      0.00000

 k-point  1448 :       0.3333    0.2333    0.5000
  band No.  band energies     occupation 
      1      -8.7200      2.00000
      2      -8.7200      2.00000
      3      -8.5216      2.00000
      4      -8.5216      2.00000
      5      -1.7754      2.00000
      6      -1.7754      2.00000
      7      -1.6450      2.00000
      8      -1.6450      2.00000
      9      -0.4170      2.00000
     10      -0.4170      2.00000
     11       0.2910      2.00000
     12       0.2910      2.00000
     13       0.3466      2.00000
     14       0.3466      2.00000
     15       1.4543      2.00000
     16       1.4543      2.00000
     17       3.0894      2.00000
     18       3.0894      2.00000
     19       5.2944      0.00000
     20       5.2944      0.00000
     21       6.4331      0.00000
     22       6.4554      0.00000

 k-point  1449 :       0.3667    0.2333    0.5000
  band No.  band energies     occupation 
      1      -8.6824      2.00000
      2      -8.6824      2.00000
      3      -8.5028      2.00000
      4      -8.5028      2.00000
      5      -1.8342      2.00000
      6      -1.8342      2.00000
      7      -1.6188      2.00000
      8      -1.6188      2.00000
      9      -0.4941      2.00000
     10      -0.4941      2.00000
     11       0.3087      2.00000
     12       0.3087      2.00000
     13       0.3584      2.00000
     14       0.3584      2.00000
     15       1.3814      2.00000
     16       1.3814      2.00000
     17       3.1629      2.00000
     18       3.1629      2.00000
     19       5.2267      0.00000
     20       5.2267      0.00000
     21       6.4948      0.00000
     22       6.5187      0.00000

 k-point  1450 :       0.2667    0.2667    0.5000
  band No.  band energies     occupation 
      1      -8.7913      2.00000
      2      -8.7913      2.00000
      3      -8.5556      2.00000
      4      -8.5556      2.00000
      5      -1.6706      2.00000
      6      -1.6706      2.00000
      7      -1.6375      2.00000
      8      -1.6375      2.00000
      9      -0.2357      2.00000
     10      -0.2357      2.00000
     11       0.2187      2.00000
     12       0.2188      2.00000
     13       0.2644      2.00000
     14       0.2644      2.00000
     15       1.5818      2.00000
     16       1.5818      2.00000
     17       2.9711      2.00000
     18       2.9711      2.00000
     19       5.3849      0.00000
     20       5.3849      0.00000
     21       6.2822      0.00000
     22       6.2924      0.00000

 k-point  1451 :       0.3000    0.2667    0.5000
  band No.  band energies     occupation 
      1      -8.7122      2.00000
      2      -8.7122      2.00000
      3      -8.5148      2.00000
      4      -8.5148      2.00000
      5      -1.8022      2.00000
      6      -1.8022      2.00000
      7      -1.5528      2.00000
      8      -1.5528      2.00000
      9      -0.3155      2.00000
     10      -0.3155      2.00000
     11       0.0868      2.00000
     12       0.0868      2.00000
     13       0.3186      2.00000
     14       0.3186      2.00000
     15       1.4461      2.00000
     16       1.4461      2.00000
     17       3.1016      2.00000
     18       3.1016      2.00000
     19       5.2587      0.00000
     20       5.2587      0.00000
     21       6.4050      0.00000
     22       6.4073      0.00000

 k-point  1452 :       0.3333    0.2667    0.5000
  band No.  band energies     occupation 
      1      -8.6626      2.00000
      2      -8.6626      2.00000
      3      -8.4889      2.00000
      4      -8.4889      2.00000
      5      -1.8848      2.00000
      6      -1.8848      2.00000
      7      -1.4672      2.00000
      8      -1.4672      2.00000
      9      -0.4487      2.00000
     10      -0.4487      2.00000
     11       0.0349      2.00000
     12       0.0349      2.00000
     13       0.3907      2.00000
     14       0.3907      2.00000
     15       1.3411      2.00000
     16       1.3411      2.00000
     17       3.2059      2.00000
     18       3.2059      2.00000
     19       5.1516      0.00000
     20       5.1516      0.00000
     21       6.4207      0.00000
     22       6.4208      0.00000

 k-point  1453 :       0.3667    0.2667    0.5000
  band No.  band energies     occupation 
      1      -8.6457      2.00000
      2      -8.6457      2.00000
      3      -8.4801      2.00000
      4      -8.4801      2.00000
      5      -1.9129      2.00000
      6      -1.9129      2.00000
      7      -1.4278      2.00000
      8      -1.4278      2.00000
      9      -0.5131      2.00000
     10      -0.5131      2.00000
     11       0.0254      2.00000
     12       0.0254      2.00000
     13       0.4208      2.00000
     14       0.4208      2.00000
     15       1.3000      2.00000
     16       1.3000      2.00000
     17       3.2469      2.00000
     18       3.2469      2.00000
     19       5.1089      0.00000
     20       5.1089      0.00000
     21       6.4222      0.00000
     22       6.4222      0.00000

 k-point  1454 :       0.3000    0.3000    0.5000
  band No.  band energies     occupation 
      1      -8.6560      2.00000
      2      -8.6560      2.00000
      3      -8.4842      2.00000
      4      -8.4842      2.00000
      5      -1.9022      2.00000
      6      -1.9022      2.00000
      7      -1.4026      2.00000
      8      -1.4026      2.00000
      9      -0.4125      2.00000
     10      -0.4125      2.00000
     11      -0.0949      2.00000
     12      -0.0949      2.00000
     13       0.4064      2.00000
     14       0.4064      2.00000
     15       1.3259      2.00000
     16       1.3259      2.00000
     17       3.2218      2.00000
     18       3.2218      2.00000
     19       5.1238      0.00000
     20       5.1238      0.00000
     21       6.3933      0.00000
     22       6.3936      0.00000

 k-point  1455 :       0.3333    0.3000    0.5000
  band No.  band energies     occupation 
      1      -8.6270      2.00000
      2      -8.6270      2.00000
      3      -8.4682      2.00000
      4      -8.4682      2.00000
      5      -1.9538      2.00000
      6      -1.9538      2.00000
      7      -1.2738      2.00000
      8      -1.2738      2.00000
      9      -0.5628      2.00000
     10      -0.5628      2.00000
     11      -0.1407      2.00000
     12      -0.1407      2.00000
     13       0.4677      2.00000
     14       0.4677      2.00000
     15       1.2483      2.00000
     16       1.2483      2.00000
     17       3.2978      2.00000
     18       3.2978      2.00000
     19       5.0378      0.00000
     20       5.0378      0.00000
     21       6.3798      0.00000
     22       6.3798      0.00000

 k-point  1456 :       0.3333    0.3333    0.5000
  band No.  band energies     occupation 
      1      -8.6150      2.00000
      2      -8.6150      2.00000
      3      -8.4612      2.00000
      4      -8.4612      2.00000
      5      -1.9773      2.00000
      6      -1.9773      2.00000
      7      -1.1615      2.00000
      8      -1.1615      2.00000
      9      -0.6645      2.00000
     10      -0.6645      2.00000
     11      -0.1841      2.00000
     12      -0.1841      2.00000
     13       0.5003      2.00000
     14       0.5003      2.00000
     15       1.2104      2.00000
     16       1.2104      2.00000
     17       3.3337      2.00000
     18       3.3337      2.00000
     19       4.9935      0.00000
     20       4.9935      0.00000
     21       6.3650      0.00000
     22       6.3650      0.00000


--------------------------------------------------------------------------------------------------------


 soft charge-density along one line, spin component           1
         0         1         2         3         4         5         6         7         8         9
 total charge-density along one line
 
 pseudopotential strength for first ion, spin component:           1
 -8.157   0.000   0.000   0.000   0.000   0.000  -0.000   0.000   0.000   0.000  -0.081   0.000  -0.000   0.000  -0.000   0.000
  0.000   0.000  -8.158   0.000  -0.000   0.000  -0.000   0.000   0.000   0.000  -0.000   0.000  -0.081   0.000   0.000   0.000
  0.000   0.000  -0.000   0.000  -8.136   0.000   0.000   0.000  -0.000   0.000  -0.000   0.000   0.000   0.000  -0.082   0.000
 -0.000   0.000  -0.000   0.000   0.000   0.000  -8.158   0.000   0.000   0.000   0.000   0.000   0.000   0.000  -0.000   0.000
  0.000   0.000   0.000   0.000  -0.000   0.000   0.000   0.000  -8.157   0.000  -0.000   0.000  -0.000   0.000   0.000   0.000
 -0.081   0.000  -0.000   0.000  -0.000   0.000   0.000   0.000  -0.000   0.000   0.114   0.000   0.000   0.000   0.000   0.000
 -0.000   0.000  -0.081   0.000   0.000   0.000   0.000   0.000  -0.000   0.000   0.000   0.000   0.114   0.000  -0.000   0.000
 -0.000   0.000   0.000   0.000  -0.082   0.000  -0.000   0.000   0.000   0.000   0.000   0.000  -0.000   0.000   0.114   0.000
  0.000   0.000   0.000   0.000  -0.000   0.000  -0.081   0.000  -0.000   0.000  -0.000   0.000  -0.000   0.000   0.000   0.000
 -0.000   0.000  -0.000   0.000   0.000   0.000  -0.000   0.000  -0.081   0.000   0.000   0.000   0.000   0.000  -0.000   0.000
  0.000   0.000   0.000   0.000  -0.004   0.000  -0.000   0.000  -0.000   0.000  -0.000   0.000  -0.000   0.000   0.000   0.000
 -0.000   0.000  -0.000   0.000   0.001   0.000   0.000   0.000   0.000   0.000   0.000   0.000   0.000   0.000  -0.000   0.000
 -0.000   0.000   0.000   0.000  -0.000   0.000   0.000   0.000  -0.008   0.000   0.000   0.000  -0.000   0.000   0.000   0.000
  0.000   0.000   0.000   0.000   0.000   0.000  -0.000   0.000  -0.000   0.000   0.000   0.000  -0.000   0.000  -0.000   0.000
 -0.008   0.000   0.000   0.000   0.000   0.000   0.000   0.000  -0.000   0.000  -0.000   0.000   0.000   0.000  -0.000   0.000
  0.000   0.000  -0.000   0.000   0.000   0.000  -0.000   0.000   0.004   0.000  -0.000   0.000   0.000   0.000  -0.000   0.000
 -0.000   0.000  -0.000   0.000  -0.000   0.000   0.000   0.000   0.000   0.000   0.000   0.000   0.000   0.000   0.000   0.000
  0.004   0.000  -0.000   0.000  -0.000   0.000  -0.000   0.000   0.000   0.000   0.000   0.000   0.000   0.000   0.000   0.000
 total augmentation occupancy for first ion, spin component:           1
  0.968   0.000   0.000  -0.000  -0.000   0.590  -0.000   0.000  -0.000  -0.000   0.000   0.000  -0.000   0.000  -0.065  -0.000
  0.000   0.908   0.000   0.000   0.000  -0.000   0.827  -0.000   0.000  -0.000   0.000   0.000   0.000   0.000   0.000  -0.000
  0.000   0.000   1.031  -0.000  -0.000   0.000   0.000   0.489  -0.000  -0.000   0.110  -0.018   0.000  -0.000   0.000  -0.000
  0.000  -0.000   0.000   0.908  -0.000  -0.000   0.000   0.000   0.827  -0.000  -0.000   0.000   0.000   0.000  -0.000  -0.000
  0.000   0.000  -0.000  -0.000   0.968   0.000  -0.000  -0.000  -0.000   0.590  -0.000   0.000  -0.065   0.000   0.000   0.007
  0.590   0.000   0.000   0.000   0.000   0.661   0.000  -0.000  -0.000   0.000   0.000   0.000  -0.000  -0.000  -0.135   0.000
  0.000   0.827   0.000   0.000   0.000   0.000   1.056   0.000   0.000  -0.000   0.000   0.000  -0.000  -0.000   0.000   0.000
  0.000   0.000   0.489   0.000  -0.000   0.000   0.000   0.461  -0.000  -0.000   0.057  -0.021   0.000  -0.000   0.000  -0.000
 -0.000   0.000   0.000   0.827  -0.000   0.000  -0.000   0.000   1.056   0.000   0.000   0.000   0.000   0.000   0.000   0.000
 -0.000   0.000  -0.000   0.000   0.590   0.000  -0.000  -0.000  -0.000   0.661  -0.000   0.000  -0.135   0.000   0.000   0.023
  0.000   0.000   0.110  -0.000  -0.000   0.000  -0.000   0.057   0.000  -0.000   1.198  -0.178   0.000  -0.000   0.000   0.000
  0.000  -0.000  -0.018   0.000   0.000   0.000  -0.000  -0.021   0.000   0.000  -0.178   0.039   0.000   0.000  -0.000   0.000
  0.000  -0.000   0.000   0.000  -0.065   0.000  -0.000   0.000   0.000  -0.135   0.000   0.000   0.215   0.000  -0.000  -0.032
 -0.000  -0.000  -0.000  -0.000  -0.000   0.000  -0.000  -0.000   0.000  -0.000   0.000   0.000   0.000   0.262  -0.000  -0.000
 -0.065   0.000   0.000  -0.000   0.000  -0.135   0.000   0.000   0.000   0.000  -0.000   0.000  -0.000   0.000   0.215   0.000
  0.000  -0.000  -0.000   0.000   0.007   0.000   0.000  -0.000   0.000   0.023  -0.000   0.000  -0.032   0.000   0.000   0.005
  0.000   0.000   0.000   0.000   0.000   0.000   0.000  -0.000   0.000   0.000   0.000   0.000   0.000  -0.038   0.000   0.000
  0.007   0.000   0.000   0.000   0.000   0.023   0.000   0.000   0.000  -0.000  -0.000  -0.000   0.000  -0.000  -0.032  -0.000


------------------------ aborting loop because EDIFF is reached ----------------------------------------


    CHARGE:  cpu time   17.3386: real time   17.3824
    FORLOC:  cpu time    0.0246: real time    0.0247
    FORNL :  cpu time   56.7383: real time   56.8766
    STRESS:  cpu time   65.7512: real time   65.9116
    FORCOR:  cpu time    0.1742: real time    0.1746
    FORHAR:  cpu time    0.0508: real time    0.0509
    MIXING:  cpu time    0.0104: real time    0.0104
    OFIELD:  cpu time    0.0001: real time    0.0001

  FORCE on cell =-STRESS in cart. coord.  units (eV):
  Direction    XX          YY          ZZ          XY          YZ          ZX
  --------------------------------------------------------------------------------------
  Alpha Z    80.02336    80.02336    80.02336
  Ewald     -12.90877   -12.90777 -1121.07436     0.00076     0.00000     0.00000
  Hartree   466.75129   466.75130  -389.90502     0.00001     0.00000    -0.00000
  E(xc)    -140.98250  -140.98250  -142.12963    -0.00000    -0.00000     0.00000
  Local   -1119.53134 -1119.53195   832.24666    -0.00060     0.00000    -0.00000
  n-local   338.14584   335.37662   348.52976    -1.34408     0.00392     0.00355
  augment   -85.64764   -85.64748   -88.28510     0.00013     0.00000     0.00000
  Kinetic   473.14743   477.71453   480.44774   -15.05103     0.00523     0.00495
  Fock        0.00000     0.00000     0.00000     0.00000     0.00000     0.00000
  -------------------------------------------------------------------------------------
  Total      -0.10311    -0.10311    -0.14660    -0.00000     0.00000     0.00000
  in kB      -1.25960    -1.25960    -1.79088    -0.00000     0.00000     0.00000
  external pressure =       -1.44 kB  Pullay stress =        0.00 kB


 VOLUME and BASIS-vectors are now :
 -----------------------------------------------------------------------------
  energy-cutoff  :      500.00
  volume of cell :      131.15
      direct lattice vectors                 reciprocal lattice vectors
     3.190316000  0.000000000  0.000000000     0.313448574  0.180969664  0.000000000
    -1.595158000  2.762894000  0.000000000     0.000000000  0.361939329  0.000000000
     0.000000000  0.000000000 14.879004000     0.000000000  0.000000000  0.067208800

  length of vectors
     3.190316000  3.190315392 14.879004000     0.361939260  0.361939329  0.067208800


 FORCES acting on ions
    electron-ion (+dipol)            ewald-force                    non-local-force                 convergence-correction
 -----------------------------------------------------------------------------------------------
   0.424E-05 0.165E-04 -.915E-10   0.186E-03 -.138E-03 0.142E-13   0.347E-16 0.000E+00 0.119E-19   0.177E-07 -.111E-07 0.262E-13
   -.424E-05 -.165E-04 0.907E-10   -.186E-03 0.138E-03 0.114E-12   -.364E-16 0.694E-17 0.847E-20   -.177E-07 0.111E-07 0.117E-13
   -.921E-03 0.523E-03 -.241E+03   -.931E-04 0.690E-04 0.247E+03   -.382E-16 0.269E-16 -.541E+01   -.404E-07 0.241E-07 0.320E-02
   0.921E-03 -.523E-03 -.241E+03   0.931E-04 -.690E-04 0.247E+03   -.173E-17 -.356E-16 -.541E+01   0.404E-07 -.241E-07 0.320E-02
   -.921E-03 0.523E-03 0.241E+03   -.931E-04 0.690E-04 -.247E+03   -.165E-16 0.356E-16 0.541E+01   -.404E-07 0.241E-07 -.320E-02
   0.921E-03 -.523E-03 0.241E+03   0.931E-04 -.690E-04 -.247E+03   0.408E-16 -.269E-16 0.541E+01   0.404E-07 -.241E-07 -.320E-02
 -----------------------------------------------------------------------------------------------
   -.387E-11 -.727E-11 -.982E-12   -.307E-14 -.630E-15 0.114E-12   -.173E-16 0.694E-17 0.888E-15   0.392E-15 -.124E-14 0.631E-13
 
 
 POSITION                                       TOTAL-FORCE (eV/Angst)
 -----------------------------------------------------------------------------------
     -0.00000      1.84193      3.71975        -0.000000      0.000000     -0.000000
      1.59516      0.92096     11.15925         0.000000      0.000000      0.000000
      1.59516      0.92096      5.28464         0.000000     -0.000000     -0.021759
     -0.00000      1.84193     12.72414        -0.000000      0.000000     -0.021759
      1.59516      0.92096      2.15487        -0.000000     -0.000000      0.021759
     -0.00000      1.84193      9.59437         0.000000      0.000000      0.021759
 -----------------------------------------------------------------------------------
    total drift:                               -0.000000     -0.000000     -0.000000


--------------------------------------------------------------------------------------------------------



  FREE ENERGIE OF THE ION-ELECTRON SYSTEM (eV)
  ---------------------------------------------------
  free  energy   TOTEN  =       -43.59899740 eV

  energy  without entropy=      -43.59899740  energy(sigma->0) =      -43.59899740
 


--------------------------------------------------------------------------------------------------------


    POTLOK:  cpu time    0.1541: real time    0.1545


--------------------------------------------------------------------------------------------------------


     LOOP+:  cpu time 3665.8799: real time 3677.0682
    4ORBIT:  cpu time    0.0000: real time    0.0000
 BZINTS: Fermi energy:  3.567978; 36.000000 electrons
         Band energy: -58.590984;  BLOECHL correction:  0.000000

 total amount of memory used by VASP MPI-rank0  3235611. kBytes
=======================================================================

   base      :      30000. kBytes
   nonl-proj :    1410522. kBytes
   fftplans  :      14796. kBytes
   grid      :      21772. kBytes
   one-center:         93. kBytes
   wavefun   :    1758428. kBytes
 
  
  
 General timing and accounting informations for this job:
 ========================================================
  
                  Total CPU time used (sec):     3687.291
                            User time (sec):     3683.424
                          System time (sec):        3.867
                         Elapsed time (sec):     3698.589
  
                   Maximum memory used (kb):     3383432.
                   Average memory used (kb):           0.
  
                          Minor page faults:       489735
                          Major page faults:            0
                 Voluntary context switches:          163
