<?xml version="1.0" encoding="ISO-8859-1"?>
<modeling>
 <generator>
  <i name="program" type="string">vasp </i>
  <i name="version" type="string">5.4.4.18Apr17-6-g9f103f2a35  </i>
  <i name="subversion" type="string">(build May 20 2018 16:52:39) complex            parallel </i>
  <i name="platform" type="string">LinuxIFC </i>
  <i name="date" type="string">2022 11 13 </i>
  <i name="time" type="string">21:45:41 </i>
 </generator>
 <incar>
  <i type="string" name="SYSTEM"> bulk MoS2</i>
  <i type="string" name="PREC">normal</i>
  <i name="EDIFF">      0.00000100</i>
  <i name="ENCUT">    500.00000000</i>
  <i type="int" name="ISMEAR">    -5</i>
  <i type="logical" name="LWAVE"> F  </i>
  <v type="int" name="KPOINT_BSE">    -1     0     0     0</v>
 </incar>
 <structure name="primitive_cell" >
  <crystal>
   <varray name="basis" >
    <v>       3.19031600       0.00000000       0.00000000 </v>
    <v>      -1.59515800       2.76289400       0.00000000 </v>
    <v>       0.00000000       0.00000000      14.87900400 </v>
   </varray>
   <i name="volume">    131.15105418 </i>
   <varray name="rec_basis" >
    <v>       0.31344857       0.18096966       0.00000000 </v>
    <v>       0.00000000       0.36193933       0.00000000 </v>
    <v>       0.00000000       0.00000000       0.06720880 </v>
   </varray>
  </crystal>
  <varray name="positions" >
   <v>       0.33333300      -0.33333300       0.25000000 </v>
   <v>      -0.33333300       0.33333300       0.35517400 </v>
   <v>      -0.33333300       0.33333300       0.14482600 </v>
   <v>       0.33333300      -0.33333300      -0.14482600 </v>
   <v>       0.33333300      -0.33333300      -0.35517400 </v>
   <v>      -0.33333300       0.33333300      -0.25000000 </v>
  </varray>
 </structure>
 <varray name="primitive_index" >
  <v type="int" >        1 </v>
  <v type="int" >        3 </v>
  <v type="int" >        5 </v>
  <v type="int" >        4 </v>
  <v type="int" >        6 </v>
  <v type="int" >        2 </v>
 </varray>
 <kpoints>
  <generation param="Gamma">
   <v type="int" name="divisions">      30       30       30 </v>
   <v name="usershift">      0.00000000       0.00000000       0.00000000 </v>
   <v name="genvec1">      0.03333333       0.00000000       0.00000000 </v>
   <v name="genvec2">      0.00000000       0.03333333       0.00000000 </v>
   <v name="genvec3">      0.00000000       0.00000000       0.03333333 </v>
   <v name="shift">      0.00000000       0.00000000       0.00000000 </v>
  </generation>
  <varray name="kpointlist" >
   <v>       0.00000000       0.00000000       0.00000000 </v>
   <v>       0.03333333       0.00000000       0.00000000 </v>
   <v>       0.06666667       0.00000000       0.00000000 </v>
   <v>       0.10000000       0.00000000       0.00000000 </v>
   <v>       0.13333333       0.00000000       0.00000000 </v>
   <v>       0.16666667       0.00000000       0.00000000 </v>
   <v>       0.20000000       0.00000000       0.00000000 </v>
   <v>       0.23333333       0.00000000       0.00000000 </v>
   <v>       0.26666667       0.00000000       0.00000000 </v>
   <v>       0.30000000       0.00000000       0.00000000 </v>
   <v>       0.33333333       0.00000000       0.00000000 </v>
   <v>       0.36666667       0.00000000       0.00000000 </v>
   <v>       0.40000000       0.00000000       0.00000000 </v>
   <v>       0.43333333       0.00000000       0.00000000 </v>
   <v>       0.46666667       0.00000000       0.00000000 </v>
   <v>       0.50000000       0.00000000       0.00000000 </v>
   <v>       0.03333333       0.03333333       0.00000000 </v>
   <v>       0.06666667       0.03333333       0.00000000 </v>
   <v>       0.10000000       0.03333333       0.00000000 </v>
   <v>       0.13333333       0.03333333       0.00000000 </v>
   <v>       0.16666667       0.03333333       0.00000000 </v>
   <v>       0.20000000       0.03333333       0.00000000 </v>
   <v>       0.23333333       0.03333333       0.00000000 </v>
   <v>       0.26666667       0.03333333       0.00000000 </v>
   <v>       0.30000000       0.03333333       0.00000000 </v>
   <v>       0.33333333       0.03333333       0.00000000 </v>
   <v>       0.36666667       0.03333333       0.00000000 </v>
   <v>       0.40000000       0.03333333       0.00000000 </v>
   <v>       0.43333333       0.03333333       0.00000000 </v>
   <v>       0.46666667       0.03333333       0.00000000 </v>
   <v>       0.06666667       0.06666667       0.00000000 </v>
   <v>       0.10000000       0.06666667       0.00000000 </v>
   <v>       0.13333333       0.06666667       0.00000000 </v>
   <v>       0.16666667       0.06666667       0.00000000 </v>
   <v>       0.20000000       0.06666667       0.00000000 </v>
   <v>       0.23333333       0.06666667       0.00000000 </v>
   <v>       0.26666667       0.06666667       0.00000000 </v>
   <v>       0.30000000       0.06666667       0.00000000 </v>
   <v>       0.33333333       0.06666667       0.00000000 </v>
   <v>       0.36666667       0.06666667       0.00000000 </v>
   <v>       0.40000000       0.06666667       0.00000000 </v>
   <v>       0.43333333       0.06666667       0.00000000 </v>
   <v>       0.46666667       0.06666667       0.00000000 </v>
   <v>       0.10000000       0.10000000       0.00000000 </v>
   <v>       0.13333333       0.10000000       0.00000000 </v>
   <v>       0.16666667       0.10000000       0.00000000 </v>
   <v>       0.20000000       0.10000000       0.00000000 </v>
   <v>       0.23333333       0.10000000       0.00000000 </v>
   <v>       0.26666667       0.10000000       0.00000000 </v>
   <v>       0.30000000       0.10000000       0.00000000 </v>
   <v>       0.33333333       0.10000000       0.00000000 </v>
   <v>       0.36666667       0.10000000       0.00000000 </v>
   <v>       0.40000000       0.10000000       0.00000000 </v>
   <v>       0.43333333       0.10000000       0.00000000 </v>
   <v>       0.13333333       0.13333333       0.00000000 </v>
   <v>       0.16666667       0.13333333       0.00000000 </v>
   <v>       0.20000000       0.13333333       0.00000000 </v>
   <v>       0.23333333       0.13333333       0.00000000 </v>
   <v>       0.26666667       0.13333333       0.00000000 </v>
   <v>       0.30000000       0.13333333       0.00000000 </v>
   <v>       0.33333333       0.13333333       0.00000000 </v>
   <v>       0.36666667       0.13333333       0.00000000 </v>
   <v>       0.40000000       0.13333333       0.00000000 </v>
   <v>       0.43333333       0.13333333       0.00000000 </v>
   <v>       0.16666667       0.16666667       0.00000000 </v>
   <v>       0.20000000       0.16666667       0.00000000 </v>
   <v>       0.23333333       0.16666667       0.00000000 </v>
   <v>       0.26666667       0.16666667       0.00000000 </v>
   <v>       0.30000000       0.16666667       0.00000000 </v>
   <v>       0.33333333       0.16666667       0.00000000 </v>
   <v>       0.36666667       0.16666667       0.00000000 </v>
   <v>       0.40000000       0.16666667       0.00000000 </v>
   <v>       0.20000000       0.20000000       0.00000000 </v>
   <v>       0.23333333       0.20000000       0.00000000 </v>
   <v>       0.26666667       0.20000000       0.00000000 </v>
   <v>       0.30000000       0.20000000       0.00000000 </v>
   <v>       0.33333333       0.20000000       0.00000000 </v>
   <v>       0.36666667       0.20000000       0.00000000 </v>
   <v>       0.40000000       0.20000000       0.00000000 </v>
   <v>       0.23333333       0.23333333       0.00000000 </v>
   <v>       0.26666667       0.23333333       0.00000000 </v>
   <v>       0.30000000       0.23333333       0.00000000 </v>
   <v>       0.33333333       0.23333333       0.00000000 </v>
   <v>       0.36666667       0.23333333       0.00000000 </v>
   <v>       0.26666667       0.26666667       0.00000000 </v>
   <v>       0.30000000       0.26666667       0.00000000 </v>
   <v>       0.33333333       0.26666667       0.00000000 </v>
   <v>       0.36666667       0.26666667       0.00000000 </v>
   <v>       0.30000000       0.30000000       0.00000000 </v>
   <v>       0.33333333       0.30000000       0.00000000 </v>
   <v>       0.33333333       0.33333333       0.00000000 </v>
   <v>       0.00000000       0.00000000       0.03333333 </v>
   <v>       0.03333333       0.00000000       0.03333333 </v>
   <v>       0.06666667       0.00000000       0.03333333 </v>
   <v>       0.10000000       0.00000000       0.03333333 </v>
   <v>       0.13333333       0.00000000       0.03333333 </v>
   <v>       0.16666667       0.00000000       0.03333333 </v>
   <v>       0.20000000       0.00000000       0.03333333 </v>
   <v>       0.23333333       0.00000000       0.03333333 </v>
   <v>       0.26666667       0.00000000       0.03333333 </v>
   <v>       0.30000000       0.00000000       0.03333333 </v>
   <v>       0.33333333       0.00000000       0.03333333 </v>
   <v>       0.36666667       0.00000000       0.03333333 </v>
   <v>       0.40000000       0.00000000       0.03333333 </v>
   <v>       0.43333333       0.00000000       0.03333333 </v>
   <v>       0.46666667       0.00000000       0.03333333 </v>
   <v>       0.50000000       0.00000000       0.03333333 </v>
   <v>       0.03333333       0.03333333       0.03333333 </v>
   <v>       0.06666667       0.03333333       0.03333333 </v>
   <v>       0.10000000       0.03333333       0.03333333 </v>
   <v>       0.13333333       0.03333333       0.03333333 </v>
   <v>       0.16666667       0.03333333       0.03333333 </v>
   <v>       0.20000000       0.03333333       0.03333333 </v>
   <v>       0.23333333       0.03333333       0.03333333 </v>
   <v>       0.26666667       0.03333333       0.03333333 </v>
   <v>       0.30000000       0.03333333       0.03333333 </v>
   <v>       0.33333333       0.03333333       0.03333333 </v>
   <v>       0.36666667       0.03333333       0.03333333 </v>
   <v>       0.40000000       0.03333333       0.03333333 </v>
   <v>       0.43333333       0.03333333       0.03333333 </v>
   <v>       0.46666667       0.03333333       0.03333333 </v>
   <v>       0.06666667       0.06666667       0.03333333 </v>
   <v>       0.10000000       0.06666667       0.03333333 </v>
   <v>       0.13333333       0.06666667       0.03333333 </v>
   <v>       0.16666667       0.06666667       0.03333333 </v>
   <v>       0.20000000       0.06666667       0.03333333 </v>
   <v>       0.23333333       0.06666667       0.03333333 </v>
   <v>       0.26666667       0.06666667       0.03333333 </v>
   <v>       0.30000000       0.06666667       0.03333333 </v>
   <v>       0.33333333       0.06666667       0.03333333 </v>
   <v>       0.36666667       0.06666667       0.03333333 </v>
   <v>       0.40000000       0.06666667       0.03333333 </v>
   <v>       0.43333333       0.06666667       0.03333333 </v>
   <v>       0.46666667       0.06666667       0.03333333 </v>
   <v>       0.10000000       0.10000000       0.03333333 </v>
   <v>       0.13333333       0.10000000       0.03333333 </v>
   <v>       0.16666667       0.10000000       0.03333333 </v>
   <v>       0.20000000       0.10000000       0.03333333 </v>
   <v>       0.23333333       0.10000000       0.03333333 </v>
   <v>       0.26666667       0.10000000       0.03333333 </v>
   <v>       0.30000000       0.10000000       0.03333333 </v>
   <v>       0.33333333       0.10000000       0.03333333 </v>
   <v>       0.36666667       0.10000000       0.03333333 </v>
   <v>       0.40000000       0.10000000       0.03333333 </v>
   <v>       0.43333333       0.10000000       0.03333333 </v>
   <v>       0.13333333       0.13333333       0.03333333 </v>
   <v>       0.16666667       0.13333333       0.03333333 </v>
   <v>       0.20000000       0.13333333       0.03333333 </v>
   <v>       0.23333333       0.13333333       0.03333333 </v>
   <v>       0.26666667       0.13333333       0.03333333 </v>
   <v>       0.30000000       0.13333333       0.03333333 </v>
   <v>       0.33333333       0.13333333       0.03333333 </v>
   <v>       0.36666667       0.13333333       0.03333333 </v>
   <v>       0.40000000       0.13333333       0.03333333 </v>
   <v>       0.43333333       0.13333333       0.03333333 </v>
   <v>       0.16666667       0.16666667       0.03333333 </v>
   <v>       0.20000000       0.16666667       0.03333333 </v>
   <v>       0.23333333       0.16666667       0.03333333 </v>
   <v>       0.26666667       0.16666667       0.03333333 </v>
   <v>       0.30000000       0.16666667       0.03333333 </v>
   <v>       0.33333333       0.16666667       0.03333333 </v>
   <v>       0.36666667       0.16666667       0.03333333 </v>
   <v>       0.40000000       0.16666667       0.03333333 </v>
   <v>       0.20000000       0.20000000       0.03333333 </v>
   <v>       0.23333333       0.20000000       0.03333333 </v>
   <v>       0.26666667       0.20000000       0.03333333 </v>
   <v>       0.30000000       0.20000000       0.03333333 </v>
   <v>       0.33333333       0.20000000       0.03333333 </v>
   <v>       0.36666667       0.20000000       0.03333333 </v>
   <v>       0.40000000       0.20000000       0.03333333 </v>
   <v>       0.23333333       0.23333333       0.03333333 </v>
   <v>       0.26666667       0.23333333       0.03333333 </v>
   <v>       0.30000000       0.23333333       0.03333333 </v>
   <v>       0.33333333       0.23333333       0.03333333 </v>
   <v>       0.36666667       0.23333333       0.03333333 </v>
   <v>       0.26666667       0.26666667       0.03333333 </v>
   <v>       0.30000000       0.26666667       0.03333333 </v>
   <v>       0.33333333       0.26666667       0.03333333 </v>
   <v>       0.36666667       0.26666667       0.03333333 </v>
   <v>       0.30000000       0.30000000       0.03333333 </v>
   <v>       0.33333333       0.30000000       0.03333333 </v>
   <v>       0.33333333       0.33333333       0.03333333 </v>
   <v>       0.00000000       0.00000000       0.06666667 </v>
   <v>       0.03333333       0.00000000       0.06666667 </v>
   <v>       0.06666667       0.00000000       0.06666667 </v>
   <v>       0.10000000       0.00000000       0.06666667 </v>
   <v>       0.13333333       0.00000000       0.06666667 </v>
   <v>       0.16666667       0.00000000       0.06666667 </v>
   <v>       0.20000000       0.00000000       0.06666667 </v>
   <v>       0.23333333       0.00000000       0.06666667 </v>
   <v>       0.26666667       0.00000000       0.06666667 </v>
   <v>       0.30000000       0.00000000       0.06666667 </v>
   <v>       0.33333333       0.00000000       0.06666667 </v>
   <v>       0.36666667       0.00000000       0.06666667 </v>
   <v>       0.40000000       0.00000000       0.06666667 </v>
   <v>       0.43333333       0.00000000       0.06666667 </v>
   <v>       0.46666667       0.00000000       0.06666667 </v>
   <v>       0.50000000       0.00000000       0.06666667 </v>
   <v>       0.03333333       0.03333333       0.06666667 </v>
   <v>       0.06666667       0.03333333       0.06666667 </v>
   <v>       0.10000000       0.03333333       0.06666667 </v>
   <v>       0.13333333       0.03333333       0.06666667 </v>
   <v>       0.16666667       0.03333333       0.06666667 </v>
   <v>       0.20000000       0.03333333       0.06666667 </v>
   <v>       0.23333333       0.03333333       0.06666667 </v>
   <v>       0.26666667       0.03333333       0.06666667 </v>
   <v>       0.30000000       0.03333333       0.06666667 </v>
   <v>       0.33333333       0.03333333       0.06666667 </v>
   <v>       0.36666667       0.03333333       0.06666667 </v>
   <v>       0.40000000       0.03333333       0.06666667 </v>
   <v>       0.43333333       0.03333333       0.06666667 </v>
   <v>       0.46666667       0.03333333       0.06666667 </v>
   <v>       0.06666667       0.06666667       0.06666667 </v>
   <v>       0.10000000       0.06666667       0.06666667 </v>
   <v>       0.13333333       0.06666667       0.06666667 </v>
   <v>       0.16666667       0.06666667       0.06666667 </v>
   <v>       0.20000000       0.06666667       0.06666667 </v>
   <v>       0.23333333       0.06666667       0.06666667 </v>
   <v>       0.26666667       0.06666667       0.06666667 </v>
   <v>       0.30000000       0.06666667       0.06666667 </v>
   <v>       0.33333333       0.06666667       0.06666667 </v>
   <v>       0.36666667       0.06666667       0.06666667 </v>
   <v>       0.40000000       0.06666667       0.06666667 </v>
   <v>       0.43333333       0.06666667       0.06666667 </v>
   <v>       0.46666667       0.06666667       0.06666667 </v>
   <v>       0.10000000       0.10000000       0.06666667 </v>
   <v>       0.13333333       0.10000000       0.06666667 </v>
   <v>       0.16666667       0.10000000       0.06666667 </v>
   <v>       0.20000000       0.10000000       0.06666667 </v>
   <v>       0.23333333       0.10000000       0.06666667 </v>
   <v>       0.26666667       0.10000000       0.06666667 </v>
   <v>       0.30000000       0.10000000       0.06666667 </v>
   <v>       0.33333333       0.10000000       0.06666667 </v>
   <v>       0.36666667       0.10000000       0.06666667 </v>
   <v>       0.40000000       0.10000000       0.06666667 </v>
   <v>       0.43333333       0.10000000       0.06666667 </v>
   <v>       0.13333333       0.13333333       0.06666667 </v>
   <v>       0.16666667       0.13333333       0.06666667 </v>
   <v>       0.20000000       0.13333333       0.06666667 </v>
   <v>       0.23333333       0.13333333       0.06666667 </v>
   <v>       0.26666667       0.13333333       0.06666667 </v>
   <v>       0.30000000       0.13333333       0.06666667 </v>
   <v>       0.33333333       0.13333333       0.06666667 </v>
   <v>       0.36666667       0.13333333       0.06666667 </v>
   <v>       0.40000000       0.13333333       0.06666667 </v>
   <v>       0.43333333       0.13333333       0.06666667 </v>
   <v>       0.16666667       0.16666667       0.06666667 </v>
   <v>       0.20000000       0.16666667       0.06666667 </v>
   <v>       0.23333333       0.16666667       0.06666667 </v>
   <v>       0.26666667       0.16666667       0.06666667 </v>
   <v>       0.30000000       0.16666667       0.06666667 </v>
   <v>       0.33333333       0.16666667       0.06666667 </v>
   <v>       0.36666667       0.16666667       0.06666667 </v>
   <v>       0.40000000       0.16666667       0.06666667 </v>
   <v>       0.20000000       0.20000000       0.06666667 </v>
   <v>       0.23333333       0.20000000       0.06666667 </v>
   <v>       0.26666667       0.20000000       0.06666667 </v>
   <v>       0.30000000       0.20000000       0.06666667 </v>
   <v>       0.33333333       0.20000000       0.06666667 </v>
   <v>       0.36666667       0.20000000       0.06666667 </v>
   <v>       0.40000000       0.20000000       0.06666667 </v>
   <v>       0.23333333       0.23333333       0.06666667 </v>
   <v>       0.26666667       0.23333333       0.06666667 </v>
   <v>       0.30000000       0.23333333       0.06666667 </v>
   <v>       0.33333333       0.23333333       0.06666667 </v>
   <v>       0.36666667       0.23333333       0.06666667 </v>
   <v>       0.26666667       0.26666667       0.06666667 </v>
   <v>       0.30000000       0.26666667       0.06666667 </v>
   <v>       0.33333333       0.26666667       0.06666667 </v>
   <v>       0.36666667       0.26666667       0.06666667 </v>
   <v>       0.30000000       0.30000000       0.06666667 </v>
   <v>       0.33333333       0.30000000       0.06666667 </v>
   <v>       0.33333333       0.33333333       0.06666667 </v>
   <v>       0.00000000       0.00000000       0.10000000 </v>
   <v>       0.03333333       0.00000000       0.10000000 </v>
   <v>       0.06666667       0.00000000       0.10000000 </v>
   <v>       0.10000000       0.00000000       0.10000000 </v>
   <v>       0.13333333       0.00000000       0.10000000 </v>
   <v>       0.16666667       0.00000000       0.10000000 </v>
   <v>       0.20000000       0.00000000       0.10000000 </v>
   <v>       0.23333333       0.00000000       0.10000000 </v>
   <v>       0.26666667       0.00000000       0.10000000 </v>
   <v>       0.30000000       0.00000000       0.10000000 </v>
   <v>       0.33333333       0.00000000       0.10000000 </v>
   <v>       0.36666667       0.00000000       0.10000000 </v>
   <v>       0.40000000       0.00000000       0.10000000 </v>
   <v>       0.43333333       0.00000000       0.10000000 </v>
   <v>       0.46666667       0.00000000       0.10000000 </v>
   <v>       0.50000000       0.00000000       0.10000000 </v>
   <v>       0.03333333       0.03333333       0.10000000 </v>
   <v>       0.06666667       0.03333333       0.10000000 </v>
   <v>       0.10000000       0.03333333       0.10000000 </v>
   <v>       0.13333333       0.03333333       0.10000000 </v>
   <v>       0.16666667       0.03333333       0.10000000 </v>
   <v>       0.20000000       0.03333333       0.10000000 </v>
   <v>       0.23333333       0.03333333       0.10000000 </v>
   <v>       0.26666667       0.03333333       0.10000000 </v>
   <v>       0.30000000       0.03333333       0.10000000 </v>
   <v>       0.33333333       0.03333333       0.10000000 </v>
   <v>       0.36666667       0.03333333       0.10000000 </v>
   <v>       0.40000000       0.03333333       0.10000000 </v>
   <v>       0.43333333       0.03333333       0.10000000 </v>
   <v>       0.46666667       0.03333333       0.10000000 </v>
   <v>       0.06666667       0.06666667       0.10000000 </v>
   <v>       0.10000000       0.06666667       0.10000000 </v>
   <v>       0.13333333       0.06666667       0.10000000 </v>
   <v>       0.16666667       0.06666667       0.10000000 </v>
   <v>       0.20000000       0.06666667       0.10000000 </v>
   <v>       0.23333333       0.06666667       0.10000000 </v>
   <v>       0.26666667       0.06666667       0.10000000 </v>
   <v>       0.30000000       0.06666667       0.10000000 </v>
   <v>       0.33333333       0.06666667       0.10000000 </v>
   <v>       0.36666667       0.06666667       0.10000000 </v>
   <v>       0.40000000       0.06666667       0.10000000 </v>
   <v>       0.43333333       0.06666667       0.10000000 </v>
   <v>       0.46666667       0.06666667       0.10000000 </v>
   <v>       0.10000000       0.10000000       0.10000000 </v>
   <v>       0.13333333       0.10000000       0.10000000 </v>
   <v>       0.16666667       0.10000000       0.10000000 </v>
   <v>       0.20000000       0.10000000       0.10000000 </v>
   <v>       0.23333333       0.10000000       0.10000000 </v>
   <v>       0.26666667       0.10000000       0.10000000 </v>
   <v>       0.30000000       0.10000000       0.10000000 </v>
   <v>       0.33333333       0.10000000       0.10000000 </v>
   <v>       0.36666667       0.10000000       0.10000000 </v>
   <v>       0.40000000       0.10000000       0.10000000 </v>
   <v>       0.43333333       0.10000000       0.10000000 </v>
   <v>       0.13333333       0.13333333       0.10000000 </v>
   <v>       0.16666667       0.13333333       0.10000000 </v>
   <v>       0.20000000       0.13333333       0.10000000 </v>
   <v>       0.23333333       0.13333333       0.10000000 </v>
   <v>       0.26666667       0.13333333       0.10000000 </v>
   <v>       0.30000000       0.13333333       0.10000000 </v>
   <v>       0.33333333       0.13333333       0.10000000 </v>
   <v>       0.36666667       0.13333333       0.10000000 </v>
   <v>       0.40000000       0.13333333       0.10000000 </v>
   <v>       0.43333333       0.13333333       0.10000000 </v>
   <v>       0.16666667       0.16666667       0.10000000 </v>
   <v>       0.20000000       0.16666667       0.10000000 </v>
   <v>       0.23333333       0.16666667       0.10000000 </v>
   <v>       0.26666667       0.16666667       0.10000000 </v>
   <v>       0.30000000       0.16666667       0.10000000 </v>
   <v>       0.33333333       0.16666667       0.10000000 </v>
   <v>       0.36666667       0.16666667       0.10000000 </v>
   <v>       0.40000000       0.16666667       0.10000000 </v>
   <v>       0.20000000       0.20000000       0.10000000 </v>
   <v>       0.23333333       0.20000000       0.10000000 </v>
   <v>       0.26666667       0.20000000       0.10000000 </v>
   <v>       0.30000000       0.20000000       0.10000000 </v>
   <v>       0.33333333       0.20000000       0.10000000 </v>
   <v>       0.36666667       0.20000000       0.10000000 </v>
   <v>       0.40000000       0.20000000       0.10000000 </v>
   <v>       0.23333333       0.23333333       0.10000000 </v>
   <v>       0.26666667       0.23333333       0.10000000 </v>
   <v>       0.30000000       0.23333333       0.10000000 </v>
   <v>       0.33333333       0.23333333       0.10000000 </v>
   <v>       0.36666667       0.23333333       0.10000000 </v>
   <v>       0.26666667       0.26666667       0.10000000 </v>
   <v>       0.30000000       0.26666667       0.10000000 </v>
   <v>       0.33333333       0.26666667       0.10000000 </v>
   <v>       0.36666667       0.26666667       0.10000000 </v>
   <v>       0.30000000       0.30000000       0.10000000 </v>
   <v>       0.33333333       0.30000000       0.10000000 </v>
   <v>       0.33333333       0.33333333       0.10000000 </v>
   <v>       0.00000000       0.00000000       0.13333333 </v>
   <v>       0.03333333       0.00000000       0.13333333 </v>
   <v>       0.06666667       0.00000000       0.13333333 </v>
   <v>       0.10000000       0.00000000       0.13333333 </v>
   <v>       0.13333333       0.00000000       0.13333333 </v>
   <v>       0.16666667       0.00000000       0.13333333 </v>
   <v>       0.20000000       0.00000000       0.13333333 </v>
   <v>       0.23333333       0.00000000       0.13333333 </v>
   <v>       0.26666667       0.00000000       0.13333333 </v>
   <v>       0.30000000       0.00000000       0.13333333 </v>
   <v>       0.33333333       0.00000000       0.13333333 </v>
   <v>       0.36666667       0.00000000       0.13333333 </v>
   <v>       0.40000000       0.00000000       0.13333333 </v>
   <v>       0.43333333       0.00000000       0.13333333 </v>
   <v>       0.46666667       0.00000000       0.13333333 </v>
   <v>       0.50000000       0.00000000       0.13333333 </v>
   <v>       0.03333333       0.03333333       0.13333333 </v>
   <v>       0.06666667       0.03333333       0.13333333 </v>
   <v>       0.10000000       0.03333333       0.13333333 </v>
   <v>       0.13333333       0.03333333       0.13333333 </v>
   <v>       0.16666667       0.03333333       0.13333333 </v>
   <v>       0.20000000       0.03333333       0.13333333 </v>
   <v>       0.23333333       0.03333333       0.13333333 </v>
   <v>       0.26666667       0.03333333       0.13333333 </v>
   <v>       0.30000000       0.03333333       0.13333333 </v>
   <v>       0.33333333       0.03333333       0.13333333 </v>
   <v>       0.36666667       0.03333333       0.13333333 </v>
   <v>       0.40000000       0.03333333       0.13333333 </v>
   <v>       0.43333333       0.03333333       0.13333333 </v>
   <v>       0.46666667       0.03333333       0.13333333 </v>
   <v>       0.06666667       0.06666667       0.13333333 </v>
   <v>       0.10000000       0.06666667       0.13333333 </v>
   <v>       0.13333333       0.06666667       0.13333333 </v>
   <v>       0.16666667       0.06666667       0.13333333 </v>
   <v>       0.20000000       0.06666667       0.13333333 </v>
   <v>       0.23333333       0.06666667       0.13333333 </v>
   <v>       0.26666667       0.06666667       0.13333333 </v>
   <v>       0.30000000       0.06666667       0.13333333 </v>
   <v>       0.33333333       0.06666667       0.13333333 </v>
   <v>       0.36666667       0.06666667       0.13333333 </v>
   <v>       0.40000000       0.06666667       0.13333333 </v>
   <v>       0.43333333       0.06666667       0.13333333 </v>
   <v>       0.46666667       0.06666667       0.13333333 </v>
   <v>       0.10000000       0.10000000       0.13333333 </v>
   <v>       0.13333333       0.10000000       0.13333333 </v>
   <v>       0.16666667       0.10000000       0.13333333 </v>
   <v>       0.20000000       0.10000000       0.13333333 </v>
   <v>       0.23333333       0.10000000       0.13333333 </v>
   <v>       0.26666667       0.10000000       0.13333333 </v>
   <v>       0.30000000       0.10000000       0.13333333 </v>
   <v>       0.33333333       0.10000000       0.13333333 </v>
   <v>       0.36666667       0.10000000       0.13333333 </v>
   <v>       0.40000000       0.10000000       0.13333333 </v>
   <v>       0.43333333       0.10000000       0.13333333 </v>
   <v>       0.13333333       0.13333333       0.13333333 </v>
   <v>       0.16666667       0.13333333       0.13333333 </v>
   <v>       0.20000000       0.13333333       0.13333333 </v>
   <v>       0.23333333       0.13333333       0.13333333 </v>
   <v>       0.26666667       0.13333333       0.13333333 </v>
   <v>       0.30000000       0.13333333       0.13333333 </v>
   <v>       0.33333333       0.13333333       0.13333333 </v>
   <v>       0.36666667       0.13333333       0.13333333 </v>
   <v>       0.40000000       0.13333333       0.13333333 </v>
   <v>       0.43333333       0.13333333       0.13333333 </v>
   <v>       0.16666667       0.16666667       0.13333333 </v>
   <v>       0.20000000       0.16666667       0.13333333 </v>
   <v>       0.23333333       0.16666667       0.13333333 </v>
   <v>       0.26666667       0.16666667       0.13333333 </v>
   <v>       0.30000000       0.16666667       0.13333333 </v>
   <v>       0.33333333       0.16666667       0.13333333 </v>
   <v>       0.36666667       0.16666667       0.13333333 </v>
   <v>       0.40000000       0.16666667       0.13333333 </v>
   <v>       0.20000000       0.20000000       0.13333333 </v>
   <v>       0.23333333       0.20000000       0.13333333 </v>
   <v>       0.26666667       0.20000000       0.13333333 </v>
   <v>       0.30000000       0.20000000       0.13333333 </v>
   <v>       0.33333333       0.20000000       0.13333333 </v>
   <v>       0.36666667       0.20000000       0.13333333 </v>
   <v>       0.40000000       0.20000000       0.13333333 </v>
   <v>       0.23333333       0.23333333       0.13333333 </v>
   <v>       0.26666667       0.23333333       0.13333333 </v>
   <v>       0.30000000       0.23333333       0.13333333 </v>
   <v>       0.33333333       0.23333333       0.13333333 </v>
   <v>       0.36666667       0.23333333       0.13333333 </v>
   <v>       0.26666667       0.26666667       0.13333333 </v>
   <v>       0.30000000       0.26666667       0.13333333 </v>
   <v>       0.33333333       0.26666667       0.13333333 </v>
   <v>       0.36666667       0.26666667       0.13333333 </v>
   <v>       0.30000000       0.30000000       0.13333333 </v>
   <v>       0.33333333       0.30000000       0.13333333 </v>
   <v>       0.33333333       0.33333333       0.13333333 </v>
   <v>       0.00000000       0.00000000       0.16666667 </v>
   <v>       0.03333333       0.00000000       0.16666667 </v>
   <v>       0.06666667       0.00000000       0.16666667 </v>
   <v>       0.10000000       0.00000000       0.16666667 </v>
   <v>       0.13333333       0.00000000       0.16666667 </v>
   <v>       0.16666667       0.00000000       0.16666667 </v>
   <v>       0.20000000       0.00000000       0.16666667 </v>
   <v>       0.23333333       0.00000000       0.16666667 </v>
   <v>       0.26666667       0.00000000       0.16666667 </v>
   <v>       0.30000000       0.00000000       0.16666667 </v>
   <v>       0.33333333       0.00000000       0.16666667 </v>
   <v>       0.36666667       0.00000000       0.16666667 </v>
   <v>       0.40000000       0.00000000       0.16666667 </v>
   <v>       0.43333333       0.00000000       0.16666667 </v>
   <v>       0.46666667       0.00000000       0.16666667 </v>
   <v>       0.50000000       0.00000000       0.16666667 </v>
   <v>       0.03333333       0.03333333       0.16666667 </v>
   <v>       0.06666667       0.03333333       0.16666667 </v>
   <v>       0.10000000       0.03333333       0.16666667 </v>
   <v>       0.13333333       0.03333333       0.16666667 </v>
   <v>       0.16666667       0.03333333       0.16666667 </v>
   <v>       0.20000000       0.03333333       0.16666667 </v>
   <v>       0.23333333       0.03333333       0.16666667 </v>
   <v>       0.26666667       0.03333333       0.16666667 </v>
   <v>       0.30000000       0.03333333       0.16666667 </v>
   <v>       0.33333333       0.03333333       0.16666667 </v>
   <v>       0.36666667       0.03333333       0.16666667 </v>
   <v>       0.40000000       0.03333333       0.16666667 </v>
   <v>       0.43333333       0.03333333       0.16666667 </v>
   <v>       0.46666667       0.03333333       0.16666667 </v>
   <v>       0.06666667       0.06666667       0.16666667 </v>
   <v>       0.10000000       0.06666667       0.16666667 </v>
   <v>       0.13333333       0.06666667       0.16666667 </v>
   <v>       0.16666667       0.06666667       0.16666667 </v>
   <v>       0.20000000       0.06666667       0.16666667 </v>
   <v>       0.23333333       0.06666667       0.16666667 </v>
   <v>       0.26666667       0.06666667       0.16666667 </v>
   <v>       0.30000000       0.06666667       0.16666667 </v>
   <v>       0.33333333       0.06666667       0.16666667 </v>
   <v>       0.36666667       0.06666667       0.16666667 </v>
   <v>       0.40000000       0.06666667       0.16666667 </v>
   <v>       0.43333333       0.06666667       0.16666667 </v>
   <v>       0.46666667       0.06666667       0.16666667 </v>
   <v>       0.10000000       0.10000000       0.16666667 </v>
   <v>       0.13333333       0.10000000       0.16666667 </v>
   <v>       0.16666667       0.10000000       0.16666667 </v>
   <v>       0.20000000       0.10000000       0.16666667 </v>
   <v>       0.23333333       0.10000000       0.16666667 </v>
   <v>       0.26666667       0.10000000       0.16666667 </v>
   <v>       0.30000000       0.10000000       0.16666667 </v>
   <v>       0.33333333       0.10000000       0.16666667 </v>
   <v>       0.36666667       0.10000000       0.16666667 </v>
   <v>       0.40000000       0.10000000       0.16666667 </v>
   <v>       0.43333333       0.10000000       0.16666667 </v>
   <v>       0.13333333       0.13333333       0.16666667 </v>
   <v>       0.16666667       0.13333333       0.16666667 </v>
   <v>       0.20000000       0.13333333       0.16666667 </v>
   <v>       0.23333333       0.13333333       0.16666667 </v>
   <v>       0.26666667       0.13333333       0.16666667 </v>
   <v>       0.30000000       0.13333333       0.16666667 </v>
   <v>       0.33333333       0.13333333       0.16666667 </v>
   <v>       0.36666667       0.13333333       0.16666667 </v>
   <v>       0.40000000       0.13333333       0.16666667 </v>
   <v>       0.43333333       0.13333333       0.16666667 </v>
   <v>       0.16666667       0.16666667       0.16666667 </v>
   <v>       0.20000000       0.16666667       0.16666667 </v>
   <v>       0.23333333       0.16666667       0.16666667 </v>
   <v>       0.26666667       0.16666667       0.16666667 </v>
   <v>       0.30000000       0.16666667       0.16666667 </v>
   <v>       0.33333333       0.16666667       0.16666667 </v>
   <v>       0.36666667       0.16666667       0.16666667 </v>
   <v>       0.40000000       0.16666667       0.16666667 </v>
   <v>       0.20000000       0.20000000       0.16666667 </v>
   <v>       0.23333333       0.20000000       0.16666667 </v>
   <v>       0.26666667       0.20000000       0.16666667 </v>
   <v>       0.30000000       0.20000000       0.16666667 </v>
   <v>       0.33333333       0.20000000       0.16666667 </v>
   <v>       0.36666667       0.20000000       0.16666667 </v>
   <v>       0.40000000       0.20000000       0.16666667 </v>
   <v>       0.23333333       0.23333333       0.16666667 </v>
   <v>       0.26666667       0.23333333       0.16666667 </v>
   <v>       0.30000000       0.23333333       0.16666667 </v>
   <v>       0.33333333       0.23333333       0.16666667 </v>
   <v>       0.36666667       0.23333333       0.16666667 </v>
   <v>       0.26666667       0.26666667       0.16666667 </v>
   <v>       0.30000000       0.26666667       0.16666667 </v>
   <v>       0.33333333       0.26666667       0.16666667 </v>
   <v>       0.36666667       0.26666667       0.16666667 </v>
   <v>       0.30000000       0.30000000       0.16666667 </v>
   <v>       0.33333333       0.30000000       0.16666667 </v>
   <v>       0.33333333       0.33333333       0.16666667 </v>
   <v>       0.00000000       0.00000000       0.20000000 </v>
   <v>       0.03333333       0.00000000       0.20000000 </v>
   <v>       0.06666667       0.00000000       0.20000000 </v>
   <v>       0.10000000       0.00000000       0.20000000 </v>
   <v>       0.13333333       0.00000000       0.20000000 </v>
   <v>       0.16666667       0.00000000       0.20000000 </v>
   <v>       0.20000000       0.00000000       0.20000000 </v>
   <v>       0.23333333       0.00000000       0.20000000 </v>
   <v>       0.26666667       0.00000000       0.20000000 </v>
   <v>       0.30000000       0.00000000       0.20000000 </v>
   <v>       0.33333333       0.00000000       0.20000000 </v>
   <v>       0.36666667       0.00000000       0.20000000 </v>
   <v>       0.40000000       0.00000000       0.20000000 </v>
   <v>       0.43333333       0.00000000       0.20000000 </v>
   <v>       0.46666667       0.00000000       0.20000000 </v>
   <v>       0.50000000       0.00000000       0.20000000 </v>
   <v>       0.03333333       0.03333333       0.20000000 </v>
   <v>       0.06666667       0.03333333       0.20000000 </v>
   <v>       0.10000000       0.03333333       0.20000000 </v>
   <v>       0.13333333       0.03333333       0.20000000 </v>
   <v>       0.16666667       0.03333333       0.20000000 </v>
   <v>       0.20000000       0.03333333       0.20000000 </v>
   <v>       0.23333333       0.03333333       0.20000000 </v>
   <v>       0.26666667       0.03333333       0.20000000 </v>
   <v>       0.30000000       0.03333333       0.20000000 </v>
   <v>       0.33333333       0.03333333       0.20000000 </v>
   <v>       0.36666667       0.03333333       0.20000000 </v>
   <v>       0.40000000       0.03333333       0.20000000 </v>
   <v>       0.43333333       0.03333333       0.20000000 </v>
   <v>       0.46666667       0.03333333       0.20000000 </v>
   <v>       0.06666667       0.06666667       0.20000000 </v>
   <v>       0.10000000       0.06666667       0.20000000 </v>
   <v>       0.13333333       0.06666667       0.20000000 </v>
   <v>       0.16666667       0.06666667       0.20000000 </v>
   <v>       0.20000000       0.06666667       0.20000000 </v>
   <v>       0.23333333       0.06666667       0.20000000 </v>
   <v>       0.26666667       0.06666667       0.20000000 </v>
   <v>       0.30000000       0.06666667       0.20000000 </v>
   <v>       0.33333333       0.06666667       0.20000000 </v>
   <v>       0.36666667       0.06666667       0.20000000 </v>
   <v>       0.40000000       0.06666667       0.20000000 </v>
   <v>       0.43333333       0.06666667       0.20000000 </v>
   <v>       0.46666667       0.06666667       0.20000000 </v>
   <v>       0.10000000       0.10000000       0.20000000 </v>
   <v>       0.13333333       0.10000000       0.20000000 </v>
   <v>       0.16666667       0.10000000       0.20000000 </v>
   <v>       0.20000000       0.10000000       0.20000000 </v>
   <v>       0.23333333       0.10000000       0.20000000 </v>
   <v>       0.26666667       0.10000000       0.20000000 </v>
   <v>       0.30000000       0.10000000       0.20000000 </v>
   <v>       0.33333333       0.10000000       0.20000000 </v>
   <v>       0.36666667       0.10000000       0.20000000 </v>
   <v>       0.40000000       0.10000000       0.20000000 </v>
   <v>       0.43333333       0.10000000       0.20000000 </v>
   <v>       0.13333333       0.13333333       0.20000000 </v>
   <v>       0.16666667       0.13333333       0.20000000 </v>
   <v>       0.20000000       0.13333333       0.20000000 </v>
   <v>       0.23333333       0.13333333       0.20000000 </v>
   <v>       0.26666667       0.13333333       0.20000000 </v>
   <v>       0.30000000       0.13333333       0.20000000 </v>
   <v>       0.33333333       0.13333333       0.20000000 </v>
   <v>       0.36666667       0.13333333       0.20000000 </v>
   <v>       0.40000000       0.13333333       0.20000000 </v>
   <v>       0.43333333       0.13333333       0.20000000 </v>
   <v>       0.16666667       0.16666667       0.20000000 </v>
   <v>       0.20000000       0.16666667       0.20000000 </v>
   <v>       0.23333333       0.16666667       0.20000000 </v>
   <v>       0.26666667       0.16666667       0.20000000 </v>
   <v>       0.30000000       0.16666667       0.20000000 </v>
   <v>       0.33333333       0.16666667       0.20000000 </v>
   <v>       0.36666667       0.16666667       0.20000000 </v>
   <v>       0.40000000       0.16666667       0.20000000 </v>
   <v>       0.20000000       0.20000000       0.20000000 </v>
   <v>       0.23333333       0.20000000       0.20000000 </v>
   <v>       0.26666667       0.20000000       0.20000000 </v>
   <v>       0.30000000       0.20000000       0.20000000 </v>
   <v>       0.33333333       0.20000000       0.20000000 </v>
   <v>       0.36666667       0.20000000       0.20000000 </v>
   <v>       0.40000000       0.20000000       0.20000000 </v>
   <v>       0.23333333       0.23333333       0.20000000 </v>
   <v>       0.26666667       0.23333333       0.20000000 </v>
   <v>       0.30000000       0.23333333       0.20000000 </v>
   <v>       0.33333333       0.23333333       0.20000000 </v>
   <v>       0.36666667       0.23333333       0.20000000 </v>
   <v>       0.26666667       0.26666667       0.20000000 </v>
   <v>       0.30000000       0.26666667       0.20000000 </v>
   <v>       0.33333333       0.26666667       0.20000000 </v>
   <v>       0.36666667       0.26666667       0.20000000 </v>
   <v>       0.30000000       0.30000000       0.20000000 </v>
   <v>       0.33333333       0.30000000       0.20000000 </v>
   <v>       0.33333333       0.33333333       0.20000000 </v>
   <v>       0.00000000       0.00000000       0.23333333 </v>
   <v>       0.03333333       0.00000000       0.23333333 </v>
   <v>       0.06666667       0.00000000       0.23333333 </v>
   <v>       0.10000000       0.00000000       0.23333333 </v>
   <v>       0.13333333       0.00000000       0.23333333 </v>
   <v>       0.16666667       0.00000000       0.23333333 </v>
   <v>       0.20000000       0.00000000       0.23333333 </v>
   <v>       0.23333333       0.00000000       0.23333333 </v>
   <v>       0.26666667       0.00000000       0.23333333 </v>
   <v>       0.30000000       0.00000000       0.23333333 </v>
   <v>       0.33333333       0.00000000       0.23333333 </v>
   <v>       0.36666667       0.00000000       0.23333333 </v>
   <v>       0.40000000       0.00000000       0.23333333 </v>
   <v>       0.43333333       0.00000000       0.23333333 </v>
   <v>       0.46666667       0.00000000       0.23333333 </v>
   <v>       0.50000000       0.00000000       0.23333333 </v>
   <v>       0.03333333       0.03333333       0.23333333 </v>
   <v>       0.06666667       0.03333333       0.23333333 </v>
   <v>       0.10000000       0.03333333       0.23333333 </v>
   <v>       0.13333333       0.03333333       0.23333333 </v>
   <v>       0.16666667       0.03333333       0.23333333 </v>
   <v>       0.20000000       0.03333333       0.23333333 </v>
   <v>       0.23333333       0.03333333       0.23333333 </v>
   <v>       0.26666667       0.03333333       0.23333333 </v>
   <v>       0.30000000       0.03333333       0.23333333 </v>
   <v>       0.33333333       0.03333333       0.23333333 </v>
   <v>       0.36666667       0.03333333       0.23333333 </v>
   <v>       0.40000000       0.03333333       0.23333333 </v>
   <v>       0.43333333       0.03333333       0.23333333 </v>
   <v>       0.46666667       0.03333333       0.23333333 </v>
   <v>       0.06666667       0.06666667       0.23333333 </v>
   <v>       0.10000000       0.06666667       0.23333333 </v>
   <v>       0.13333333       0.06666667       0.23333333 </v>
   <v>       0.16666667       0.06666667       0.23333333 </v>
   <v>       0.20000000       0.06666667       0.23333333 </v>
   <v>       0.23333333       0.06666667       0.23333333 </v>
   <v>       0.26666667       0.06666667       0.23333333 </v>
   <v>       0.30000000       0.06666667       0.23333333 </v>
   <v>       0.33333333       0.06666667       0.23333333 </v>
   <v>       0.36666667       0.06666667       0.23333333 </v>
   <v>       0.40000000       0.06666667       0.23333333 </v>
   <v>       0.43333333       0.06666667       0.23333333 </v>
   <v>       0.46666667       0.06666667       0.23333333 </v>
   <v>       0.10000000       0.10000000       0.23333333 </v>
   <v>       0.13333333       0.10000000       0.23333333 </v>
   <v>       0.16666667       0.10000000       0.23333333 </v>
   <v>       0.20000000       0.10000000       0.23333333 </v>
   <v>       0.23333333       0.10000000       0.23333333 </v>
   <v>       0.26666667       0.10000000       0.23333333 </v>
   <v>       0.30000000       0.10000000       0.23333333 </v>
   <v>       0.33333333       0.10000000       0.23333333 </v>
   <v>       0.36666667       0.10000000       0.23333333 </v>
   <v>       0.40000000       0.10000000       0.23333333 </v>
   <v>       0.43333333       0.10000000       0.23333333 </v>
   <v>       0.13333333       0.13333333       0.23333333 </v>
   <v>       0.16666667       0.13333333       0.23333333 </v>
   <v>       0.20000000       0.13333333       0.23333333 </v>
   <v>       0.23333333       0.13333333       0.23333333 </v>
   <v>       0.26666667       0.13333333       0.23333333 </v>
   <v>       0.30000000       0.13333333       0.23333333 </v>
   <v>       0.33333333       0.13333333       0.23333333 </v>
   <v>       0.36666667       0.13333333       0.23333333 </v>
   <v>       0.40000000       0.13333333       0.23333333 </v>
   <v>       0.43333333       0.13333333       0.23333333 </v>
   <v>       0.16666667       0.16666667       0.23333333 </v>
   <v>       0.20000000       0.16666667       0.23333333 </v>
   <v>       0.23333333       0.16666667       0.23333333 </v>
   <v>       0.26666667       0.16666667       0.23333333 </v>
   <v>       0.30000000       0.16666667       0.23333333 </v>
   <v>       0.33333333       0.16666667       0.23333333 </v>
   <v>       0.36666667       0.16666667       0.23333333 </v>
   <v>       0.40000000       0.16666667       0.23333333 </v>
   <v>       0.20000000       0.20000000       0.23333333 </v>
   <v>       0.23333333       0.20000000       0.23333333 </v>
   <v>       0.26666667       0.20000000       0.23333333 </v>
   <v>       0.30000000       0.20000000       0.23333333 </v>
   <v>       0.33333333       0.20000000       0.23333333 </v>
   <v>       0.36666667       0.20000000       0.23333333 </v>
   <v>       0.40000000       0.20000000       0.23333333 </v>
   <v>       0.23333333       0.23333333       0.23333333 </v>
   <v>       0.26666667       0.23333333       0.23333333 </v>
   <v>       0.30000000       0.23333333       0.23333333 </v>
   <v>       0.33333333       0.23333333       0.23333333 </v>
   <v>       0.36666667       0.23333333       0.23333333 </v>
   <v>       0.26666667       0.26666667       0.23333333 </v>
   <v>       0.30000000       0.26666667       0.23333333 </v>
   <v>       0.33333333       0.26666667       0.23333333 </v>
   <v>       0.36666667       0.26666667       0.23333333 </v>
   <v>       0.30000000       0.30000000       0.23333333 </v>
   <v>       0.33333333       0.30000000       0.23333333 </v>
   <v>       0.33333333       0.33333333       0.23333333 </v>
   <v>       0.00000000       0.00000000       0.26666667 </v>
   <v>       0.03333333       0.00000000       0.26666667 </v>
   <v>       0.06666667       0.00000000       0.26666667 </v>
   <v>       0.10000000       0.00000000       0.26666667 </v>
   <v>       0.13333333       0.00000000       0.26666667 </v>
   <v>       0.16666667       0.00000000       0.26666667 </v>
   <v>       0.20000000       0.00000000       0.26666667 </v>
   <v>       0.23333333       0.00000000       0.26666667 </v>
   <v>       0.26666667       0.00000000       0.26666667 </v>
   <v>       0.30000000       0.00000000       0.26666667 </v>
   <v>       0.33333333       0.00000000       0.26666667 </v>
   <v>       0.36666667       0.00000000       0.26666667 </v>
   <v>       0.40000000       0.00000000       0.26666667 </v>
   <v>       0.43333333       0.00000000       0.26666667 </v>
   <v>       0.46666667       0.00000000       0.26666667 </v>
   <v>       0.50000000       0.00000000       0.26666667 </v>
   <v>       0.03333333       0.03333333       0.26666667 </v>
   <v>       0.06666667       0.03333333       0.26666667 </v>
   <v>       0.10000000       0.03333333       0.26666667 </v>
   <v>       0.13333333       0.03333333       0.26666667 </v>
   <v>       0.16666667       0.03333333       0.26666667 </v>
   <v>       0.20000000       0.03333333       0.26666667 </v>
   <v>       0.23333333       0.03333333       0.26666667 </v>
   <v>       0.26666667       0.03333333       0.26666667 </v>
   <v>       0.30000000       0.03333333       0.26666667 </v>
   <v>       0.33333333       0.03333333       0.26666667 </v>
   <v>       0.36666667       0.03333333       0.26666667 </v>
   <v>       0.40000000       0.03333333       0.26666667 </v>
   <v>       0.43333333       0.03333333       0.26666667 </v>
   <v>       0.46666667       0.03333333       0.26666667 </v>
   <v>       0.06666667       0.06666667       0.26666667 </v>
   <v>       0.10000000       0.06666667       0.26666667 </v>
   <v>       0.13333333       0.06666667       0.26666667 </v>
   <v>       0.16666667       0.06666667       0.26666667 </v>
   <v>       0.20000000       0.06666667       0.26666667 </v>
   <v>       0.23333333       0.06666667       0.26666667 </v>
   <v>       0.26666667       0.06666667       0.26666667 </v>
   <v>       0.30000000       0.06666667       0.26666667 </v>
   <v>       0.33333333       0.06666667       0.26666667 </v>
   <v>       0.36666667       0.06666667       0.26666667 </v>
   <v>       0.40000000       0.06666667       0.26666667 </v>
   <v>       0.43333333       0.06666667       0.26666667 </v>
   <v>       0.46666667       0.06666667       0.26666667 </v>
   <v>       0.10000000       0.10000000       0.26666667 </v>
   <v>       0.13333333       0.10000000       0.26666667 </v>
   <v>       0.16666667       0.10000000       0.26666667 </v>
   <v>       0.20000000       0.10000000       0.26666667 </v>
   <v>       0.23333333       0.10000000       0.26666667 </v>
   <v>       0.26666667       0.10000000       0.26666667 </v>
   <v>       0.30000000       0.10000000       0.26666667 </v>
   <v>       0.33333333       0.10000000       0.26666667 </v>
   <v>       0.36666667       0.10000000       0.26666667 </v>
   <v>       0.40000000       0.10000000       0.26666667 </v>
   <v>       0.43333333       0.10000000       0.26666667 </v>
   <v>       0.13333333       0.13333333       0.26666667 </v>
   <v>       0.16666667       0.13333333       0.26666667 </v>
   <v>       0.20000000       0.13333333       0.26666667 </v>
   <v>       0.23333333       0.13333333       0.26666667 </v>
   <v>       0.26666667       0.13333333       0.26666667 </v>
   <v>       0.30000000       0.13333333       0.26666667 </v>
   <v>       0.33333333       0.13333333       0.26666667 </v>
   <v>       0.36666667       0.13333333       0.26666667 </v>
   <v>       0.40000000       0.13333333       0.26666667 </v>
   <v>       0.43333333       0.13333333       0.26666667 </v>
   <v>       0.16666667       0.16666667       0.26666667 </v>
   <v>       0.20000000       0.16666667       0.26666667 </v>
   <v>       0.23333333       0.16666667       0.26666667 </v>
   <v>       0.26666667       0.16666667       0.26666667 </v>
   <v>       0.30000000       0.16666667       0.26666667 </v>
   <v>       0.33333333       0.16666667       0.26666667 </v>
   <v>       0.36666667       0.16666667       0.26666667 </v>
   <v>       0.40000000       0.16666667       0.26666667 </v>
   <v>       0.20000000       0.20000000       0.26666667 </v>
   <v>       0.23333333       0.20000000       0.26666667 </v>
   <v>       0.26666667       0.20000000       0.26666667 </v>
   <v>       0.30000000       0.20000000       0.26666667 </v>
   <v>       0.33333333       0.20000000       0.26666667 </v>
   <v>       0.36666667       0.20000000       0.26666667 </v>
   <v>       0.40000000       0.20000000       0.26666667 </v>
   <v>       0.23333333       0.23333333       0.26666667 </v>
   <v>       0.26666667       0.23333333       0.26666667 </v>
   <v>       0.30000000       0.23333333       0.26666667 </v>
   <v>       0.33333333       0.23333333       0.26666667 </v>
   <v>       0.36666667       0.23333333       0.26666667 </v>
   <v>       0.26666667       0.26666667       0.26666667 </v>
   <v>       0.30000000       0.26666667       0.26666667 </v>
   <v>       0.33333333       0.26666667       0.26666667 </v>
   <v>       0.36666667       0.26666667       0.26666667 </v>
   <v>       0.30000000       0.30000000       0.26666667 </v>
   <v>       0.33333333       0.30000000       0.26666667 </v>
   <v>       0.33333333       0.33333333       0.26666667 </v>
   <v>       0.00000000       0.00000000       0.30000000 </v>
   <v>       0.03333333       0.00000000       0.30000000 </v>
   <v>       0.06666667       0.00000000       0.30000000 </v>
   <v>       0.10000000       0.00000000       0.30000000 </v>
   <v>       0.13333333       0.00000000       0.30000000 </v>
   <v>       0.16666667       0.00000000       0.30000000 </v>
   <v>       0.20000000       0.00000000       0.30000000 </v>
   <v>       0.23333333       0.00000000       0.30000000 </v>
   <v>       0.26666667       0.00000000       0.30000000 </v>
   <v>       0.30000000       0.00000000       0.30000000 </v>
   <v>       0.33333333       0.00000000       0.30000000 </v>
   <v>       0.36666667       0.00000000       0.30000000 </v>
   <v>       0.40000000       0.00000000       0.30000000 </v>
   <v>       0.43333333       0.00000000       0.30000000 </v>
   <v>       0.46666667       0.00000000       0.30000000 </v>
   <v>       0.50000000       0.00000000       0.30000000 </v>
   <v>       0.03333333       0.03333333       0.30000000 </v>
   <v>       0.06666667       0.03333333       0.30000000 </v>
   <v>       0.10000000       0.03333333       0.30000000 </v>
   <v>       0.13333333       0.03333333       0.30000000 </v>
   <v>       0.16666667       0.03333333       0.30000000 </v>
   <v>       0.20000000       0.03333333       0.30000000 </v>
   <v>       0.23333333       0.03333333       0.30000000 </v>
   <v>       0.26666667       0.03333333       0.30000000 </v>
   <v>       0.30000000       0.03333333       0.30000000 </v>
   <v>       0.33333333       0.03333333       0.30000000 </v>
   <v>       0.36666667       0.03333333       0.30000000 </v>
   <v>       0.40000000       0.03333333       0.30000000 </v>
   <v>       0.43333333       0.03333333       0.30000000 </v>
   <v>       0.46666667       0.03333333       0.30000000 </v>
   <v>       0.06666667       0.06666667       0.30000000 </v>
   <v>       0.10000000       0.06666667       0.30000000 </v>
   <v>       0.13333333       0.06666667       0.30000000 </v>
   <v>       0.16666667       0.06666667       0.30000000 </v>
   <v>       0.20000000       0.06666667       0.30000000 </v>
   <v>       0.23333333       0.06666667       0.30000000 </v>
   <v>       0.26666667       0.06666667       0.30000000 </v>
   <v>       0.30000000       0.06666667       0.30000000 </v>
   <v>       0.33333333       0.06666667       0.30000000 </v>
   <v>       0.36666667       0.06666667       0.30000000 </v>
   <v>       0.40000000       0.06666667       0.30000000 </v>
   <v>       0.43333333       0.06666667       0.30000000 </v>
   <v>       0.46666667       0.06666667       0.30000000 </v>
   <v>       0.10000000       0.10000000       0.30000000 </v>
   <v>       0.13333333       0.10000000       0.30000000 </v>
   <v>       0.16666667       0.10000000       0.30000000 </v>
   <v>       0.20000000       0.10000000       0.30000000 </v>
   <v>       0.23333333       0.10000000       0.30000000 </v>
   <v>       0.26666667       0.10000000       0.30000000 </v>
   <v>       0.30000000       0.10000000       0.30000000 </v>
   <v>       0.33333333       0.10000000       0.30000000 </v>
   <v>       0.36666667       0.10000000       0.30000000 </v>
   <v>       0.40000000       0.10000000       0.30000000 </v>
   <v>       0.43333333       0.10000000       0.30000000 </v>
   <v>       0.13333333       0.13333333       0.30000000 </v>
   <v>       0.16666667       0.13333333       0.30000000 </v>
   <v>       0.20000000       0.13333333       0.30000000 </v>
   <v>       0.23333333       0.13333333       0.30000000 </v>
   <v>       0.26666667       0.13333333       0.30000000 </v>
   <v>       0.30000000       0.13333333       0.30000000 </v>
   <v>       0.33333333       0.13333333       0.30000000 </v>
   <v>       0.36666667       0.13333333       0.30000000 </v>
   <v>       0.40000000       0.13333333       0.30000000 </v>
   <v>       0.43333333       0.13333333       0.30000000 </v>
   <v>       0.16666667       0.16666667       0.30000000 </v>
   <v>       0.20000000       0.16666667       0.30000000 </v>
   <v>       0.23333333       0.16666667       0.30000000 </v>
   <v>       0.26666667       0.16666667       0.30000000 </v>
   <v>       0.30000000       0.16666667       0.30000000 </v>
   <v>       0.33333333       0.16666667       0.30000000 </v>
   <v>       0.36666667       0.16666667       0.30000000 </v>
   <v>       0.40000000       0.16666667       0.30000000 </v>
   <v>       0.20000000       0.20000000       0.30000000 </v>
   <v>       0.23333333       0.20000000       0.30000000 </v>
   <v>       0.26666667       0.20000000       0.30000000 </v>
   <v>       0.30000000       0.20000000       0.30000000 </v>
   <v>       0.33333333       0.20000000       0.30000000 </v>
   <v>       0.36666667       0.20000000       0.30000000 </v>
   <v>       0.40000000       0.20000000       0.30000000 </v>
   <v>       0.23333333       0.23333333       0.30000000 </v>
   <v>       0.26666667       0.23333333       0.30000000 </v>
   <v>       0.30000000       0.23333333       0.30000000 </v>
   <v>       0.33333333       0.23333333       0.30000000 </v>
   <v>       0.36666667       0.23333333       0.30000000 </v>
   <v>       0.26666667       0.26666667       0.30000000 </v>
   <v>       0.30000000       0.26666667       0.30000000 </v>
   <v>       0.33333333       0.26666667       0.30000000 </v>
   <v>       0.36666667       0.26666667       0.30000000 </v>
   <v>       0.30000000       0.30000000       0.30000000 </v>
   <v>       0.33333333       0.30000000       0.30000000 </v>
   <v>       0.33333333       0.33333333       0.30000000 </v>
   <v>       0.00000000       0.00000000       0.33333333 </v>
   <v>       0.03333333       0.00000000       0.33333333 </v>
   <v>       0.06666667       0.00000000       0.33333333 </v>
   <v>       0.10000000       0.00000000       0.33333333 </v>
   <v>       0.13333333       0.00000000       0.33333333 </v>
   <v>       0.16666667       0.00000000       0.33333333 </v>
   <v>       0.20000000       0.00000000       0.33333333 </v>
   <v>       0.23333333       0.00000000       0.33333333 </v>
   <v>       0.26666667       0.00000000       0.33333333 </v>
   <v>       0.30000000       0.00000000       0.33333333 </v>
   <v>       0.33333333       0.00000000       0.33333333 </v>
   <v>       0.36666667       0.00000000       0.33333333 </v>
   <v>       0.40000000       0.00000000       0.33333333 </v>
   <v>       0.43333333       0.00000000       0.33333333 </v>
   <v>       0.46666667       0.00000000       0.33333333 </v>
   <v>       0.50000000       0.00000000       0.33333333 </v>
   <v>       0.03333333       0.03333333       0.33333333 </v>
   <v>       0.06666667       0.03333333       0.33333333 </v>
   <v>       0.10000000       0.03333333       0.33333333 </v>
   <v>       0.13333333       0.03333333       0.33333333 </v>
   <v>       0.16666667       0.03333333       0.33333333 </v>
   <v>       0.20000000       0.03333333       0.33333333 </v>
   <v>       0.23333333       0.03333333       0.33333333 </v>
   <v>       0.26666667       0.03333333       0.33333333 </v>
   <v>       0.30000000       0.03333333       0.33333333 </v>
   <v>       0.33333333       0.03333333       0.33333333 </v>
   <v>       0.36666667       0.03333333       0.33333333 </v>
   <v>       0.40000000       0.03333333       0.33333333 </v>
   <v>       0.43333333       0.03333333       0.33333333 </v>
   <v>       0.46666667       0.03333333       0.33333333 </v>
   <v>       0.06666667       0.06666667       0.33333333 </v>
   <v>       0.10000000       0.06666667       0.33333333 </v>
   <v>       0.13333333       0.06666667       0.33333333 </v>
   <v>       0.16666667       0.06666667       0.33333333 </v>
   <v>       0.20000000       0.06666667       0.33333333 </v>
   <v>       0.23333333       0.06666667       0.33333333 </v>
   <v>       0.26666667       0.06666667       0.33333333 </v>
   <v>       0.30000000       0.06666667       0.33333333 </v>
   <v>       0.33333333       0.06666667       0.33333333 </v>
   <v>       0.36666667       0.06666667       0.33333333 </v>
   <v>       0.40000000       0.06666667       0.33333333 </v>
   <v>       0.43333333       0.06666667       0.33333333 </v>
   <v>       0.46666667       0.06666667       0.33333333 </v>
   <v>       0.10000000       0.10000000       0.33333333 </v>
   <v>       0.13333333       0.10000000       0.33333333 </v>
   <v>       0.16666667       0.10000000       0.33333333 </v>
   <v>       0.20000000       0.10000000       0.33333333 </v>
   <v>       0.23333333       0.10000000       0.33333333 </v>
   <v>       0.26666667       0.10000000       0.33333333 </v>
   <v>       0.30000000       0.10000000       0.33333333 </v>
   <v>       0.33333333       0.10000000       0.33333333 </v>
   <v>       0.36666667       0.10000000       0.33333333 </v>
   <v>       0.40000000       0.10000000       0.33333333 </v>
   <v>       0.43333333       0.10000000       0.33333333 </v>
   <v>       0.13333333       0.13333333       0.33333333 </v>
   <v>       0.16666667       0.13333333       0.33333333 </v>
   <v>       0.20000000       0.13333333       0.33333333 </v>
   <v>       0.23333333       0.13333333       0.33333333 </v>
   <v>       0.26666667       0.13333333       0.33333333 </v>
   <v>       0.30000000       0.13333333       0.33333333 </v>
   <v>       0.33333333       0.13333333       0.33333333 </v>
   <v>       0.36666667       0.13333333       0.33333333 </v>
   <v>       0.40000000       0.13333333       0.33333333 </v>
   <v>       0.43333333       0.13333333       0.33333333 </v>
   <v>       0.16666667       0.16666667       0.33333333 </v>
   <v>       0.20000000       0.16666667       0.33333333 </v>
   <v>       0.23333333       0.16666667       0.33333333 </v>
   <v>       0.26666667       0.16666667       0.33333333 </v>
   <v>       0.30000000       0.16666667       0.33333333 </v>
   <v>       0.33333333       0.16666667       0.33333333 </v>
   <v>       0.36666667       0.16666667       0.33333333 </v>
   <v>       0.40000000       0.16666667       0.33333333 </v>
   <v>       0.20000000       0.20000000       0.33333333 </v>
   <v>       0.23333333       0.20000000       0.33333333 </v>
   <v>       0.26666667       0.20000000       0.33333333 </v>
   <v>       0.30000000       0.20000000       0.33333333 </v>
   <v>       0.33333333       0.20000000       0.33333333 </v>
   <v>       0.36666667       0.20000000       0.33333333 </v>
   <v>       0.40000000       0.20000000       0.33333333 </v>
   <v>       0.23333333       0.23333333       0.33333333 </v>
   <v>       0.26666667       0.23333333       0.33333333 </v>
   <v>       0.30000000       0.23333333       0.33333333 </v>
   <v>       0.33333333       0.23333333       0.33333333 </v>
   <v>       0.36666667       0.23333333       0.33333333 </v>
   <v>       0.26666667       0.26666667       0.33333333 </v>
   <v>       0.30000000       0.26666667       0.33333333 </v>
   <v>       0.33333333       0.26666667       0.33333333 </v>
   <v>       0.36666667       0.26666667       0.33333333 </v>
   <v>       0.30000000       0.30000000       0.33333333 </v>
   <v>       0.33333333       0.30000000       0.33333333 </v>
   <v>       0.33333333       0.33333333       0.33333333 </v>
   <v>       0.00000000       0.00000000       0.36666667 </v>
   <v>       0.03333333       0.00000000       0.36666667 </v>
   <v>       0.06666667       0.00000000       0.36666667 </v>
   <v>       0.10000000       0.00000000       0.36666667 </v>
   <v>       0.13333333       0.00000000       0.36666667 </v>
   <v>       0.16666667       0.00000000       0.36666667 </v>
   <v>       0.20000000       0.00000000       0.36666667 </v>
   <v>       0.23333333       0.00000000       0.36666667 </v>
   <v>       0.26666667       0.00000000       0.36666667 </v>
   <v>       0.30000000       0.00000000       0.36666667 </v>
   <v>       0.33333333       0.00000000       0.36666667 </v>
   <v>       0.36666667       0.00000000       0.36666667 </v>
   <v>       0.40000000       0.00000000       0.36666667 </v>
   <v>       0.43333333       0.00000000       0.36666667 </v>
   <v>       0.46666667       0.00000000       0.36666667 </v>
   <v>       0.50000000       0.00000000       0.36666667 </v>
   <v>       0.03333333       0.03333333       0.36666667 </v>
   <v>       0.06666667       0.03333333       0.36666667 </v>
   <v>       0.10000000       0.03333333       0.36666667 </v>
   <v>       0.13333333       0.03333333       0.36666667 </v>
   <v>       0.16666667       0.03333333       0.36666667 </v>
   <v>       0.20000000       0.03333333       0.36666667 </v>
   <v>       0.23333333       0.03333333       0.36666667 </v>
   <v>       0.26666667       0.03333333       0.36666667 </v>
   <v>       0.30000000       0.03333333       0.36666667 </v>
   <v>       0.33333333       0.03333333       0.36666667 </v>
   <v>       0.36666667       0.03333333       0.36666667 </v>
   <v>       0.40000000       0.03333333       0.36666667 </v>
   <v>       0.43333333       0.03333333       0.36666667 </v>
   <v>       0.46666667       0.03333333       0.36666667 </v>
   <v>       0.06666667       0.06666667       0.36666667 </v>
   <v>       0.10000000       0.06666667       0.36666667 </v>
   <v>       0.13333333       0.06666667       0.36666667 </v>
   <v>       0.16666667       0.06666667       0.36666667 </v>
   <v>       0.20000000       0.06666667       0.36666667 </v>
   <v>       0.23333333       0.06666667       0.36666667 </v>
   <v>       0.26666667       0.06666667       0.36666667 </v>
   <v>       0.30000000       0.06666667       0.36666667 </v>
   <v>       0.33333333       0.06666667       0.36666667 </v>
   <v>       0.36666667       0.06666667       0.36666667 </v>
   <v>       0.40000000       0.06666667       0.36666667 </v>
   <v>       0.43333333       0.06666667       0.36666667 </v>
   <v>       0.46666667       0.06666667       0.36666667 </v>
   <v>       0.10000000       0.10000000       0.36666667 </v>
   <v>       0.13333333       0.10000000       0.36666667 </v>
   <v>       0.16666667       0.10000000       0.36666667 </v>
   <v>       0.20000000       0.10000000       0.36666667 </v>
   <v>       0.23333333       0.10000000       0.36666667 </v>
   <v>       0.26666667       0.10000000       0.36666667 </v>
   <v>       0.30000000       0.10000000       0.36666667 </v>
   <v>       0.33333333       0.10000000       0.36666667 </v>
   <v>       0.36666667       0.10000000       0.36666667 </v>
   <v>       0.40000000       0.10000000       0.36666667 </v>
   <v>       0.43333333       0.10000000       0.36666667 </v>
   <v>       0.13333333       0.13333333       0.36666667 </v>
   <v>       0.16666667       0.13333333       0.36666667 </v>
   <v>       0.20000000       0.13333333       0.36666667 </v>
   <v>       0.23333333       0.13333333       0.36666667 </v>
   <v>       0.26666667       0.13333333       0.36666667 </v>
   <v>       0.30000000       0.13333333       0.36666667 </v>
   <v>       0.33333333       0.13333333       0.36666667 </v>
   <v>       0.36666667       0.13333333       0.36666667 </v>
   <v>       0.40000000       0.13333333       0.36666667 </v>
   <v>       0.43333333       0.13333333       0.36666667 </v>
   <v>       0.16666667       0.16666667       0.36666667 </v>
   <v>       0.20000000       0.16666667       0.36666667 </v>
   <v>       0.23333333       0.16666667       0.36666667 </v>
   <v>       0.26666667       0.16666667       0.36666667 </v>
   <v>       0.30000000       0.16666667       0.36666667 </v>
   <v>       0.33333333       0.16666667       0.36666667 </v>
   <v>       0.36666667       0.16666667       0.36666667 </v>
   <v>       0.40000000       0.16666667       0.36666667 </v>
   <v>       0.20000000       0.20000000       0.36666667 </v>
   <v>       0.23333333       0.20000000       0.36666667 </v>
   <v>       0.26666667       0.20000000       0.36666667 </v>
   <v>       0.30000000       0.20000000       0.36666667 </v>
   <v>       0.33333333       0.20000000       0.36666667 </v>
   <v>       0.36666667       0.20000000       0.36666667 </v>
   <v>       0.40000000       0.20000000       0.36666667 </v>
   <v>       0.23333333       0.23333333       0.36666667 </v>
   <v>       0.26666667       0.23333333       0.36666667 </v>
   <v>       0.30000000       0.23333333       0.36666667 </v>
   <v>       0.33333333       0.23333333       0.36666667 </v>
   <v>       0.36666667       0.23333333       0.36666667 </v>
   <v>       0.26666667       0.26666667       0.36666667 </v>
   <v>       0.30000000       0.26666667       0.36666667 </v>
   <v>       0.33333333       0.26666667       0.36666667 </v>
   <v>       0.36666667       0.26666667       0.36666667 </v>
   <v>       0.30000000       0.30000000       0.36666667 </v>
   <v>       0.33333333       0.30000000       0.36666667 </v>
   <v>       0.33333333       0.33333333       0.36666667 </v>
   <v>       0.00000000       0.00000000       0.40000000 </v>
   <v>       0.03333333       0.00000000       0.40000000 </v>
   <v>       0.06666667       0.00000000       0.40000000 </v>
   <v>       0.10000000       0.00000000       0.40000000 </v>
   <v>       0.13333333       0.00000000       0.40000000 </v>
   <v>       0.16666667       0.00000000       0.40000000 </v>
   <v>       0.20000000       0.00000000       0.40000000 </v>
   <v>       0.23333333       0.00000000       0.40000000 </v>
   <v>       0.26666667       0.00000000       0.40000000 </v>
   <v>       0.30000000       0.00000000       0.40000000 </v>
   <v>       0.33333333       0.00000000       0.40000000 </v>
   <v>       0.36666667       0.00000000       0.40000000 </v>
   <v>       0.40000000       0.00000000       0.40000000 </v>
   <v>       0.43333333       0.00000000       0.40000000 </v>
   <v>       0.46666667       0.00000000       0.40000000 </v>
   <v>       0.50000000       0.00000000       0.40000000 </v>
   <v>       0.03333333       0.03333333       0.40000000 </v>
   <v>       0.06666667       0.03333333       0.40000000 </v>
   <v>       0.10000000       0.03333333       0.40000000 </v>
   <v>       0.13333333       0.03333333       0.40000000 </v>
   <v>       0.16666667       0.03333333       0.40000000 </v>
   <v>       0.20000000       0.03333333       0.40000000 </v>
   <v>       0.23333333       0.03333333       0.40000000 </v>
   <v>       0.26666667       0.03333333       0.40000000 </v>
   <v>       0.30000000       0.03333333       0.40000000 </v>
   <v>       0.33333333       0.03333333       0.40000000 </v>
   <v>       0.36666667       0.03333333       0.40000000 </v>
   <v>       0.40000000       0.03333333       0.40000000 </v>
   <v>       0.43333333       0.03333333       0.40000000 </v>
   <v>       0.46666667       0.03333333       0.40000000 </v>
   <v>       0.06666667       0.06666667       0.40000000 </v>
   <v>       0.10000000       0.06666667       0.40000000 </v>
   <v>       0.13333333       0.06666667       0.40000000 </v>
   <v>       0.16666667       0.06666667       0.40000000 </v>
   <v>       0.20000000       0.06666667       0.40000000 </v>
   <v>       0.23333333       0.06666667       0.40000000 </v>
   <v>       0.26666667       0.06666667       0.40000000 </v>
   <v>       0.30000000       0.06666667       0.40000000 </v>
   <v>       0.33333333       0.06666667       0.40000000 </v>
   <v>       0.36666667       0.06666667       0.40000000 </v>
   <v>       0.40000000       0.06666667       0.40000000 </v>
   <v>       0.43333333       0.06666667       0.40000000 </v>
   <v>       0.46666667       0.06666667       0.40000000 </v>
   <v>       0.10000000       0.10000000       0.40000000 </v>
   <v>       0.13333333       0.10000000       0.40000000 </v>
   <v>       0.16666667       0.10000000       0.40000000 </v>
   <v>       0.20000000       0.10000000       0.40000000 </v>
   <v>       0.23333333       0.10000000       0.40000000 </v>
   <v>       0.26666667       0.10000000       0.40000000 </v>
   <v>       0.30000000       0.10000000       0.40000000 </v>
   <v>       0.33333333       0.10000000       0.40000000 </v>
   <v>       0.36666667       0.10000000       0.40000000 </v>
   <v>       0.40000000       0.10000000       0.40000000 </v>
   <v>       0.43333333       0.10000000       0.40000000 </v>
   <v>       0.13333333       0.13333333       0.40000000 </v>
   <v>       0.16666667       0.13333333       0.40000000 </v>
   <v>       0.20000000       0.13333333       0.40000000 </v>
   <v>       0.23333333       0.13333333       0.40000000 </v>
   <v>       0.26666667       0.13333333       0.40000000 </v>
   <v>       0.30000000       0.13333333       0.40000000 </v>
   <v>       0.33333333       0.13333333       0.40000000 </v>
   <v>       0.36666667       0.13333333       0.40000000 </v>
   <v>       0.40000000       0.13333333       0.40000000 </v>
   <v>       0.43333333       0.13333333       0.40000000 </v>
   <v>       0.16666667       0.16666667       0.40000000 </v>
   <v>       0.20000000       0.16666667       0.40000000 </v>
   <v>       0.23333333       0.16666667       0.40000000 </v>
   <v>       0.26666667       0.16666667       0.40000000 </v>
   <v>       0.30000000       0.16666667       0.40000000 </v>
   <v>       0.33333333       0.16666667       0.40000000 </v>
   <v>       0.36666667       0.16666667       0.40000000 </v>
   <v>       0.40000000       0.16666667       0.40000000 </v>
   <v>       0.20000000       0.20000000       0.40000000 </v>
   <v>       0.23333333       0.20000000       0.40000000 </v>
   <v>       0.26666667       0.20000000       0.40000000 </v>
   <v>       0.30000000       0.20000000       0.40000000 </v>
   <v>       0.33333333       0.20000000       0.40000000 </v>
   <v>       0.36666667       0.20000000       0.40000000 </v>
   <v>       0.40000000       0.20000000       0.40000000 </v>
   <v>       0.23333333       0.23333333       0.40000000 </v>
   <v>       0.26666667       0.23333333       0.40000000 </v>
   <v>       0.30000000       0.23333333       0.40000000 </v>
   <v>       0.33333333       0.23333333       0.40000000 </v>
   <v>       0.36666667       0.23333333       0.40000000 </v>
   <v>       0.26666667       0.26666667       0.40000000 </v>
   <v>       0.30000000       0.26666667       0.40000000 </v>
   <v>       0.33333333       0.26666667       0.40000000 </v>
   <v>       0.36666667       0.26666667       0.40000000 </v>
   <v>       0.30000000       0.30000000       0.40000000 </v>
   <v>       0.33333333       0.30000000       0.40000000 </v>
   <v>       0.33333333       0.33333333       0.40000000 </v>
   <v>       0.00000000       0.00000000       0.43333333 </v>
   <v>       0.03333333       0.00000000       0.43333333 </v>
   <v>       0.06666667       0.00000000       0.43333333 </v>
   <v>       0.10000000       0.00000000       0.43333333 </v>
   <v>       0.13333333       0.00000000       0.43333333 </v>
   <v>       0.16666667       0.00000000       0.43333333 </v>
   <v>       0.20000000       0.00000000       0.43333333 </v>
   <v>       0.23333333       0.00000000       0.43333333 </v>
   <v>       0.26666667       0.00000000       0.43333333 </v>
   <v>       0.30000000       0.00000000       0.43333333 </v>
   <v>       0.33333333       0.00000000       0.43333333 </v>
   <v>       0.36666667       0.00000000       0.43333333 </v>
   <v>       0.40000000       0.00000000       0.43333333 </v>
   <v>       0.43333333       0.00000000       0.43333333 </v>
   <v>       0.46666667       0.00000000       0.43333333 </v>
   <v>       0.50000000       0.00000000       0.43333333 </v>
   <v>       0.03333333       0.03333333       0.43333333 </v>
   <v>       0.06666667       0.03333333       0.43333333 </v>
   <v>       0.10000000       0.03333333       0.43333333 </v>
   <v>       0.13333333       0.03333333       0.43333333 </v>
   <v>       0.16666667       0.03333333       0.43333333 </v>
   <v>       0.20000000       0.03333333       0.43333333 </v>
   <v>       0.23333333       0.03333333       0.43333333 </v>
   <v>       0.26666667       0.03333333       0.43333333 </v>
   <v>       0.30000000       0.03333333       0.43333333 </v>
   <v>       0.33333333       0.03333333       0.43333333 </v>
   <v>       0.36666667       0.03333333       0.43333333 </v>
   <v>       0.40000000       0.03333333       0.43333333 </v>
   <v>       0.43333333       0.03333333       0.43333333 </v>
   <v>       0.46666667       0.03333333       0.43333333 </v>
   <v>       0.06666667       0.06666667       0.43333333 </v>
   <v>       0.10000000       0.06666667       0.43333333 </v>
   <v>       0.13333333       0.06666667       0.43333333 </v>
   <v>       0.16666667       0.06666667       0.43333333 </v>
   <v>       0.20000000       0.06666667       0.43333333 </v>
   <v>       0.23333333       0.06666667       0.43333333 </v>
   <v>       0.26666667       0.06666667       0.43333333 </v>
   <v>       0.30000000       0.06666667       0.43333333 </v>
   <v>       0.33333333       0.06666667       0.43333333 </v>
   <v>       0.36666667       0.06666667       0.43333333 </v>
   <v>       0.40000000       0.06666667       0.43333333 </v>
   <v>       0.43333333       0.06666667       0.43333333 </v>
   <v>       0.46666667       0.06666667       0.43333333 </v>
   <v>       0.10000000       0.10000000       0.43333333 </v>
   <v>       0.13333333       0.10000000       0.43333333 </v>
   <v>       0.16666667       0.10000000       0.43333333 </v>
[...]
       <r>    0.3907    1.0000 </r>
       <r>    1.3411    1.0000 </r>
       <r>    1.3411    1.0000 </r>
       <r>    3.2059    1.0000 </r>
       <r>    3.2059    1.0000 </r>
       <r>    5.1516    0.0000 </r>
       <r>    5.1516    0.0000 </r>
       <r>    6.4207    0.0000 </r>
       <r>    6.4208    0.0000 </r>
      </set>
      <set comment="kpoint 1453">
       <r>   -8.6457    1.0000 </r>
       <r>   -8.6457    1.0000 </r>
       <r>   -8.4801    1.0000 </r>
       <r>   -8.4801    1.0000 </r>
       <r>   -1.9129    1.0000 </r>
       <r>   -1.9129    1.0000 </r>
       <r>   -1.4278    1.0000 </r>
       <r>   -1.4278    1.0000 </r>
       <r>   -0.5131    1.0000 </r>
       <r>   -0.5131    1.0000 </r>
       <r>    0.0254    1.0000 </r>
       <r>    0.0254    1.0000 </r>
       <r>    0.4208    1.0000 </r>
       <r>    0.4208    1.0000 </r>
       <r>    1.3000    1.0000 </r>
       <r>    1.3000    1.0000 </r>
       <r>    3.2469    1.0000 </r>
       <r>    3.2469    1.0000 </r>
       <r>    5.1089    0.0000 </r>
       <r>    5.1089    0.0000 </r>
       <r>    6.4222    0.0000 </r>
       <r>    6.4222    0.0000 </r>
      </set>
      <set comment="kpoint 1454">
       <r>   -8.6560    1.0000 </r>
       <r>   -8.6560    1.0000 </r>
       <r>   -8.4842    1.0000 </r>
       <r>   -8.4842    1.0000 </r>
       <r>   -1.9022    1.0000 </r>
       <r>   -1.9022    1.0000 </r>
       <r>   -1.4026    1.0000 </r>
       <r>   -1.4026    1.0000 </r>
       <r>   -0.4125    1.0000 </r>
       <r>   -0.4125    1.0000 </r>
       <r>   -0.0949    1.0000 </r>
       <r>   -0.0949    1.0000 </r>
       <r>    0.4064    1.0000 </r>
       <r>    0.4064    1.0000 </r>
       <r>    1.3259    1.0000 </r>
       <r>    1.3259    1.0000 </r>
       <r>    3.2218    1.0000 </r>
       <r>    3.2218    1.0000 </r>
       <r>    5.1238    0.0000 </r>
       <r>    5.1238    0.0000 </r>
       <r>    6.3933    0.0000 </r>
       <r>    6.3936    0.0000 </r>
      </set>
      <set comment="kpoint 1455">
       <r>   -8.6270    1.0000 </r>
       <r>   -8.6270    1.0000 </r>
       <r>   -8.4682    1.0000 </r>
       <r>   -8.4682    1.0000 </r>
       <r>   -1.9538    1.0000 </r>
       <r>   -1.9538    1.0000 </r>
       <r>   -1.2738    1.0000 </r>
       <r>   -1.2738    1.0000 </r>
       <r>   -0.5628    1.0000 </r>
       <r>   -0.5628    1.0000 </r>
       <r>   -0.1407    1.0000 </r>
       <r>   -0.1407    1.0000 </r>
       <r>    0.4677    1.0000 </r>
       <r>    0.4677    1.0000 </r>
       <r>    1.2483    1.0000 </r>
       <r>    1.2483    1.0000 </r>
       <r>    3.2978    1.0000 </r>
       <r>    3.2978    1.0000 </r>
       <r>    5.0378    0.0000 </r>
       <r>    5.0378    0.0000 </r>
       <r>    6.3798    0.0000 </r>
       <r>    6.3798    0.0000 </r>
      </set>
      <set comment="kpoint 1456">
       <r>   -8.6150    1.0000 </r>
       <r>   -8.6150    1.0000 </r>
       <r>   -8.4612    1.0000 </r>
       <r>   -8.4612    1.0000 </r>
       <r>   -1.9773    1.0000 </r>
       <r>   -1.9773    1.0000 </r>
       <r>   -1.1615    1.0000 </r>
       <r>   -1.1615    1.0000 </r>
       <r>   -0.6645    1.0000 </r>
       <r>   -0.6645    1.0000 </r>
       <r>   -0.1841    1.0000 </r>
       <r>   -0.1841    1.0000 </r>
       <r>    0.5003    1.0000 </r>
       <r>    0.5003    1.0000 </r>
       <r>    1.2104    1.0000 </r>
       <r>    1.2104    1.0000 </r>
       <r>    3.3337    1.0000 </r>
       <r>    3.3337    1.0000 </r>
       <r>    4.9935    0.0000 </r>
       <r>    4.9935    0.0000 </r>
       <r>    6.3650    0.0000 </r>
       <r>    6.3650    0.0000 </r>
      </set>
     </set>
    </set>
   </array>
  </eigenvalues>
  <separator name="orbital magnetization" >
   <v name="MAGDIPOLOUT">      0.00000000      0.00000000      0.00000000</v>
  </separator>
  <dos>
   <i name="efermi">      3.56797829 </i>
   <total>
    <array>
     <dimension dim="1">gridpoints</dimension>
     <dimension dim="2">spin</dimension>
     <field>energy</field>
     <field>total</field>
     <field>integrated</field>
     <set>
      <set comment="spin 1">
       <r>   -12.6563     0.0000     0.0000 </r>
       <r>   -12.5855     0.0000     0.0000 </r>
       <r>   -12.5147     0.0000     0.0000 </r>
       <r>   -12.4439     0.0000     0.0000 </r>
       <r>   -12.3731     0.0000     0.0000 </r>
       <r>   -12.3023     0.0000     0.0000 </r>
       <r>   -12.2315     0.0000     0.0000 </r>
       <r>   -12.1606     0.0000     0.0000 </r>
       <r>   -12.0898     0.0000     0.0000 </r>
       <r>   -12.0190     0.0000     0.0000 </r>
       <r>   -11.9482     0.0000     0.0000 </r>
       <r>   -11.8774     0.0000     0.0000 </r>
       <r>   -11.8066     0.0000     0.0000 </r>
       <r>   -11.7358     0.0000     0.0000 </r>
       <r>   -11.6650     0.0000     0.0000 </r>
       <r>   -11.5942     0.0000     0.0000 </r>
       <r>   -11.5234     0.0000     0.0000 </r>
       <r>   -11.4525     0.0000     0.0000 </r>
       <r>   -11.3817     0.0000     0.0000 </r>
       <r>   -11.3109     0.0000     0.0000 </r>
       <r>   -11.2401     0.0000     0.0000 </r>
       <r>   -11.1693     0.0000     0.0000 </r>
       <r>   -11.0985     0.0000     0.0000 </r>
       <r>   -11.0277     0.0000     0.0000 </r>
       <r>   -10.9569     0.0000     0.0000 </r>
       <r>   -10.8861     0.0000     0.0000 </r>
       <r>   -10.8153     0.0000     0.0000 </r>
       <r>   -10.7445     0.0000     0.0000 </r>
       <r>   -10.6736     0.0000     0.0000 </r>
       <r>   -10.6028     1.0884     0.0417 </r>
       <r>   -10.5320     1.0692     0.1168 </r>
       <r>   -10.4612     1.1044     0.1927 </r>
       <r>   -10.3904     1.1104     0.2697 </r>
       <r>   -10.3196     1.1178     0.3490 </r>
       <r>   -10.2488     1.1666     0.4299 </r>
       <r>   -10.1780     1.1753     0.5123 </r>
       <r>   -10.1072     1.2145     0.5971 </r>
       <r>   -10.0364     1.2375     0.6836 </r>
       <r>    -9.9655     1.2796     0.7728 </r>
       <r>    -9.8947     1.3118     0.8644 </r>
       <r>    -9.8239     1.3565     0.9588 </r>
       <r>    -9.7531     1.4031     1.0565 </r>
       <r>    -9.6823     1.4541     1.1576 </r>
       <r>    -9.6115     1.5187     1.2627 </r>
       <r>    -9.5407     1.5850     1.3726 </r>
       <r>    -9.4699     1.6646     1.4872 </r>
       <r>    -9.3991     3.9522     1.7080 </r>
       <r>    -9.3283     4.1748     1.9965 </r>
       <r>    -9.2574     4.4622     2.3021 </r>
       <r>    -9.1866     4.7434     2.6275 </r>
       <r>    -9.1158     5.1821     2.9776 </r>
       <r>    -9.0450     5.6743     3.3612 </r>
       <r>    -8.9742     6.5461     3.7907 </r>
       <r>    -8.9034     7.9895     4.2990 </r>
       <r>    -8.8326     8.8116     4.9785 </r>
       <r>    -8.7618     8.3698     5.5736 </r>
       <r>    -8.6910     9.2278     6.1847 </r>
       <r>    -8.6202    13.1937     7.0044 </r>
       <r>    -8.5493     6.0433     7.5511 </r>
       <r>    -8.4785     4.8013     7.9283 </r>
       <r>    -8.4077     0.0000     8.0000 </r>
       <r>    -8.3369     0.0000     8.0000 </r>
       <r>    -8.2661     0.0000     8.0000 </r>
       <r>    -8.1953     0.0000     8.0000 </r>
       <r>    -8.1245     0.0000     8.0000 </r>
       <r>    -8.0537     0.0000     8.0000 </r>
       <r>    -7.9829     0.0000     8.0000 </r>
       <r>    -7.9121     0.0000     8.0000 </r>
       <r>    -7.8412     0.0000     8.0000 </r>
       <r>    -7.7704     0.0000     8.0000 </r>
       <r>    -7.6996     0.0000     8.0000 </r>
       <r>    -7.6288     0.0000     8.0000 </r>
       <r>    -7.5580     0.0000     8.0000 </r>
       <r>    -7.4872     0.0000     8.0000 </r>
       <r>    -7.4164     0.0000     8.0000 </r>
       <r>    -7.3456     0.0000     8.0000 </r>
       <r>    -7.2748     0.0000     8.0000 </r>
       <r>    -7.2040     0.0000     8.0000 </r>
       <r>    -7.1332     0.0000     8.0000 </r>
       <r>    -7.0623     0.0000     8.0000 </r>
       <r>    -6.9915     0.0000     8.0000 </r>
       <r>    -6.9207     0.0000     8.0000 </r>
       <r>    -6.8499     0.0000     8.0000 </r>
       <r>    -6.7791     0.0000     8.0000 </r>
       <r>    -6.7083     0.0000     8.0000 </r>
       <r>    -6.6375     0.0000     8.0000 </r>
       <r>    -6.5667     0.0000     8.0000 </r>
       <r>    -6.4959     0.0000     8.0000 </r>
       <r>    -6.4251     0.0000     8.0000 </r>
       <r>    -6.3542     0.0000     8.0000 </r>
       <r>    -6.2834     0.0000     8.0000 </r>
       <r>    -6.2126     0.0000     8.0000 </r>
       <r>    -6.1418     0.0000     8.0000 </r>
       <r>    -6.0710     0.0000     8.0000 </r>
       <r>    -6.0002     0.0000     8.0000 </r>
       <r>    -5.9294     0.0000     8.0000 </r>
       <r>    -5.8586     0.0000     8.0000 </r>
       <r>    -5.7878     0.0000     8.0000 </r>
       <r>    -5.7170     0.0000     8.0000 </r>
       <r>    -5.6461     0.0000     8.0000 </r>
       <r>    -5.5753     0.0000     8.0000 </r>
       <r>    -5.5045     0.0000     8.0000 </r>
       <r>    -5.4337     0.0000     8.0000 </r>
       <r>    -5.3629     0.0000     8.0000 </r>
       <r>    -5.2921     0.0000     8.0000 </r>
       <r>    -5.2213     0.0000     8.0000 </r>
       <r>    -5.1505     0.0000     8.0000 </r>
       <r>    -5.0797     0.0000     8.0000 </r>
       <r>    -5.0089     0.0000     8.0000 </r>
       <r>    -4.9380     0.0000     8.0000 </r>
       <r>    -4.8672     0.0000     8.0000 </r>
       <r>    -4.7964     0.0000     8.0000 </r>
       <r>    -4.7256     0.0000     8.0000 </r>
       <r>    -4.6548     0.0000     8.0000 </r>
       <r>    -4.5840     0.0000     8.0000 </r>
       <r>    -4.5132     0.0000     8.0000 </r>
       <r>    -4.4424     0.0000     8.0000 </r>
       <r>    -4.3716     0.0000     8.0000 </r>
       <r>    -4.3008     0.0000     8.0000 </r>
       <r>    -4.2299     0.0000     8.0000 </r>
       <r>    -4.1591     0.0000     8.0000 </r>
       <r>    -4.0883     0.0000     8.0000 </r>
       <r>    -4.0175     0.0000     8.0000 </r>
       <r>    -3.9467     0.0000     8.0000 </r>
       <r>    -3.8759     0.0000     8.0000 </r>
       <r>    -3.8051     0.0000     8.0000 </r>
       <r>    -3.7343     0.0000     8.0000 </r>
       <r>    -3.6635     0.0000     8.0000 </r>
       <r>    -3.5927     0.0000     8.0000 </r>
       <r>    -3.5219     0.0000     8.0000 </r>
       <r>    -3.4510     0.0000     8.0000 </r>
       <r>    -3.3802     0.0000     8.0000 </r>
       <r>    -3.3094     0.0000     8.0000 </r>
       <r>    -3.2386     0.0000     8.0000 </r>
       <r>    -3.1678     0.0000     8.0000 </r>
       <r>    -3.0970     0.0000     8.0000 </r>
       <r>    -3.0262     0.0000     8.0000 </r>
       <r>    -2.9554     0.0000     8.0000 </r>
       <r>    -2.8846     0.0000     8.0000 </r>
       <r>    -2.8138     0.0000     8.0000 </r>
       <r>    -2.7429     0.0000     8.0000 </r>
       <r>    -2.6721     0.0000     8.0000 </r>
       <r>    -2.6013     0.0000     8.0000 </r>
       <r>    -2.5305     0.0000     8.0000 </r>
       <r>    -2.4597     0.0000     8.0000 </r>
       <r>    -2.3889     0.0000     8.0000 </r>
       <r>    -2.3181     1.7774     8.0274 </r>
       <r>    -2.2473     2.2162     8.1764 </r>
       <r>    -2.1765     2.7267     8.3535 </r>
       <r>    -2.1057     3.1724     8.5594 </r>
       <r>    -2.0348     3.5274     8.8008 </r>
       <r>    -1.9640     5.1062     9.0703 </r>
       <r>    -1.8932     5.7058     9.4568 </r>
       <r>    -1.8224     7.0713     9.8852 </r>
       <r>    -1.7516     6.4084    10.3945 </r>
       <r>    -1.6808     9.1221    11.0072 </r>
       <r>    -1.6100     9.8059    11.6713 </r>
       <r>    -1.5392     7.8993    12.3204 </r>
       <r>    -1.4684     4.2603    12.7457 </r>
       <r>    -1.3976     4.8108    13.0145 </r>
       <r>    -1.3267     3.3522    13.3129 </r>
       <r>    -1.2559     2.6576    13.5203 </r>
       <r>    -1.1851     2.0893    13.6878 </r>
       <r>    -1.1143     1.7986    13.8227 </r>
       <r>    -1.0435     1.6172    13.9438 </r>
       <r>    -0.9727     1.5157    14.0545 </r>
       <r>    -0.9019     1.4311    14.1588 </r>
       <r>    -0.8311     1.3564    14.2575 </r>
       <r>    -0.7603     1.2821    14.3506 </r>
       <r>    -0.6895     2.8735    14.4616 </r>
       <r>    -0.6187     6.8507    14.8060 </r>
       <r>    -0.5478     9.2525    15.3604 </r>
       <r>    -0.4770    11.8701    16.1379 </r>
       <r>    -0.4062    10.8395    16.9637 </r>
       <r>    -0.3354     7.9698    17.6273 </r>
       <r>    -0.2646     5.4559    18.0975 </r>
       <r>    -0.1938     2.1038    18.3675 </r>
       <r>    -0.1230     2.5613    18.5461 </r>
       <r>    -0.0522     2.3889    18.7175 </r>
       <r>     0.0186     2.3846    18.8863 </r>
       <r>     0.0894     4.8689    19.1445 </r>
       <r>     0.1603     8.7518    19.6401 </r>
       <r>     0.2311    18.6907    20.7028 </r>
       <r>     0.3019     8.1577    21.4689 </r>
       <r>     0.3727     6.9876    21.9667 </r>
       <r>     0.4435     5.1603    22.3868 </r>
       <r>     0.5143     3.6887    22.7100 </r>
       <r>     0.5851     3.3851    22.9602 </r>
       <r>     0.6559     3.2726    23.1948 </r>
       <r>     0.7267     3.1208    23.4131 </r>
       <r>     0.7975     3.4885    23.6354 </r>
       <r>     0.8684     3.8490    23.8911 </r>
       <r>     0.9392     2.5453    24.1163 </r>
       <r>     1.0100     3.6673    24.3371 </r>
       <r>     1.0808     4.1242    24.6009 </r>
       <r>     1.1516     3.0822    24.8714 </r>
       <r>     1.2224     3.3579    25.0774 </r>
       <r>     1.2932     5.2301    25.3920 </r>
       <r>     1.3640     5.6561    25.7954 </r>
       <r>     1.4348     9.0535    26.2836 </r>
       <r>     1.5056    13.1857    26.9010 </r>
       <r>     1.5765     8.1704    27.6522 </r>
       <r>     1.6473     7.4671    28.1939 </r>
       <r>     1.7181     6.1160    28.6717 </r>
       <r>     1.7889     4.9361    29.0779 </r>
       <r>     1.8597     4.3420    29.3997 </r>
       <r>     1.9305     4.6363    29.7273 </r>
       <r>     2.0013     4.2379    30.0420 </r>
       <r>     2.0721     4.1793    30.3367 </r>
       <r>     2.1429     4.3408    30.6364 </r>
       <r>     2.2137     4.9753    30.9660 </r>
       <r>     2.2846     4.8580    31.3111 </r>
       <r>     2.3554     3.7754    31.6405 </r>
       <r>     2.4262     4.0663    31.8795 </r>
       <r>     2.4970     5.1793    32.2204 </r>
       <r>     2.5678     9.4333    32.7621 </r>
       <r>     2.6386     5.9567    33.2424 </r>
       <r>     2.7094     5.5093    33.6301 </r>
       <r>     2.7802     5.1561    34.0290 </r>
       <r>     2.8510     4.7209    34.3756 </r>
       <r>     2.9218     4.3800    34.7006 </r>
       <r>     2.9926     3.8969    34.9982 </r>
       <r>     3.0635     3.3242    35.2508 </r>
       <r>     3.1343     2.9765    35.4712 </r>
       <r>     3.2051     2.3903    35.6669 </r>
       <r>     3.2759     1.8250    35.8171 </r>
       <r>     3.3467     0.6885    35.9184 </r>
       <r>     3.4175     0.5152    35.9608 </r>
       <r>     3.4883     0.3237    35.9907 </r>
       <r>     3.5591     0.0000    36.0000 </r>
       <r>     3.6299     0.0000    36.0000 </r>
       <r>     3.7007     0.0000    36.0000 </r>
       <r>     3.7716     0.0000    36.0000 </r>
       <r>     3.8424     0.0000    36.0000 </r>
       <r>     3.9132     0.0000    36.0000 </r>
       <r>     3.9840     0.0000    36.0000 </r>
       <r>     4.0548     0.0000    36.0000 </r>
       <r>     4.1256     0.0000    36.0000 </r>
       <r>     4.1964     0.0000    36.0000 </r>
       <r>     4.2672     0.0000    36.0000 </r>
       <r>     4.3380     0.0000    36.0000 </r>
       <r>     4.4088     0.0000    36.0000 </r>
       <r>     4.4797     0.0000    36.0000 </r>
       <r>     4.5505     0.0000    36.0000 </r>
       <r>     4.6213     0.0000    36.0000 </r>
       <r>     4.6921     0.0000    36.0000 </r>
       <r>     4.7629     0.0000    36.0000 </r>
       <r>     4.8337     0.0000    36.0000 </r>
       <r>     4.9045     0.0000    36.0000 </r>
       <r>     4.9753     0.0000    36.0000 </r>
       <r>     5.0461     0.7123    36.0326 </r>
       <r>     5.1169     0.9384    36.0910 </r>
       <r>     5.1878     2.0744    36.1836 </r>
       <r>     5.2586     3.4470    36.3778 </r>
       <r>     5.3294     5.1420    36.6772 </r>
       <r>     5.4002     8.4385    37.1588 </r>
       <r>     5.4710    11.7527    37.8665 </r>
       <r>     5.5418    12.5164    39.1797 </r>
       <r>     5.6126     3.2348    39.5731 </r>
       <r>     5.6834     4.8371    39.8361 </r>
       <r>     5.7542    10.0748    40.3649 </r>
       <r>     5.8250    11.3850    41.1292 </r>
       <r>     5.8959     8.2808    41.8605 </r>
       <r>     5.9667     5.9554    42.3793 </r>
       <r>     6.0375     5.7580    42.8030 </r>
       <r>     6.1083     2.8532    43.1123 </r>
       <r>     6.1791     2.5245    43.3147 </r>
       <r>     6.2499     1.5486    43.4528 </r>
       <r>     6.3207     2.0870    43.5738 </r>
       <r>     6.3915     2.3971    43.7387 </r>
       <r>     6.4623     2.1364    43.9050 </r>
       <r>     6.5331     0.4227    43.9914 </r>
       <r>     6.6039     0.0000    44.0000 </r>
       <r>     6.6748     0.0000    44.0000 </r>
       <r>     6.7456     0.0000    44.0000 </r>
       <r>     6.8164     0.0000    44.0000 </r>
       <r>     6.8872     0.0000    44.0000 </r>
       <r>     6.9580     0.0000    44.0000 </r>
       <r>     7.0288     0.0000    44.0000 </r>
       <r>     7.0996     0.0000    44.0000 </r>
       <r>     7.1704     0.0000    44.0000 </r>
       <r>     7.2412     0.0000    44.0000 </r>
       <r>     7.3120     0.0000    44.0000 </r>
       <r>     7.3829     0.0000    44.0000 </r>
       <r>     7.4537     0.0000    44.0000 </r>
       <r>     7.5245     0.0000    44.0000 </r>
       <r>     7.5953     0.0000    44.0000 </r>
       <r>     7.6661     0.0000    44.0000 </r>
       <r>     7.7369     0.0000    44.0000 </r>
       <r>     7.8077     0.0000    44.0000 </r>
       <r>     7.8785     0.0000    44.0000 </r>
       <r>     7.9493     0.0000    44.0000 </r>
       <r>     8.0201     0.0000    44.0000 </r>
       <r>     8.0910     0.0000    44.0000 </r>
       <r>     8.1618     0.0000    44.0000 </r>
       <r>     8.2326     0.0000    44.0000 </r>
       <r>     8.3034     0.0000    44.0000 </r>
       <r>     8.3742     0.0000    44.0000 </r>
       <r>     8.4450     0.0000    44.0000 </r>
       <r>     8.5158     0.0000    44.0000 </r>
       <r>     8.5866     0.0000    44.0000 </r>
      </set>
     </set>
    </array>
   </total>
  </dos>
 </calculation>
 <structure name="finalpos" >
  <crystal>
   <varray name="basis" >
    <v>       3.19031600       0.00000000       0.00000000 </v>
    <v>      -1.59515800       2.76289400       0.00000000 </v>
    <v>       0.00000000       0.00000000      14.87900400 </v>
   </varray>
   <i name="volume">    131.15105418 </i>
   <varray name="rec_basis" >
    <v>       0.31344857       0.18096966       0.00000000 </v>
    <v>       0.00000000       0.36193933       0.00000000 </v>
    <v>       0.00000000       0.00000000       0.06720880 </v>
   </varray>
  </crystal>
  <varray name="positions" >
   <v>       0.33333300       0.66666700       0.25000000 </v>
   <v>       0.66666700       0.33333300       0.75000000 </v>
   <v>       0.66666700       0.33333300       0.35517400 </v>
   <v>       0.33333300       0.66666700       0.85517400 </v>
   <v>       0.66666700       0.33333300       0.14482600 </v>
   <v>       0.33333300       0.66666700       0.64482600 </v>
  </varray>
 </structure>
</modeling>
