 running on    1 total cores
 distrk:  each k-point on    1 cores,    1 groups
 distr:  one band on    1 cores,    1 groups
 using from now: INCAR     
 vasp.5.4.4.18Apr17-6-g9f103f2a35 (build May 20 2018 16:52:39) complex          
  
 POSCAR found type information on POSCAR  Mo S 
 POSCAR found :  2 types and       6 ions
 scaLAPACK will be used
 LDA part: xc-table for Ceperly-Alder, standard interpolation
 POSCAR, INCAR and KPOINTS ok, starting setup
 FFT: planning ...
 WAVECAR not read
 entering main loop
       N       E                     dE             d eps       ncg     rms          rms(c)
DAV:   1     0.211629900332E+03    0.21163E+03   -0.15576E+04 64064   0.137E+03
DAV:   2    -0.269874228128E+02   -0.23862E+03   -0.23240E+03 87152   0.273E+02
DAV:   3    -0.461748258355E+02   -0.19187E+02   -0.19100E+02 84408   0.773E+01
DAV:   4    -0.467710744306E+02   -0.59625E+00   -0.59536E+00 89710   0.148E+01
DAV:   5    -0.467886740427E+02   -0.17600E-01   -0.17595E-01 86182   0.256E+00    0.971E+00
DAV:   6    -0.444345067670E+02    0.23542E+01   -0.25169E+01 83724   0.234E+01    0.398E+00
DAV:   7    -0.437131337791E+02    0.72137E+00   -0.55681E+00 84278   0.136E+01    0.218E+00
DAV:   8    -0.435994925615E+02    0.11364E+00   -0.51632E-01 82698   0.411E+00    0.512E-01
DAV:   9    -0.436003943988E+02   -0.90184E-03   -0.75799E-02 90858   0.149E+00    0.291E-01
DAV:  10    -0.435990321549E+02    0.13622E-02   -0.23620E-02 95054   0.799E-01    0.105E-01
DAV:  11    -0.435987987243E+02    0.23343E-03   -0.21757E-03 86634   0.284E-01    0.286E-02
DAV:  12    -0.435989963151E+02   -0.19759E-03   -0.64999E-04 81072   0.156E-01    0.187E-02
DAV:  13    -0.435990007757E+02   -0.44606E-05   -0.13562E-04 98254   0.665E-02    0.133E-02
DAV:  14    -0.435989977230E+02    0.30527E-05   -0.54024E-05 89900   0.403E-02    0.311E-03
DAV:  15    -0.435989974047E+02    0.31831E-06   -0.30703E-06 68282   0.112E-02
   1 F= -.43598997E+02 E0= -.43598997E+02  d E =0.000000E+00
