diamond Si                              
   5.43000000000000     
     0.000000    0.500000    0.500000
     0.500000    0.000000    0.500000
     0.500000    0.500000    0.000000
   Si
     2
Direct
  0.000000  0.000000  0.000000
  0.250000  0.250000  0.250000
 
   48   48   48
 -7.6569     -6.8492     -4.5536     -1.1251      2.9313      7.0655      10.786      13.735      15.723      16.725    
  16.846      16.290      15.306      14.144      12.945      11.777      10.693      9.7303      8.9048      8.2188    
  7.6665      7.2406      6.9366      6.7535      6.6922      6.7535      6.9366      7.2406      7.6665      8.2188    
  8.9048      9.7303      10.693      11.777      12.945      14.144      15.306      16.290      16.846      16.725    
  15.723      13.735      10.786      7.0655      2.9313     -1.1252     -4.5536     -6.8492     -6.8492     -5.2112    
 -2.2007      1.7128      5.9620      9.9981      13.387      15.860      17.326      17.841      17.575      16.760    
  15.656      14.463      13.267      12.128      11.090      10.179      9.4066      8.7700      8.2639      7.8836    
  7.6282      7.4995      7.4995      7.6282      7.8836      8.2639      8.7700      9.4066      10.179      11.090    
  12.128      13.267      14.463      15.656      16.760      17.575      17.841      17.326      15.860      13.387    
  9.9981      5.9620      1.7128     -2.2008     -5.2112     -6.8492     -4.5536     -2.2007      1.2866      5.3678    
  9.4706      13.102      15.923      17.772      18.649      18.680      18.075      17.079      15.927      14.737    
  13.573      12.486      11.510      10.663      9.9488      9.3651      8.9082      8.5778      8.3769      8.3093    
  8.3769      8.5778      8.9082      9.3651      9.9488      10.663      11.510      12.486      13.573      14.737    
  15.927      17.079      18.075      18.680      18.649      17.772      15.923      13.102      9.4706      5.3678    
  1.2866     -2.2008     -4.5536     -5.3848     -1.1251      1.7128      5.3678      9.2855      12.945      15.948    
  18.069      19.248      19.561      19.184      18.340      17.267      16.121      14.969      13.866      12.851    
  11.949      11.171      10.518      9.9884      9.5831      9.3069      9.1665      9.1665      9.3069      9.5831    
  9.9884      10.518      11.171      11.949      12.851      13.866      14.969      16.121      17.267      18.340    
  19.184      19.561      19.248      18.069      15.948      12.945      9.2855      5.3678      1.7128     -1.1252    
 -2.6782     -2.6782      2.9313      5.9620      9.4706      12.945      15.955      18.219      19.618      20.176    
  20.026      19.364      18.411      17.347      16.247      15.165      14.145      13.217      12.395      11.687    
  11.094      10.618      10.266      10.049      9.9758      10.049      10.266      10.618      11.094      11.687    
  12.395      13.217      14.145      15.165      16.247      17.347      18.411      19.364      20.026      20.176    
  19.618      18.219      15.955      12.945      9.4706      5.9620      2.9313     0.87183     0.14169     0.87182    
  7.0655      9.9981      13.102      15.948      18.219      19.743      20.493      20.554      20.087      19.290    
  18.344      17.336      16.317      15.330      14.408      13.571      12.829      12.187      11.649      11.226    
  10.932      10.780      10.780      10.932      11.226      11.649      12.187      12.829      13.571      14.408    
  15.330      16.317      17.336      18.344      19.290      20.087      20.554      20.493      19.743      18.219    
  15.948      13.102      9.9981      7.0655      4.7695      3.5069      3.5069      4.7695      10.786      13.387    
  15.923      18.069      19.618      20.493      20.734      20.461      19.843      19.050      18.171      17.253    
  16.339      15.462      14.643      13.894      13.225      12.641      12.156      11.787      11.555      11.476    
  11.555      11.787      12.156      12.641      13.225      13.894      14.643      15.462      16.339      17.253    
  18.171      19.050      19.843      20.461      20.734      20.493      19.618      18.069      15.923      13.387    
  10.786      8.5178      6.9675      6.4163      6.9675      8.5178      13.735      15.860      17.772      19.248    
  20.176      20.554      20.461      20.033      19.416      18.696      17.915      17.112      16.317      15.552    
  14.831      14.162      13.553      13.021      12.586      12.276      12.113      12.113      12.276      12.586    
  13.021      13.553      14.162      14.831      15.552      16.317      17.112      17.915      18.696      19.416    
  20.033      20.461      20.554      20.176      19.248      17.772      15.860      13.735      11.704      10.103    
  9.2195      9.2195      10.103      11.704      15.723      17.326      18.649      19.561      20.026      20.087    
  19.843      19.416      18.875      18.258      17.597      16.921      16.247      15.588      14.951      14.347    
  13.789      13.304      12.922      12.675      12.590      12.675      12.922      13.304      13.789      14.347    
  14.951      15.588      16.247      16.921      17.597      18.258      18.875      19.416      19.843      20.087    
  20.026      19.561      18.649      17.326      15.723      14.057      12.591      11.585      11.226      11.585    
  12.591      14.057      16.725      17.841      18.680      19.184      19.364      19.290      19.050      18.696    
  18.258      17.763      17.233      16.683      16.121      15.551      14.982      14.428      13.912      13.469    
  13.141      12.964      12.964      13.141      13.469      13.912      14.428      14.982      15.551      16.121    
  16.683      17.233      17.763      18.258      18.696      19.050      19.290      19.364      19.184      18.680    
  17.841      16.725      15.463      14.246      13.280      12.746      12.746      13.280      14.246      15.463    
  16.846      17.575      18.075      18.340      18.411      18.344      18.171      17.915      17.597      17.233    
  16.832      16.396      15.927      15.427      14.908      14.388      13.901      13.497      13.227      13.133    
  13.227      13.497      13.901      14.388      14.908      15.427      15.927      16.396      16.832      17.233    
  17.597      17.915      18.171      18.344      18.411      18.340      18.075      17.575      16.846      15.956    
  15.024      14.200      13.632      13.430      13.632      14.200      15.024      15.956      16.290      16.760    
  17.079      17.267      17.347      17.336      17.253      17.112      16.921      16.683      16.396      16.055    
  15.656      15.205      14.713      14.209      13.746      13.389      13.194      13.194      13.389      13.746    
  14.209      14.713      15.205      15.656      16.055      16.396      16.683      16.921      17.112      17.253    
  17.336      17.347      17.267      17.079      16.760      16.290      15.687      15.013      14.365      13.851    
  13.567      13.567      13.851      14.365      15.013      15.687      15.306      15.656      15.927      16.121    
  16.247      16.317      16.339      16.317      16.247      16.121      15.927      15.656      15.306      14.878    
  14.392      13.901      13.475      13.183      13.079      13.183      13.475      13.901      14.392      14.878    
  15.306      15.656      15.927      16.121      16.247      16.317      16.339      16.317      16.247      16.121    
  15.927      15.656      15.306      14.878      14.392      13.901      13.475      13.183      13.079      13.183    
  13.475      13.901      14.392      14.878      14.144      14.463      14.737      14.969      15.165      15.330    
  15.462      15.552      15.588      15.551      15.427      15.205      14.878      14.453      13.974      13.511    
  13.142      12.938      12.938      13.142      13.511      13.974      14.453      14.878      15.205      15.427    
  15.551      15.588      15.552      15.462      15.330      15.165      14.969      14.737      14.463      14.144    
  13.783      13.396      13.008      12.656      12.387      12.240      12.240      12.387      12.656      13.008    
  13.396      13.783      12.945      13.267      13.573      13.866      14.145      14.408      14.643      14.831    
  14.951      14.982      14.908      14.713      14.392      13.974      13.520      13.110      12.825      12.723    
  12.825      13.110      13.520      13.974      14.392      14.713      14.908      14.982      14.951      14.831    
  14.643      14.408      14.145      13.866      13.573      13.267      12.945      12.605      12.255      11.911    
  11.598      11.344      11.178      11.120      11.178      11.344      11.598      11.911      12.255      12.605    
  11.777      12.128      12.486      12.851      13.217      13.571      13.894      14.162      14.347      14.428    
  14.388      14.209      13.901      13.511      13.110      12.782      12.598      12.598      12.782      13.110    
  13.511      13.901      14.209      14.388      14.428      14.347      14.162      13.894      13.571      13.217    
  12.851      12.486      12.128      11.777      11.431      11.093      10.769      10.473      10.225      10.044    
  9.9492      9.9492      10.044      10.225      10.473      10.769      11.093      11.431      10.693      11.090    
  11.510      11.949      12.395      12.829      13.225      13.553      13.789      13.912      13.901      13.746    
  13.475      13.142      12.825      12.598      12.515      12.598      12.825      13.142      13.475      13.746    
  13.901      13.912      13.789      13.553      13.225      12.829      12.395      11.949      11.510      11.090    
  10.693      10.321      9.9728      9.6500      9.3593      9.1118      8.9211      8.8003      8.7589      8.8003    
  8.9211      9.1118      9.3593      9.6500      9.9728      10.321      9.7303      10.179      10.663      11.171    
  11.687      12.187      12.641      13.021      13.304      13.469      13.497      13.389      13.183      12.938    
  12.723      12.598      12.598      12.723      12.938      13.183      13.389      13.497      13.469      13.304    
  13.021      12.641      12.187      11.687      11.171      10.663      10.179      9.7303      9.3192      8.9455    
  8.6087      8.3106      8.0564      7.8542      7.7129      7.6401      7.6401      7.7129      7.8542      8.0564    
  8.3106      8.6087      8.9455      9.3192      8.9048      9.4066      9.9488      10.518      11.094      11.649    
  12.156      12.586      12.922      13.141      13.227      13.194      13.079      12.938      12.825      12.782    
  12.825      12.938      13.079      13.194      13.227      13.141      12.922      12.586      12.156      11.649    
  11.094      10.518      9.9488      9.4066      8.9048      8.4497      8.0423      7.6813      7.3661      7.0982    
  6.8813      6.7207      6.6218      6.5884      6.6218      6.7207      6.8813      7.0982      7.3661      7.6813    
  8.0423      8.4497      8.2188      8.7700      9.3651      9.9884      10.618      11.226      11.787      12.276    
  12.675      12.964      13.133      13.194      13.183      13.142      13.110      13.110      13.142      13.183    
  13.194      13.133      12.964      12.675      12.276      11.787      11.226      10.618      9.9884      9.3651    
  8.7700      8.2188      7.7199      7.2759      6.8858      6.5478      6.2609      6.0262      5.8461      5.7237    
  5.6618      5.6618      5.7237      5.8461      6.0262      6.2609      6.5478      6.8858      7.2759      7.7199    
  7.6665      8.2639      8.9082      9.5831      10.266      10.932      11.555      12.113      12.590      12.964    
  13.227      13.389      13.475      13.511      13.520      13.511      13.475      13.389      13.227      12.964    
  12.590      12.113      11.555      10.932      10.266      9.5831      8.9082      8.2639      7.6665      7.1258    
  6.6454      6.2247      5.8612      5.5527      5.2981      5.0980      4.9536      4.8662      4.8370      4.8662    
  4.9536      5.0980      5.2981      5.5527      5.8612      6.2247      6.6454      7.1258      7.2406      7.8836    
  8.5778      9.3069      10.049      10.780      11.476      12.113      12.675      13.141      13.497      13.746    
  13.901      13.974      13.974      13.901      13.746      13.497      13.141      12.675      12.113      11.476    
  10.780      10.049      9.3069      8.5778      7.8836      7.2406      6.6589      6.1426      5.6910      5.3012    
  4.9699      4.6947      4.4744      4.3090      4.1984      4.1431      4.1431      4.1984      4.3090      4.4744    
  4.6947      4.9699      5.3012      5.6910      6.1426      6.6589      6.9366      7.6282      8.3769      9.1665    
  9.9758      10.780      11.555      12.276      12.922      13.469      13.901      14.209      14.392      14.453    
  14.392      14.209      13.901      13.469      12.922      12.276      11.555      10.780      9.9758      9.1665    
  8.3769      7.6282      6.9366      6.3120      5.7583      5.2747      4.8576      4.5027      4.2064      3.9661    
  3.7804      3.6484      3.5696      3.5433      3.5696      3.6484      3.7804      3.9661      4.2064      4.5027    
  4.8576      5.2747      5.7583      6.3120      6.7535      7.4995      8.3093      9.1665      10.049      10.932    
  11.787      12.586      13.304      13.912      14.388      14.713      14.878      14.878      14.713      14.388    
  13.912      13.304      12.586      11.787      10.932      10.049      9.1665      8.3093      7.4995      6.7535    
  6.0811      5.4862      4.9674      4.5206      4.1404      3.8218      3.5612      3.3557      3.2034      3.1029    
  3.0529      3.0529      3.1029      3.2034      3.3557      3.5612      3.8218      4.1404      4.5206      4.9674    
  5.4862      6.0811      6.6922      7.4995      8.3769      9.3069      10.266      11.226      12.156      13.021    
  13.789      14.428      14.908      15.205      15.306      15.205      14.908      14.428      13.789      13.021    
  12.156      11.226      10.266      9.3069      8.3769      7.4995      6.6922      5.9655      5.3232      4.7640    
  4.2831      3.8741      3.5310      3.2485      3.0227      2.8506      2.7297      2.6581      2.6344      2.6581    
  2.7297      2.8506      3.0227      3.2485      3.5310      3.8741      4.2831      4.7640      5.3232      5.9655    
  6.7535      7.6282      8.5778      9.5831      10.618      11.649      12.641      13.553      14.347      14.982    
  15.427      15.656      15.656      15.427      14.982      14.347      13.553      12.641      11.649      10.618    
  9.5831      8.5778      7.6282      6.7535      5.9655      5.2689      4.6625      4.1414      3.6985      3.3268    
  3.0197      2.7720      2.5795      2.4386      2.3465      2.3010      2.3010      2.3465      2.4386      2.5795    
  2.7720      3.0197      3.3268      3.6985      4.1414      4.6625      5.2689      5.9655      6.9366      7.8836    
  8.9082      9.9884      11.094      12.187      13.225      14.162      14.951      15.551      15.927      16.055    
  15.927      15.551      14.951      14.162      13.225      12.187      11.094      9.9884      8.9082      7.8836    
  6.9366      6.0811      5.3232      4.6625      4.0942      3.6111      3.2053      2.8694      2.5968      2.3820    
  2.2204      2.1081      2.0421      2.0204      2.0421      2.1081      2.2204      2.3820      2.5968      2.8694    
  3.2053      3.6111      4.0942      4.6625      5.3232      6.0811      7.2406      8.2639      9.3651      10.518    
  11.687      12.829      13.894      14.831      15.588      16.121      16.396      16.396      16.121      15.588    
  14.831      13.894      12.829      11.687      10.518      9.3651      8.2639      7.2406      6.3120      5.4862    
  4.7640      4.1414      3.6111      3.1650      2.7948      2.4930      2.2529      2.0688      1.9356      1.8494    
  1.8070      1.8070      1.8494      1.9356      2.0688      2.2529      2.4930      2.7948      3.1650      3.6111    
  4.1414      4.7640      5.4862      6.3120      7.6665      8.7700      9.9488      11.171      12.395      13.571    
  14.643      15.552      16.247      16.683      16.832      16.683      16.247      15.552      14.643      13.571    
  12.395      11.171      9.9488      8.7700      7.6665      6.6589      5.7583      4.9674      4.2831      3.6985    
  3.2053      2.7948      2.4586      2.1891      1.9794      1.8235      1.7163      1.6536      1.6330      1.6536    
  1.7163      1.8235      1.9794      2.1891      2.4586      2.7948      3.2053      3.6985      4.2831      4.9674    
  5.7583      6.6589      8.2188      9.4066      10.663      11.949      13.217      14.408      15.462      16.317    
  16.921      17.233      17.233      16.921      16.317      15.462      14.408      13.217      11.949      10.663    
  9.4066      8.2188      7.1258      6.1426      5.2747      4.5206      3.8741      3.3268      2.8694      2.4930    
  2.1891      1.9499      1.7684      1.6382      1.5545      1.5136      1.5136      1.5545      1.6382      1.7684    
  1.9499      2.1891      2.4930      2.8694      3.3268      3.8741      4.5206      5.2747      6.1426      7.1258    
  8.9048      10.179      11.510      12.851      14.145      15.330      16.339      17.112      17.597      17.763    
  17.597      17.112      16.339      15.330      14.145      12.851      11.510      10.179      8.9048      7.7199    
  6.6454      5.6910      4.8576      4.1404      3.5310      3.0197      2.5968      2.2529      1.9794      1.7684    
  1.6126      1.5060      1.4440      1.4236      1.4440      1.5060      1.6126      1.7684      1.9794      2.2529    
  2.5968      3.0197      3.5310      4.1404      4.8576      5.6910      6.6454      7.7199      9.7303      11.090    
  12.486      13.866      15.165      16.317      17.253      17.915      18.258      18.258      17.915      17.253    
  16.317      15.165      13.866      12.486      11.090      9.7303      8.4497      7.2759      6.2247      5.3012    
  4.5027      3.8218      3.2485      2.7720      2.3820      2.0688      1.8235      1.6382      1.5060      1.4211    
  1.3797      1.3797      1.4211      1.5060      1.6382      1.8235      2.0688      2.3820      2.7720      3.2485    
  3.8218      4.5027      5.3012      6.2247      7.2759      8.4497      10.693      12.128      13.573      14.969    
  16.247      17.336      18.171      18.696      18.875      18.696      18.171      17.336      16.247      14.969    
  13.573      12.128      10.693      9.3192      8.0423      6.8858      5.8612      4.9699      4.2064      3.5612    
  3.0227      2.5795      2.2204      1.9356      1.7163      1.5545      1.4440      1.3797      1.3587      1.3797    
  1.4440      1.5545      1.7163      1.9356      2.2204      2.5795      3.0227      3.5612      4.2064      4.9699    
  5.8612      6.8858      8.0423      9.3192      11.777      13.267      14.737      16.121      17.347      18.344    
  19.050      19.416      19.416      19.050      18.344      17.347      16.121      14.737      13.267      11.777    
  10.321      8.9455      7.6813      6.5478      5.5527      4.6947      3.9661      3.3557      2.8506      2.4386    
  2.1081      1.8494      1.6536      1.5136      1.4236      1.3797      1.3797      1.4236      1.5136      1.6536    
  1.8494      2.1081      2.4386      2.8506      3.3557      3.9661      4.6947      5.5527      6.5478      7.6813    
  8.9455      10.321      12.945      14.463      15.927      17.267      18.411      19.290      19.843      20.033    
  19.843      19.290      18.411      17.267      15.927      14.463      12.945      11.431      9.9728      8.6087    
  7.3661      6.2609      5.2981      4.4744      3.7804      3.2034      2.7297      2.3465      2.0421      1.8070    
  1.6330      1.5136      1.4440      1.4211      1.4440      1.5136      1.6330      1.8070      2.0421      2.3465    
  2.7297      3.2034      3.7804      4.4744      5.2981      6.2609      7.3661      8.6087      9.9728      11.431    
  14.144      15.656      17.079      18.340      19.364      20.087      20.461      20.461      20.087      19.364    
  18.340      17.079      15.656      14.144      12.605      11.093      9.6500      8.3106      7.0982      6.0262    
  5.0980      4.3090      3.6484      3.1029      2.6581      2.3010      2.0204      1.8070      1.6536      1.5545    
  1.5060      1.5060      1.5545      1.6536      1.8070      2.0204      2.3010      2.6581      3.1029      3.6484    
  4.3090      5.0980      6.0262      7.0982      8.3106      9.6500      11.093      12.605      15.306      16.760    
  18.075      19.184      20.026      20.554      20.734      20.554      20.026      19.184      18.075      16.760    
  15.306      13.783      12.255      10.769      9.3593      8.0564      6.8813      5.8461      4.9536      4.1984    
  3.5696      3.0529      2.6344      2.3010      2.0421      1.8494      1.7163      1.6382      1.6126      1.6382    
  1.7163      1.8494      2.0421      2.3010      2.6344      3.0529      3.5696      4.1984      4.9536      5.8461    
  6.8813      8.0564      9.3593      10.769      12.255      13.783      16.290      17.575      18.680      19.561    
  20.176      20.493      20.493      20.176      19.561      18.680      17.575      16.290      14.878      13.396    
  11.911      10.473      9.1118      7.8542      6.7207      5.7237      4.8662      4.1431      3.5433      3.0529    
  2.6581      2.3465      2.1081      1.9356      1.8235      1.7684      1.7684      1.8235      1.9356      2.1081    
  2.3465      2.6581      3.0529      3.5433      4.1431      4.8662      5.7237      6.7207      7.8542      9.1118    
  10.473      11.911      13.396      14.878      16.846      17.841      18.649      19.248      19.618      19.743    
  19.618      19.248      18.649      17.841      16.846      15.687      14.392      13.008      11.598      10.225    
  8.9211      7.7129      6.6218      5.6618      4.8370      4.1431      3.5696      3.1029      2.7297      2.4386    
  2.2204      2.0688      1.9794      1.9499      1.9794      2.0688      2.2204      2.4386      2.7297      3.1029    
  3.5696      4.1431      4.8370      5.6618      6.6218      7.7129      8.9211      10.225      11.598      13.008    
  14.392      15.687      16.725      17.326      17.772      18.069      18.219      18.219      18.069      17.772    
  17.326      16.725      15.956      15.013      13.901      12.656      11.344      10.044      8.8003      7.6401    
  6.5884      5.6618      4.8662      4.1984      3.6484      3.2034      2.8506      2.5795      2.3820      2.2529    
  2.1891      2.1891      2.2529      2.3820      2.5795      2.8506      3.2034      3.6484      4.1984      4.8662    
  5.6618      6.5884      7.6401      8.8003      10.044      11.344      12.656      13.901      15.013      15.956    
  15.723      15.860      15.923      15.948      15.955      15.948      15.923      15.860      15.723      15.463    
  15.024      14.365      13.475      12.387      11.178      9.9492      8.7589      7.6401      6.6218      5.7237    
  4.9536      4.3090      3.7804      3.3557      3.0227      2.7720      2.5968      2.4930      2.4586      2.4930    
  2.5968      2.7720      3.0227      3.3557      3.7804      4.3090      4.9536      5.7237      6.6218      7.6401    
  8.7589      9.9492      11.178      12.387      13.475      14.365      15.024      15.463      13.735      13.387    
  13.102      12.945      12.945      13.102      13.387      13.735      14.057      14.246      14.200      13.851    
  13.183      12.240      11.120      9.9492      8.8003      7.7129      6.7207      5.8461      5.0980      4.4744    
  3.9661      3.5612      3.2485      3.0197      2.8694      2.7948      2.7948      2.8694      3.0197      3.2485    
  3.5612      3.9661      4.4744      5.0980      5.8461      6.7207      7.7129      8.8003      9.9492      11.120    
  12.240      13.183      13.851      14.200      14.246      14.057      10.786      9.9981      9.4706      9.2855    
  9.4706      9.9981      10.786      11.704      12.591      13.280      13.632      13.567      13.079      12.240    
  11.178      10.044      8.9211      7.8542      6.8813      6.0262      5.2981      4.6947      4.2064      3.8218    
  3.5310      3.3268      3.2053      3.1650      3.2053      3.3268      3.5310      3.8218      4.2064      4.6947    
  5.2981      6.0262      6.8813      7.8542      8.9211      10.044      11.178      12.240      13.079      13.567    
  13.632      13.280      12.591      11.704      7.0655      5.9620      5.3678      5.3678      5.9620      7.0655    
  8.5178      10.103      11.585      12.746      13.430      13.567      13.183      12.387      11.344      10.225    
  9.1118      8.0564      7.0982      6.2609      5.5527      4.9699      4.5027      4.1404      3.8741      3.6985    
  3.6111      3.6111      3.6985      3.8741      4.1404      4.5027      4.9699      5.5527      6.2609      7.0982    
  8.0564      9.1118      10.225      11.344      12.387      13.183      13.567      13.430      12.746      11.585    
  10.103      8.5178      2.9313      1.7128      1.2866      1.7128      2.9313      4.7695      6.9675      9.2195    
  11.226      12.746      13.632      13.851      13.475      12.656      11.598      10.473      9.3593      8.3106    
  7.3661      6.5478      5.8612      5.3012      4.8576      4.5206      4.2831      4.1414      4.0942      4.1414    
  4.2831      4.5206      4.8576      5.3012      5.8612      6.5478      7.3661      8.3106      9.3593      10.473    
  11.598      12.656      13.475      13.851      13.632      12.746      11.226      9.2195      6.9675      4.7695    
 -1.1252     -2.2008     -2.2008     -1.1252     0.87183      3.5069      6.4163      9.2195      11.585      13.280    
  14.200      14.365      13.901      13.008      11.911      10.769      9.6500      8.6087      7.6813      6.8858    
  6.2247      5.6910      5.2747      4.9674      4.7640      4.6625      4.6625      4.7640      4.9674      5.2747    
  5.6910      6.2247      6.8858      7.6813      8.6087      9.6500      10.769      11.911      13.008      13.901    
  14.365      14.200      13.280      11.585      9.2195      6.4163      3.5069     0.87183     -4.5536     -5.2112    
 -4.5536     -2.6782     0.14169      3.5069      6.9675      10.103      12.591      14.246      15.024      15.013    
  14.392      13.396      12.255      11.093      9.9728      8.9455      8.0423      7.2759      6.6454      6.1426    
  5.7583      5.4862      5.3232      5.2689      5.3232      5.4862      5.7583      6.1426      6.6454      7.2759    
  8.0423      8.9455      9.9728      11.093      12.255      13.396      14.392      15.013      15.024      14.246    
  12.591      10.103      6.9675      3.5069     0.14169     -2.6782     -6.8492     -6.8492     -5.3848     -2.6782    
 0.87182      4.7695      8.5178      11.704      14.057      15.463      15.956      15.687      14.878      13.783    
  12.605      11.431      10.321      9.3192      8.4497      7.7199      7.1258      6.6589      6.3120      6.0811    
  5.9655      5.9655      6.0811      6.3120      6.6589      7.1258      7.7199      8.4497      9.3192      10.321    
  11.431      12.605      13.783      14.878      15.687      15.956      15.463      14.057      11.704      8.5178    
  4.7695     0.87183     -2.6782     -5.3848     -6.8492     -5.2112     -2.2007      1.7128      5.9620      9.9981    
  13.387      15.860      17.326      17.841      17.575      16.760      15.656      14.463      13.267      12.128    
  11.090      10.179      9.4066      8.7700      8.2639      7.8836      7.6282      7.4995      7.4995      7.6282    
  7.8836      8.2639      8.7700      9.4066      10.179      11.090      12.128      13.267      14.463      15.656    
  16.760      17.575      17.841      17.326      15.860      13.387      9.9981      5.9620      1.7128     -2.2008    
 -5.2112     -6.8492     -5.2112     -2.7911     0.79607      4.9952      9.2189      12.962      15.877      17.799    
  18.728      18.793      18.204      17.212      16.055      14.858      13.687      12.591      11.607      10.752    
  10.031      9.4421      8.9809      8.6474      8.4446      8.3764      8.4446      8.6474      8.9809      9.4421    
  10.031      10.752      11.607      12.591      13.687      14.858      16.055      17.212      18.204      18.793    
  18.728      17.799      15.877      12.962      9.2189      4.9952     0.79606     -2.7911     -5.2112     -6.0661    
 -2.2007     0.79607      4.6567      8.7975      12.671      15.862      18.132      19.420      19.806      19.467    
  18.635      17.555      16.396      15.229      14.108      13.075      12.156      11.363      10.697      10.156    
  9.7426      9.4608      9.3175      9.3175      9.4608      9.7426      10.156      10.697      11.363      12.156    
  13.075      14.108      15.229      16.396      17.555      18.635      19.467      19.806      19.420      18.132    
  15.862      12.671      8.7975      4.6567     0.79606     -2.2008     -3.8406     -3.8406      1.7128      4.9952    