diamond Si                              
   5.43000000000000     
     0.000000    0.500000    0.500000
     0.500000    0.000000    0.500000
     0.500000    0.500000    0.000000
   Si
     2
Direct
  0.000000  0.000000  0.000000
  0.250000  0.250000  0.250000
 
   48   48   48
 -.76569294833E+01 -.68491864191E+01 -.45536349123E+01 -.11251490736E+01 0.29312733413E+01
 0.70655049277E+01 0.10785971986E+02 0.13735162671E+02 0.15723460660E+02 0.16724608435E+02
 0.16846375447E+02 0.16289980072E+02 0.15306023137E+02 0.14143851693E+02 0.12944705413E+02
 0.11776555131E+02 0.10693213035E+02 0.97303420927E+01 0.89048105408E+01 0.82187820827E+01
 0.76664505150E+01 0.72405736134E+01 0.69365869996E+01 0.67534884749E+01 0.66922358428E+01
 0.67534886094E+01 0.69365872138E+01 0.72405737903E+01 0.76664505285E+01 0.82187819068E+01
 0.89048103060E+01 0.97303420086E+01 0.10693213224E+02 0.11776555489E+02 0.12944705610E+02
 0.14143851356E+02 0.15306022206E+02 0.16289979086E+02 0.16846375401E+02 0.16724610112E+02
 0.15723463900E+02 0.13735166284E+02 0.10785974529E+02 0.70655057005E+01 0.29312727477E+01
 -.11251500632E+01 -.45536355876E+01 -.68491866707E+01 -.68491864191E+01 -.52111564039E+01
 -.22007447560E+01 0.17127983434E+01 0.59619814546E+01 0.99980737940E+01 0.13386600357E+02
 0.15860076852E+02 0.17325762556E+02 0.17841258433E+02 0.17574638260E+02 0.16760460232E+02
 0.15655992805E+02 0.14463340683E+02 0.13267279421E+02 0.12127741470E+02 0.11089570899E+02
 0.10179266425E+02 0.94065696515E+01 0.87700154851E+01 0.82638539942E+01 0.78835576490E+01
 0.76281839287E+01 0.74995240475E+01 0.74995238492E+01 0.76281837707E+01 0.78835580156E+01
 0.82638544204E+01 0.87700152274E+01 0.94065689470E+01 0.10179266187E+02 0.11089571341E+02
 0.12127741926E+02 0.13267279500E+02 0.14463340657E+02 0.15655992698E+02 0.16760459535E+02
 0.17574637076E+02 0.17841258103E+02 0.17325764407E+02 0.15860080778E+02 0.13386605119E+02
 0.99980779869E+01 0.59619834169E+01 0.17127961036E+01 -.22007515533E+01 -.52111643718E+01
 -.68491900033E+01 -.45536349123E+01 -.22007447560E+01 0.12865800498E+01 0.53678470485E+01
 0.94705838470E+01 0.13102187003E+02 0.15923168621E+02 0.17771746991E+02 0.18648719988E+02
 0.18680455020E+02 0.18075096251E+02 0.17079249027E+02 0.15926697795E+02 0.14737136713E+02
 0.13573218581E+02 0.12485875260E+02 0.11509838231E+02 0.10662742890E+02 0.99487740919E+01
 0.93651011206E+01 0.89082331743E+01 0.85778168370E+01 0.83768736193E+01 0.83093101879E+01
 0.83768737816E+01 0.85778170446E+01 0.89082332620E+01 0.93651009834E+01 0.99487737561E+01
 0.10662742496E+02 0.11509837968E+02 0.12485875304E+02 0.13573218990E+02 0.14737137290E+02
 0.15926698108E+02 0.17079248726E+02 0.18075095407E+02 0.18680454117E+02 0.18648719649E+02
 0.17771747826E+02 0.15923171147E+02 0.13102191094E+02 0.94705878945E+01 0.53678481969E+01
 0.12865763850E+01 -.22007517258E+01 -.45536405062E+01 -.53848428845E+01 -.11251490736E+01
 0.17127983434E+01 0.53678470485E+01 0.92855020111E+01 0.12944506297E+02 0.15948322735E+02
 0.18069320925E+02 0.19247751457E+02 0.19561421596E+02 0.19183604239E+02 0.18339977118E+02
 0.17266563500E+02 0.16120591839E+02 0.14969005169E+02 0.13865509393E+02 0.12850658879E+02
 0.11949116378E+02 0.11171190761E+02 0.10518080383E+02 0.99883943235E+01 0.95830861113E+01
 0.93069284085E+01 0.91665048249E+01 0.91665051216E+01 0.93069289027E+01 0.95830862183E+01
 0.99883940792E+01 0.10518080167E+02 0.11171190540E+02 0.11949115859E+02 0.12850658293E+02
 0.13865509426E+02 0.14969005962E+02 0.16120592663E+02 0.17266563687E+02 0.18339976809E+02
 0.19183603847E+02 0.19561421039E+02 0.19247750549E+02 0.18069320250E+02 0.15948323331E+02
 0.12944508310E+02 0.92855041835E+01 0.53678478863E+01 0.17127975497E+01 -.11251504630E+01
 -.26781850659E+01 -.26781844119E+01 0.29312733413E+01 0.59619814546E+01 0.94705838470E+01
 0.12944506297E+02 0.15954775126E+02 0.18218995605E+02 0.19617939563E+02 0.20176485656E+02
 0.20026286787E+02 0.19363906423E+02 0.18410787204E+02 0.17346625055E+02 0.16246900795E+02
 0.15165248967E+02 0.14145216333E+02 0.13216650858E+02 0.12395454649E+02 0.11687298558E+02
 0.11093695586E+02 0.10617618505E+02 0.10266153812E+02 0.10049265337E+02 0.99757919293E+01
 0.10049265501E+02 0.10266154111E+02 0.10617618794E+02 0.11093695615E+02 0.11687298169E+02
 0.12395453957E+02 0.13216650220E+02 0.14145216119E+02 0.15165249324E+02 0.16246901557E+02
 0.17346625836E+02 0.18410787628E+02 0.19363906359E+02 0.20026286388E+02 0.20176485150E+02
 0.19617939015E+02 0.18218994952E+02 0.15954774441E+02 0.12944505930E+02 0.94705841957E+01
 0.59619825624E+01 0.29312747405E+01 0.87182539832E+00 0.14168553148E+00 0.87182443453E+00
 0.70655049277E+01 0.99980737940E+01 0.13102187003E+02 0.15948322735E+02 0.18218995605E+02
 0.19743371052E+02 0.20493171023E+02 0.20554007068E+02 0.20086949459E+02 0.19289554133E+02
 0.18344383241E+02 0.17336324925E+02 0.16316888723E+02 0.15329908181E+02 0.14407999570E+02
 0.13571198066E+02 0.12829222399E+02 0.12186719220E+02 0.11649106307E+02 0.11226203926E+02
 0.10931926202E+02 0.10780341133E+02 0.10780341037E+02 0.10931926203E+02 0.11226204374E+02
 0.11649106897E+02 0.12186719252E+02 0.12829221661E+02 0.13571197062E+02 0.14407998917E+02
 0.15329908141E+02 0.16316889319E+02 0.17336326027E+02 0.18344384356E+02 0.19289554536E+02
 0.20086948964E+02 0.20554006439E+02 0.20493171190E+02 0.19743371943E+02 0.18218996151E+02
 0.15948322091E+02 0.13102185470E+02 0.99980723924E+01 0.70655043214E+01 0.47694870017E+01
 0.35069379523E+01 0.35069378481E+01 0.47694869728E+01 0.10785971986E+02 0.13386600357E+02
 0.15923168621E+02 0.18069320925E+02 0.19617939563E+02 0.20493171023E+02 0.20733805681E+02
 0.20461321228E+02 0.19843463695E+02 0.19050404899E+02 0.18170929607E+02 0.17253226628E+02
 0.16339162010E+02 0.15461572505E+02 0.14642512385E+02 0.13894459954E+02 0.13224652401E+02
 0.12640818869E+02 0.12155539237E+02 0.11786912470E+02 0.11554997164E+02 0.11475674570E+02
 0.11554997118E+02 0.11786912674E+02 0.12155539825E+02 0.12640819469E+02 0.13224652367E+02
 0.13894458979E+02 0.14642510885E+02 0.15461571371E+02 0.16339161984E+02 0.17253227793E+02
 0.18170931326E+02 0.19050406187E+02 0.19843463834E+02 0.20461320321E+02 0.20733804712E+02
 0.20493171195E+02 0.19617941272E+02 0.18069323277E+02 0.15923170024E+02 0.13386599747E+02
 0.10785969602E+02 0.85178107004E+01 0.69674905009E+01 0.64163200964E+01 0.69674923835E+01
 0.85178135691E+01 0.13735162671E+02 0.15860076852E+02 0.17771746991E+02 0.19247751457E+02
 0.20176485656E+02 0.20554007068E+02 0.20461321228E+02 0.20032729260E+02 0.19416475155E+02
 0.18695964368E+02 0.17914993016E+02 0.17111724144E+02 0.16316888723E+02 0.15552179513E+02
 0.14830899811E+02 0.14161555010E+02 0.13553328516E+02 0.13020962557E+02 0.12586400649E+02
 0.12275886693E+02 0.12113426380E+02 0.12113426317E+02 0.12275886665E+02 0.12586400987E+02
 0.13020963353E+02 0.13553329277E+02 0.14161554874E+02 0.14830898338E+02 0.15552177301E+02
 0.16316887081E+02 0.17111724071E+02 0.17914994496E+02 0.18695966525E+02 0.19416476839E+02
 0.20032729557E+02 0.20461319917E+02 0.20554005046E+02 0.20176484760E+02 0.19247753208E+02
 0.17771751075E+02 0.15860080935E+02 0.13735164137E+02 0.11704334960E+02 0.10103215170E+02
 0.92194738341E+01 0.92194753243E+01 0.10103218275E+02 0.11704336759E+02 0.15723460660E+02
 0.17325762556E+02 0.18648719988E+02 0.19561421596E+02 0.20026286787E+02 0.20086949459E+02
 0.19843463695E+02 0.19416475155E+02 0.18875204766E+02 0.18257787441E+02 0.17597389123E+02
 0.16920737842E+02 0.16246900795E+02 0.15587794360E+02 0.14951306958E+02 0.14346528894E+02
 0.13789038411E+02 0.13303517468E+02 0.12921554477E+02 0.12675324288E+02 0.12590046274E+02
 0.12675323935E+02 0.12921554324E+02 0.13303518070E+02 0.13789039674E+02 0.14346529918E+02
 0.14951306655E+02 0.15587792391E+02 0.16246897986E+02 0.16920735663E+02 0.17597388681E+02
 0.18257788840E+02 0.18875207189E+02 0.19416477355E+02 0.19843464498E+02 0.20086948322E+02
 0.20026284356E+02 0.19561419706E+02 0.18648720541E+02 0.17325765896E+02 0.15723465040E+02
 0.14057029338E+02 0.12591308785E+02 0.11584719858E+02 0.11226096603E+02 0.11584720282E+02
 0.12591308066E+02 0.14057026328E+02 0.16724608435E+02 0.17841258433E+02 0.18680455020E+02
 0.19183604239E+02 0.19363906423E+02 0.19289554133E+02 0.19050404899E+02 0.18695964368E+02
 0.18257787441E+02 0.17763122191E+02 0.17233326905E+02 0.16683000246E+02 0.16120591839E+02
 0.15551305162E+02 0.14982158937E+02 0.14427620591E+02 0.13912278357E+02 0.13469403853E+02
 0.13140522775E+02 0.12964415930E+02 0.12964415571E+02 0.13140522080E+02 0.13469403665E+02
 0.13912279270E+02 0.14427622305E+02 0.14982160262E+02 0.15551304836E+02 0.16120589568E+02
 0.16682997023E+02 0.17233324294E+02 0.17763121264E+02 0.18257788307E+02 0.18695966461E+02
 0.19050407384E+02 0.19289556005E+02 0.19363906680E+02 0.19183602524E+02 0.18680452263E+02
 0.17841256516E+02 0.16724608833E+02 0.15463060381E+02 0.14245518676E+02 0.13280161912E+02
 0.12745785335E+02 0.12745784337E+02 0.13280159186E+02 0.14245515181E+02 0.15463057729E+02
 0.16846375447E+02 0.17574638260E+02 0.18075096251E+02 0.18339977118E+02 0.18410787204E+02
 0.18344383241E+02 0.18170929607E+02 0.17914993016E+02 0.17597389123E+02 0.17233326905E+02
 0.16831716452E+02 0.16395942622E+02 0.15926697795E+02 0.15426932375E+02 0.14907553006E+02
 0.14387791159E+02 0.13901061026E+02 0.13496770476E+02 0.13227339142E+02 0.13132583146E+02
 0.13227338292E+02 0.13496769404E+02 0.13901060711E+02 0.14387792245E+02 0.14907555071E+02
 0.15426933976E+02 0.15926697528E+02 0.16395940315E+02 0.16831713265E+02 0.17233324289E+02
 0.17597387813E+02 0.17914992999E+02 0.18170930683E+02 0.18344385237E+02 0.18410789574E+02
 0.18339978740E+02 0.18075096032E+02 0.17574636110E+02 0.16846372582E+02 0.15956470793E+02
 0.15024101779E+02 0.14199957160E+02 0.13632339114E+02 0.13429848188E+02 0.13632337874E+02
 0.14199955846E+02 0.15024101811E+02 0.15956472688E+02 0.16289980072E+02 0.16760460232E+02
 0.17079249027E+02 0.17266563500E+02 0.17346625055E+02 0.17336324925E+02 0.17253226628E+02
 0.17111724144E+02 0.16920737842E+02 0.16683000246E+02 0.16395942622E+02 0.16054508087E+02
 0.15655992805E+02 0.15205196105E+02 0.14712816424E+02 0.14208858694E+02 0.13746489009E+02
 0.13389352528E+02 0.13194136184E+02 0.13194135616E+02 0.13389351075E+02 0.13746487479E+02
 0.14208858222E+02 0.14712817657E+02 0.15205198406E+02 0.15655994519E+02 0.16054507878E+02
 0.16395940582E+02 0.16682997647E+02 0.16920735855E+02 0.17111722965E+02 0.17253225808E+02
 0.17336324324E+02 0.17346625219E+02 0.17266565000E+02 0.17079251482E+02 0.16760462204E+02
 0.16289980101E+02 0.15686649663E+02 0.15012828123E+02 0.14364719476E+02 0.13851314178E+02
 0.13567176588E+02 0.13567176872E+02 0.13851315346E+02 0.14364721875E+02 0.15012831146E+02
 0.15686651777E+02 0.15306023137E+02 0.15655992805E+02 0.15926697795E+02 0.16120591839E+02
 0.16246900795E+02 0.16316888723E+02 0.16339162010E+02 0.16316888723E+02 0.16246900795E+02
 0.16120591839E+02 0.15926697795E+02 0.15655992805E+02 0.15306023137E+02 0.14877506216E+02
 0.14392169761E+02 0.13901196324E+02 0.13474506875E+02 0.13183046932E+02 0.13079428469E+02
 0.13183045870E+02 0.13474505009E+02 0.13901194516E+02 0.14392169259E+02 0.14877507609E+02
 0.15306025550E+02 0.15655994468E+02 0.15926697574E+02 0.16120590170E+02 0.16246899079E+02
 0.16316887870E+02 0.16339161662E+02 0.16316887870E+02 0.16246899079E+02 0.16120590170E+02
 0.15926697574E+02 0.15655994468E+02 0.15306025550E+02 0.14877507609E+02 0.14392169259E+02
 0.13901194516E+02 0.13474505009E+02 0.13183045870E+02 0.13079428469E+02 0.13183046932E+02
 0.13474506875E+02 0.13901196324E+02 0.14392169761E+02 0.14877506216E+02 0.14143851693E+02
 0.14463340683E+02 0.14737136713E+02 0.14969005169E+02 0.15165248967E+02 0.15329908181E+02
 0.15461572505E+02 0.15552179513E+02 0.15587794360E+02 0.15551305162E+02 0.15426932375E+02
 0.15205196105E+02 0.14877506216E+02 0.14452918995E+02 0.13974243628E+02 0.13510805543E+02
 0.13142210604E+02 0.12937786239E+02 0.12937785894E+02 0.13142209403E+02 0.13510803512E+02
 0.13974241695E+02 0.14452918562E+02 0.14877507782E+02 0.15205198548E+02 0.15426933860E+02
 0.15551304772E+02 0.15587792836E+02 0.15552178443E+02 0.15461572832E+02 0.15329909387E+02
 0.15165249545E+02 0.14969003971E+02 0.14737134033E+02 0.14463338126E+02 0.14143850874E+02
 0.13782777537E+02 0.13395821605E+02 0.13007918888E+02 0.12656325387E+02 0.12386621083E+02
 0.12239724348E+02 0.12239724652E+02 0.12386621545E+02 0.12656325071E+02 0.13007917320E+02
 0.13395819453E+02 0.13782776305E+02 0.12944705413E+02 0.13267279421E+02 0.13573218581E+02
 0.13865509393E+02 0.14145216333E+02 0.14407999570E+02 0.14642512385E+02 0.14830899811E+02
 0.14951306958E+02 0.14982158937E+02 0.14907553006E+02 0.14712816424E+02 0.14392169761E+02
 0.13974243628E+02 0.13520158176E+02 0.13110371005E+02 0.12824940901E+02 0.12722612907E+02
 0.12824940502E+02 0.13110369686E+02 0.13520155942E+02 0.13974241622E+02 0.14392169443E+02
 0.14712818101E+02 0.14907555375E+02 0.14982160187E+02 0.14951306316E+02 0.14830898142E+02
 0.14642511402E+02 0.14408000427E+02 0.14145218689E+02 0.13865511602E+02 0.13573218913E+02
 0.13267277439E+02 0.12944702396E+02 0.12605171291E+02 0.12255334666E+02 0.11911228443E+02
 0.11597582818E+02 0.11343853153E+02 0.11177898244E+02 0.11120051660E+02 0.11177898135E+02
 0.11343852369E+02 0.11597581196E+02 0.11911226910E+02 0.12255334656E+02 0.12605173347E+02
 0.11776555131E+02 0.12127741470E+02 0.12485875260E+02 0.12850658879E+02 0.13216650858E+02
 0.13571198066E+02 0.13894459954E+02 0.14161555010E+02 0.14346528894E+02 0.14427620591E+02
 0.14387791159E+02 0.14208858694E+02 0.13901196324E+02 0.13510805543E+02 0.13110371005E+02
 0.12782245824E+02 0.12597602318E+02 0.12597602284E+02 0.12782245319E+02 0.13110369408E+02
 0.13510803084E+02 0.13901194293E+02 0.14208858421E+02 0.14387792758E+02 0.14427622778E+02
 0.14346530033E+02 0.14161554358E+02 0.13894458099E+02 0.13571196413E+02 0.13216650735E+02
 0.12850660744E+02 0.12485878322E+02 0.12127744047E+02 0.11776555771E+02 0.11431100311E+02
 0.11092765938E+02 0.10768725526E+02 0.10472961657E+02 0.10224639351E+02 0.10044316937E+02
 0.99492475428E+01 0.99492472447E+01 0.10044316138E+02 0.10224638505E+02 0.10472961604E+02
 0.10768726832E+02 0.11092768061E+02 0.11431101705E+02 0.10693213035E+02 0.11089570899E+02
 0.11509838231E+02 0.11949116378E+02 0.12395454649E+02 0.12829222399E+02 0.13224652401E+02
 0.13553328516E+02 0.13789038411E+02 0.13912278357E+02 0.13901061026E+02 0.13746489009E+02
 0.13474506875E+02 0.13142210604E+02 0.12824940901E+02 0.12597602318E+02 0.12515109659E+02
 0.12597602288E+02 0.12824940212E+02 0.13142208806E+02 0.13474504430E+02 0.13746487121E+02
 0.13901060695E+02 0.13912279572E+02 0.13789040214E+02 0.13553329695E+02 0.13224652175E+02
 0.12829220739E+02 0.12395452342E+02 0.11949114799E+02 0.11509838610E+02 0.11089573331E+02
 0.10693216184E+02 0.10321134957E+02 0.99727544374E+01 0.96499890002E+01 0.93593166909E+01
 0.91117887458E+01 0.89210668763E+01 0.88002927030E+01 0.87588949558E+01 0.88002921425E+01
 0.89210662606E+01 0.91117887708E+01 0.93593175909E+01 0.96499900347E+01 0.99727542738E+01
 0.10321132896E+02 0.97303420927E+01 0.10179266425E+02 0.10662742890E+02 0.11171190761E+02
 0.11687298558E+02 0.12186719220E+02 0.12640818869E+02 0.13020962557E+02 0.13303517468E+02
 0.13469403853E+02 0.13496770476E+02 0.13389352528E+02 0.13183046932E+02 0.12937786239E+02
 0.12722612907E+02 0.12597602284E+02 0.12597602288E+02 0.12722612702E+02 0.12937785415E+02
 0.13183045373E+02 0.13389350649E+02 0.13496768990E+02 0.13469403280E+02 0.13303517867E+02
 0.13020963609E+02 0.12640820062E+02 0.12186719943E+02 0.11687298204E+02 0.11171189099E+02
 0.10662740482E+02 0.10179264518E+02 0.97303417986E+01 0.93191843362E+01 0.89454774531E+01
 0.86086695617E+01 0.83105654110E+01 0.80563973998E+01 0.78541897682E+01 0.77128873159E+01
 0.76400763532E+01 0.76400761955E+01 0.77128870411E+01 0.78541896648E+01 0.80563973244E+01
 0.83105647644E+01 0.86086679456E+01 0.89454753383E+01 0.93191829290E+01 0.89048105408E+01
 0.94065696515E+01 0.99487740919E+01 0.10518080383E+02 0.11093695586E+02 0.11649106307E+02
 0.12155539237E+02 0.12586400649E+02 0.12921554477E+02 0.13140522775E+02 0.13227339142E+02
 0.13194136184E+02 0.13079428469E+02 0.12937785894E+02 0.12824940502E+02 0.12782245319E+02
 0.12824940212E+02 0.12937785415E+02 0.13079427848E+02 0.13194135380E+02 0.13227338171E+02
 0.13140521786E+02 0.12921553640E+02 0.12586400114E+02 0.12155539240E+02 0.11649107131E+02
 0.11093697094E+02 0.10518081644E+02 0.99487738552E+01 0.94065675062E+01 0.89048075568E+01
 0.84496857522E+01 0.80422516237E+01 0.76813080568E+01 0.73661362184E+01 0.70981712298E+01
 0.68812583772E+01 0.67207171947E+01 0.66218311494E+01 0.65884095439E+01 0.66218310409E+01
 0.67207171579E+01 0.68812583192E+01 0.70981706850E+01 0.73661349968E+01 0.76813068911E+01
 0.80422517889E+01 0.84496878033E+01 0.82187820827E+01 0.87700154851E+01 0.93651011206E+01
 0.99883943235E+01 0.10617618505E+02 0.11226203926E+02 0.11786912470E+02 0.12275886693E+02
 0.12675324288E+02 0.12964415930E+02 0.13132583146E+02 0.13194135616E+02 0.13183045870E+02
 0.13142209403E+02 0.13110369686E+02 0.13110369408E+02 0.13142208806E+02 0.13183045373E+02
 0.13194135380E+02 0.13132583045E+02 0.12964415818E+02 0.12675324049E+02 0.12275886105E+02
 0.11786911348E+02 0.11226202612E+02 0.10617617951E+02 0.99883952836E+01 0.93651032075E+01
 0.87700172498E+01 0.82187822193E+01 0.77198834269E+01 0.72758822016E+01 0.68858063905E+01
 0.65477626868E+01 0.62608881727E+01 0.60261519610E+01 0.58460571184E+01 0.57237037493E+01
 0.56617690364E+01 0.56617690915E+01 0.57237038800E+01 0.58460572313E+01 0.60261520008E+01
 0.62608883240E+01 0.65477634110E+01 0.68858080270E+01 0.72758843725E+01 0.77198849817E+01
 0.76664505150E+01 0.82638539942E+01 0.89082331743E+01 0.95830861113E+01 0.10266153812E+02
 0.10931926202E+02 0.11554997164E+02 0.12113426380E+02 0.12590046274E+02 0.12964415571E+02
 0.13227338292E+02 0.13389351075E+02 0.13474505009E+02 0.13510803512E+02 0.13520155942E+02
 0.13510803084E+02 0.13474504430E+02 0.13389350649E+02 0.13227338171E+02 0.12964415818E+02
 0.12590046896E+02 0.12113427135E+02 0.11554997379E+02 0.10931925172E+02 0.10266151644E+02
 0.95830840753E+01 0.89082328667E+01 0.82638558824E+01 0.76664533680E+01 0.71257550343E+01
 0.66453625293E+01 0.62246549067E+01 0.58611750074E+01 0.55526549077E+01 0.52981220737E+01
 0.50980050956E+01 0.49535794379E+01 0.48662493161E+01 0.48370206432E+01 0.48662496758E+01
 0.49535799072E+01 0.50980054799E+01 0.52981225474E+01 0.55526559082E+01 0.58611766237E+01
 0.62246563667E+01 0.66453625791E+01 0.71257531350E+01 0.72405736134E+01 0.78835576490E+01
 0.85778168370E+01 0.93069284085E+01 0.10049265337E+02 0.10780341133E+02 0.11475674570E+02
 0.12113426317E+02 0.12675323935E+02 0.13140522080E+02 0.13496769404E+02 0.13746487479E+02
 0.13901194516E+02 0.13974241695E+02 0.13974241622E+02 0.13901194293E+02 0.13746487121E+02
 0.13496768990E+02 0.13140521786E+02 0.12675324049E+02 0.12113427135E+02 0.11475676062E+02
 0.10780342628E+02 0.10049265741E+02 0.93069270837E+01 0.85778143959E+01 0.78835556875E+01
 0.72405734299E+01 0.66589181254E+01 0.61425655163E+01 0.56909577016E+01 0.53011598956E+01
 0.49698665382E+01 0.46946731850E+01 0.44744359699E+01 0.43089573703E+01 0.41984484363E+01
 0.41431381013E+01 0.41431382884E+01 0.41984489025E+01 0.43089579271E+01 0.44744365088E+01
 0.46946736820E+01 0.49698668285E+01 0.53011595380E+01 0.56909563253E+01 0.61425634638E+01
 0.66589165902E+01 0.69365869996E+01 0.76281839287E+01 0.83768736193E+01 0.91665048249E+01
 0.99757919293E+01 0.10780341037E+02 0.11554997118E+02 0.12275886665E+02 0.12921554324E+02
 0.13469403665E+02 0.13901060711E+02 0.14208858222E+02 0.14392169259E+02 0.14452918562E+02
 0.14392169443E+02 0.14208858421E+02 0.13901060695E+02 0.13469403280E+02 0.12921553640E+02
 0.12275886105E+02 0.11554997379E+02 0.10780342628E+02 0.99757945114E+01 0.91665070547E+01
 0.83768739839E+01 0.76281820467E+01 0.69365841331E+01 0.63120083454E+01 0.57583338509E+01
 0.52747259084E+01 0.48576297562E+01 0.45027447191E+01 0.42064041440E+01 0.39661171804E+01
 0.37804204384E+01 0.36484396532E+01 0.35695519303E+01 0.35433127197E+01 0.35695521342E+01
 0.36484399230E+01 0.37804206840E+01 0.39661173472E+01 0.42064039676E+01 0.45027437677E+01
 0.48576280216E+01 0.52747243009E+01 0.57583337272E+01 0.63120102437E+01 0.67534884749E+01
 0.74995240475E+01 0.83093101879E+01 0.91665051216E+01 0.10049265501E+02 0.10931926203E+02
 0.11786912674E+02 0.12586400987E+02 0.13303518070E+02 0.13912279270E+02 0.14387792245E+02
 0.14712817657E+02 0.14877507609E+02 0.14877507782E+02 0.14712818101E+02 0.14387792758E+02
 0.13912279572E+02 0.13303517867E+02 0.12586400114E+02 0.11786911348E+02 0.10931925172E+02
 0.10049265741E+02 0.91665070547E+01 0.83093130526E+01 0.74995262261E+01 0.67534887283E+01
 0.60811363336E+01 0.54861964387E+01 0.49674461708E+01 0.45206242820E+01 0.41403992398E+01
 0.38218478644E+01 0.35611621120E+01 0.33556529649E+01 0.32033898442E+01 0.31028690906E+01
 0.30529375698E+01 0.30529376171E+01 0.31028691635E+01 0.32033898249E+01 0.33556527883E+01
 0.35611617173E+01 0.38218472011E+01 0.41403985224E+01 0.45206241387E+01 0.49674471851E+01
 0.54861983411E+01 0.60811378343E+01 0.66922358428E+01 0.74995238492E+01 0.83768737816E+01
 0.93069289027E+01 0.10266154111E+02 0.11226204374E+02 0.12155539825E+02 0.13020963353E+02
 0.13789039674E+02 0.14427622305E+02 0.14907555071E+02 0.15205198406E+02 0.15306025550E+02
 0.15205198548E+02 0.14907555375E+02 0.14427622778E+02 0.13789040214E+02 0.13020963609E+02
 0.12155539240E+02 0.11226202612E+02 0.10266151644E+02 0.93069270837E+01 0.83768739839E+01
 0.74995262261E+01 0.66922389682E+01 0.59655028091E+01 0.53232362533E+01 0.47640427423E+01
 0.42830943193E+01 0.38741153758E+01 0.35309597093E+01 0.32484830789E+01 0.30227170582E+01
 0.28506124256E+01 0.27297207141E+01 0.26580821321E+01 0.26343627169E+01 0.26580820582E+01
 0.27297206279E+01 0.28506123015E+01 0.30227167439E+01 0.32484825404E+01 0.35309593244E+01
 0.38741157736E+01 0.42830956707E+01 0.47640441980E+01 0.53232363762E+01 0.59655008696E+01
 0.67534886094E+01 0.76281837707E+01 0.85778170446E+01 0.95830862183E+01 0.10617618794E+02
 0.11649106897E+02 0.12640819469E+02 0.13553329277E+02 0.14346529918E+02 0.14982160262E+02
 0.15426933976E+02 0.15655994519E+02 0.15655994468E+02 0.15426933860E+02 0.14982160187E+02
 0.14346530033E+02 0.13553329695E+02 0.12640820062E+02 0.11649107131E+02 0.10617617951E+02
 0.95830840753E+01 0.85778143959E+01 0.76281820467E+01 0.67534887283E+01 0.59655028091E+01
 0.52688923009E+01 0.46625317923E+01 0.41413886701E+01 0.36985246231E+01 0.33267537175E+01
 0.30196664425E+01 0.27719848649E+01 0.25794504728E+01 0.24385647426E+01 0.23464576585E+01
 0.23009882524E+01 0.23009881777E+01 0.23464574989E+01 0.24385645869E+01 0.25794502969E+01
 0.27719846158E+01 0.30196662491E+01 0.33267538432E+01 0.36985250603E+01 0.41413888657E+01
 0.46625310501E+01 0.52688906291E+01 0.59655012516E+01 0.69365872138E+01 0.78835580156E+01
 0.89082332620E+01 0.99883940792E+01 0.11093695615E+02 0.12186719252E+02 0.13224652367E+02
 0.14161554874E+02 0.14951306655E+02 0.15551304836E+02 0.15926697528E+02 0.16054507878E+02
 0.15926697574E+02 0.15551304772E+02 0.14951306316E+02 0.14161554358E+02 0.13224652175E+02
 0.12186719943E+02 0.11093697094E+02 0.99883952836E+01 0.89082328667E+01 0.78835556875E+01
 0.69365841331E+01 0.60811363336E+01 0.53232362533E+01 0.46625317923E+01 0.40942306364E+01
 0.36111298422E+01 0.32053299131E+01 0.28693722006E+01 0.25967547297E+01 0.23819814251E+01
 0.22204099273E+01 0.21081487744E+01 0.20421349241E+01 0.20203643284E+01 0.20421348210E+01
 0.21081485925E+01 0.22204096797E+01 0.23819811743E+01 0.25967546598E+01 0.28693724424E+01
 0.32053302133E+01 0.36111296160E+01 0.40942296382E+01 0.46625307317E+01 0.53232364291E+01
 0.60811383906E+01 0.72405737903E+01 0.82638544204E+01 0.93651009834E+01 0.10518080167E+02
 0.11687298169E+02 0.12829221661E+02 0.13894458979E+02 0.14830898338E+02 0.15587792391E+02
 0.16120589568E+02 0.16395940315E+02 0.16395940582E+02 0.16120590170E+02 0.15587792836E+02
 0.14830898142E+02 0.13894458099E+02 0.12829220739E+02 0.11687298204E+02 0.10518081644E+02
 0.93651032075E+01 0.82638558824E+01 0.72405734299E+01 0.63120083454E+01 0.54861964387E+01
 0.47640427423E+01 0.41413886701E+01 0.36111298422E+01 0.31649989990E+01 0.27947863063E+01
 0.24929708726E+01 0.22529068052E+01 0.20687925428E+01 0.19356389786E+01 0.18493621428E+01
 0.18070063386E+01 0.18070062905E+01 0.18493620166E+01 0.19356388060E+01 0.20687923739E+01
 0.22529067662E+01 0.24929710975E+01 0.27947867124E+01 0.31649992639E+01 0.36111298292E+01
 0.41413888334E+01 0.47640437934E+01 0.54861984160E+01 0.63120101897E+01 0.76664505285E+01
 0.87700152274E+01 0.99487737561E+01 0.11171190540E+02 0.12395453957E+02 0.13571197062E+02
 0.14642510885E+02 0.15552177301E+02 0.16246897986E+02 0.16682997023E+02 0.16831713265E+02
 0.16682997647E+02 0.16246899079E+02 0.15552178443E+02 0.14642511402E+02 0.13571196413E+02
 0.12395452342E+02 0.11171189099E+02 0.99487738552E+01 0.87700172498E+01 0.76664533680E+01
 0.66589181254E+01 0.57583338509E+01 0.49674461708E+01 0.42830943193E+01 0.36985246231E+01
 0.32053299131E+01 0.27947863063E+01 0.24585803650E+01 0.21890882764E+01 0.19794366137E+01
 0.18235443860E+01 0.17162575099E+01 0.16535872850E+01 0.16329893829E+01 0.16535872625E+01
 0.17162574580E+01 0.18235443785E+01 0.19794367894E+01 0.21890886566E+01 0.24585807510E+01
 0.27947865066E+01 0.32053301036E+01 0.36985252888E+01 0.42830956160E+01 0.49674473792E+01
 0.57583337594E+01 0.66589162058E+01 0.82187819068E+01 0.94065689470E+01 0.10662742496E+02
 0.11949115859E+02 0.13216650220E+02 0.14407998917E+02 0.15461571371E+02 0.16316887081E+02
 0.16920735663E+02 0.17233324294E+02 0.17233324289E+02 0.16920735855E+02 0.16316887870E+02
 0.15461572832E+02 0.14408000427E+02 0.13216650735E+02 0.11949114799E+02 0.10662740482E+02
 0.94065675062E+01 0.82187822193E+01 0.71257550343E+01 0.61425655163E+01 0.52747259084E+01
 0.45206242820E+01 0.38741153758E+01 0.33267537175E+01 0.28693722006E+01 0.24929708726E+01
 0.21890882764E+01 0.19499138940E+01 0.17683651125E+01 0.16382489175E+01 0.15545221623E+01
 0.15135947856E+01 0.15135948159E+01 0.15545222162E+01 0.16382489873E+01 0.17683653147E+01
 0.19499143020E+01 0.21890887107E+01 0.24929710503E+01 0.28693721259E+01 0.33267537065E+01
 0.38741155317E+01 0.45206240969E+01 0.52747247058E+01 0.61425633972E+01 0.71257531631E+01
 0.89048103060E+01 0.10179266187E+02 0.11509837968E+02 0.12850658293E+02 0.14145216119E+02
 0.15329908141E+02 0.16339161984E+02 0.17111724071E+02 0.17597388681E+02 0.17763121264E+02
 0.17597387813E+02 0.17111722965E+02 0.16339161662E+02 0.15329909387E+02 0.14145218689E+02
 0.12850660744E+02 0.11509838610E+02 0.10179264518E+02 0.89048075568E+01 0.77198834269E+01
 0.66453625293E+01 0.56909577016E+01 0.48576297562E+01 0.41403992398E+01 0.35309597093E+01
 0.30196664425E+01 0.25967547297E+01 0.22529068052E+01 0.19794366137E+01 0.17683651125E+01
 0.16125583787E+01 0.15059751159E+01 0.14439807543E+01 0.14236496729E+01 0.14439807358E+01
 0.15059751339E+01 0.16125585089E+01 0.17683653547E+01 0.19794368360E+01 0.22529068620E+01
 0.25967546260E+01 0.30196662463E+01 0.35309592628E+01 0.41403981711E+01 0.48576280405E+01
 0.56909561680E+01 0.66453624493E+01 0.77198852956E+01 0.97303420086E+01 0.11089571341E+02
 0.12485875304E+02 0.13865509426E+02 0.15165249324E+02 0.16316889319E+02 0.17253227793E+02
 0.17914994496E+02 0.18257788840E+02 0.18257788307E+02 0.17914992999E+02 0.17253225808E+02
 0.16316887870E+02 0.15165249545E+02 0.13865511602E+02 0.12485878322E+02 0.11089573331E+02
 0.97303417986E+01 0.84496857522E+01 0.72758822016E+01 0.62246549067E+01 0.53011598956E+01
 0.45027447191E+01 0.38218478644E+01 0.32484830789E+01 0.27719848649E+01 0.23819814251E+01
 0.20687925428E+01 0.18235443860E+01 0.16382489175E+01 0.15059751159E+01 0.14211207227E+01
 0.13797224704E+01 0.13797224162E+01 0.14211206357E+01 0.15059751241E+01 0.16382490263E+01
 0.18235444526E+01 0.20687924485E+01 0.23819812162E+01 0.27719846389E+01 0.32484827575E+01
 0.38218472560E+01 0.45027439454E+01 0.53011596350E+01 0.62246559008E+01 0.72758843278E+01
 0.84496877089E+01 0.10693213224E+02 0.12127741926E+02 0.13573218990E+02 0.14969005962E+02
 0.16246901557E+02 0.17336326027E+02 0.18170931326E+02 0.18695966525E+02 0.18875207189E+02
 0.18695966461E+02 0.18170930683E+02 0.17336324324E+02 0.16246899079E+02 0.14969003971E+02
 0.13573218913E+02 0.12127744047E+02 0.10693216184E+02 0.93191843362E+01 0.80422516237E+01
 0.68858063905E+01 0.58611750074E+01 0.49698665382E+01 0.42064041440E+01 0.35611621120E+01
 0.30227170582E+01 0.25794504728E+01 0.22204099273E+01 0.19356389786E+01 0.17162575099E+01
 0.15545221623E+01 0.14439807543E+01 0.13797224704E+01 0.13586555428E+01 0.13797224677E+01
 0.14439807797E+01 0.15545221984E+01 0.17162574808E+01 0.19356388504E+01 0.22204097584E+01
 0.25794503005E+01 0.30227168069E+01 0.35611617753E+01 0.42064040781E+01 0.49698673297E+01
 0.58611767645E+01 0.68858081820E+01 0.80422519612E+01 0.93191825320E+01 0.11776555489E+02
 0.13267279500E+02 0.14737137290E+02 0.16120592663E+02 0.17346625836E+02 0.18344384356E+02
 0.19050406187E+02 0.19416476839E+02 0.19416477355E+02 0.19050407384E+02 0.18344385237E+02
 0.17346625219E+02 0.16120590170E+02 0.14737134033E+02 0.13267277439E+02 0.11776555771E+02
 0.10321134957E+02 0.89454774531E+01 0.76813080568E+01 0.65477626868E+01 0.55526549077E+01
 0.46946731850E+01 0.39661171804E+01 0.33556529649E+01 0.28506124256E+01 0.24385647426E+01
 0.21081487744E+01 0.18493621428E+01 0.16535872850E+01 0.15135947856E+01 0.14236496729E+01
 0.13797224162E+01 0.13797224677E+01 0.14236497850E+01 0.15135948581E+01 0.16535872369E+01
 0.18493619896E+01 0.21081486183E+01 0.24385646514E+01 0.28506123475E+01 0.33556528525E+01
 0.39661172171E+01 0.46946737202E+01 0.55526559569E+01 0.65477635316E+01 0.76813076816E+01