   2   2   1   0
  0.2001288E+02  0.3839590E-09  0.3839590E-09  0.3839590E-09  0.5000000E-15
  1.000000000000000E-004
  CAR 
 diamond Si                              
     16.90637515     -7.23372991  301      6.09432821      1.00000000
     -7.234  0.0000E+00  0.0000E+00
     -7.153  0.0000E+00  0.0000E+00
     -7.073  0.0000E+00  0.0000E+00
     -6.992  0.0000E+00  0.0000E+00
     -6.912  0.0000E+00  0.0000E+00
     -6.831  0.0000E+00  0.0000E+00
     -6.751  0.0000E+00  0.0000E+00
     -6.670  0.1714E-15  0.1379E-16
     -6.590  0.6279E-12  0.5054E-13
     -6.510  0.6705E-09  0.5401E-10
     -6.429  0.2143E-06  0.1730E-07
     -6.349  0.2123E-04  0.1726E-05
     -6.268  0.6881E-03  0.5710E-04
     -6.188  0.7934E-02  0.6955E-03
     -6.107  0.3716E-01  0.3685E-02
     -6.027  0.8688E-01  0.1068E-01
     -5.946  0.1328E+00  0.2136E-01
     -5.866  0.1675E+00  0.3484E-01
     -5.785  0.1959E+00  0.5060E-01
     -5.705  0.2207E+00  0.6836E-01
     -5.624  0.2438E+00  0.8798E-01
     -5.544  0.2644E+00  0.1093E+00
     -5.463  0.2857E+00  0.1322E+00
     -5.383  0.3030E+00  0.1566E+00
     -5.303  0.3240E+00  0.1827E+00
     -5.222  0.3400E+00  0.2101E+00
     -5.142  0.3579E+00  0.2389E+00
     -5.061  0.3788E+00  0.2693E+00
     -4.981  0.3895E+00  0.3007E+00
     -4.900  0.4134E+00  0.3339E+00
     -4.820  0.4299E+00  0.3685E+00
     -4.739  0.4409E+00  0.4040E+00
     -4.659  0.4670E+00  0.4416E+00
     -4.578  0.4864E+00  0.4807E+00
     -4.498  0.4932E+00  0.5204E+00
     -4.417  0.5245E+00  0.5626E+00
     -4.337  0.5501E+00  0.6069E+00
     -4.256  0.5577E+00  0.6518E+00
     -4.176  0.5878E+00  0.6991E+00
     -4.096  0.6285E+00  0.7496E+00
     -4.015  0.6569E+00  0.8025E+00
     -3.935  0.6833E+00  0.8575E+00
     -3.854  0.7692E+00  0.9194E+00
     -3.774  0.8446E+00  0.9873E+00
     -3.693  0.8584E+00  0.1056E+01
     -3.613  0.8362E+00  0.1124E+01
     -3.532  0.8295E+00  0.1190E+01
     -3.452  0.8147E+00  0.1256E+01
     -3.371  0.7579E+00  0.1317E+01
     -3.291  0.7254E+00  0.1375E+01
     -3.210  0.7253E+00  0.1434E+01
     -3.130  0.6976E+00  0.1490E+01
     -3.049  0.6606E+00  0.1543E+01
     -2.969  0.6171E+00  0.1593E+01
     -2.889  0.5806E+00  0.1639E+01
     -2.808  0.6047E+00  0.1688E+01
     -2.728  0.5759E+00  0.1734E+01
     -2.647  0.4673E+00  0.1772E+01
     -2.567  0.4423E+00  0.1808E+01
     -2.486  0.5047E+00  0.1848E+01
     -2.406  0.4550E+00  0.1885E+01
     -2.325  0.3278E+00  0.1911E+01
     -2.245  0.2854E+00  0.1934E+01
     -2.164  0.3257E+00  0.1960E+01
     -2.084  0.2790E+00  0.1983E+01
     -2.003  0.1476E+00  0.1995E+01
     -1.923  0.6154E-01  0.2000E+01
     -1.842  0.6517E-01  0.2005E+01
     -1.762  0.1735E+00  0.2019E+01
     -1.682  0.2522E+00  0.2039E+01
     -1.601  0.2183E+00  0.2057E+01
     -1.521  0.1985E+00  0.2073E+01
     -1.440  0.3308E+00  0.2099E+01
     -1.360  0.5186E+00  0.2141E+01
     -1.279  0.4750E+00  0.2179E+01
     -1.199  0.4205E+00  0.2213E+01
     -1.118  0.6792E+00  0.2268E+01
     -1.038  0.1175E+01  0.2362E+01
     -0.957  0.1474E+01  0.2481E+01
     -0.877  0.1340E+01  0.2589E+01
     -0.796  0.1076E+01  0.2675E+01
     -0.716  0.9397E+00  0.2751E+01
     -0.635  0.8745E+00  0.2821E+01
     -0.555  0.7844E+00  0.2884E+01
     -0.475  0.6683E+00  0.2938E+01
     -0.394  0.6160E+00  0.2988E+01
     -0.314  0.5912E+00  0.3035E+01
     -0.233  0.6076E+00  0.3084E+01
     -0.153  0.5513E+00  0.3128E+01
     -0.072  0.4993E+00  0.3169E+01
      0.008  0.4782E+00  0.3207E+01
      0.089  0.4200E+00  0.3241E+01
      0.169  0.4688E+00  0.3279E+01
      0.250  0.4498E+00  0.3315E+01
      0.330  0.3624E+00  0.3344E+01
      0.411  0.3952E+00  0.3376E+01
      0.491  0.3606E+00  0.3405E+01
      0.572  0.3093E+00  0.3430E+01
      0.652  0.3768E+00  0.3460E+01
      0.733  0.3455E+00  0.3488E+01
      0.813  0.2528E+00  0.3508E+01
      0.893  0.2986E+00  0.3532E+01
      0.974  0.3090E+00  0.3557E+01
      1.054  0.2380E+00  0.3576E+01
      1.135  0.2614E+00  0.3597E+01
      1.215  0.2889E+00  0.3621E+01
      1.296  0.2167E+00  0.3638E+01
      1.376  0.2442E+00  0.3658E+01
      1.457  0.4506E+00  0.3694E+01
      1.537  0.6527E+00  0.3746E+01
      1.618  0.8203E+00  0.3812E+01
      1.698  0.1063E+01  0.3898E+01
      1.779  0.1194E+01  0.3994E+01
      1.859  0.1131E+01  0.4085E+01
      1.940  0.1100E+01  0.4174E+01
      2.020  0.1070E+01  0.4260E+01
      2.100  0.1036E+01  0.4343E+01
      2.181  0.1015E+01  0.4425E+01
      2.261  0.1006E+01  0.4506E+01
      2.342  0.1046E+01  0.4590E+01
      2.422  0.1064E+01  0.4675E+01
      2.503  0.1069E+01  0.4761E+01
      2.583  0.1085E+01  0.4849E+01
      2.664  0.1141E+01  0.4940E+01
      2.744  0.1177E+01  0.5035E+01
      2.825  0.1230E+01  0.5134E+01
      2.905  0.1323E+01  0.5241E+01
      2.986  0.1427E+01  0.5355E+01
      3.066  0.1515E+01  0.5477E+01
      3.147  0.1485E+01  0.5597E+01
      3.227  0.1480E+01  0.5716E+01
      3.307  0.1466E+01  0.5834E+01
      3.388  0.1439E+01  0.5950E+01
      3.468  0.1410E+01  0.6063E+01
      3.549  0.1395E+01  0.6175E+01
      3.629  0.1349E+01  0.6284E+01
      3.710  0.1365E+01  0.6394E+01
      3.790  0.1341E+01  0.6502E+01
      3.871  0.1268E+01  0.6604E+01
      3.951  0.1301E+01  0.6708E+01
      4.032  0.1281E+01  0.6812E+01
      4.112  0.1206E+01  0.6909E+01
      4.193  0.1242E+01  0.7008E+01
      4.273  0.1219E+01  0.7107E+01
      4.354  0.1145E+01  0.7199E+01
      4.434  0.1183E+01  0.7294E+01
      4.514  0.1155E+01  0.7387E+01
      4.595  0.1050E+01  0.7471E+01
      4.675  0.9858E+00  0.7551E+01
      4.756  0.8309E+00  0.7617E+01
      4.836  0.6986E+00  0.7674E+01
      4.917  0.6397E+00  0.7725E+01
      4.997  0.5533E+00  0.7770E+01
      5.078  0.5051E+00  0.7810E+01
      5.158  0.4462E+00  0.7846E+01
      5.239  0.3843E+00  0.7877E+01
      5.319  0.3572E+00  0.7906E+01
      5.400  0.3036E+00  0.7930E+01
      5.480  0.2570E+00  0.7951E+01
      5.561  0.2226E+00  0.7969E+01
      5.641  0.1747E+00  0.7983E+01
      5.721  0.1238E+00  0.7993E+01
      5.802  0.6590E-01  0.7998E+01
      5.882  0.1957E-01  0.8000E+01
      5.963  0.2611E-02  0.8000E+01
      6.043  0.1323E-03  0.8000E+01
      6.124  0.2901E-05  0.8000E+01
      6.204  0.5621E-04  0.8000E+01
      6.285  0.1507E-02  0.8000E+01
      6.365  0.1367E-01  0.8001E+01
      6.446  0.5265E-01  0.8005E+01
      6.526  0.1236E+00  0.8015E+01
      6.607  0.2011E+00  0.8032E+01
      6.687  0.2553E+00  0.8052E+01
      6.768  0.3316E+00  0.8079E+01
      6.848  0.3833E+00  0.8110E+01
      6.928  0.4008E+00  0.8142E+01
      7.009  0.4529E+00  0.8178E+01
      7.089  0.5274E+00  0.8221E+01
      7.170  0.5574E+00  0.8266E+01
      7.250  0.5612E+00  0.8311E+01
      7.331  0.6271E+00  0.8361E+01
      7.411  0.7260E+00  0.8420E+01
      7.492  0.7848E+00  0.8483E+01
      7.572  0.8541E+00  0.8552E+01
      7.653  0.9109E+00  0.8625E+01
      7.733  0.9918E+00  0.8705E+01
      7.814  0.1122E+01  0.8795E+01
      7.894  0.1234E+01  0.8894E+01
      7.975  0.1344E+01  0.9002E+01
      8.055  0.1474E+01  0.9121E+01
      8.135  0.1618E+01  0.9251E+01
      8.216  0.1587E+01  0.9379E+01
      8.296  0.1518E+01  0.9501E+01
      8.377  0.1483E+01  0.9620E+01
      8.457  0.1346E+01  0.9729E+01
      8.538  0.1235E+01  0.9828E+01
      8.618  0.1212E+01  0.9925E+01
      8.699  0.1138E+01  0.1002E+02
      8.779  0.1074E+01  0.1010E+02
      8.860  0.1077E+01  0.1019E+02
      8.940  0.1122E+01  0.1028E+02
      9.021  0.1404E+01  0.1039E+02
      9.101  0.1909E+01  0.1055E+02
      9.182  0.2166E+01  0.1072E+02
      9.262  0.2031E+01  0.1088E+02
      9.342  0.1816E+01  0.1103E+02
      9.423  0.1649E+01  0.1116E+02
      9.503  0.1593E+01  0.1129E+02
      9.584  0.1655E+01  0.1142E+02
      9.664  0.1668E+01  0.1156E+02
      9.745  0.1565E+01  0.1168E+02
      9.825  0.1379E+01  0.1180E+02
      9.906  0.1213E+01  0.1189E+02
      9.986  0.1225E+01  0.1199E+02
     10.067  0.1318E+01  0.1210E+02
     10.147  0.1236E+01  0.1220E+02
     10.228  0.1131E+01  0.1229E+02
     10.308  0.1188E+01  0.1238E+02
     10.389  0.1311E+01  0.1249E+02
     10.469  0.1410E+01  0.1260E+02
     10.549  0.1348E+01  0.1271E+02
     10.630  0.1226E+01  0.1281E+02
     10.710  0.1192E+01  0.1291E+02
     10.791  0.1208E+01  0.1300E+02
     10.871  0.1239E+01  0.1310E+02
     10.952  0.1226E+01  0.1320E+02
     11.032  0.1188E+01  0.1330E+02
     11.113  0.1177E+01  0.1339E+02
     11.193  0.1125E+01  0.1348E+02
     11.274  0.1163E+01  0.1358E+02
     11.354  0.1220E+01  0.1367E+02
     11.435  0.1164E+01  0.1377E+02
     11.515  0.1096E+01  0.1386E+02
     11.596  0.9970E+00  0.1394E+02
     11.676  0.1053E+01  0.1402E+02
     11.756  0.1147E+01  0.1411E+02
     11.837  0.1086E+01  0.1420E+02
     11.917  0.9923E+00  0.1428E+02
     11.998  0.9397E+00  0.1436E+02
     12.078  0.9442E+00  0.1443E+02
     12.159  0.9707E+00  0.1451E+02
     12.239  0.9894E+00  0.1459E+02
     12.320  0.9506E+00  0.1467E+02
     12.400  0.9084E+00  0.1474E+02
     12.481  0.8985E+00  0.1481E+02
     12.561  0.8419E+00  0.1488E+02
     12.642  0.8382E+00  0.1495E+02
     12.722  0.9231E+00  0.1502E+02
     12.803  0.8664E+00  0.1509E+02
     12.883  0.7147E+00  0.1515E+02
     12.963  0.6174E+00  0.1520E+02
     13.044  0.6242E+00  0.1525E+02
     13.124  0.7072E+00  0.1531E+02
     13.205  0.7133E+00  0.1536E+02
     13.285  0.6380E+00  0.1541E+02
     13.366  0.4981E+00  0.1545E+02
     13.446  0.4374E+00  0.1549E+02
     13.527  0.5108E+00  0.1553E+02
     13.607  0.6424E+00  0.1558E+02
     13.688  0.7255E+00  0.1564E+02
     13.768  0.5989E+00  0.1569E+02
     13.849  0.3722E+00  0.1572E+02
     13.929  0.3291E+00  0.1575E+02
     14.010  0.3726E+00  0.1578E+02
     14.090  0.3385E+00  0.1580E+02
     14.170  0.2895E+00  0.1583E+02
     14.251  0.2190E+00  0.1584E+02
     14.331  0.1427E+00  0.1585E+02
     14.412  0.1348E+00  0.1587E+02
     14.492  0.1950E+00  0.1588E+02
     14.573  0.2298E+00  0.1590E+02
     14.653  0.1923E+00  0.1592E+02
     14.734  0.1086E+00  0.1592E+02
     14.814  0.7052E-01  0.1593E+02
     14.895  0.1034E+00  0.1594E+02
     14.975  0.1430E+00  0.1595E+02
     15.056  0.1401E+00  0.1596E+02
     15.136  0.9182E-01  0.1597E+02
     15.217  0.4769E-01  0.1597E+02
     15.297  0.3695E-01  0.1598E+02
     15.378  0.7128E-01  0.1598E+02
     15.458  0.8540E-01  0.1599E+02
     15.538  0.5340E-01  0.1599E+02
     15.619  0.2454E-01  0.1599E+02
     15.699  0.2053E-01  0.1600E+02
     15.780  0.2673E-01  0.1600E+02
     15.860  0.2002E-01  0.1600E+02
     15.941  0.6675E-02  0.1600E+02
     16.021  0.8160E-03  0.1600E+02
     16.102  0.3235E-04  0.1600E+02
     16.182  0.3914E-06  0.1600E+02
     16.263  0.1398E-08  0.1600E+02
     16.343  0.1443E-11  0.1600E+02
     16.424  0.4243E-15  0.1600E+02
     16.504  0.0000E+00  0.1600E+02
     16.585  0.0000E+00  0.1600E+02
     16.665  0.0000E+00  0.1600E+02
     16.745  0.0000E+00  0.1600E+02
     16.826  0.0000E+00  0.1600E+02
     16.906  0.0000E+00  0.1600E+02
     16.90637515     -7.23372991  301      6.09432821      1.00000000
     -7.234  0.0000E+00  0.0000E+00  0.0000E+00
     -7.153  0.0000E+00  0.0000E+00  0.0000E+00
     -7.073  0.0000E+00  0.0000E+00  0.0000E+00
     -6.992  0.0000E+00  0.0000E+00  0.0000E+00
     -6.912  0.0000E+00  0.0000E+00  0.0000E+00
     -6.831  0.0000E+00  0.0000E+00  0.0000E+00
     -6.751  0.0000E+00  0.0000E+00  0.0000E+00
     -6.670  0.8582E-16  0.6619E-19  0.9367E-20
     -6.590  0.3142E-12  0.3028E-15  0.3982E-16
     -6.510  0.3355E-09  0.4104E-12  0.5033E-13
     -6.429  0.1072E-06  0.1715E-09  0.1960E-10
     -6.349  0.1062E-04  0.2304E-07  0.2454E-08
     -6.268  0.3438E-03  0.1056E-05  0.1054E-06
     -6.188  0.3959E-02  0.1805E-04  0.1707E-05
     -6.107  0.1850E-01  0.1306E-03  0.1199E-04
     -6.027  0.4312E-01  0.4793E-03  0.4394E-04
     -5.946  0.6559E-01  0.1107E-02  0.1038E-03
     -5.866  0.8225E-01  0.1951E-02  0.1889E-03
     -5.785  0.9561E-01  0.2957E-02  0.2969E-03
     -5.705  0.1070E+00  0.4093E-02  0.4262E-03
     -5.624  0.1175E+00  0.5354E-02  0.5784E-03
     -5.544  0.1267E+00  0.6695E-02  0.7503E-03
     -5.463  0.1361E+00  0.8180E-02  0.9500E-03
     -5.383  0.1435E+00  0.9652E-02  0.1163E-02
     -5.303  0.1525E+00  0.1136E-01  0.1417E-02
     -5.222  0.1591E+00  0.1295E-01  0.1675E-02
     -5.142  0.1665E+00  0.1475E-01  0.1975E-02
     -5.061  0.1753E+00  0.1671E-01  0.2314E-02
     -4.981  0.1793E+00  0.1829E-01  0.2631E-02
     -4.900  0.1892E+00  0.2062E-01  0.3061E-02
     -4.820  0.1958E+00  0.2255E-01  0.3467E-02
     -4.739  0.1999E+00  0.2430E-01  0.3885E-02
     -4.659  0.2106E+00  0.2699E-01  0.4442E-02
     -4.578  0.2184E+00  0.2923E-01  0.4993E-02
     -4.498  0.2205E+00  0.3074E-01  0.5477E-02
     -4.417  0.2334E+00  0.3400E-01  0.6244E-02
     -4.337  0.2439E+00  0.3677E-01  0.6993E-02
     -4.256  0.2465E+00  0.3824E-01  0.7646E-02
     -4.176  0.2589E+00  0.4148E-01  0.8609E-02
     -4.096  0.2759E+00  0.4552E-01  0.9779E-02
     -4.015  0.2879E+00  0.4825E-01  0.1097E-01
     -3.935  0.2993E+00  0.5069E-01  0.1232E-01
     -3.854  0.3366E+00  0.5772E-01  0.1486E-01
     -3.774  0.3697E+00  0.6369E-01  0.1739E-01
     -3.693  0.3753E+00  0.6555E-01  0.1861E-01
     -3.613  0.3639E+00  0.6588E-01  0.1869E-01
     -3.532  0.3582E+00  0.6839E-01  0.1884E-01
     -3.452  0.3497E+00  0.6961E-01  0.1886E-01
     -3.371  0.3240E+00  0.6644E-01  0.1810E-01
     -3.291  0.3082E+00  0.6569E-01  0.1778E-01
     -3.210  0.3058E+00  0.6828E-01  0.1804E-01
     -3.130  0.2920E+00  0.6794E-01  0.1762E-01
     -3.049  0.2754E+00  0.6576E-01  0.1720E-01
     -2.969  0.2563E+00  0.6263E-01  0.1655E-01
     -2.889  0.2388E+00  0.6133E-01  0.1575E-01
     -2.808  0.2464E+00  0.6633E-01  0.1659E-01
     -2.728  0.2340E+00  0.6404E-01  0.1621E-01
     -2.647  0.1896E+00  0.5253E-01  0.1361E-01
     -2.567  0.1774E+00  0.5174E-01  0.1309E-01
     -2.486  0.1998E+00  0.6162E-01  0.1492E-01
     -2.406  0.1795E+00  0.5634E-01  0.1368E-01
     -2.325  0.1293E+00  0.4078E-01  0.1022E-01
     -2.245  0.1114E+00  0.3672E-01  0.9097E-02
     -2.164  0.1247E+00  0.4411E-01  0.1028E-01
     -2.084  0.1058E+00  0.3866E-01  0.8791E-02
     -2.003  0.5599E-01  0.2052E-01  0.4759E-02
     -1.923  0.2329E-01  0.8642E-02  0.2044E-02
     -1.842  0.2351E-01  0.1016E-01  0.2152E-02
     -1.762  0.6201E-01  0.2759E-01  0.5769E-02
     -1.682  0.9026E-01  0.4016E-01  0.8510E-02
     -1.601  0.7765E-01  0.3527E-01  0.7444E-02
     -1.521  0.6959E-01  0.3305E-01  0.6900E-02
     -1.440  0.1149E+00  0.5613E-01  0.1186E-01
     -1.360  0.1788E+00  0.8917E-01  0.1874E-01
     -1.279  0.1612E+00  0.8400E-01  0.1698E-01
     -1.199  0.1354E+00  0.8059E-01  0.1425E-01
     -1.118  0.2013E+00  0.1445E+00  0.2075E-01
     -1.038  0.3283E+00  0.2660E+00  0.3325E-01
     -0.957  0.3922E+00  0.3494E+00  0.3927E-01
     -0.877  0.3459E+00  0.3267E+00  0.3501E-01
     -0.796  0.2780E+00  0.2623E+00  0.2967E-01
     -0.716  0.2468E+00  0.2261E+00  0.2819E-01
     -0.635  0.2324E+00  0.2084E+00  0.2806E-01
     -0.555  0.2072E+00  0.1880E+00  0.2600E-01
     -0.475  0.1722E+00  0.1638E+00  0.2227E-01
     -0.394  0.1572E+00  0.1523E+00  0.2113E-01
     -0.314  0.1516E+00  0.1458E+00  0.2131E-01
     -0.233  0.1556E+00  0.1501E+00  0.2275E-01
     -0.153  0.1415E+00  0.1360E+00  0.2141E-01
     -0.072  0.1242E+00  0.1263E+00  0.1946E-01
      0.008  0.1168E+00  0.1228E+00  0.1882E-01
      0.089  0.1039E+00  0.1069E+00  0.1743E-01
      0.169  0.1138E+00  0.1211E+00  0.1986E-01
      0.250  0.1095E+00  0.1160E+00  0.1957E-01
      0.330  0.8816E-01  0.9359E-01  0.1635E-01
      0.411  0.9115E-01  0.1059E+00  0.1760E-01
      0.491  0.8342E-01  0.9651E-01  0.1645E-01
      0.572  0.7327E-01  0.8157E-01  0.1498E-01
      0.652  0.8577E-01  0.1019E+00  0.1829E-01
      0.733  0.7819E-01  0.9386E-01  0.1699E-01
      0.813  0.5786E-01  0.6830E-01  0.1294E-01
      0.893  0.6471E-01  0.8342E-01  0.1527E-01
      0.974  0.6614E-01  0.8691E-01  0.1595E-01
      1.054  0.5322E-01  0.6533E-01  0.1301E-01
      1.135  0.5672E-01  0.7307E-01  0.1455E-01
      1.215  0.5942E-01  0.8312E-01  0.1586E-01
      1.296  0.4403E-01  0.6284E-01  0.1202E-01
      1.376  0.4041E-01  0.7763E-01  0.1244E-01
      1.457  0.5119E-01  0.1603E+00  0.1934E-01
      1.537  0.4932E-01  0.2506E+00  0.2396E-01
      1.618  0.4197E-01  0.3302E+00  0.2725E-01
      1.698  0.4716E-01  0.4337E+00  0.3524E-01
      1.779  0.5235E-01  0.4887E+00  0.4060E-01
      1.859  0.4694E-01  0.4659E+00  0.3898E-01
      1.940  0.4722E-01  0.4529E+00  0.3943E-01
      2.020  0.5298E-01  0.4361E+00  0.4099E-01
      2.100  0.5078E-01  0.4234E+00  0.4070E-01
      2.181  0.4419E-01  0.4204E+00  0.3973E-01
      2.261  0.4445E-01  0.4171E+00  0.4068E-01
      2.342  0.4833E-01  0.4334E+00  0.4397E-01
      2.422  0.4681E-01  0.4443E+00  0.4527E-01
      2.503  0.4250E-01  0.4517E+00  0.4545E-01
      2.583  0.4163E-01  0.4618E+00  0.4680E-01
      2.664  0.4313E-01  0.4879E+00  0.5026E-01
      2.744  0.3939E-01  0.5105E+00  0.5129E-01
      2.825  0.3814E-01  0.5399E+00  0.5348E-01
      2.905  0.3898E-01  0.5873E+00  0.5718E-01
      2.986  0.3686E-01  0.6440E+00  0.6040E-01
      3.066  0.3448E-01  0.6911E+00  0.6409E-01
      3.147  0.3215E-01  0.6815E+00  0.6440E-01
      3.227  0.3207E-01  0.6797E+00  0.6721E-01
      3.307  0.3093E-01  0.6740E+00  0.6949E-01
      3.388  0.2934E-01  0.6642E+00  0.7043E-01
      3.468  0.2751E-01  0.6524E+00  0.7155E-01
      3.549  0.2550E-01  0.6478E+00  0.7323E-01
      3.629  0.2424E-01  0.6281E+00  0.7314E-01
      3.710  0.2397E-01  0.6364E+00  0.7683E-01
      3.790  0.2261E-01  0.6277E+00  0.7764E-01
      3.871  0.2009E-01  0.5961E+00  0.7556E-01
      3.951  0.1928E-01  0.6131E+00  0.8009E-01
      4.032  0.1801E-01  0.6064E+00  0.8068E-01
      4.112  0.1661E-01  0.5726E+00  0.7837E-01
      4.193  0.1614E-01  0.5912E+00  0.8338E-01
      4.273  0.1404E-01  0.5842E+00  0.8314E-01
      4.354  0.1242E-01  0.5512E+00  0.8039E-01
      4.434  0.1247E-01  0.5702E+00  0.8582E-01
      4.514  0.1058E-01  0.5605E+00  0.8509E-01
      4.595  0.8938E-02  0.5112E+00  0.7981E-01
      4.675  0.8481E-02  0.4790E+00  0.7831E-01
      4.756  0.7693E-02  0.4022E+00  0.6896E-01
      4.836  0.6223E-02  0.3371E+00  0.6104E-01
      4.917  0.5212E-02  0.3086E+00  0.5807E-01
      4.997  0.4972E-02  0.2660E+00  0.5241E-01
      5.078  0.4439E-02  0.2422E+00  0.5005E-01
      5.158  0.3219E-02  0.2145E+00  0.4559E-01
      5.239  0.2654E-02  0.1845E+00  0.4089E-01
      5.319  0.2486E-02  0.1710E+00  0.3966E-01
      5.400  0.1806E-02  0.1454E+00  0.3488E-01
      5.480  0.1203E-02  0.1232E+00  0.3070E-01
      5.561  0.9357E-03  0.1065E+00  0.2770E-01
      5.641  0.5770E-03  0.8349E-01  0.2256E-01
      5.721  0.2654E-03  0.5916E-01  0.1658E-01
      5.802  0.9990E-04  0.3145E-01  0.9072E-02
      5.882  0.2069E-04  0.9332E-02  0.2742E-02
      5.963  0.1704E-05  0.1245E-02  0.3699E-03
      6.043  0.4894E-07  0.6306E-04  0.1886E-04
      6.124  0.4318E-07  0.1138E-05  0.4549E-06
      6.204  0.3703E-05  0.5557E-05  0.1150E-04
      6.285  0.9914E-04  0.1490E-03  0.3083E-03
      6.365  0.8962E-03  0.1357E-02  0.2797E-02
      6.446  0.3419E-02  0.5267E-02  0.1079E-01
      6.526  0.7907E-02  0.1247E-01  0.2542E-01
      6.607  0.1270E-01  0.2041E-01  0.4149E-01
      6.687  0.1586E-01  0.2632E-01  0.5272E-01
      6.768  0.2021E-01  0.3518E-01  0.6840E-01
      6.848  0.2303E-01  0.4174E-01  0.7883E-01
      6.928  0.2372E-01  0.4468E-01  0.8220E-01
      7.009  0.2631E-01  0.5179E-01  0.9282E-01
      7.089  0.3013E-01  0.6196E-01  0.1079E+00
      7.170  0.3146E-01  0.6700E-01  0.1137E+00
      7.250  0.3137E-01  0.6915E-01  0.1139E+00
      7.331  0.3590E-01  0.7793E-01  0.1271E+00
      7.411  0.4458E-01  0.9034E-01  0.1460E+00
      7.492  0.5215E-01  0.9870E-01  0.1557E+00
      7.572  0.6041E-01  0.1076E+00  0.1678E+00
      7.653  0.6640E-01  0.1167E+00  0.1776E+00
      7.733  0.7377E-01  0.1299E+00  0.1920E+00
      7.814  0.8464E-01  0.1489E+00  0.2165E+00
      7.894  0.9456E-01  0.1670E+00  0.2367E+00
      7.975  0.1079E+00  0.1865E+00  0.2543E+00
      8.055  0.1206E+00  0.2086E+00  0.2770E+00
      8.135  0.1302E+00  0.2343E+00  0.3035E+00
      8.216  0.1239E+00  0.2376E+00  0.2968E+00
      8.296  0.1138E+00  0.2363E+00  0.2827E+00
      8.377  0.1067E+00  0.2362E+00  0.2766E+00
      8.457  0.9117E-01  0.2189E+00  0.2526E+00
      8.538  0.7960E-01  0.2028E+00  0.2341E+00
      8.618  0.7455E-01  0.2003E+00  0.2319E+00
      8.699  0.6640E-01  0.1924E+00  0.2180E+00
      8.779  0.6018E-01  0.1874E+00  0.2043E+00
      8.860  0.5720E-01  0.1903E+00  0.2062E+00
      8.940  0.5134E-01  0.2022E+00  0.2190E+00
      9.021  0.4950E-01  0.2576E+00  0.2848E+00
      9.101  0.5653E-01  0.3525E+00  0.3976E+00
      9.182  0.6197E-01  0.4026E+00  0.4547E+00
      9.262  0.6114E-01  0.3817E+00  0.4240E+00
      9.342  0.5900E-01  0.3416E+00  0.3779E+00
      9.423  0.5795E-01  0.3049E+00  0.3449E+00
      9.503  0.5719E-01  0.2954E+00  0.3331E+00
      9.584  0.5956E-01  0.3076E+00  0.3466E+00
      9.664  0.6159E-01  0.3087E+00  0.3491E+00
      9.745  0.6096E-01  0.2889E+00  0.3260E+00
      9.825  0.5296E-01  0.2555E+00  0.2892E+00
      9.906  0.4263E-01  0.2275E+00  0.2576E+00
      9.986  0.3886E-01  0.2307E+00  0.2643E+00
     10.067  0.3986E-01  0.2440E+00  0.2893E+00
     10.147  0.3780E-01  0.2262E+00  0.2737E+00
     10.228  0.3650E-01  0.2063E+00  0.2492E+00
     10.308  0.3838E-01  0.2157E+00  0.2619E+00
     10.389  0.4132E-01  0.2389E+00  0.2905E+00
     10.469  0.4503E-01  0.2557E+00  0.3128E+00
     10.549  0.4688E-01  0.2412E+00  0.2957E+00
     10.630  0.4522E-01  0.2195E+00  0.2652E+00
     10.710  0.4379E-01  0.2156E+00  0.2570E+00
     10.791  0.4488E-01  0.2218E+00  0.2600E+00
     10.871  0.4562E-01  0.2281E+00  0.2672E+00
     10.952  0.4410E-01  0.2202E+00  0.2665E+00
     11.032  0.4256E-01  0.2081E+00  0.2607E+00
     11.113  0.4371E-01  0.2104E+00  0.2554E+00
     11.193  0.4043E-01  0.2057E+00  0.2434E+00
     11.274  0.3960E-01  0.2124E+00  0.2539E+00
     11.354  0.4248E-01  0.2186E+00  0.2664E+00
     11.435  0.4073E-01  0.2052E+00  0.2545E+00
     11.515  0.3660E-01  0.1965E+00  0.2393E+00
     11.596  0.3283E-01  0.1823E+00  0.2167E+00
     11.676  0.3455E-01  0.1900E+00  0.2313E+00
     11.756  0.3433E-01  0.2053E+00  0.2568E+00
     11.837  0.3079E-01  0.1977E+00  0.2421E+00
     11.917  0.2901E-01  0.1836E+00  0.2170E+00
     11.998  0.2765E-01  0.1721E+00  0.2061E+00
     12.078  0.2662E-01  0.1701E+00  0.2101E+00
     12.159  0.2511E-01  0.1763E+00  0.2194E+00
     12.239  0.2457E-01  0.1828E+00  0.2246E+00
     12.320  0.2397E-01  0.1772E+00  0.2128E+00
     12.400  0.2278E-01  0.1673E+00  0.2017E+00
     12.481  0.2311E-01  0.1640E+00  0.1976E+00
     12.561  0.2123E-01  0.1546E+00  0.1851E+00
     12.642  0.1928E-01  0.1561E+00  0.1883E+00
     12.722  0.2058E-01  0.1735E+00  0.2089E+00
     12.803  0.1906E-01  0.1629E+00  0.1947E+00
     12.883  0.1568E-01  0.1326E+00  0.1584E+00
     12.963  0.1336E-01  0.1124E+00  0.1364E+00
     13.044  0.1256E-01  0.1158E+00  0.1382E+00
     13.124  0.1361E-01  0.1351E+00  0.1563E+00
     13.205  0.1341E-01  0.1374E+00  0.1587E+00
     13.285  0.1137E-01  0.1217E+00  0.1420E+00
     13.366  0.8949E-02  0.9285E-01  0.1074E+00
     13.446  0.7447E-02  0.8065E-01  0.9155E-01
     13.527  0.7181E-02  0.9448E-01  0.1040E+00
     13.607  0.8146E-02  0.1168E+00  0.1204E+00
     13.688  0.9289E-02  0.1321E+00  0.1291E+00
     13.768  0.7764E-02  0.1105E+00  0.1050E+00
     13.849  0.4407E-02  0.6777E-01  0.6058E-01
     13.929  0.3582E-02  0.6285E-01  0.5514E-01
     14.010  0.4059E-02  0.7657E-01  0.7039E-01
     14.090  0.4018E-02  0.7326E-01  0.6903E-01
     14.170  0.3896E-02  0.6450E-01  0.6076E-01
     14.251  0.3273E-02  0.4868E-01  0.4526E-01
     14.331  0.2459E-02  0.3137E-01  0.2778E-01
     14.412  0.1939E-02  0.3052E-01  0.2596E-01
     14.492  0.2023E-02  0.4585E-01  0.3887E-01
     14.573  0.2379E-02  0.5383E-01  0.4682E-01
     14.653  0.2345E-02  0.4449E-01  0.3879E-01
     14.734  0.1445E-02  0.2519E-01  0.2122E-01
     14.814  0.9623E-03  0.1695E-01  0.1251E-01
     14.895  0.1140E-02  0.2560E-01  0.1819E-01
     14.975  0.1039E-02  0.3563E-01  0.2683E-01
     15.056  0.9773E-03  0.3471E-01  0.2680E-01
     15.136  0.8663E-03  0.2291E-01  0.1687E-01
     15.217  0.5353E-03  0.1245E-01  0.7823E-02
     15.297  0.3377E-03  0.1024E-01  0.5409E-02
     15.378  0.4301E-03  0.1968E-01  0.1107E-01
     15.458  0.3876E-03  0.2321E-01  0.1406E-01
     15.538  0.2593E-03  0.1441E-01  0.8905E-02
     15.619  0.1589E-03  0.6855E-02  0.3736E-02
     15.699  0.8718E-04  0.6271E-02  0.2574E-02
     15.780  0.6255E-04  0.8294E-02  0.3309E-02
     15.860  0.3064E-04  0.6177E-02  0.2569E-02
     15.941  0.8241E-05  0.2053E-02  0.8725E-03
     16.021  0.1009E-05  0.2510E-03  0.1071E-03
     16.102  0.4290E-07  0.9956E-05  0.4240E-05
     16.182  0.5565E-09  0.1205E-06  0.5118E-07
     16.263  0.2099E-11  0.4307E-09  0.1824E-09
     16.343  0.2255E-14  0.4448E-12  0.1881E-12
     16.424  0.6820E-18  0.1308E-15  0.5524E-16
     16.504  0.0000E+00  0.0000E+00  0.0000E+00
     16.585  0.0000E+00  0.0000E+00  0.0000E+00
     16.665  0.0000E+00  0.0000E+00  0.0000E+00
     16.745  0.0000E+00  0.0000E+00  0.0000E+00
     16.826  0.0000E+00  0.0000E+00  0.0000E+00
     16.906  0.0000E+00  0.0000E+00  0.0000E+00
     16.90637515     -7.23372991  301      6.09432821      1.00000000
     -7.234  0.0000E+00  0.0000E+00  0.0000E+00
     -7.153  0.0000E+00  0.0000E+00  0.0000E+00
     -7.073  0.0000E+00  0.0000E+00  0.0000E+00
     -6.992  0.0000E+00  0.0000E+00  0.0000E+00
     -6.912  0.0000E+00  0.0000E+00  0.0000E+00
     -6.831  0.0000E+00  0.0000E+00  0.0000E+00
     -6.751  0.0000E+00  0.0000E+00  0.0000E+00
     -6.670  0.8582E-16  0.6619E-19  0.9367E-20
     -6.590  0.3142E-12  0.3028E-15  0.3982E-16
     -6.510  0.3355E-09  0.4104E-12  0.5033E-13
     -6.429  0.1072E-06  0.1715E-09  0.1960E-10
     -6.349  0.1062E-04  0.2304E-07  0.2454E-08
     -6.268  0.3438E-03  0.1056E-05  0.1054E-06
     -6.188  0.3959E-02  0.1805E-04  0.1707E-05
     -6.107  0.1850E-01  0.1306E-03  0.1199E-04
     -6.027  0.4312E-01  0.4793E-03  0.4394E-04
     -5.946  0.6559E-01  0.1107E-02  0.1038E-03
     -5.866  0.8225E-01  0.1951E-02  0.1889E-03
     -5.785  0.9561E-01  0.2957E-02  0.2969E-03
     -5.705  0.1070E+00  0.4093E-02  0.4262E-03
     -5.624  0.1175E+00  0.5354E-02  0.5784E-03
     -5.544  0.1267E+00  0.6695E-02  0.7503E-03
     -5.463  0.1361E+00  0.8180E-02  0.9500E-03
     -5.383  0.1435E+00  0.9652E-02  0.1163E-02
     -5.303  0.1525E+00  0.1136E-01  0.1417E-02
     -5.222  0.1591E+00  0.1295E-01  0.1675E-02
     -5.142  0.1665E+00  0.1475E-01  0.1975E-02
     -5.061  0.1753E+00  0.1671E-01  0.2314E-02
     -4.981  0.1793E+00  0.1829E-01  0.2631E-02
     -4.900  0.1892E+00  0.2062E-01  0.3061E-02
     -4.820  0.1958E+00  0.2255E-01  0.3467E-02
     -4.739  0.1999E+00  0.2430E-01  0.3885E-02
     -4.659  0.2106E+00  0.2699E-01  0.4442E-02
     -4.578  0.2184E+00  0.2923E-01  0.4993E-02
     -4.498  0.2205E+00  0.3074E-01  0.5477E-02
     -4.417  0.2334E+00  0.3400E-01  0.6244E-02
     -4.337  0.2439E+00  0.3677E-01  0.6993E-02
     -4.256  0.2465E+00  0.3824E-01  0.7646E-02
     -4.176  0.2589E+00  0.4148E-01  0.8609E-02
     -4.096  0.2759E+00  0.4552E-01  0.9779E-02
     -4.015  0.2879E+00  0.4825E-01  0.1097E-01
     -3.935  0.2993E+00  0.5069E-01  0.1232E-01
     -3.854  0.3366E+00  0.5772E-01  0.1486E-01
     -3.774  0.3697E+00  0.6369E-01  0.1739E-01
     -3.693  0.3753E+00  0.6555E-01  0.1861E-01
     -3.613  0.3639E+00  0.6588E-01  0.1869E-01
     -3.532  0.3582E+00  0.6839E-01  0.1884E-01
     -3.452  0.3497E+00  0.6961E-01  0.1886E-01
     -3.371  0.3240E+00  0.6644E-01  0.1810E-01
     -3.291  0.3082E+00  0.6569E-01  0.1778E-01
     -3.210  0.3058E+00  0.6828E-01  0.1804E-01
     -3.130  0.2920E+00  0.6794E-01  0.1762E-01
     -3.049  0.2754E+00  0.6576E-01  0.1720E-01
     -2.969  0.2563E+00  0.6263E-01  0.1655E-01
     -2.889  0.2388E+00  0.6133E-01  0.1575E-01
     -2.808  0.2464E+00  0.6633E-01  0.1659E-01
     -2.728  0.2340E+00  0.6404E-01  0.1621E-01
     -2.647  0.1896E+00  0.5253E-01  0.1361E-01
     -2.567  0.1774E+00  0.5174E-01  0.1309E-01
     -2.486  0.1998E+00  0.6162E-01  0.1492E-01
     -2.406  0.1795E+00  0.5634E-01  0.1368E-01
     -2.325  0.1293E+00  0.4078E-01  0.1022E-01
     -2.245  0.1114E+00  0.3672E-01  0.9097E-02
     -2.164  0.1247E+00  0.4411E-01  0.1028E-01
     -2.084  0.1058E+00  0.3866E-01  0.8791E-02
     -2.003  0.5599E-01  0.2052E-01  0.4759E-02
     -1.923  0.2329E-01  0.8642E-02  0.2044E-02
     -1.842  0.2351E-01  0.1016E-01  0.2152E-02
     -1.762  0.6201E-01  0.2759E-01  0.5769E-02
     -1.682  0.9026E-01  0.4016E-01  0.8510E-02
     -1.601  0.7765E-01  0.3527E-01  0.7444E-02
     -1.521  0.6959E-01  0.3305E-01  0.6900E-02
     -1.440  0.1149E+00  0.5613E-01  0.1186E-01
     -1.360  0.1788E+00  0.8917E-01  0.1874E-01
     -1.279  0.1612E+00  0.8400E-01  0.1698E-01
     -1.199  0.1354E+00  0.8059E-01  0.1425E-01
     -1.118  0.2013E+00  0.1445E+00  0.2075E-01
     -1.038  0.3283E+00  0.2660E+00  0.3325E-01
     -0.957  0.3922E+00  0.3494E+00  0.3927E-01
     -0.877  0.3459E+00  0.3267E+00  0.3501E-01
     -0.796  0.2780E+00  0.2623E+00  0.2967E-01
     -0.716  0.2468E+00  0.2261E+00  0.2819E-01
     -0.635  0.2324E+00  0.2084E+00  0.2806E-01
     -0.555  0.2072E+00  0.1880E+00  0.2600E-01
     -0.475  0.1722E+00  0.1638E+00  0.2227E-01
     -0.394  0.1572E+00  0.1523E+00  0.2113E-01
     -0.314  0.1516E+00  0.1458E+00  0.2131E-01
     -0.233  0.1556E+00  0.1501E+00  0.2275E-01
     -0.153  0.1415E+00  0.1360E+00  0.2141E-01
     -0.072  0.1242E+00  0.1263E+00  0.1946E-01