    2    2    1    1
  0.2001288E+02  0.3839590E-09  0.3839590E-09  0.3839590E-09  0.5000000E-15
  1.000000000000000E-004
  CAR 
 diamond Si                              
      8    770      8
 
  0.2500000E-01  0.2500000E-01  0.2500000E-01  0.2500000E-03
    1       -6.136452   1.000000
    2        5.699494   1.000000
    3        5.781815   0.999995
    4        5.781815   0.999995
    5        8.402941   0.000000
    6        8.402941   0.000000
    7        8.406542   0.000000
    8        9.225364   0.000000
 
  0.7500000E-01  0.2500000E-01  0.2500000E-01  0.7500000E-03
    1       -6.092759   1.000000
    2        5.300397   1.000000
    3        5.615827   1.000000
    4        5.763041   0.999999
    5        8.446906   0.000000
    6        8.465741   0.000000
    7        8.557767   0.000000
    8        9.543059   0.000000
 
  0.1250000E+00  0.2500000E-01  0.2500000E-01  0.7500000E-03
    1       -5.983935   1.000000
    2        4.497187   1.000000
    3        5.425371   1.000000
    4        5.647130   1.000000
    5        8.411640   0.000000
    6        8.629454   0.000000
    7        8.800459   0.000000
    8       10.255819   0.000000
 
  0.1750000E+00  0.2500000E-01  0.2500000E-01  0.7500000E-03
    1       -5.811299   1.000000
    2        3.577653   1.000000
    3        5.220716   1.000000
    4        5.474908   1.000000
    5        8.246801   0.000000
    6        8.879539   0.000000
    7        9.086276   0.000000
    8       11.103525   0.000000
 
  0.2250000E+00  0.2500000E-01  0.2500000E-01  0.7500000E-03
    1       -5.577244   1.000000
    2        2.642715   1.000000
    3        5.025853   1.000000
    4        5.284680   1.000000
    5        8.053298   0.000000
    6        9.109428   0.000000
    7        9.317029   0.000000
    8       11.938510   0.000000
 
  0.2750000E+00  0.2500000E-01  0.2500000E-01  0.7500000E-03
    1       -5.286134   1.000000
    2        1.734771   1.000000
    3        4.855728   1.000000
    4        5.100894   1.000000
    5        7.865893   0.000000
    6        9.248480   0.000000
    7        9.430041   0.000000
    8       12.660723   0.000000
 
  0.3250000E+00  0.2500000E-01  0.2500000E-01  0.7500000E-03
    1       -4.945903   1.000000
    2        0.879927   1.000000
    3        4.718243   1.000000
    4        4.937162   1.000000
    5        7.701929   0.000000
    6        9.282532   0.000000
    7        9.424198   0.000000
    8       13.245776   0.000000
 
  0.3750000E+00  0.2500000E-01  0.2500000E-01  0.7500000E-03
    1       -4.572375   1.000000
    2        0.103737   1.000000
    3        4.617158   1.000000
    4        4.800761   1.000000
    5        7.570563   0.000000
    6        9.251814   0.000000
    7        9.348446   0.000000
    8       13.618171   0.000000
 
  0.4250000E+00  0.2500000E-01  0.2500000E-01  0.7500000E-03
    1       -4.199573   1.000000
    2       -0.553954   1.000000
    3        4.553876   1.000000
    4        4.695634   1.000000
    5        7.476556   0.000000
    6        9.206517   0.000000
    7        9.255696   0.000000
    8       13.639880   0.000000
 
  0.4750000E+00  0.2500000E-01  0.2500000E-01  0.7500000E-03
    1       -3.903286   1.000000
    2       -1.014105   1.000000
    3        4.528485   1.000000
    4        4.624093   1.000000
    5        7.422332   0.000000
    6        9.180969   0.000000
    7        9.181209   0.000000
    8       13.585105   0.000000
 
 -0.4750000E+00  0.2500000E-01  0.2500000E-01  0.7500000E-03
    1       -3.812139   1.000000
    2       -1.146300   1.000000
    3        4.540354   1.000000
    4        4.587665   1.000000
    5        7.408949   0.000000
    6        9.143046   0.000000
    7        9.192125   0.000000
    8       13.566357   0.000000
 
 -0.4250000E+00  0.2500000E-01  0.2500000E-01  0.7500000E-03
    1       -3.986220   1.000000
    2       -0.890169   1.000000
    3        4.587520   1.000000
    4        4.588475   1.000000
    5        7.436570   0.000000
    6        9.145962   0.000000
    7        9.243318   0.000000
    8       13.596480   0.000000
 
 -0.3750000E+00  0.2500000E-01  0.2500000E-01  0.7500000E-03
    1       -4.320253   1.000000
    2       -0.351676   1.000000
    3        4.624579   1.000000
    4        4.671618   1.000000
    5        7.504725   0.000000
    6        9.182377   0.000000
    7        9.325660   0.000000
    8       13.621846   0.000000
 
 -0.3250000E+00  0.2500000E-01  0.2500000E-01  0.7500000E-03
    1       -4.699020   1.000000
    2        0.351677   1.000000
    3        4.699257   1.000000
    4        4.788126   1.000000
    5        7.611901   0.000000
    6        9.229822   0.000000
    7        9.416004   0.000000
    8       13.344548   0.000000
 
 -0.2750000E+00  0.2500000E-01  0.2500000E-01  0.7500000E-03
    1       -5.063998   1.000000
    2        1.157448   1.000000
    3        4.811063   1.000000
    4        4.935341   1.000000
    5        7.754937   0.000000
    6        9.247137   0.000000
    7        9.473412   0.000000
    8       12.816528   0.000000
 
 -0.2250000E+00  0.2500000E-01  0.2500000E-01  0.7500000E-03
    1       -5.389105   1.000000
    2        2.032683   1.000000
    3        4.957856   1.000000
    4        5.108519   1.000000
    5        7.927700   0.000000
    6        9.181582   0.000000
    7        9.443865   0.000000
    8       12.321392   0.000000
 
 -0.1750000E+00  0.2500000E-01  0.2500000E-01  0.7500000E-03
    1       -5.661843   1.000000
    2        2.953163   1.000000
    3        5.134549   1.000000
    4        5.298725   1.000000
    5        8.118294   0.000000
    6        9.006617   0.000000
    7        9.291579   0.000000
    8       11.647156   0.000000
 
 -0.1250000E+00  0.2500000E-01  0.2500000E-01  0.7500000E-03
    1       -5.875807   1.000000
    2        3.890020   1.000000
    3        5.330916   1.000000
    4        5.489169   1.000000
    5        8.302319   0.000000
    6        8.763313   0.000000
    7        9.038469   0.000000
    8       10.808953   0.000000
 
 -0.7500000E-01  0.2500000E-01  0.2500000E-01  0.7500000E-03
    1       -6.027366   1.000000
    2        4.790340   1.000000
    3        5.527854   1.000000
    4        5.650084   1.000000
    5        8.407671   0.000000
    6        8.566095   0.000000
    7        8.754090   0.000000
    8        9.982359   0.000000
 
 -0.2500000E-01  0.2500000E-01  0.2500000E-01  0.7500000E-03
    1       -6.114595   1.000000
    2        5.521518   1.000000
    3        5.692832   1.000000
    4        5.737773   1.000000
    5        8.350672   0.000000
    6        8.502458   0.000000
    7        8.518484   0.000000
    8        9.373110   0.000000
 
  0.7500000E-01  0.7500000E-01  0.2500000E-01  0.7500000E-03
    1       -6.070884   1.000000
    2        5.260944   1.000000
    3        5.535211   1.000000
    4        5.596796   1.000000
    5        8.249988   0.000000
    6        8.691437   0.000000
    7        8.729092   0.000000
    8        9.624076   0.000000
 
  0.1250000E+00  0.7500000E-01  0.2500000E-01  0.1500000E-02
    1       -5.983720   1.000000
    2        4.695888   1.000000
    3        5.257345   1.000000
    4        5.535793   1.000000
    5        8.227278   0.000000
    6        8.834562   0.000000
    7        8.979083   0.000000
    8       10.125624   0.000000
 
  0.1750000E+00  0.7500000E-01  0.2500000E-01  0.1500000E-02
    1       -5.832269   1.000000
    2        3.849798   1.000000
    3        5.020796   1.000000
    4        5.415715   1.000000
    5        8.319607   0.000000
    6        8.806757   0.000000
    7        9.295912   0.000000
    8       10.816584   0.000000
 
  0.2250000E+00  0.7500000E-01  0.2500000E-01  0.1500000E-02
    1       -5.618466   1.000000
    2        2.939259   1.000000
    3        4.810556   1.000000
    4        5.237924   1.000000
    5        8.317207   0.000000
    6        8.882399   0.000000
    7        9.564573   0.000000
    8       11.348648   0.000000
 
  0.2750000E+00  0.7500000E-01  0.2500000E-01  0.1500000E-02
    1       -5.345914   1.000000
    2        2.033914   1.000000
    3        4.631229   1.000000
    4        5.042113   1.000000
    5        8.190760   0.000000
    6        9.034613   0.000000
    7        9.714695   0.000000
    8       11.671541   0.000000
 
  0.3250000E+00  0.7500000E-01  0.2500000E-01  0.1500000E-02
    1       -5.020987   1.000000
    2        1.168054   1.000000
    3        4.486844   1.000000
    4        4.855160   1.000000
    5        8.041937   0.000000
    6        9.118476   0.000000
    7        9.729277   0.000000
    8       12.062562   0.000000
 
  0.3750000E+00  0.7500000E-01  0.2500000E-01  0.1500000E-02
    1       -4.656124   1.000000
    2        0.368246   1.000000
    3        4.377008   1.000000
    4        4.694579   1.000000
    5        7.909735   0.000000
    6        9.122201   0.000000
    7        9.651514   0.000000
    8       12.613564   0.000000
 
  0.4250000E+00  0.7500000E-01  0.2500000E-01  0.1500000E-02
    1       -4.277269   1.000000
    2       -0.331504   1.000000
    3        4.296169   1.000000
    4        4.574940   1.000000
    5        7.807881   0.000000
    6        9.094013   0.000000
    7        9.539735   0.000000
    8       13.232224   0.000000
 
  0.4750000E+00  0.7500000E-01  0.2500000E-01  0.1500000E-02
    1       -3.942856   1.000000
    2       -0.868249   1.000000
    3        4.235079   1.000000
    4        4.510054   1.000000
    5        7.742303   0.000000
    6        9.074345   0.000000
    7        9.437648   0.000000
    8       13.638192   0.000000
 
 -0.4750000E+00  0.7500000E-01  0.2500000E-01  0.1500000E-02
    1       -3.768428   1.000000
    2       -1.123857   1.000000
    3        4.189930   1.000000
    4        4.505904   1.000000
    5        7.715697   0.000000
    6        9.081484   0.000000
    7        9.372860   0.000000
    8       13.734321   0.000000
 
 -0.4250000E+00  0.7500000E-01  0.2500000E-01  0.1500000E-02
    1       -3.859960   1.000000
    2       -0.991552   1.000000
    3        4.167539   1.000000
    4        4.556343   1.000000
    5        7.728923   0.000000
    6        9.114584   0.000000
    7        9.362607   0.000000
    8       13.735578   0.000000
 
 -0.3750000E+00  0.7500000E-01  0.2500000E-01  0.1500000E-02
    1       -4.156807   1.000000
    2       -0.532338   1.000000
    3        4.176966   1.000000
    4        4.651853   1.000000
    5        7.781756   0.000000
    6        9.160117   0.000000
    7        9.412508   0.000000
    8       13.588091   0.000000
 
 -0.3250000E+00  0.7500000E-01  0.2500000E-01  0.1500000E-02
    1       -4.529801   1.000000
    2        0.122538   1.000000
    3        4.224269   1.000000
    4        4.784618   1.000000
    5        7.872733   0.000000
    6        9.201615   0.000000
    7        9.503809   0.000000
    8       13.084738   0.000000
 
 -0.2750000E+00  0.7500000E-01  0.2500000E-01  0.1500000E-02
    1       -4.903239   1.000000
    2        0.893544   1.000000
    3        4.312780   1.000000
    4        4.947617   1.000000
    5        7.998647   0.000000
    6        9.212713   0.000000
    7        9.590761   0.000000
    8       12.498730   0.000000
 
 -0.2250000E+00  0.7500000E-01  0.2500000E-01  0.1500000E-02
    1       -5.243252   1.000000
    2        1.739730   1.000000
    3        4.443870   1.000000
    4        5.132455   1.000000
    5        8.153034   0.000000
    6        9.149571   0.000000
    7        9.607627   0.000000
    8       12.030902   0.000000
 
 -0.1750000E+00  0.7500000E-01  0.2500000E-01  0.1500000E-02
    1       -5.534128   1.000000
    2        2.632833   1.000000
    3        4.617409   1.000000
    4        5.326452   1.000000
    5        8.321879   0.000000
    6        8.986474   0.000000
    7        9.490240   0.000000
    8       11.639732   0.000000
 
 -0.1250000E+00  0.7500000E-01  0.2500000E-01  0.1500000E-02
    1       -5.767957   1.000000
    2        3.539551   1.000000
    3        4.832990   1.000000
    4        5.508392   1.000000
    5        8.462783   0.000000
    6        8.782699   0.000000
    7        9.233235   0.000000
    8       11.110632   0.000000
 
 -0.7500000E-01  0.7500000E-01  0.2500000E-01  0.1500000E-02
    1       -5.940420   1.000000
    2        4.393141   1.000000
    3        5.098593   1.000000
    4        5.644279   1.000000
    5        8.433302   0.000000
    6        8.729899   0.000000
    7        8.909852   0.000000
    8       10.427979   0.000000
 
 -0.2500000E-01  0.7500000E-01  0.2500000E-01  0.1500000E-02
    1       -6.049105   1.000000
    2        5.016415   1.000000
    3        5.458656   1.000000
    4        5.695618   1.000000
    5        8.360814   0.000000
    6        8.621828   0.000000
    7        8.712243   0.000000
    8        9.817183   0.000000
 
  0.1250000E+00  0.1250000E+00  0.2500000E-01  0.7500000E-03
    1       -5.918223   1.000000
    2        4.581598   1.000000
    3        5.112315   1.000000
    4        5.157613   1.000000
    5        7.948045   0.000000
    6        9.272260   0.000000
    7        9.336105   0.000000
    8       10.181414   0.000000
 
  0.1750000E+00  0.1250000E+00  0.2500000E-01  0.1500000E-02
    1       -5.788134   1.000000
    2        3.985615   1.000000
    3        4.800095   1.000000
    4        5.065403   1.000000
    5        7.890676   0.000000
    6        9.426873   0.000000
    7        9.662970   0.000000
    8       10.509390   0.000000
 
  0.2250000E+00  0.1250000E+00  0.2500000E-01  0.1500000E-02
    1       -5.595036   1.000000
    2        3.171645   1.000000
    3        4.554078   1.000000
    4        4.926190   1.000000
    5        8.003473   0.000000
    6        9.370847   0.000000
    7        9.978129   0.000000
    8       10.703511   0.000000
 
  0.2750000E+00  0.1250000E+00  0.2500000E-01  0.1500000E-02
    1       -5.341853   1.000000
    2        2.307726   1.000000
    3        4.348867   1.000000
    4        4.737829   1.000000
    5        8.137345   0.000000
    6        9.332210   0.000000
    7       10.181087   0.000000
    8       10.762504   0.000000
 
  0.3250000E+00  0.1250000E+00  0.2500000E-01  0.1500000E-02
    1       -5.033731   1.000000
    2        1.455348   1.000000
    3        4.172899   1.000000
    4        4.548201   1.000000
    5        8.178684   0.000000
    6        9.326446   0.000000
    7       10.234269   0.000000
    8       10.967131   0.000000
 
  0.3750000E+00  0.1250000E+00  0.2500000E-01  0.1500000E-02
    1       -4.680461   1.000000
    2        0.649621   1.000000
    3        4.014983   1.000000
    4        4.395818   1.000000
    5        8.141280   0.000000
    6        9.290941   0.000000
    7       10.170392   0.000000
    8       11.426514   0.000000
 
  0.4250000E+00  0.1250000E+00  0.2500000E-01  0.1500000E-02
    1       -4.301895   1.000000
    2       -0.076199   1.000000
    3        3.866746   1.000000
    4        4.304380   1.000000
    5        8.085157   0.000000
    6        9.229160   0.000000
    7       10.048484   0.000000
    8       12.086790   0.000000
 
  0.4750000E+00  0.1250000E+00  0.2500000E-01  0.1500000E-02
    1       -3.942364   1.000000
    2       -0.670269   1.000000
    3        3.732284   1.000000
    4        4.278063   1.000000
    5        8.047024   0.000000
    6        9.176358   0.000000
    7        9.917857   0.000000
    8       12.854847   0.000000
 
 -0.4750000E+00  0.1250000E+00  0.2500000E-01  0.1500000E-02
    1       -3.698088   1.000000
    2       -1.032213   1.000000
    3        3.622864   1.000000
    4        4.309938   1.000000
    5        8.042253   0.000000
    6        9.154074   0.000000
    7        9.809506   0.000000
    8       13.606844   0.000000
 
 -0.4250000E+00  0.1250000E+00  0.2500000E-01  0.1500000E-02
    1       -3.699313   1.000000
    2       -1.029997   1.000000
    3        3.548308   1.000000
    4        4.392040   1.000000
    5        8.075122   0.000000
    6        9.169749   0.000000
    7        9.739885   0.000000
    8       13.991877   0.000000
 
 -0.3750000E+00  0.1250000E+00  0.2500000E-01  0.1500000E-02
    1       -3.945113   1.000000
    2       -0.664703   1.000000
    3        3.515554   1.000000
    4        4.517379   1.000000
    5        8.144446   0.000000
    6        9.218917   0.000000
    7        9.714906   0.000000
    8       13.609194   0.000000
 
 -0.3250000E+00  0.1250000E+00  0.2500000E-01  0.1500000E-02
    1       -4.304980   1.000000
    2       -0.069079   1.000000
    3        3.529778   1.000000
    4        4.678964   1.000000
    5        8.246500   0.000000
    6        9.281370   0.000000
    7        9.730634   0.000000
    8       12.907932   0.000000
 
 -0.2750000E+00  0.1250000E+00  0.2500000E-01  0.1500000E-02
    1       -4.683332   1.000000
    2        0.656072   1.000000
    3        3.595612   1.000000
    4        4.868457   1.000000
    5        8.375992   0.000000
    6        9.314167   0.000000
    7        9.767296   0.000000
    8       12.250080   0.000000
 
 -0.2250000E+00  0.1250000E+00  0.2500000E-01  0.1500000E-02
    1       -5.036194   1.000000
    2        1.456260   1.000000
    3        3.718881   1.000000
    4        5.074385   1.000000
    5        8.524690   0.000000
    6        9.258124   0.000000
    7        9.769916   0.000000
    8       11.749671   0.000000
 
 -0.1750000E+00  0.1250000E+00  0.2500000E-01  0.1500000E-02
    1       -5.343860   1.000000
    2        2.289189   1.000000
    3        3.911276   1.000000
    4        5.279396   1.000000
    5        8.674076   0.000000
    6        9.087004   0.000000
    7        9.643746   0.000000
    8       11.453265   0.000000
 
 -0.1250000E+00  0.1250000E+00  0.2500000E-01  0.1500000E-02
    1       -5.596579   1.000000
    2        3.090326   1.000000
    3        4.205284   1.000000
    4        5.456285   1.000000
    5        8.733190   0.000000
    6        8.907079   0.000000
    7        9.364543   0.000000
    8       11.277360   0.000000
 
 -0.7500000E-01  0.1250000E+00  0.2500000E-01  0.1500000E-02
    1       -5.789223   1.000000
    2        3.739004   1.000000
    3        4.668670   1.000000
    4        5.566504   1.000000
    5        8.561225   0.000000
    6        8.824952   0.000000
    7        9.124283   0.000000
    8       10.987071   0.000000
 
 -0.2500000E-01  0.1250000E+00  0.2500000E-01  0.1500000E-02
    1       -5.918872   1.000000
    2        4.179441   1.000000
    3        5.238106   1.000000
    4        5.577849   1.000000
    5        8.406532   0.000000
    6        8.661617   0.000000
    7        9.005684   0.000000
    8       10.564276   0.000000
 
  0.1750000E+00  0.1750000E+00  0.2500000E-01  0.7500000E-03
    1       -5.679338   1.000000
    2        3.782256   1.000000
    3        4.651935   1.000000
    4        4.669343   1.000000
    5        7.583726   0.000000
    6        9.955082   0.000000
    7       10.081821   0.000000
    8       10.262141   0.000000
 
  0.2250000E+00  0.1750000E+00  0.2500000E-01  0.1500000E-02
    1       -5.507136   1.000000
    2        3.211380   1.000000
    3        4.340178   1.000000
    4        4.551079   1.000000
    5        7.525596   0.000000
    6        9.853733   0.000000
    7       10.403971   0.000000
    8       10.451199   0.000000
 
  0.2750000E+00  0.1750000E+00  0.2500000E-01  0.1500000E-02
    1       -5.273853   1.000000
    2        2.471412   1.000000
    3        4.081910   1.000000
    4        4.389065   1.000000
    5        7.654226   0.000000
    6        9.724018   0.000000
    7       10.400961   0.000000
    8       10.732560   0.000000
 
  0.3250000E+00  0.1750000E+00  0.2500000E-01  0.1500000E-02
    1       -4.983658   1.000000
    2        1.682968   1.000000
    3        3.845580   1.000000
    4        4.215800   1.000000
    5        7.809873   0.000000
    6        9.809836   0.000000
    7       10.295094   0.000000
    8       10.856991   0.000000
 
  0.3750000E+00  0.1750000E+00  0.2500000E-01  0.1500000E-02
    1       -4.644280   1.000000
    2        0.905030   1.000000
    3        3.612912   1.000000
    4        4.085101   1.000000
    5        7.883290   0.000000
    6       10.014044   0.000000
    7       10.331866   0.000000
    8       10.833697   0.000000
 
  0.4250000E+00  0.1750000E+00  0.2500000E-01  0.1500000E-02
    1       -4.270921   1.000000
    2        0.178741   1.000000
    3        3.388807   1.000000
    4        4.016348   1.000000
    5        7.894102   0.000000
    6        9.932412   0.000000
    7       10.712061   0.000000
    8       10.909362   0.000000
 
  0.4750000E+00  0.1750000E+00  0.2500000E-01  0.1500000E-02
    1       -3.896985   1.000000
    2       -0.448300   1.000000
    3        3.187813   1.000000
    4        4.008214   1.000000
    5        7.901058   0.000000
    6        9.819394   0.000000
    7       10.576290   0.000000
    8       11.680838   0.000000
 
 -0.4750000E+00  0.1750000E+00  0.2500000E-01  0.1500000E-02
    1       -3.598631   1.000000
    2       -0.892072   1.000000
    3        3.022113   1.000000
    4        4.055541   1.000000
    5        7.938853   0.000000
    6        9.729913   0.000000
    7       10.444716   0.000000
    8       12.559731   0.000000
 
 -0.4250000E+00  0.1750000E+00  0.2500000E-01  0.1500000E-02
    1       -3.509581   1.000000
    2       -1.015166   1.000000
    3        2.900385   1.000000
    4        4.153240   1.000000
    5        8.020565   0.000000
    6        9.672045   0.000000
    7       10.341789   0.000000
    8       13.488663   0.000000
 
 -0.3750000E+00  0.1750000E+00  0.2500000E-01  0.1500000E-02
    1       -3.690741   1.000000
    2       -0.756308   1.000000
    3        2.829476   1.000000
    4        4.295858   1.000000
    5        8.147111   0.000000
    6        9.645726   0.000000
    7       10.274140   0.000000
    8       13.603588   0.000000
 
 -0.3250000E+00  0.1750000E+00  0.2500000E-01  0.1500000E-02
    1       -4.029061   1.000000
    2       -0.231968   1.000000
    3        2.816201   1.000000
    4        4.476622   1.000000
    5        8.311772   0.000000
    6        9.640403   0.000000
    7       10.236122   0.000000
    8       12.791723   0.000000
 
 -0.2750000E+00  0.1750000E+00  0.2500000E-01  0.1500000E-02
    1       -4.408061   1.000000
    2        0.432042   1.000000
    3        2.869965   1.000000
    4        4.686225   1.000000
    5        8.501730   0.000000
    6        9.621842   0.000000
    7       10.207205   0.000000
    8       12.079919   0.000000
 
 -0.2250000E+00  0.1750000E+00  0.2500000E-01  0.1500000E-02
    1       -4.771254   1.000000
    2        1.157346   1.000000
    3        3.008762   1.000000
    4        4.910942   1.000000
    5        8.697510   0.000000
    6        9.518915   0.000000
    7       10.140023   0.000000
    8       11.548186   0.000000
 
 -0.1750000E+00  0.1750000E+00  0.2500000E-01  0.1500000E-02
    1       -5.093835   1.000000
    2        1.868369   1.000000
    3        3.273768   1.000000
    4        5.129683   1.000000
    5        8.865940   0.000000
    6        9.280530   0.000000
    7        9.942145   0.000000
    8       11.294050   0.000000
 
 -0.1250000E+00  0.1750000E+00  0.2500000E-01  0.1500000E-02
    1       -5.364063   1.000000
    2        2.463874   1.000000
    3        3.734192   1.000000
    4        5.310440   1.000000
    5        8.876905   0.000000
    6        9.026085   0.000000
    7        9.635883   0.000000
    8       11.311918   0.000000
 
 -0.7500000E-01  0.1750000E+00  0.2500000E-01  0.1500000E-02
    1       -5.575742   1.000000
    2        2.903853   1.000000
    3        4.379691   1.000000
    4        5.411388   1.000000
    5        8.562119   0.000000
    6        8.926376   0.000000
    7        9.440424   0.000000
    8       11.403866   0.000000
 
 -0.2500000E-01  0.1750000E+00  0.2500000E-01  0.1500000E-02
    1       -5.725466   1.000000
    2        3.258617   1.000000
    3        5.026944   1.000000
    4        5.403938   1.000000
    5        8.274556   0.000000
    6        8.867642   0.000000
    7        9.291180   0.000000
    8       11.343024   0.000000
 
  0.2250000E+00  0.2250000E+00  0.2500000E-01  0.7500000E-03
    1       -5.355672   1.000000
    2        2.926052   1.000000
    3        4.212086   1.000000
    4        4.215757   1.000000
    5        7.222180   0.000000
    6        9.532905   0.000000
    7       10.870582   0.000000
    8       10.900655   0.000000
 
  0.2750000E+00  0.2250000E+00  0.2500000E-01  0.1500000E-02
    1       -5.142502   1.000000
    2        2.391961   1.000000
    3        3.917855   1.000000
    4        4.081811   1.000000
    5        7.184190   0.000000
    6        9.225497   0.000000
    7       11.100122   0.000000
    8       11.297774   0.000000
 
  0.3250000E+00  0.2250000E+00  0.2500000E-01  0.1500000E-02
    1       -4.870994   1.000000
    2        1.740736   1.000000
    3        3.620382   1.000000
    4        3.925669   1.000000
    5        7.331723   0.000000
    6        9.112144   0.000000
    7       11.093689   0.000000
    8       11.532336   0.000000
 
  0.3750000E+00  0.2250000E+00  0.2500000E-01  0.1500000E-02
    1       -4.547213   1.000000
    2        1.048730   1.000000
    3        3.305691   1.000000
    4        3.805320   1.000000
    5        7.483585   0.000000
    6        9.295074   0.000000
    7       10.985823   0.000000
    8       11.582326   0.000000
 
  0.4250000E+00  0.2250000E+00  0.2500000E-01  0.1500000E-02
    1       -4.182843   1.000000
    2        0.366795   1.000000
    3        2.998498   1.000000
    4        3.742516   1.000000
    5        7.551869   0.000000
    6        9.789217   0.000000
    7       10.849501   0.000000
    8       11.504778   0.000000
 
  0.4750000E+00  0.2250000E+00  0.2500000E-01  0.1500000E-02
    1       -3.802952   1.000000
    2       -0.256131   1.000000
    3        2.723260   1.000000
    4        3.737536   1.000000
    5        7.585670   0.000000
    6       10.458863   0.000000
    7       10.758645   0.000000
    8       11.372831   0.000000
 
 -0.4750000E+00  0.2250000E+00  0.2500000E-01  0.1500000E-02
    1       -3.465896   1.000000
    2       -0.747196   1.000000
    3        2.494415   1.000000
    4        3.787585   1.000000
    5        7.640312   0.000000
    6       10.544509   0.000000
    7       11.214929   0.000000
    8       11.424649   0.000000
 
 -0.4250000E+00  0.2250000E+00  0.2500000E-01  0.1500000E-02
    1       -3.294402   1.000000
    2       -0.976343   1.000000
    3        2.321246   1.000000
    4        3.889229   1.000000
    5        7.740018   0.000000
    6       10.448314   0.000000
    7       11.104830   0.000000
    8       12.354715   0.000000
 
 -0.3750000E+00  0.2250000E+00  0.2500000E-01  0.1500000E-02
    1       -3.400692   1.000000
    2       -0.830006   1.000000
    3        2.212057   1.000000
    4        4.037990   1.000000
    5        7.890786   0.000000
    6       10.367684   0.000000
    7       11.010404   0.000000
    8       13.317626   0.000000
 
 -0.3250000E+00  0.2250000E+00  0.2500000E-01  0.1500000E-02
    1       -3.708929   1.000000
    2       -0.390381   1.000000
    3        2.177982   1.000000
    4        4.227574   1.000000
    5        8.088521   0.000000
    6       10.296553   0.000000
    7       10.933730   0.000000
    8       12.729337   0.000000
 
 -0.2750000E+00  0.2250000E+00  0.2500000E-01  0.1500000E-02
    1       -4.083886   1.000000
    2        0.187989   1.000000
    3        2.239371   1.000000
    4        4.448605   1.000000
    5        8.320408   0.000000
    6       10.192567   0.000000
    7       10.845345   0.000000
    8       11.996111   0.000000
 
 -0.2250000E+00  0.2250000E+00  0.2500000E-01  0.1500000E-02
    1       -4.454125   1.000000
    2        0.788785   1.000000
    3        2.438058   1.000000
    4        4.686628   1.000000
    5        8.560715   0.000000
    6        9.966491   0.000000
    7       10.667630   0.000000
    8       11.485275   0.000000
 
 -0.1750000E+00  0.2250000E+00  0.2500000E-01  0.1500000E-02
    1       -4.789046   1.000000
    2        1.308919   1.000000
    3        2.837886   1.000000
    4        4.918984   1.000000
    5        8.752874   0.000000
    6        9.599841   0.000000
    7       10.285761   0.000000
    8       11.340874   0.000000
 
 -0.1250000E+00  0.2250000E+00  0.2500000E-01  0.1500000E-02
    1       -5.074581   1.000000
    2        1.705017   1.000000
    3        3.449217   1.000000
    4        5.111219   1.000000
    5        8.739852   0.000000
    6        9.275108   0.000000
    7        9.868728   0.000000
    8       11.464686   0.000000
 
 -0.7500000E-01  0.2250000E+00  0.2500000E-01  0.1500000E-02
    1       -5.303533   1.000000
    2        2.028778   1.000000
    3        4.171065   1.000000
    4        5.218941   1.000000
    5        8.418524   0.000000
    6        9.120052   0.000000
    7        9.638363   0.000000
    8       11.705016   0.000000
 
 -0.2500000E-01  0.2250000E+00  0.2500000E-01  0.1500000E-02
    1       -5.471855   1.000000
    2        2.335110   1.000000
    3        4.838343   1.000000
    4        5.211964   1.000000
    5        8.093085   0.000000
    6        9.075610   0.000000
    7        9.486728   0.000000
    8       11.955675   0.000000
 
  0.2750000E+00  0.2750000E+00  0.2500000E-01  0.7500000E-03
    1       -4.949230   1.000000
    2        2.045111   1.000000
    3        3.812283   1.000000
    4        3.830432   1.000000
    5        6.903993   0.000000
    6        8.780140   0.000000
    7       11.734804   0.000000
    8       11.762887   0.000000
 