       N       E                     dE             d eps       ncg     rms          rms(c)
DAV:   1     0.684996421534E+01    0.68500E+01   -0.32240E+03 12336   0.749E+02
DAV:   2    -0.107884144167E+02   -0.17638E+02   -0.16977E+02 18784   0.819E+01
DAV:   3    -0.110318921286E+02   -0.24348E+00   -0.24348E+00 15600   0.120E+01
DAV:   4    -0.110331028736E+02   -0.12107E-02   -0.12107E-02 19928   0.911E-01
DAV:   5    -0.110331038340E+02   -0.96043E-06   -0.96075E-06 16160   0.224E-02    0.302E+00
DAV:   6    -0.109129913938E+02    0.12011E+00   -0.84882E-02 14848   0.151E+00    0.179E+00
DAV:   7    -0.108570677840E+02    0.55924E-01   -0.16164E-01 15752   0.218E+00    0.158E-01
DAV:   8    -0.108579966703E+02   -0.92889E-03   -0.41941E-03 14144   0.478E-01    0.272E-02
DAV:   9    -0.108580343928E+02   -0.37723E-04   -0.10840E-04 19912   0.832E-02    0.148E-02
DAV:  10    -0.108580493301E+02   -0.14937E-04   -0.19876E-05 14664   0.346E-02    0.144E-03
DAV:  11    -0.108580488659E+02    0.46416E-06   -0.27121E-07 19664   0.358E-03    0.467E-04
DAV:  12    -0.108580488328E+02    0.33168E-07   -0.23797E-08 10232   0.144E-03
   1 F= -.10858049E+02 E0= -.10858049E+02  d E =-.511330E-08
