 running on    1 total cores
 distrk:  each k-point on    1 cores,    1 groups
 distr:  one band on    1 cores,    1 groups
 using from now: INCAR     
 vasp.5.4.4.18Apr17-6-g9f103f2a35 (build May 20 2018 16:52:39) complex          
  
 POSCAR found type information on POSCAR  Si
 POSCAR found :  1 types and       2 ions
 scaLAPACK will be used
 LDA part: xc-table for Ceperly-Alder, standard interpolation
 POSCAR, INCAR and KPOINTS ok, starting setup
 FFT: planning ...
 WAVECAR not read
 WARNING: random wavefunctions but no delay for mixing, default for NELMDL
 entering main loop
       N       E                     dE             d eps       ncg     rms          rms(c)
DAV:   1     0.177572861495E+01    0.17757E+01   -0.24372E+03 12392   0.498E+02
DAV:   2    -0.108732240315E+02   -0.12649E+02   -0.12087E+02 19112   0.657E+01
DAV:   3    -0.110254963076E+02   -0.15227E+00   -0.15227E+00 15440   0.912E+00
DAV:   4    -0.110260739416E+02   -0.57763E-03   -0.57763E-03 19944   0.595E-01
DAV:   5    -0.110260743603E+02   -0.41871E-06   -0.41835E-06 16096   0.128E-02    0.301E+00
DAV:   6    -0.109063214183E+02    0.11975E+00   -0.84476E-02 14616   0.150E+00    0.179E+00
DAV:   7    -0.108504294905E+02    0.55892E-01   -0.16105E-01 15576   0.217E+00    0.157E-01
DAV:   8    -0.108513455413E+02   -0.91605E-03   -0.40941E-03 14208   0.464E-01    0.273E-02
DAV:   9    -0.108513827225E+02   -0.37181E-04   -0.10280E-04 19632   0.775E-02    0.147E-02
DAV:  10    -0.108513973978E+02   -0.14675E-04   -0.19396E-05 14816   0.335E-02    0.143E-03
DAV:  11    -0.108513969319E+02    0.46590E-06   -0.26283E-07 13656   0.338E-03
   1 F= -.10851397E+02 E0= -.10851531E+02  d E =0.402162E-03
