   4   4   1   0
  0.9063964E+01  0.5107186E-09  0.5107186E-09  0.5107186E-09  0.5000000E-15
  1.000000000000000E-004
  CAR 
 NiO_af2                                 
     16.45467055    -16.69543660  301      3.70362695      1.00000000
    -16.695  0.0000E+00  0.0000E+00  0.0000E+00  0.0000E+00
    -16.585  0.0000E+00  0.0000E+00  0.0000E+00  0.0000E+00
    -16.474  0.0000E+00  0.0000E+00  0.0000E+00  0.0000E+00
    -16.364 -0.4610E-30 -0.4610E-30 -0.5094E-31 -0.5094E-31
    -16.253 -0.3309E-26 -0.3309E-26 -0.3657E-27 -0.3657E-27
    -16.143 -0.1281E-22 -0.1281E-22 -0.1416E-23 -0.1416E-23
    -16.032 -0.2684E-19 -0.2684E-19 -0.2967E-20 -0.2967E-20
    -15.922 -0.3043E-16 -0.3043E-16 -0.3365E-17 -0.3365E-17
    -15.811 -0.1807E-13 -0.1807E-13 -0.2000E-14 -0.2000E-14
    -15.701 -0.5935E-11 -0.5935E-11 -0.6579E-12 -0.6579E-12
    -15.590 -0.1048E-08 -0.1048E-08 -0.1165E-09 -0.1165E-09
    -15.480 -0.9909E-07 -0.9909E-07 -0.1107E-07 -0.1107E-07
    -15.369 -0.4977E-05 -0.4977E-05 -0.5610E-06 -0.5610E-06
    -15.259 -0.1310E-03 -0.1310E-03 -0.1504E-04 -0.1504E-04
    -15.148 -0.1756E-02 -0.1756E-02 -0.2090E-03 -0.2090E-03
    -15.038 -0.1111E-01 -0.1111E-01 -0.1436E-02 -0.1436E-02
    -14.927 -0.2406E-01 -0.2406E-01 -0.4095E-02 -0.4095E-02
    -14.817  0.4752E-01  0.4752E-01  0.1156E-02  0.1156E-02
    -14.706  0.3064E+00  0.3064E+00  0.3502E-01  0.3502E-01
    -14.596  0.5495E+00  0.5495E+00  0.9574E-01  0.9574E-01
    -14.485  0.5191E+00  0.5191E+00  0.1531E+00  0.1531E+00
    -14.375  0.3614E+00  0.3614E+00  0.1930E+00  0.1930E+00
    -14.264  0.2687E+00  0.2687E+00  0.2227E+00  0.2227E+00
    -14.154  0.3198E+00  0.3198E+00  0.2581E+00  0.2581E+00
    -14.043  0.5790E+00  0.5790E+00  0.3221E+00  0.3221E+00
    -13.933  0.8247E+00  0.8247E+00  0.4132E+00  0.4132E+00
    -13.822  0.7911E+00  0.7911E+00  0.5006E+00  0.5006E+00
    -13.712  0.6139E+00  0.6139E+00  0.5684E+00  0.5684E+00
    -13.601  0.5534E+00  0.5534E+00  0.6296E+00  0.6296E+00
    -13.491  0.1062E+01  0.1062E+01  0.7470E+00  0.7470E+00
    -13.380  0.2478E+01  0.2478E+01  0.1021E+01  0.1021E+01
    -13.270  0.3875E+01  0.3875E+01  0.1449E+01  0.1449E+01
    -13.159  0.3559E+01  0.3559E+01  0.1842E+01  0.1842E+01
    -13.049  0.1566E+01  0.1566E+01  0.2015E+01  0.2015E+01
    -12.938  0.8039E-01  0.8039E-01  0.2024E+01  0.2024E+01
    -12.828 -0.1611E+00 -0.1611E+00  0.2006E+01  0.2006E+01
    -12.717 -0.5125E-01 -0.5125E-01  0.2001E+01  0.2001E+01
    -12.607 -0.6420E-02 -0.6420E-02  0.2000E+01  0.2000E+01
    -12.496 -0.3875E-03 -0.3875E-03  0.2000E+01  0.2000E+01
    -12.386 -0.1195E-04 -0.1195E-04  0.2000E+01  0.2000E+01
    -12.275 -0.1933E-06 -0.1933E-06  0.2000E+01  0.2000E+01
    -12.165 -0.1661E-08 -0.1661E-08  0.2000E+01  0.2000E+01
    -12.054 -0.7639E-11 -0.7639E-11  0.2000E+01  0.2000E+01
    -11.944 -0.1912E-13 -0.1912E-13  0.2000E+01  0.2000E+01
    -11.833  0.0000E+00  0.0000E+00  0.2000E+01  0.2000E+01
    -11.723  0.0000E+00  0.0000E+00  0.2000E+01  0.2000E+01
    -11.612  0.0000E+00  0.0000E+00  0.2000E+01  0.2000E+01
    -11.502  0.0000E+00  0.0000E+00  0.2000E+01  0.2000E+01
    -11.391  0.0000E+00  0.0000E+00  0.2000E+01  0.2000E+01
    -11.281  0.0000E+00  0.0000E+00  0.2000E+01  0.2000E+01
    -11.170  0.0000E+00  0.0000E+00  0.2000E+01  0.2000E+01
    -11.060  0.0000E+00  0.0000E+00  0.2000E+01  0.2000E+01
    -10.949  0.0000E+00  0.0000E+00  0.2000E+01  0.2000E+01
    -10.839  0.0000E+00  0.0000E+00  0.2000E+01  0.2000E+01
    -10.728  0.0000E+00  0.0000E+00  0.2000E+01  0.2000E+01
    -10.618  0.0000E+00  0.0000E+00  0.2000E+01  0.2000E+01
    -10.507  0.0000E+00  0.0000E+00  0.2000E+01  0.2000E+01
    -10.397  0.0000E+00  0.0000E+00  0.2000E+01  0.2000E+01
    -10.286  0.0000E+00  0.0000E+00  0.2000E+01  0.2000E+01
    -10.176  0.0000E+00  0.0000E+00  0.2000E+01  0.2000E+01
    -10.065  0.0000E+00  0.0000E+00  0.2000E+01  0.2000E+01
     -9.955  0.0000E+00  0.0000E+00  0.2000E+01  0.2000E+01
     -9.844  0.0000E+00  0.0000E+00  0.2000E+01  0.2000E+01
     -9.734  0.0000E+00  0.0000E+00  0.2000E+01  0.2000E+01
     -9.623  0.0000E+00  0.0000E+00  0.2000E+01  0.2000E+01
     -9.513  0.0000E+00  0.0000E+00  0.2000E+01  0.2000E+01
     -9.402  0.0000E+00  0.0000E+00  0.2000E+01  0.2000E+01
     -9.292  0.0000E+00  0.0000E+00  0.2000E+01  0.2000E+01
     -9.181  0.0000E+00  0.0000E+00  0.2000E+01  0.2000E+01
     -9.071  0.0000E+00  0.0000E+00  0.2000E+01  0.2000E+01
     -8.960  0.0000E+00  0.0000E+00  0.2000E+01  0.2000E+01
     -8.850  0.0000E+00  0.0000E+00  0.2000E+01  0.2000E+01
     -8.739  0.0000E+00  0.0000E+00  0.2000E+01  0.2000E+01
     -8.629  0.0000E+00  0.0000E+00  0.2000E+01  0.2000E+01
     -8.518  0.0000E+00  0.0000E+00  0.2000E+01  0.2000E+01
     -8.408  0.0000E+00  0.0000E+00  0.2000E+01  0.2000E+01
     -8.297  0.0000E+00  0.0000E+00  0.2000E+01  0.2000E+01
     -8.187  0.0000E+00  0.0000E+00  0.2000E+01  0.2000E+01
     -8.076  0.0000E+00  0.0000E+00  0.2000E+01  0.2000E+01
     -7.966  0.0000E+00  0.0000E+00  0.2000E+01  0.2000E+01
     -7.855  0.0000E+00  0.0000E+00  0.2000E+01  0.2000E+01
     -7.745  0.0000E+00  0.0000E+00  0.2000E+01  0.2000E+01
     -7.634  0.0000E+00  0.0000E+00  0.2000E+01  0.2000E+01
     -7.524  0.0000E+00  0.0000E+00  0.2000E+01  0.2000E+01
     -7.413  0.0000E+00  0.0000E+00  0.2000E+01  0.2000E+01
     -7.303  0.0000E+00  0.0000E+00  0.2000E+01  0.2000E+01
     -7.192  0.0000E+00  0.0000E+00  0.2000E+01  0.2000E+01
     -7.082  0.0000E+00  0.0000E+00  0.2000E+01  0.2000E+01
     -6.971  0.0000E+00  0.0000E+00  0.2000E+01  0.2000E+01
     -6.861  0.0000E+00  0.0000E+00  0.2000E+01  0.2000E+01
     -6.750  0.0000E+00  0.0000E+00  0.2000E+01  0.2000E+01
     -6.640  0.0000E+00  0.0000E+00  0.2000E+01  0.2000E+01
     -6.529  0.0000E+00  0.0000E+00  0.2000E+01  0.2000E+01
     -6.419  0.0000E+00  0.0000E+00  0.2000E+01  0.2000E+01
     -6.308  0.0000E+00  0.0000E+00  0.2000E+01  0.2000E+01
     -6.198  0.0000E+00  0.0000E+00  0.2000E+01  0.2000E+01
     -6.087  0.0000E+00  0.0000E+00  0.2000E+01  0.2000E+01
     -5.977  0.0000E+00  0.0000E+00  0.2000E+01  0.2000E+01
     -5.866  0.0000E+00  0.0000E+00  0.2000E+01  0.2000E+01
     -5.756  0.0000E+00  0.0000E+00  0.2000E+01  0.2000E+01
     -5.645  0.0000E+00  0.0000E+00  0.2000E+01  0.2000E+01
     -5.535  0.0000E+00  0.0000E+00  0.2000E+01  0.2000E+01
     -5.424  0.0000E+00  0.0000E+00  0.2000E+01  0.2000E+01
     -5.314  0.0000E+00  0.0000E+00  0.2000E+01  0.2000E+01
     -5.203  0.0000E+00  0.0000E+00  0.2000E+01  0.2000E+01
     -5.093 -0.5335E-28 -0.5335E-28  0.2000E+01  0.2000E+01
     -4.982 -0.2900E-24 -0.2900E-24  0.2000E+01  0.2000E+01
     -4.872 -0.8542E-21 -0.8542E-21  0.2000E+01  0.2000E+01
     -4.761 -0.1364E-17 -0.1364E-17  0.2000E+01  0.2000E+01
     -4.651 -0.1153E-14 -0.1153E-14  0.2000E+01  0.2000E+01
     -4.540 -0.5324E-12 -0.5324E-12  0.2000E+01  0.2000E+01
     -4.430 -0.1334E-09 -0.1334E-09  0.2000E+01  0.2000E+01
     -4.319 -0.1796E-07 -0.1796E-07  0.2000E+01  0.2000E+01
     -4.209 -0.1293E-05 -0.1293E-05  0.2000E+01  0.2000E+01
     -4.098 -0.4930E-04 -0.4930E-04  0.2000E+01  0.2000E+01
     -3.988 -0.9779E-03 -0.9779E-03  0.2000E+01  0.2000E+01
     -3.877 -0.9685E-02 -0.9685E-02  0.1999E+01  0.1999E+01
     -3.767 -0.4230E-01 -0.4230E-01  0.1994E+01  0.1994E+01
     -3.656 -0.3210E-01 -0.3210E-01  0.1991E+01  0.1991E+01
     -3.546  0.3122E+00  0.3122E+00  0.2025E+01  0.2025E+01
     -3.435  0.1009E+01  0.1009E+01  0.2137E+01  0.2137E+01
     -3.325  0.1333E+01  0.1333E+01  0.2284E+01  0.2284E+01
     -3.214  0.1030E+01  0.1030E+01  0.2398E+01  0.2398E+01
     -3.104  0.7310E+00  0.7310E+00  0.2478E+01  0.2478E+01
     -2.993  0.7892E+00  0.7892E+00  0.2566E+01  0.2566E+01
     -2.883  0.9594E+00  0.9594E+00  0.2672E+01  0.2672E+01
     -2.772  0.8077E+00  0.8077E+00  0.2761E+01  0.2761E+01
     -2.662  0.6177E+00  0.6177E+00  0.2829E+01  0.2829E+01
     -2.551  0.1867E+01  0.1867E+01  0.3035E+01  0.3035E+01
     -2.441  0.4930E+01  0.4930E+01  0.3580E+01  0.3580E+01
     -2.330  0.6534E+01  0.6534E+01  0.4302E+01  0.4302E+01
     -2.220  0.4421E+01  0.4421E+01  0.4791E+01  0.4791E+01
     -2.109  0.1551E+01  0.1551E+01  0.4962E+01  0.4962E+01
     -1.999  0.5031E+00  0.5031E+00  0.5018E+01  0.5018E+01
     -1.888  0.5837E+00  0.5837E+00  0.5082E+01  0.5082E+01
     -1.778  0.9619E+00  0.9619E+00  0.5188E+01  0.5188E+01
     -1.667  0.1563E+01  0.1563E+01  0.5361E+01  0.5361E+01
     -1.557  0.2132E+01  0.2132E+01  0.5597E+01  0.5597E+01
     -1.446  0.2738E+01  0.2738E+01  0.5899E+01  0.5899E+01
     -1.336  0.3605E+01  0.3605E+01  0.6298E+01  0.6298E+01
     -1.225  0.3458E+01  0.3458E+01  0.6680E+01  0.6680E+01
     -1.115  0.2287E+01  0.2287E+01  0.6932E+01  0.6932E+01
     -1.004  0.1916E+01  0.1916E+01  0.7144E+01  0.7144E+01
     -0.894  0.1998E+01  0.1998E+01  0.7365E+01  0.7365E+01
     -0.783  0.1372E+01  0.1372E+01  0.7516E+01  0.7516E+01
     -0.673  0.1003E+01  0.1003E+01  0.7627E+01  0.7627E+01
     -0.562  0.1404E+01  0.1404E+01  0.7782E+01  0.7782E+01
     -0.452  0.1977E+01  0.1977E+01  0.8001E+01  0.8001E+01
     -0.341  0.2391E+01  0.2391E+01  0.8265E+01  0.8265E+01
     -0.231  0.1940E+01  0.1940E+01  0.8480E+01  0.8480E+01
     -0.120  0.8443E+00  0.8443E+00  0.8573E+01  0.8573E+01
     -0.010  0.2540E+00  0.2540E+00  0.8601E+01  0.8601E+01
      0.101  0.3118E+00  0.3118E+00  0.8635E+01  0.8635E+01
      0.211  0.5425E+00  0.5425E+00  0.8695E+01  0.8695E+01
      0.322  0.6965E+00  0.6965E+00  0.8772E+01  0.8772E+01
      0.432  0.8452E+00  0.8452E+00  0.8866E+01  0.8866E+01
      0.543  0.1083E+01  0.1083E+01  0.8985E+01  0.8985E+01
      0.653  0.1409E+01  0.1409E+01  0.9141E+01  0.9141E+01
      0.764  0.1635E+01  0.1635E+01  0.9322E+01  0.9322E+01
      0.874  0.1618E+01  0.1618E+01  0.9501E+01  0.9501E+01
      0.985  0.1588E+01  0.1588E+01  0.9676E+01  0.9676E+01
      1.095  0.1746E+01  0.1746E+01  0.9869E+01  0.9869E+01
      1.206  0.2201E+01  0.2201E+01  0.1011E+02  0.1011E+02
      1.316  0.2579E+01  0.2579E+01  0.1040E+02  0.1040E+02
      1.427  0.2134E+01  0.2134E+01  0.1063E+02  0.1063E+02
      1.537  0.1416E+01  0.1416E+01  0.1079E+02  0.1079E+02
      1.648  0.1508E+01  0.1508E+01  0.1096E+02  0.1096E+02
      1.758  0.2049E+01  0.2049E+01  0.1118E+02  0.1118E+02
      1.869  0.2101E+01  0.2101E+01  0.1141E+02  0.1141E+02
      1.979  0.1668E+01  0.1668E+01  0.1160E+02  0.1160E+02
      2.090  0.1296E+01  0.1296E+01  0.1174E+02  0.1174E+02
      2.200  0.1145E+01  0.1145E+01  0.1187E+02  0.1187E+02
      2.311  0.1106E+01  0.1106E+01  0.1199E+02  0.1199E+02
      2.421  0.1511E+01  0.1511E+01  0.1216E+02  0.1216E+02
      2.532  0.3067E+01  0.3067E+01  0.1250E+02  0.1250E+02
      2.642  0.4486E+01  0.4486E+01  0.1299E+02  0.1299E+02
      2.753  0.3756E+01  0.3756E+01  0.1341E+02  0.1341E+02
      2.863  0.2534E+01  0.2534E+01  0.1369E+02  0.1369E+02
      2.974  0.2959E+01  0.2959E+01  0.1401E+02  0.1401E+02
      3.084  0.3810E+01  0.3810E+01  0.1444E+02  0.1444E+02
      3.195  0.3482E+01  0.3482E+01  0.1482E+02  0.1482E+02
      3.305  0.3223E+01  0.3223E+01  0.1518E+02  0.1518E+02
      3.416  0.3275E+01  0.3275E+01  0.1554E+02  0.1554E+02
      3.526  0.2508E+01  0.2508E+01  0.1582E+02  0.1582E+02
      3.637  0.1335E+01  0.1335E+01  0.1596E+02  0.1596E+02
      3.747  0.4221E+00  0.4221E+00  0.1601E+02  0.1601E+02
      3.858 -0.7130E-02 -0.7130E-02  0.1601E+02  0.1601E+02
      3.968 -0.5786E-01 -0.5786E-01  0.1600E+02  0.1600E+02
      4.079 -0.1914E-01 -0.1914E-01  0.1600E+02  0.1600E+02
      4.189 -0.7795E-02 -0.7795E-02  0.1600E+02  0.1600E+02
      4.300 -0.1906E-01 -0.1906E-01  0.1600E+02  0.1600E+02
      4.410 -0.1508E-02 -0.1508E-02  0.1600E+02  0.1600E+02
      4.521  0.1618E+00  0.1618E+00  0.1601E+02  0.1601E+02
      4.631  0.4209E+00  0.4209E+00  0.1606E+02  0.1606E+02
      4.742  0.4940E+00  0.4940E+00  0.1612E+02  0.1612E+02
      4.852  0.3966E+00  0.3966E+00  0.1616E+02  0.1616E+02
      4.963  0.4749E+00  0.4749E+00  0.1621E+02  0.1621E+02
      5.073  0.8580E+00  0.8580E+00  0.1631E+02  0.1631E+02
      5.184  0.1331E+01  0.1331E+01  0.1645E+02  0.1645E+02
      5.294  0.1754E+01  0.1754E+01  0.1665E+02  0.1665E+02
      5.405  0.2067E+01  0.2067E+01  0.1688E+02  0.1688E+02
      5.515  0.2427E+01  0.2427E+01  0.1714E+02  0.1714E+02
      5.626  0.3046E+01  0.3046E+01  0.1748E+02  0.1748E+02
      5.736  0.2967E+01  0.2967E+01  0.1781E+02  0.1781E+02
      5.847  0.1602E+01  0.1602E+01  0.1799E+02  0.1799E+02
      5.957  0.2963E+00  0.2963E+00  0.1802E+02  0.1802E+02
      6.068 -0.9784E-01 -0.9784E-01  0.1801E+02  0.1801E+02
      6.178 -0.6009E-01 -0.6009E-01  0.1800E+02  0.1800E+02
      6.289 -0.1229E-01 -0.1229E-01  0.1800E+02  0.1800E+02
      6.399 -0.1252E-02 -0.1252E-02  0.1800E+02  0.1800E+02
      6.510 -0.1494E-03 -0.1494E-03  0.1800E+02  0.1800E+02
      6.620 -0.9886E-03 -0.9886E-03  0.1800E+02  0.1800E+02
      6.731 -0.5488E-02 -0.5488E-02  0.1800E+02  0.1800E+02
      6.841 -0.8963E-02 -0.8963E-02  0.1800E+02  0.1800E+02
      6.952  0.3069E-01  0.3069E-01  0.1800E+02  0.1800E+02
      7.062  0.1427E+00  0.1427E+00  0.1802E+02  0.1802E+02
      7.173  0.2245E+00  0.2245E+00  0.1804E+02  0.1804E+02
      7.283  0.1954E+00  0.1954E+00  0.1806E+02  0.1806E+02
      7.394  0.1371E+00  0.1371E+00  0.1808E+02  0.1808E+02
      7.504  0.1101E+00  0.1101E+00  0.1809E+02  0.1809E+02
      7.615  0.1007E+00  0.1007E+00  0.1810E+02  0.1810E+02
      7.725  0.9489E-01  0.9489E-01  0.1811E+02  0.1811E+02
      7.836  0.9010E-01  0.9010E-01  0.1812E+02  0.1812E+02
      7.946  0.8626E-01  0.8626E-01  0.1813E+02  0.1813E+02
      8.057  0.8384E-01  0.8384E-01  0.1814E+02  0.1814E+02
      8.167  0.8222E-01  0.8222E-01  0.1815E+02  0.1815E+02
      8.278  0.8059E-01  0.8059E-01  0.1816E+02  0.1816E+02
      8.388  0.7911E-01  0.7911E-01  0.1817E+02  0.1817E+02
      8.499  0.7835E-01  0.7835E-01  0.1818E+02  0.1818E+02
      8.609  0.7800E-01  0.7800E-01  0.1819E+02  0.1819E+02
      8.720  0.7733E-01  0.7733E-01  0.1819E+02  0.1819E+02
      8.830  0.7669E-01  0.7669E-01  0.1820E+02  0.1820E+02
      8.941  0.7706E-01  0.7706E-01  0.1821E+02  0.1821E+02
      9.051  0.7769E-01  0.7769E-01  0.1822E+02  0.1822E+02
      9.162  0.7847E-01  0.7847E-01  0.1823E+02  0.1823E+02
      9.272  0.7871E-01  0.7871E-01  0.1824E+02  0.1824E+02
      9.383  0.7794E-01  0.7794E-01  0.1825E+02  0.1825E+02
      9.493  0.7578E-01  0.7578E-01  0.1825E+02  0.1825E+02
      9.604  0.8765E-01  0.8765E-01  0.1826E+02  0.1826E+02
      9.714  0.1405E+00  0.1405E+00  0.1828E+02  0.1828E+02
      9.825  0.2289E+00  0.2289E+00  0.1830E+02  0.1830E+02
      9.935  0.2916E+00  0.2916E+00  0.1834E+02  0.1834E+02
     10.046  0.2829E+00  0.2829E+00  0.1837E+02  0.1837E+02
     10.156  0.2373E+00  0.2373E+00  0.1839E+02  0.1839E+02
     10.267  0.2107E+00  0.2107E+00  0.1842E+02  0.1842E+02
     10.377  0.2054E+00  0.2054E+00  0.1844E+02  0.1844E+02
     10.488  0.2083E+00  0.2083E+00  0.1846E+02  0.1846E+02
     10.598  0.2098E+00  0.2098E+00  0.1849E+02  0.1849E+02
     10.709  0.2162E+00  0.2162E+00  0.1851E+02  0.1851E+02
     10.819  0.3143E+00  0.3143E+00  0.1854E+02  0.1854E+02
     10.930  0.6227E+00  0.6227E+00  0.1861E+02  0.1861E+02
     11.040  0.9054E+00  0.9054E+00  0.1871E+02  0.1871E+02
     11.151  0.7952E+00  0.7952E+00  0.1880E+02  0.1880E+02
     11.261  0.5013E+00  0.5013E+00  0.1886E+02  0.1886E+02
     11.372  0.4194E+00  0.4194E+00  0.1890E+02  0.1890E+02
     11.482  0.6791E+00  0.6791E+00  0.1898E+02  0.1898E+02
     11.593  0.1085E+01  0.1085E+01  0.1910E+02  0.1910E+02
     11.703  0.1284E+01  0.1284E+01  0.1924E+02  0.1924E+02
     11.814  0.1168E+01  0.1168E+01  0.1937E+02  0.1937E+02
     11.924  0.7779E+00  0.7779E+00  0.1946E+02  0.1946E+02
     12.035  0.3988E+00  0.3988E+00  0.1950E+02  0.1950E+02
     12.145  0.2664E+00  0.2664E+00  0.1953E+02  0.1953E+02
     12.256  0.2702E+00  0.2702E+00  0.1956E+02  0.1956E+02
     12.366  0.2831E+00  0.2831E+00  0.1959E+02  0.1959E+02
     12.477  0.2938E+00  0.2938E+00  0.1962E+02  0.1962E+02
     12.587  0.3242E+00  0.3242E+00  0.1966E+02  0.1966E+02
     12.698  0.3789E+00  0.3789E+00  0.1970E+02  0.1970E+02
     12.808  0.3940E+00  0.3940E+00  0.1974E+02  0.1974E+02
     12.919  0.3357E+00  0.3357E+00  0.1978E+02  0.1978E+02
     13.029  0.2631E+00  0.2631E+00  0.1981E+02  0.1981E+02
     13.140  0.1715E+00  0.1715E+00  0.1983E+02  0.1983E+02
     13.250  0.7493E-01  0.7496E-01  0.1984E+02  0.1984E+02
     13.361  0.3693E-01  0.3698E-01  0.1984E+02  0.1984E+02
     13.471  0.3848E-01  0.3813E-01  0.1985E+02  0.1985E+02
     13.582  0.3934E-01  0.3850E-01  0.1985E+02  0.1985E+02
     13.692  0.3723E-01  0.3717E-01  0.1985E+02  0.1985E+02
     13.803  0.5970E-01  0.6044E-01  0.1986E+02  0.1986E+02
     13.913  0.1621E+00  0.1616E+00  0.1988E+02  0.1988E+02
     14.024  0.3054E+00  0.3039E+00  0.1991E+02  0.1991E+02
     14.134  0.3372E+00  0.3383E+00  0.1995E+02  0.1995E+02
     14.245  0.2396E+00  0.2393E+00  0.1998E+02  0.1998E+02
     14.355  0.1386E+00  0.1316E+00  0.1999E+02  0.1999E+02
     14.466  0.7047E-01  0.6830E-01  0.2000E+02  0.2000E+02
     14.576  0.1783E-01  0.2453E-01  0.2000E+02  0.2000E+02
     14.687 -0.3885E-02  0.5458E-03  0.2000E+02  0.2000E+02
     14.797 -0.3386E-02 -0.3172E-02  0.2000E+02  0.2000E+02
     14.908 -0.7502E-03 -0.1125E-02  0.2000E+02  0.2000E+02
     15.018 -0.7588E-04 -0.1687E-03  0.2000E+02  0.2000E+02
     15.129 -0.3885E-05 -0.1262E-04  0.2000E+02  0.2000E+02
     15.239 -0.1044E-06 -0.4920E-06  0.2000E+02  0.2000E+02
     15.350 -0.1497E-08 -0.1016E-07  0.2000E+02  0.2000E+02
     15.460 -0.1154E-10 -0.1119E-09  0.2000E+02  0.2000E+02
     15.571 -0.4798E-13 -0.6602E-12  0.2000E+02  0.2000E+02
     15.681 -0.1005E-15 -0.2090E-14  0.2000E+02  0.2000E+02
     15.792  0.0000E+00  0.0000E+00  0.2000E+02  0.2000E+02
     15.902  0.0000E+00  0.0000E+00  0.2000E+02  0.2000E+02
     16.013  0.0000E+00  0.0000E+00  0.2000E+02  0.2000E+02
     16.123  0.0000E+00  0.0000E+00  0.2000E+02  0.2000E+02
     16.234  0.0000E+00  0.0000E+00  0.2000E+02  0.2000E+02
     16.344  0.0000E+00  0.0000E+00  0.2000E+02  0.2000E+02
     16.455  0.0000E+00  0.0000E+00  0.2000E+02  0.2000E+02
     16.45467055    -16.69543660  301      3.70362695      1.00000000
    -16.695  0.0000E+00  0.0000E+00  0.0000E+00  0.0000E+00  0.0000E+00  0.0000E+00  0.0000E+00  0.0000E+00  0.0000E+00  0.0000E+00  0.0000E+00  0.0000E+00  0.0000E+00  0.0000E+00  0.0000E+00  0.0000E+00  0.0000E+00  0.0000E+00
    -16.585  0.0000E+00  0.0000E+00  0.0000E+00  0.0000E+00  0.0000E+00  0.0000E+00  0.0000E+00  0.0000E+00  0.0000E+00  0.0000E+00  0.0000E+00  0.0000E+00  0.0000E+00  0.0000E+00  0.0000E+00  0.0000E+00  0.0000E+00  0.0000E+00
    -16.474  0.0000E+00  0.0000E+00  0.0000E+00  0.0000E+00  0.0000E+00  0.0000E+00  0.0000E+00  0.0000E+00  0.0000E+00  0.0000E+00  0.0000E+00  0.0000E+00  0.0000E+00  0.0000E+00  0.0000E+00  0.0000E+00  0.0000E+00  0.0000E+00
    -16.364 -0.2898E-31 -0.2822E-31 -0.1129E-34 -0.1160E-34 -0.1921E-34 -0.1933E-34 -0.1921E-34 -0.1933E-34 -0.1787E-37 -0.9308E-38 -0.1787E-37 -0.9228E-38 -0.8900E-38 -0.5685E-38 -0.1689E-37 -0.1311E-37 -0.2668E-37 -0.1704E-37
    -16.253 -0.2080E-27 -0.2025E-27 -0.9197E-31 -0.9447E-31 -0.1549E-30 -0.1559E-30 -0.1549E-30 -0.1559E-30 -0.1377E-33 -0.6695E-34 -0.1377E-33 -0.6638E-34 -0.8355E-34 -0.5333E-34 -0.1328E-33 -0.9905E-34 -0.2505E-33 -0.1599E-33
    -16.143 -0.8048E-24 -0.7835E-24 -0.3849E-27 -0.3954E-27 -0.6480E-27 -0.6526E-27 -0.6481E-27 -0.6526E-27 -0.5557E-30 -0.2579E-30 -0.5555E-30 -0.2557E-30 -0.3763E-30 -0.2401E-30 -0.5411E-30 -0.3961E-30 -0.1128E-29 -0.7200E-30
    -16.032 -0.1686E-20 -0.1641E-20 -0.8771E-24 -0.9010E-24 -0.1477E-23 -0.1487E-23 -0.1477E-23 -0.1487E-23 -0.1222E-26 -0.5387E-27 -0.1221E-26 -0.5341E-27 -0.9276E-27 -0.5918E-27 -0.1204E-26 -0.8640E-27 -0.2781E-26 -0.1775E-26
    -15.922 -0.1910E-17 -0.1860E-17 -0.1089E-20 -0.1119E-20 -0.1833E-20 -0.1846E-20 -0.1833E-20 -0.1846E-20 -0.1465E-23 -0.6106E-24 -0.1465E-23 -0.6054E-24 -0.1254E-23 -0.7999E-24 -0.1466E-23 -0.1029E-23 -0.3761E-23 -0.2399E-23
    -15.811 -0.1134E-14 -0.1104E-14 -0.7151E-18 -0.7347E-18 -0.1204E-17 -0.1212E-17 -0.1204E-17 -0.1212E-17 -0.9306E-21 -0.3647E-21 -0.9305E-21 -0.3616E-21 -0.9045E-21 -0.5768E-21 -0.9496E-21 -0.6512E-21 -0.2713E-20 -0.1730E-20
    -15.701 -0.3723E-12 -0.3624E-12 -0.2619E-15 -0.2691E-15 -0.4409E-15 -0.4441E-15 -0.4409E-15 -0.4441E-15 -0.3306E-18 -0.1213E-18 -0.3306E-18 -0.1203E-18 -0.3671E-18 -0.2340E-18 -0.3454E-18 -0.2314E-18 -0.1101E-17 -0.7019E-18
    -15.590 -0.6570E-10 -0.6396E-10 -0.5225E-13 -0.5370E-13 -0.8796E-13 -0.8860E-13 -0.8796E-13 -0.8861E-13 -0.6426E-16 -0.2202E-16 -0.6426E-16 -0.2184E-16 -0.8206E-16 -0.5229E-16 -0.6913E-16 -0.4521E-16 -0.2461E-15 -0.1569E-15
    -15.480 -0.6205E-08 -0.6040E-08 -0.5668E-11 -0.5827E-11 -0.9542E-11 -0.9614E-11 -0.9542E-11 -0.9614E-11 -0.6837E-14 -0.2188E-14 -0.6837E-14 -0.2171E-14 -0.1012E-13 -0.6447E-14 -0.7627E-14 -0.4872E-14 -0.3036E-13 -0.1934E-13
    -15.369 -0.3113E-06 -0.3030E-06 -0.3338E-09 -0.3432E-09 -0.5618E-09 -0.5661E-09 -0.5618E-09 -0.5661E-09 -0.3988E-12 -0.1200E-12 -0.3988E-12 -0.1192E-12 -0.6900E-12 -0.4394E-12 -0.4651E-12 -0.2908E-12 -0.2070E-11 -0.1318E-11
    -15.259 -0.8181E-05 -0.7962E-05 -0.1061E-07 -0.1092E-07 -0.1787E-07 -0.1801E-07 -0.1787E-07 -0.1801E-07 -0.1276E-10 -0.3677E-11 -0.1276E-10 -0.3656E-11 -0.2605E-10 -0.1658E-10 -0.1572E-10 -0.9658E-11 -0.7815E-10 -0.4976E-10
    -15.148 -0.1093E-03 -0.1064E-03 -0.1803E-06 -0.1856E-06 -0.3035E-06 -0.3060E-06 -0.3035E-06 -0.3060E-06 -0.2237E-09 -0.6397E-10 -0.2237E-09 -0.6370E-10 -0.5449E-09 -0.3466E-09 -0.2946E-09 -0.1790E-09 -0.1635E-08 -0.1040E-08
    -15.038 -0.6883E-03 -0.6696E-03 -0.1590E-05 -0.1639E-05 -0.2677E-05 -0.2701E-05 -0.2677E-05 -0.2701E-05 -0.2128E-08 -0.6411E-09 -0.2128E-08 -0.6395E-09 -0.6284E-08 -0.3995E-08 -0.3043E-08 -0.1844E-08 -0.1885E-07 -0.1199E-07
    -14.927 -0.1466E-02 -0.1425E-02 -0.6660E-05 -0.6878E-05 -0.1121E-04 -0.1133E-04 -0.1121E-04 -0.1133E-04 -0.1056E-07 -0.3669E-08 -0.1056E-07 -0.3667E-08 -0.3913E-07 -0.2486E-07 -0.1680E-07 -0.1028E-07 -0.1174E-06 -0.7458E-07
    -14.817  0.3056E-02  0.2979E-02 -0.7668E-05 -0.8022E-05 -0.1291E-04 -0.1316E-04 -0.1291E-04 -0.1316E-04 -0.2249E-07 -0.1083E-07 -0.2248E-07 -0.1085E-07 -0.1202E-06 -0.7625E-07 -0.4307E-07 -0.2718E-07 -0.3606E-06 -0.2287E-06
    -14.706  0.1906E-01  0.1855E-01  0.3467E-04  0.3533E-04  0.5833E-04  0.5845E-04  0.5833E-04  0.5845E-04  0.1620E-07 -0.6133E-08  0.1619E-07 -0.6205E-08 -0.8530E-07 -0.5368E-07  0.1112E-08 -0.2718E-08 -0.2559E-06 -0.1609E-06
    -14.596  0.3349E-01  0.3256E-01  0.1531E-03  0.1570E-03  0.2579E-03  0.2595E-03  0.2579E-03  0.2595E-03  0.2132E-06  0.6630E-07  0.2129E-06  0.6608E-07  0.6158E-06  0.3903E-06  0.3281E-06  0.2002E-06  0.1847E-05  0.1171E-05
    -14.485  0.3041E-01  0.2951E-01  0.2997E-03  0.3072E-03  0.5096E-03  0.5126E-03  0.5092E-03  0.5123E-03  0.5905E-06  0.2513E-06  0.5847E-06  0.2480E-06  0.2412E-05  0.1512E-05  0.1062E-05  0.6768E-06  0.7235E-05  0.4535E-05
    -14.375  0.1971E-01  0.1904E-01  0.3830E-03  0.3966E-03  0.6814E-03  0.6887E-03  0.6782E-03  0.6856E-03  0.9735E-06  0.4626E-06  0.9248E-06  0.4314E-06  0.3761E-05  0.2363E-05  0.2011E-05  0.1304E-05  0.1128E-04  0.7090E-05
    -14.264  0.1359E-01  0.1267E-01  0.4030E-03  0.4703E-03  0.7707E-03  0.8304E-03  0.7590E-03  0.8165E-03  0.1554E-05  0.6914E-06  0.1359E-05  0.5596E-06 -0.3884E-06  0.5077E-06  0.3288E-05  0.2020E-05 -0.1165E-05  0.1525E-05
    -14.154  0.1447E-01  0.1247E-01  0.8065E-03  0.1007E-02  0.1238E-02  0.1430E-02  0.1232E-02  0.1411E-02  0.4305E-05  0.2067E-05  0.4123E-05  0.1927E-05 -0.1001E-05  0.3273E-05  0.6828E-05  0.3940E-05 -0.3005E-05  0.9826E-05
    -14.043  0.2224E-01  0.2023E-01  0.2225E-02  0.2371E-02  0.2723E-02  0.2859E-02  0.2806E-02  0.2929E-02  0.1030E-04  0.5929E-05  0.1146E-04  0.6683E-05  0.6984E-04  0.4837E-04  0.1368E-04  0.8396E-05  0.2095E-03  0.1451E-03
    -13.933  0.2757E-01  0.2817E-01  0.3714E-02  0.3460E-02  0.4280E-02  0.4015E-02  0.4560E-02  0.4348E-02  0.1403E-04  0.9162E-05  0.1865E-04  0.1231E-04  0.2875E-03  0.1697E-03  0.1833E-04  0.1226E-04  0.8626E-03  0.5091E-03
    -13.822  0.2318E-01  0.2545E-01  0.3781E-02  0.3289E-02  0.4420E-02  0.3916E-02  0.4893E-02  0.4565E-02  0.1166E-04  0.8033E-05  0.2028E-04  0.1394E-04  0.5154E-03  0.3057E-03  0.1691E-04  0.1179E-04  0.1551E-02  0.9202E-03
    -13.712  0.1599E-01  0.1741E-01  0.3066E-02  0.2620E-02  0.3798E-02  0.3338E-02  0.4346E-02  0.4147E-02  0.7890E-05  0.5339E-05  0.1911E-04  0.1284E-04  0.3721E-03  0.2940E-03  0.1413E-04  0.9784E-05  0.1204E-02  0.9353E-03
    -13.601  0.1226E-01  0.1242E-01  0.2361E-02  0.2291E-02  0.3264E-02  0.3177E-02  0.3739E-02  0.4067E-02  0.6321E-05  0.4104E-05  0.1822E-04  0.1195E-04  0.1063E-02  0.5087E-03  0.1360E-04  0.9270E-05  0.3879E-02  0.1947E-02
    -13.491  0.1402E-01  0.1218E-01  0.1998E-02  0.3935E-02  0.3225E-02  0.5137E-02  0.3537E-02  0.6500E-02  0.7933E-05  0.3933E-05  0.1747E-04  0.1143E-04  0.8372E-02  0.3213E-02  0.1638E-04  0.9899E-05  0.2713E-01  0.1086E-01
    -13.380  0.1875E-01  0.1474E-01  0.7047E-02  0.1107E-01  0.8164E-02  0.1216E-01  0.8435E-02  0.1380E-01  0.1208E-04  0.5433E-05  0.1697E-04  0.1136E-04  0.2285E-01  0.1021E-01  0.2145E-04  0.1195E-04  0.6628E-01  0.2925E-01
    -13.270  0.1572E-01  0.1352E-01  0.2203E-01  0.2263E-01  0.2123E-01  0.2184E-01  0.2178E-01  0.2194E-01  0.1340E-04  0.9673E-05  0.1635E-04  0.1167E-04  0.3028E-01  0.1784E-01  0.2154E-04  0.1514E-04  0.6812E-01  0.3968E-01
    -13.159  0.5604E-02  0.7222E-02  0.2962E-01  0.2517E-01  0.2653E-01  0.2213E-01  0.2730E-01  0.2051E-01  0.9103E-05  0.1112E-04  0.1228E-04  0.9389E-05  0.2348E-01  0.1823E-01  0.1315E-04  0.1363E-04  0.2994E-01  0.3001E-01
    -13.049 -0.1464E-03  0.1693E-02  0.1591E-01  0.1245E-01  0.1346E-01  0.1005E-01  0.1390E-01  0.8898E-02  0.3151E-05  0.5623E-05  0.4769E-05  0.3850E-05  0.1005E-01  0.9172E-02  0.3658E-05  0.5807E-05  0.3395E-02  0.1121E-01
    -12.938 -0.6332E-03 -0.2907E-03  0.1463E-02  0.9670E-03  0.9712E-03  0.4846E-03  0.1015E-02  0.3386E-03 -0.2163E-07  0.4293E-06  0.3229E-07  0.8582E-07  0.8203E-03  0.9330E-03 -0.3931E-06  0.1533E-06 -0.1903E-02  0.1429E-03
    -12.828 -0.1786E-03 -0.2937E-03 -0.1440E-02 -0.1183E-02 -0.1276E-02 -0.1022E-02 -0.1315E-02 -0.9345E-03 -0.3868E-06 -0.5373E-06 -0.5612E-06 -0.4337E-06 -0.1010E-02 -0.8414E-03 -0.5410E-06 -0.6299E-06 -0.9934E-03 -0.1284E-02
    -12.717 -0.2396E-04 -0.7221E-04 -0.4903E-03 -0.3945E-03 -0.4091E-03 -0.3147E-03 -0.4226E-03 -0.2837E-03 -0.1156E-06 -0.1762E-06 -0.1654E-06 -0.1304E-06 -0.3692E-03 -0.3088E-03 -0.1372E-06 -0.1860E-06 -0.2227E-03 -0.3875E-03
    -12.607 -0.1805E-05 -0.8102E-05 -0.6239E-04 -0.5017E-04 -0.5018E-04 -0.3819E-04 -0.5188E-04 -0.3429E-04 -0.1442E-07 -0.2201E-07 -0.2010E-07 -0.1591E-07 -0.5125E-04 -0.4188E-04 -0.1561E-07 -0.2216E-07 -0.2604E-04 -0.4787E-04
    -12.496 -0.7863E-07 -0.4555E-06 -0.3782E-05 -0.3054E-05 -0.2944E-05 -0.2231E-05 -0.3045E-05 -0.2001E-05 -0.8788E-09 -0.1313E-08 -0.1193E-08 -0.9444E-09 -0.3385E-05 -0.2695E-05 -0.8916E-09 -0.1280E-08 -0.1598E-05 -0.2874E-05
    -12.386 -0.1952E-08 -0.1327E-07 -0.1167E-06 -0.9481E-07 -0.8795E-07 -0.6660E-07 -0.9098E-07 -0.5967E-07 -0.2748E-10 -0.3989E-10 -0.3647E-10 -0.2878E-10 -0.1134E-06 -0.8804E-07 -0.2653E-10 -0.3792E-10 -0.5160E-07 -0.8841E-07
    -12.275 -0.2707E-10 -0.2034E-09 -0.1885E-08 -0.1542E-08 -0.1375E-08 -0.1041E-08 -0.1422E-08 -0.9324E-09 -0.4508E-12 -0.6338E-12 -0.5863E-12 -0.4608E-12 -0.1980E-08 -0.1502E-08 -0.4181E-12 -0.5895E-12 -0.8808E-09 -0.1426E-08
    -12.165 -0.2066E-12 -0.1657E-11 -0.1617E-10 -0.1332E-10 -0.1139E-10 -0.8638E-11 -0.1178E-10 -0.7732E-11 -0.3925E-14 -0.5341E-14 -0.5015E-14 -0.3922E-14 -0.1828E-10 -0.1358E-10 -0.3519E-14 -0.4870E-14 -0.7997E-11 -0.1222E-10
    -12.054 -0.8612E-15 -0.7217E-14 -0.7418E-13 -0.6160E-13 -0.5041E-13 -0.3830E-13 -0.5213E-13 -0.3428E-13 -0.1827E-16 -0.2405E-16 -0.2297E-16 -0.1787E-16 -0.8992E-13 -0.6551E-13 -0.1590E-16 -0.2152E-16 -0.3882E-13 -0.5600E-13
    -11.944 -0.1923E-17 -0.1736E-16 -0.1854E-15 -0.1548E-15 -0.1219E-15 -0.9257E-16 -0.1261E-15 -0.8288E-16 -0.4591E-19 -0.5930E-19 -0.5687E-19 -0.4414E-19 -0.2378E-15 -0.1708E-15 -0.3887E-19 -0.5220E-19 -0.1014E-15 -0.1401E-15
    -11.833  0.0000E+00  0.0000E+00  0.0000E+00  0.0000E+00  0.0000E+00  0.0000E+00  0.0000E+00  0.0000E+00  0.0000E+00  0.0000E+00  0.0000E+00  0.0000E+00  0.0000E+00  0.0000E+00  0.0000E+00  0.0000E+00  0.0000E+00  0.0000E+00
    -11.723  0.0000E+00  0.0000E+00  0.0000E+00  0.0000E+00  0.0000E+00  0.0000E+00  0.0000E+00  0.0000E+00  0.0000E+00  0.0000E+00  0.0000E+00  0.0000E+00  0.0000E+00  0.0000E+00  0.0000E+00  0.0000E+00  0.0000E+00  0.0000E+00
    -11.612  0.0000E+00  0.0000E+00  0.0000E+00  0.0000E+00  0.0000E+00  0.0000E+00  0.0000E+00  0.0000E+00  0.0000E+00  0.0000E+00  0.0000E+00  0.0000E+00  0.0000E+00  0.0000E+00  0.0000E+00  0.0000E+00  0.0000E+00  0.0000E+00
    -11.502  0.0000E+00  0.0000E+00  0.0000E+00  0.0000E+00  0.0000E+00  0.0000E+00  0.0000E+00  0.0000E+00  0.0000E+00  0.0000E+00  0.0000E+00  0.0000E+00  0.0000E+00  0.0000E+00  0.0000E+00  0.0000E+00  0.0000E+00  0.0000E+00
    -11.391  0.0000E+00  0.0000E+00  0.0000E+00  0.0000E+00  0.0000E+00  0.0000E+00  0.0000E+00  0.0000E+00  0.0000E+00  0.0000E+00  0.0000E+00  0.0000E+00  0.0000E+00  0.0000E+00  0.0000E+00  0.0000E+00  0.0000E+00  0.0000E+00
    -11.281  0.0000E+00  0.0000E+00  0.0000E+00  0.0000E+00  0.0000E+00  0.0000E+00  0.0000E+00  0.0000E+00  0.0000E+00  0.0000E+00  0.0000E+00  0.0000E+00  0.0000E+00  0.0000E+00  0.0000E+00  0.0000E+00  0.0000E+00  0.0000E+00
    -11.170  0.0000E+00  0.0000E+00  0.0000E+00  0.0000E+00  0.0000E+00  0.0000E+00  0.0000E+00  0.0000E+00  0.0000E+00  0.0000E+00  0.0000E+00  0.0000E+00  0.0000E+00  0.0000E+00  0.0000E+00  0.0000E+00  0.0000E+00  0.0000E+00