    4    4    1    2
  0.9063964E+01  0.5107186E-09  0.5107186E-09  0.5107186E-09  0.5000000E-15
  1.000000000000000E-004
  CAR 
 NiO_af2                                 
     32    200     20
 
  0.3437500E+00  0.0000000E+00 -0.3437500E+00  0.5000000E-02
    1      -13.209874    -13.209874   1.000000   1.000000
    2      -13.208588    -13.208588   1.000000   1.000000
    3       -2.699991     -2.699991   1.000000   1.000000
    4       -2.391114     -2.391114   1.000000   1.000000
    5       -2.210321     -2.210321   1.000000   1.000000
    6       -1.874177     -1.874177   1.000000   1.000000
    7       -1.843366     -1.843366   1.000000   1.000000
    8       -0.592200     -0.592200   1.000000   1.000000
    9       -0.380195     -0.380195   1.000000   1.000000
   10        0.300780      0.300780   1.000000   1.000000
   11        0.587258      0.587258   1.000000   1.000000
   12        1.765462      1.765462   1.000000   1.000000
   13        2.296006      2.296006   1.000000   1.000000
   14        2.967619      2.967619   1.000001   1.000001
   15        3.193457      3.193457   1.000920   1.000920
   16        3.351039      3.351039   1.015896   1.015896
   17        5.055480      5.055480  -0.000000  -0.000000
   18        5.146803      5.146803  -0.000000  -0.000000
   19       13.842088     13.842220   0.000000   0.000000
   20       14.059095     14.084392   0.000000   0.000000
 
  0.3349359E+00  0.0000000E+00 -0.3349359E+00  0.5000000E-02
    1      -13.207117    -13.207117   1.000000   1.000000
    2      -13.207070    -13.207070   1.000000   1.000000
    3       -2.706014     -2.706014   1.000000   1.000000
    4       -2.382184     -2.382184   1.000000   1.000000
    5       -2.194486     -2.194486   1.000000   1.000000
    6       -1.899203     -1.899203   1.000000   1.000000
    7       -1.814476     -1.814476   1.000000   1.000000
    8       -0.603115     -0.603115   1.000000   1.000000
    9       -0.380939     -0.380939   1.000000   1.000000
   10        0.283603      0.283603   1.000000   1.000000
   11        0.639169      0.639169   1.000000   1.000000
   12        1.749566      1.749566   1.000000   1.000000
   13        2.250630      2.250630   1.000000   1.000000
   14        2.955677      2.955677   1.000001   1.000001
   15        3.202115      3.202115   1.001119   1.001119
   16        3.347343      3.347343   1.015156   1.015156
   17        4.990508      4.990508  -0.000000  -0.000000
   18        5.209078      5.209078  -0.000000  -0.000000
   19       14.016087     14.008353   0.000000   0.000000
   20       14.328248     14.302351   0.000000   0.000000
 
  0.3261218E+00  0.0000000E+00 -0.3261218E+00  0.5000000E-02
    1      -13.209679    -13.209679   1.000000   1.000000
    2      -13.206426    -13.206426   1.000000   1.000000
    3       -2.730617     -2.730617   1.000000   1.000000
    4       -2.371736     -2.371736   1.000000   1.000000
    5       -2.161842     -2.161842   1.000000   1.000000
    6       -1.924317     -1.924317   1.000000   1.000000
    7       -1.786802     -1.786802   1.000000   1.000000
    8       -0.613001     -0.613001   1.000000   1.000000
    9       -0.378103     -0.378103   1.000000   1.000000
   10        0.267212      0.267212   1.000000   1.000000
   11        0.696507      0.696507   1.000000   1.000000
   12        1.728515      1.728515   1.000000   1.000000
   13        2.200537      2.200537   1.000000   1.000000
   14        2.944328      2.944328   1.000001   1.000001
   15        3.207854      3.207854   1.001272   1.001272
   16        3.343551      3.343551   1.014417   1.014417
   17        4.926969      4.926969  -0.000000  -0.000000
   18        5.275575      5.275575  -0.000000  -0.000000
   19       14.118228     14.126900   0.000000   0.000000
   20       14.399389     14.454671   0.000000   0.000000
 
  0.3173077E+00  0.0000000E+00 -0.3173077E+00  0.5000000E-02
    1      -13.217496    -13.217496   1.000000   1.000000
    2      -13.205110    -13.205110   1.000000   1.000000
    3       -2.765133     -2.765133   1.000000   1.000000
    4       -2.359053     -2.359053   1.000000   1.000000
    5       -2.118854     -2.118854   1.000000   1.000000
    6       -1.949729     -1.949729   1.000000   1.000000
    7       -1.761572     -1.761572   1.000000   1.000000
    8       -0.620089     -0.620089   1.000000   1.000000
    9       -0.370654     -0.370654   1.000000   1.000000
   10        0.252594      0.252594   1.000000   1.000000
   11        0.758784      0.758784   1.000000   1.000000
   12        1.703167      1.703167   1.000000   1.000000
   13        2.149293      2.149293   1.000000   1.000000
   14        2.934484      2.934484   1.000000   1.000000
   15        3.212164      3.212164   1.001398   1.001398
   16        3.341455      3.341455   1.014018   1.014018
   17        4.866482      4.866482  -0.000000  -0.000000
   18        5.343421      5.343421  -0.000000  -0.000000
   19       14.089939     14.086638   0.000000   0.000000
   20       14.225119     14.226449   0.000000   0.000000
 
  0.3084936E+00  0.0000000E+00 -0.3084936E+00  0.5000000E-02
    1      -13.229138    -13.229138   1.000000   1.000000
    2      -13.203909    -13.203909   1.000000   1.000000
    3       -2.801220     -2.801220   1.000000   1.000000
    4       -2.344295     -2.344295   1.000000   1.000000
    5       -2.071722     -2.071722   1.000000   1.000000
    6       -1.975337     -1.975337   1.000000   1.000000
    7       -1.739141     -1.739141   1.000000   1.000000
    8       -0.623933     -0.623933   1.000000   1.000000
    9       -0.358007     -0.358007   1.000000   1.000000
   10        0.238882      0.238882   1.000000   1.000000
   11        0.824360      0.824360   1.000000   1.000000
   12        1.675067      1.675067   1.000000   1.000000
   13        2.097223      2.097223   1.000000   1.000000
   14        2.926243      2.926243   1.000000   1.000000
   15        3.214779      3.214779   1.001480   1.001480
   16        3.341205      3.341205   1.013970   1.013970
   17        4.810185      4.810185  -0.000000  -0.000000
   18        5.408673      5.408673  -0.000000  -0.000000
   19       13.928530     13.929982   0.000000   0.000000
   20       14.174423     14.163073   0.000000   0.000000
 
  0.2996795E+00  0.0000000E+00 -0.2996795E+00  0.5000000E-02
    1      -13.244310    -13.244310   1.000000   1.000000
    2      -13.202421    -13.202421   1.000000   1.000000
    3       -2.834910     -2.834910   1.000000   1.000000
    4       -2.327190     -2.327190   1.000000   1.000000
    5       -2.024646     -2.024646   1.000000   1.000000
    6       -2.000773     -2.000773   1.000000   1.000000
    7       -1.720624     -1.720624   1.000000   1.000000
    8       -0.623443     -0.623443   1.000000   1.000000
    9       -0.340460     -0.340460   1.000000   1.000000
   10        0.225295      0.225295   1.000000   1.000000
   11        0.892750      0.892750   1.000000   1.000000
   12        1.645503      1.645503   1.000000   1.000000
   13        2.048150      2.048150   1.000000   1.000000
   14        2.919536      2.919536   1.000000   1.000000
   15        3.216207      3.216207   1.001527   1.001527
   16        3.343203      3.343203   1.014350   1.014350
   17        4.759075      4.759075  -0.000000  -0.000000
   18        5.472508      5.472508  -0.000000  -0.000000
   19       13.731200     13.731128   0.000000   0.000000
   20       14.118377     14.117732   0.000000   0.000000
 
  0.2908654E+00  0.0000000E+00 -0.2908654E+00  0.5000000E-02
    1      -13.264226    -13.264226   1.000000   1.000000
    2      -13.201757    -13.201757   1.000000   1.000000
    3       -2.863536     -2.863536   1.000000   1.000000
    4       -2.308168     -2.308168   1.000000   1.000000
    5       -2.026027     -2.026027   1.000000   1.000000
    6       -1.981160     -1.981160   1.000000   1.000000
    7       -1.706520     -1.706520   1.000000   1.000000
    8       -0.618980     -0.618980   1.000000   1.000000
    9       -0.319626     -0.319626   1.000000   1.000000
   10        0.210568      0.210568   1.000000   1.000000
   11        0.962299      0.962299   1.000000   1.000000
   12        1.614833      1.614833   1.000000   1.000000
   13        2.002832      2.002832   1.000000   1.000000
   14        2.913596      2.913596   1.000000   1.000000
   15        3.216280      3.216280   1.001529   1.001529
   16        3.346921      3.346921   1.015073   1.015073
   17        4.712900      4.712900  -0.000000  -0.000000
   18        5.531482      5.531482  -0.000000  -0.000000
   19       13.526923     13.526136   0.000000   0.000000
   20       14.064935     14.064560   0.000000   0.000000
 
  0.2820513E+00  0.0000000E+00 -0.2820513E+00  0.5000000E-02
    1      -13.288415    -13.288415   1.000000   1.000000
    2      -13.201346    -13.201346   1.000000   1.000000
    3       -2.884925     -2.884925   1.000000   1.000000
    4       -2.287322     -2.287322   1.000000   1.000000
    5       -2.050694     -2.050694   1.000000   1.000000
    6       -1.943113     -1.943113   1.000000   1.000000
    7       -1.696280     -1.696280   1.000000   1.000000
    8       -0.610237     -0.610237   1.000000   1.000000
    9       -0.296487     -0.296487   1.000000   1.000000
   10        0.195327      0.195327   1.000000   1.000000
   11        1.031769      1.031769   1.000000   1.000000
   12        1.586047      1.586047   1.000000   1.000000
   13        1.963766      1.963766   1.000000   1.000000
   14        2.907859      2.907859   1.000000   1.000000
   15        3.216470      3.216470   1.001535   1.001535
   16        3.352369      3.352369   1.016167   1.016167
   17        4.673053      4.673053  -0.000000  -0.000000
   18        5.584258      5.584258  -0.000000  -0.000000
   19       13.318983     13.318962   0.000000   0.000000
   20       14.023017     14.022973   0.000000   0.000000
 
  0.2732372E+00  0.0000000E+00 -0.2732372E+00  0.5000000E-02
    1      -13.317194    -13.317194   1.000000   1.000000
    2      -13.200466    -13.200466   1.000000   1.000000
    3       -2.898071     -2.898071   1.000000   1.000000
    4       -2.265194     -2.265194   1.000000   1.000000
    5       -2.073998     -2.073998   1.000000   1.000000
    6       -1.912490     -1.912490   1.000000   1.000000
    7       -1.688900     -1.688900   1.000000   1.000000
    8       -0.596613     -0.596613   1.000000   1.000000
    9       -0.273235     -0.273235   1.000000   1.000000
   10        0.179408      0.179408   1.000000   1.000000
   11        1.100648      1.100648   1.000000   1.000000
   12        1.561031      1.561031   1.000000   1.000000
   13        1.933232      1.933232   1.000000   1.000000
   14        2.901497      2.901497   1.000000   1.000000
   15        3.217178      3.217178   1.001559   1.001559
   16        3.359639      3.359639   1.017687   1.017687
   17        4.640054      4.640054  -0.000000  -0.000000
   18        5.629594      5.629594  -0.000000  -0.000000
   19       13.108289     13.108290   0.000000   0.000000
   20       13.991589     13.991582   0.000000   0.000000
 
  0.2644231E+00  0.0000000E+00 -0.2644231E+00  0.5000000E-02
    1      -13.350528    -13.350528   1.000000   1.000000
    2      -13.200110    -13.200110   1.000000   1.000000
    3       -2.902568     -2.902568   1.000000   1.000000
    4       -2.243264     -2.243264   1.000000   1.000000
    5       -2.094600     -2.094600   1.000000   1.000000
    6       -1.891602     -1.891602   1.000000   1.000000
    7       -1.682698     -1.682698   1.000000   1.000000
    8       -0.579142     -0.579142   1.000000   1.000000
    9       -0.252995     -0.252995   1.000000   1.000000
   10        0.163642      0.163642   1.000000   1.000000
   11        1.165849      1.165850   1.000000   1.000000
   12        1.541119      1.541119   1.000000   1.000000
   13        1.913775      1.913774   1.000000   1.000000
   14        2.893765      2.893765   1.000000   1.000000
   15        3.218797      3.218797   1.001614   1.001614
   16        3.367765      3.367765   1.019458   1.019458
   17        4.614043      4.614043  -0.000000  -0.000000
   18        5.666539      5.666539  -0.000000  -0.000000
   19       12.895035     12.895036   0.000000   0.000000
   20       13.969910     13.969920   0.000000   0.000000
 
  0.2556090E+00  0.0000000E+00 -0.2556090E+00  0.5000000E-02
    1      -13.387009    -13.387009   1.000000   1.000000
    2      -13.199921    -13.199921   1.000000   1.000000
    3       -2.897588     -2.897588   1.000000   1.000000
    4       -2.224339     -2.224339   1.000000   1.000000
    5       -2.109011     -2.109011   1.000000   1.000000
    6       -1.882206     -1.882206   1.000000   1.000000
    7       -1.675011     -1.675011   1.000000   1.000000
    8       -0.556950     -0.556950   1.000000   1.000000
    9       -0.238489     -0.238489   1.000000   1.000000
   10        0.149898      0.149898   1.000000   1.000000
   11        1.226289      1.226289   1.000000   1.000000
   12        1.528387      1.528387   1.000000   1.000000
   13        1.908597      1.908597   1.000000   1.000000
   14        2.884196      2.884196   1.000000   1.000000
   15        3.222063      3.222063   1.001731   1.001731
   16        3.376746      3.376746   1.021483   1.021483
   17        4.595653      4.595653  -0.000000  -0.000000
   18        5.695901      5.695901  -0.000000  -0.000000
   19       12.683517     12.683517   0.000000   0.000000
   20       13.958655     13.958655   0.000000   0.000000
 
  0.2467949E+00  0.0000000E+00 -0.2467949E+00  0.5000000E-02
    1      -13.429087    -13.429087   1.000000   1.000000
    2      -13.199912    -13.199912   1.000000   1.000000
    3       -2.884903     -2.884903   1.000000   1.000000
    4       -2.215769     -2.215769   1.000000   1.000000
    5       -2.110803     -2.110803   1.000000   1.000000
    6       -1.885294     -1.885294   1.000000   1.000000
    7       -1.666121     -1.666121   1.000000   1.000000
    8       -0.531341     -0.531341   1.000000   1.000000
    9       -0.233808     -0.233808   1.000000   1.000000
   10        0.140352      0.140352   1.000000   1.000000
   11        1.278681      1.278681   1.000000   1.000000
   12        1.522180      1.522180   1.000000   1.000000
   13        1.919222      1.919222   1.000000   1.000000
   14        2.872453      2.872453   1.000000   1.000000
   15        3.226610      3.226610   1.001905   1.001905
   16        3.385828      3.385828   1.023575   1.023575
   17        4.584693      4.584693  -0.000000  -0.000000
   18        5.713979      5.713979  -0.000000  -0.000000
   19       12.466390     12.466390   0.000000   0.000000
   20       13.958111     13.958114   0.000000   0.000000
 
  0.2379808E+00  0.0000000E+00 -0.2379808E+00  0.5000000E-02
    1      -13.475754    -13.475754   1.000000   1.000000
    2      -13.200083    -13.200083   1.000000   1.000000
    3       -2.864747     -2.864747   1.000000   1.000000
    4       -2.221290     -2.221290   1.000000   1.000000
    5       -2.096537     -2.096537   1.000000   1.000000
    6       -1.900027     -1.900027   1.000000   1.000000
    7       -1.655626     -1.655626   1.000000   1.000000
    8       -0.501874     -0.501874   1.000000   1.000000
    9       -0.240711     -0.240711   1.000000   1.000000
   10        0.137078      0.137078   1.000000   1.000000
   11        1.322268      1.322268   1.000000   1.000000
   12        1.523186      1.523186   1.000000   1.000000
   13        1.946958      1.946958   1.000000   1.000000
   14        2.858745      2.858745   1.000000   1.000000
   15        3.232248      3.232248   1.002143   1.002143
   16        3.394522      3.394522   1.025584   1.025584
   17        4.581633      4.581633  -0.000000  -0.000000
   18        5.721156      5.721156  -0.000000  -0.000000
   19       12.244046     12.244046   0.000000   0.000000
   20       13.968413     13.968411   0.000000   0.000000
 
  0.2291667E+00  0.0000000E+00 -0.2291667E+00  0.5000000E-02
    1      -13.525534    -13.525534   1.000000   1.000000
    2      -13.200422    -13.200422   1.000000   1.000000
    3       -2.837470     -2.837470   1.000000   1.000000
    4       -2.235955     -2.235955   1.000000   1.000000
    5       -2.069685     -2.069685   1.000000   1.000000
    6       -1.924561     -1.924561   1.000000   1.000000
    7       -1.644667     -1.644667   1.000000   1.000000
    8       -0.468674     -0.468674   1.000000   1.000000
    9       -0.258420     -0.258420   1.000000   1.000000
   10        0.140881      0.140881   1.000000   1.000000
   11        1.357619      1.357619   1.000000   1.000000
   12        1.530779      1.530779   1.000000   1.000000
   13        1.993066      1.993066   1.000000   1.000000
   14        2.843664      2.843664   1.000000   1.000000
   15        3.238788      3.238788   1.002449   1.002449
   16        3.403218      3.403218   1.027560   1.027560
   17        4.586671      4.586671  -0.000000  -0.000000
   18        5.718969      5.718969  -0.000000  -0.000000
   19       12.024167     12.024167   0.000000   0.000000
   20       13.989502     13.989550   0.000000   0.000000
 
  0.2203526E+00  0.0000000E+00 -0.2203526E+00  0.5000000E-02
    1      -13.578637    -13.578637   1.000000   1.000000
    2      -13.201268    -13.201268   1.000000   1.000000
    3       -2.804881     -2.804881   1.000000   1.000000
    4       -2.254312     -2.254312   1.000000   1.000000
    5       -2.036715     -2.036715   1.000000   1.000000
    6       -1.957006     -1.957006   1.000000   1.000000
    7       -1.634426     -1.634426   1.000000   1.000000
    8       -0.432325     -0.432325   1.000000   1.000000
    9       -0.284928     -0.284928   1.000000   1.000000
   10        0.151069      0.151069   1.000000   1.000000
   11        1.386200      1.386200   1.000000   1.000000
   12        1.543622      1.543622   1.000000   1.000000
   13        2.054877      2.054877   1.000000   1.000000
   14        2.827884      2.827884   1.000000   1.000000
   15        3.245235      3.245235   1.002787   1.002787
   16        3.411228      3.411228   1.029308   1.029308
   17        4.599829      4.599829  -0.000000  -0.000000
   18        5.706705      5.706705  -0.000000  -0.000000
   19       11.803140     11.803141   0.000000   0.000000
   20       14.021088     14.021220   0.000000   0.000000
 
  0.2115385E+00  0.0000000E+00 -0.2115385E+00  0.5000000E-02
    1      -13.633385    -13.633385   1.000000   1.000000
    2      -13.201650    -13.201650   1.000000   1.000000
    3       -2.768146     -2.768146   1.000000   1.000000
    4       -2.273143     -2.273143   1.000000   1.000000
    5       -1.999344     -1.999344   1.000000   1.000000
    6       -1.995391     -1.995391   1.000000   1.000000
    7       -1.625108     -1.625108   1.000000   1.000000
    8       -0.391543     -0.391543   1.000000   1.000000
    9       -0.316175     -0.316175   1.000000   1.000000
   10        0.166825      0.166825   1.000000   1.000000
   11        1.412774      1.412774   1.000000   1.000000
   12        1.560884      1.560884   1.000000   1.000000
   13        2.130992      2.130992   1.000000   1.000000
   14        2.812254      2.812254   1.000000   1.000000
   15        3.251204      3.251204   1.003135   1.003135
   16        3.420220      3.420220   1.031133   1.031133
   17        4.621504      4.621504  -0.000000  -0.000000
   18        5.686639      5.686639  -0.000000  -0.000000
   19       11.582076     11.582076   0.000000   0.000000
   20       14.064375     14.064373   0.000000   0.000000
 
  0.2027244E+00  0.0000000E+00 -0.2027244E+00  0.5000000E-02
    1      -13.691872    -13.691872   1.000000   1.000000
    2      -13.202552    -13.202552   1.000000   1.000000
    3       -2.731168     -2.731168   1.000000   1.000000
    4       -2.292384     -2.292384   1.000000   1.000000
    5       -2.038281     -2.038281   1.000000   1.000000
    6       -1.960895     -1.960895   1.000000   1.000000
    7       -1.617550     -1.617550   1.000000   1.000000
    8       -0.349875     -0.349875   1.000000   1.000000
    9       -0.347608     -0.347608   1.000000   1.000000
   10        0.186914      0.186914   1.000000   1.000000
   11        1.437050      1.437050   1.000000   1.000000
   12        1.579601      1.579601   1.000000   1.000000
   13        2.214729      2.214729   1.000000   1.000000
   14        2.797405      2.797405   1.000000   1.000000
   15        3.255467      3.255467   1.003405   1.003405
   16        3.426855      3.426855   1.032346   1.032346
   17        4.650900      4.650900  -0.000000  -0.000000
   18        5.655081      5.655081  -0.000000  -0.000000
   19       11.358782     11.358782   0.000000   0.000000
   20       14.116385     14.116322   0.000000   0.000000
 
  0.1939103E+00  0.0000000E+00 -0.1939103E+00  0.5000000E-02
    1      -13.752323    -13.752323   1.000000   1.000000
    2      -13.203771    -13.203771   1.000000   1.000000
    3       -2.696263     -2.696263   1.000000   1.000000
    4       -2.311178     -2.311178   1.000000   1.000000
    5       -2.084028     -2.084028   1.000000   1.000000
    6       -1.921143     -1.921143   1.000000   1.000000
    7       -1.610828     -1.610828   1.000000   1.000000
    8       -0.382801     -0.382801   1.000000   1.000000
    9       -0.300063     -0.300063   1.000000   1.000000
   10        0.211468      0.211468   1.000000   1.000000
   11        1.462553      1.462553   1.000000   1.000000
   12        1.598889      1.598889   1.000000   1.000000
   13        2.305176      2.305176   1.000000   1.000000
   14        2.784195      2.784195   1.000000   1.000000
   15        3.257764      3.257764   1.003558   1.003558
   16        3.432892      3.432892   1.033322   1.033322
   17        4.687917      4.687917  -0.000000  -0.000000
   18        5.614913      5.614913  -0.000000  -0.000000
   19       11.134385     11.134385   0.000000   0.000000
   20       14.177349     14.176980   0.000000   0.000000
 
  0.1850962E+00  0.0000000E+00 -0.1850962E+00  0.5000000E-02
    1      -13.814536    -13.814536   1.000000   1.000000
    2      -13.204966    -13.204966   1.000000   1.000000
    3       -2.667458     -2.667458   1.000000   1.000000
    4       -2.329091     -2.329091   1.000000   1.000000
    5       -2.129980     -2.129980   1.000000   1.000000
    6       -1.880663     -1.880663   1.000000   1.000000
    7       -1.604295     -1.604295   1.000000   1.000000
    8       -0.412794     -0.412794   1.000000   1.000000
    9       -0.248738     -0.248738   1.000000   1.000000
   10        0.240280      0.240280   1.000000   1.000000
   11        1.490559      1.490559   1.000000   1.000000
   12        1.617045      1.617045   1.000000   1.000000
   13        2.399261      2.399261   1.000000   1.000000
   14        2.773100      2.773100   1.000000   1.000000
   15        3.257247      3.257247   1.003523   1.003523
   16        3.438220      3.438220   1.034060   1.034060
   17        4.732003      4.732003  -0.000000  -0.000000
   18        5.566744      5.566744  -0.000000  -0.000000
   19       10.906442     10.906442   0.000000   0.000000
   20       14.247092     14.247216   0.000000   0.000000
 
  0.1762821E+00  0.0000000E+00 -0.1762821E+00  0.5000000E-02
    1      -13.877445    -13.877445   1.000000   1.000000
    2      -13.206274    -13.206274   1.000000   1.000000
    3       -2.648986     -2.648986   1.000000   1.000000
    4       -2.345959     -2.345959   1.000000   1.000000
    5       -2.173465     -2.173465   1.000000   1.000000
    6       -1.839783     -1.839783   1.000000   1.000000
    7       -1.596742     -1.596742   1.000000   1.000000
    8       -0.438486     -0.438486   1.000000   1.000000
    9       -0.193506     -0.193506   1.000000   1.000000
   10        0.274888      0.274888   1.000000   1.000000
   11        1.522075      1.522075   1.000000   1.000000
   12        1.633188      1.633188   1.000000   1.000000
   13        2.494959      2.494959   1.000000   1.000000
   14        2.764654      2.764654   1.000000   1.000000
   15        3.254402      3.254402   1.003336   1.003336
   16        3.443284      3.443284   1.034637   1.034637
   17        4.782340      4.782340  -0.000000  -0.000000
   18        5.512262      5.512262  -0.000000  -0.000000
   19       10.679747     10.679747   0.000000   0.000000
   20       14.333476     14.366625   0.000000   0.000000
 
  0.1674679E+00  0.0000000E+00 -0.1674679E+00  0.5000000E-02
    1      -13.940817    -13.940817   1.000000   1.000000
    2      -13.206951    -13.206951   1.000000   1.000000
    3       -2.645525     -2.645525   1.000000   1.000000
    4       -2.361609     -2.361609   1.000000   1.000000
    5       -2.211173     -2.211173   1.000000   1.000000
    6       -1.798920     -1.798920   1.000000   1.000000
    7       -1.586907     -1.586907   1.000000   1.000000
    8       -0.459437     -0.459437   1.000000   1.000000
    9       -0.133510     -0.133510   1.000000   1.000000
   10        0.316673      0.316673   1.000000   1.000000
   11        1.557564      1.557564   1.000000   1.000000
   12        1.646785      1.646785   1.000000   1.000000
   13        2.590207      2.590207   1.000000   1.000000
   14        2.759185      2.759185   1.000000   1.000000
   15        3.249326      3.249326   1.003022   1.003022
   16        3.448752      3.448753   1.035103   1.035103
   17        4.838034      4.838034  -0.000000  -0.000000
   18        5.452843      5.452843  -0.000000  -0.000000
   19       10.452042     10.452042   0.000000   0.000000
   20       14.365091     14.359435   0.000000   0.000000
 
  0.1586538E+00  0.0000000E+00 -0.1586538E+00  0.5000000E-02
    1      -14.004151    -14.004151   1.000000   1.000000
    2      -13.209692    -13.209692   1.000000   1.000000
    3       -2.661364     -2.661364   1.000000   1.000000
    4       -2.376406     -2.376406   1.000000   1.000000
    5       -2.241920     -2.241920   1.000000   1.000000
    6       -1.758641     -1.758641   1.000000   1.000000
    7       -1.574463     -1.574463   1.000000   1.000000
    8       -0.476681     -0.476681   1.000000   1.000000
    9       -0.070287     -0.070287   1.000000   1.000000
   10        0.365685      0.365685   1.000000   1.000000
   11        1.597013      1.597013   1.000000   1.000000
   12        1.656682      1.656682   1.000000   1.000000
   13        2.681138      2.681138   1.000000   1.000000
   14        2.756407      2.756407   1.000000   1.000000
   15        3.241317      3.241317   1.002578   1.002578
   16        3.454809      3.454809   1.035402   1.035402
   17        4.897049      4.897049  -0.000000  -0.000000
   18        5.390151      5.390151  -0.000000  -0.000000
   19       10.223448     10.223448   0.000000   0.000000
   20       14.114950     14.115262   0.000000   0.000000
 
  0.1498397E+00  0.0000000E+00 -0.1498397E+00  0.5000000E-02
    1      -14.066370    -14.066370   1.000000   1.000000
    2      -13.211295    -13.211295   1.000000   1.000000
    3       -2.694308     -2.694308   1.000000   1.000000
    4       -2.389721     -2.389721   1.000000   1.000000
    5       -2.264226     -2.264226   1.000000   1.000000
    6       -1.718811     -1.718811   1.000000   1.000000
    7       -1.558372     -1.558372   1.000000   1.000000
    8       -0.489097     -0.489097   1.000000   1.000000
    9       -0.002321     -0.002321   1.000000   1.000000
   10        0.424963      0.424963   1.000000   1.000000
   11        1.640774      1.640774   1.000000   1.000000
   12        1.664734      1.664734   1.000000   1.000000
   13        2.756596      2.756596   1.000000   1.000000
   14        2.765933      2.765933   1.000000   1.000000
   15        3.231451      3.231451   1.002108   1.002108
   16        3.462730      3.462730   1.035393   1.035393
   17        4.959834      4.959834  -0.000000  -0.000000
   18        5.327067      5.327067  -0.000000  -0.000000
   19        9.995063      9.995063   0.000000   0.000000
   20       13.874067     13.874790   0.000000   0.000000
 
  0.1410256E+00  0.0000000E+00 -0.1410256E+00  0.5000000E-02
    1      -14.127928    -14.127928   1.000000   1.000000
    2      -13.212525    -13.212525   1.000000   1.000000
    3       -2.742194     -2.742194   1.000000   1.000000
    4       -2.402207     -2.402207   1.000000   1.000000
    5       -2.281665     -2.281665   1.000000   1.000000
    6       -1.680348     -1.680348   1.000000   1.000000
    7       -1.539070     -1.539070   1.000000   1.000000
    8       -0.498291     -0.498291   1.000000   1.000000
    9        0.069932      0.069932   1.000000   1.000000
   10        0.493604      0.493604   1.000000   1.000000
   11        1.671161      1.671161   1.000000   1.000000
   12        1.688259      1.688259   1.000000   1.000000
   13        2.759451      2.759451   1.000000   1.000000
   14        2.840188      2.840188   1.000000   1.000000
   15        3.219368      3.219368   1.001634   1.001634
   16        3.472978      3.472978   1.034591   1.034591
   17        5.024544      5.024544  -0.000000  -0.000000
   18        5.265494      5.265494  -0.000000  -0.000000
   19        9.766106      9.766106   0.000000   0.000000
   20       13.633401     13.640844   0.000000   0.000000
 
  0.1322115E+00  0.0000000E+00 -0.1322115E+00  0.5000000E-02
    1      -14.188324    -14.188324   1.000000   1.000000
    2      -13.215225    -13.215225   1.000000   1.000000
    3       -2.801019     -2.801019   1.000000   1.000000
    4       -2.414286     -2.414286   1.000000   1.000000
    5       -2.297326     -2.297326   1.000000   1.000000
    6       -1.643436     -1.643436   1.000000   1.000000