 running on    1 total cores
 distrk:  each k-point on    1 cores,    1 groups
 distr:  one band on    1 cores,    1 groups
 using from now: INCAR     
 vasp.5.4.4.18Apr17-6-g9f103f2a35 (build May 20 2018 16:52:39) complex          
  
 POSCAR found type information on POSCAR  Ni O 
 POSCAR found :  2 types and       4 ions
 scaLAPACK will be used
 LDA part: xc-table for Ceperly-Alder, standard interpolation
 WARNING: stress and forces are not correct
 POSCAR, INCAR and KPOINTS ok, starting setup
 FFT: planning ...
 WAVECAR not read
 reading imaginary part of occupancies ...
 charge-density read from file: NiO_af2                                 
 reading imaginary part of occupancies ...
 magnetization density read from file 1
 entering main loop
       N       E                     dE             d eps       ncg     rms          rms(c)
DAV:   1     0.211505212748E+03    0.21151E+03   -0.14603E+04 16332   0.190E+03
DAV:   2     0.473647905154E+01   -0.20677E+03   -0.19676E+03 16956   0.369E+02
DAV:   3    -0.143942243146E+02   -0.19131E+02   -0.18285E+02 17716   0.129E+02
DAV:   4    -0.147698350901E+02   -0.37561E+00   -0.37192E+00 17208   0.183E+01
DAV:   5    -0.147748299366E+02   -0.49948E-02   -0.49933E-02 17860   0.195E+00
DAV:   6    -0.147749489288E+02   -0.11899E-03   -0.11899E-03 17060   0.259E-01
DAV:   7    -0.147749522439E+02   -0.33151E-05   -0.33155E-05 10588   0.409E-02
   1 F= -.14774952E+02 E0= -.14778629E+02  d E =0.110292E-01  mag=     0.0000
