fcc Fe                                  
   3.35000000000000     
     0.000000    0.503103    0.503103
     0.503103    0.000000    0.503103
     0.503103    0.503103    0.000000
   Fe
     1
Direct
  0.000000  0.000000  0.000000
 
   20   20   20
  78.535      74.281      62.868      47.620      32.265      19.596      10.964      6.3396      4.6153      4.1115    
  3.9451      4.1115      4.6153      6.3396      10.964      19.596      32.265      47.620      62.868      74.281    
  74.281      66.464      53.218      38.121      24.426      14.159      7.9292      5.1220      4.2719      3.9536    
  3.9537      4.2721      5.1222      7.9303      14.162      24.428      38.117      53.210      66.454      74.277    
  62.868      53.218      40.297      27.279      16.600      9.4450      5.7428      4.4228      3.9773      3.8232    
  3.9774      4.4227      5.7431      9.4470      16.603      27.280      40.291      53.209      62.859      66.454    
  47.620      38.121      27.279      17.514      10.371      6.2663      4.5751      4.0093      3.7346      3.7347    
  4.0092      4.5745      6.2659      10.372      17.516      27.280      38.120      47.618      53.209      53.210    
  32.265      24.426      16.600      10.371      6.4716      4.6796      4.0375      3.6868      3.5689      3.6871    
  4.0374      4.6788      6.4700      10.370      16.600      24.428      32.268      38.120      40.291      38.117    
  19.596      14.159      9.4450      6.2663      4.6796      4.0488      3.6683      3.4781      3.4783      3.6690    
  4.0497      4.6798      6.2648      9.4421      14.157      19.596      24.428      27.280      27.280      24.428    
  10.964      7.9292      5.7428      4.5751      4.0375      3.6683      3.4500      3.3800      3.4500      3.6692    
  4.0396      4.5773      5.7431      7.9265      10.959      14.157      16.600      17.516      16.603      14.162    
  6.3396      5.1220      4.4228      4.0093      3.6868      3.4781      3.3800      3.3795      3.4772      3.6869    
  4.0115      4.4266      5.1252      6.3395      7.9265      9.4421      10.370      10.372      9.4470      7.9303    
  4.6153      4.2719      3.9773      3.7346      3.5689      3.4783      3.4500      3.4772      3.5667      3.7325    
  3.9773      4.2751      4.6198      5.1252      5.7431      6.2648      6.4700      6.2659      5.7431      5.1222    
  4.1115      3.9536      3.8232      3.7347      3.6871      3.6690      3.6692      3.6869      3.7325      3.8194    
  3.9506      4.1115      4.2751      4.4266      4.5773      4.6798      4.6788      4.5745      4.4227      4.2721    
  3.9451      3.9537      3.9774      4.0092      4.0374      4.0497      4.0396      4.0115      3.9773      3.9506    
  3.9406      3.9506      3.9773      4.0115      4.0396      4.0497      4.0374      4.0092      3.9774      3.9537    
  4.1115      4.2721      4.4227      4.5745      4.6788      4.6798      4.5773      4.4266      4.2751      4.1115    
  3.9506      3.8194      3.7325      3.6869      3.6692      3.6690      3.6871      3.7347      3.8232      3.9536    
  4.6153      5.1222      5.7431      6.2659      6.4700      6.2648      5.7431      5.1252      4.6198      4.2751    
  3.9773      3.7325      3.5667      3.4772      3.4500      3.4783      3.5689      3.7346      3.9773      4.2719    
  6.3396      7.9303      9.4470      10.372      10.370      9.4421      7.9265      6.3395      5.1252      4.4266    
  4.0115      3.6869      3.4772      3.3795      3.3800      3.4781      3.6868      4.0093      4.4228      5.1220    
  10.964      14.162      16.603      17.516      16.600      14.157      10.959      7.9265      5.7431      4.5773    
  4.0396      3.6692      3.4500      3.3800      3.4500      3.6683      4.0375      4.5751      5.7428      7.9292    
  19.596      24.428      27.280      27.280      24.428      19.596      14.157      9.4421      6.2648      4.6798    
  4.0497      3.6690      3.4783      3.4781      3.6683      4.0488      4.6796      6.2663      9.4450      14.159    
  32.265      38.117      40.291      38.120      32.268      24.428      16.600      10.370      6.4700      4.6788    
  4.0374      3.6871      3.5689      3.6868      4.0375      4.6796      6.4716      10.371      16.600      24.426    
  47.620      53.210      53.209      47.618      38.120      27.280      17.516      10.372      6.2659      4.5745    
  4.0092      3.7347      3.7346      4.0093      4.5751      6.2663      10.371      17.514      27.279      38.121    
  62.868      66.454      62.859      53.209      40.291      27.280      16.603      9.4470      5.7431      4.4227    
  3.9774      3.8232      3.9773      4.4228      5.7428      9.4450      16.600      27.279      40.297      53.218    
  74.281      74.277      66.454      53.210      38.117      24.428      14.162      7.9303      5.1222      4.2721    
  3.9537      3.9536      4.2719      5.1220      7.9292      14.159      24.426      38.121      53.218      66.464    
  74.281      66.464      53.218      38.121      24.426      14.159      7.9292      5.1220      4.2719      3.9536    
  3.9537      4.2721      5.1222      7.9303      14.162      24.428      38.117      53.210      66.454      74.277    
  66.464      56.226      42.544      28.785      17.498      9.9021      5.9285      4.4920      4.0318      3.8740    
  4.0318      4.4919      5.9292      9.9051      17.502      28.785      42.535      56.212      66.452      70.273    
  53.218      42.544      30.401      19.473      11.433      6.7329      4.7402      4.1100      3.8222      3.8223    
  4.1097      4.7396      6.7336      11.436      19.477      30.401      42.537      53.209      59.512      59.516    
  38.121      28.785      19.473      12.010      7.2369      4.9575      4.1739      3.7986      3.6701      3.7987    
  4.1735      4.9563      7.2362      12.011      19.476      28.788      38.122      45.114      47.717      45.114    
  24.426      17.498      11.433      7.2369      5.0454      4.2108      3.7936      3.5793      3.5796      3.7940    
  4.2106      5.0439      7.2348      11.432      17.499      24.430      30.581      34.217      34.215      30.577    
  14.159      9.9021      6.7329      4.9575      4.2108      3.7941      3.5394      3.4570      3.5398      3.7950    
  4.2119      4.9576      6.7310      9.8992      14.157      18.580      21.940      23.196      21.940      18.580    
  7.9292      5.9285      4.7402      4.1739      3.7936      3.5394      3.4185      3.4183      3.5394      3.7949    
  4.1765      4.7425      5.9288      7.9266      10.431      12.765      14.177      14.179      12.769      10.435    
  5.1220      4.4920      4.1100      3.7986      3.5793      3.4570      3.4183      3.4560      3.5782      3.7987    
  4.1123      4.4959      5.1251      6.1181      7.2809      8.2273      8.5932      8.2301      7.2836      6.1180    
  4.2719      4.0318      3.8222      3.6701      3.5796      3.5398      3.5394      3.5782      3.6675      3.8198    
  4.0318      4.2751      4.5376      4.8857      5.2610      5.5100      5.5100      5.2603      4.8829      4.5334    
  3.9536      3.8740      3.8223      3.7987      3.7940      3.7950      3.7949      3.7987      3.8198      3.8701    
  3.9507      4.0506      4.1520      4.2384      4.3059      4.3329      4.3037      4.2351      4.1493      4.0506    
  3.9537      4.0318      4.1097      4.1735      4.2106      4.2119      4.1765      4.1123      4.0318      3.9507    
  3.8836      3.8409      3.8241      3.8249      3.8297      3.8287      3.8233      3.8242      3.8438      3.8879    
  4.2721      4.4919      4.7396      4.9563      5.0439      4.9576      4.7425      4.4959      4.2751      4.0506    
  3.8409      3.6784      3.5744      3.5214      3.5057      3.5217      3.5761      3.6815      3.8436      4.0506    
  5.1222      5.9292      6.7336      7.2362      7.2348      6.7310      5.9288      5.1251      4.5376      4.1520    
  3.8241      3.5744      3.4189      3.3479      3.3485      3.4205      3.5761      3.8241      4.1492      4.5334    
  7.9303      9.9051      11.436      12.011      11.432      9.8992      7.9266      6.1181      4.8857      4.2384    
  3.8249      3.5214      3.3479      3.2933      3.3484      3.5214      3.8233      4.2354      4.8829      6.1180    
  14.162      17.502      19.477      19.476      17.499      14.157      10.431      7.2809      5.2610      4.3059    
  3.8297      3.5057      3.3485      3.3484      3.5051      3.8282      4.3042      5.2608      7.2832      10.435    
  24.428      28.785      30.401      28.788      24.430      18.580      12.765      8.2273      5.5100      4.3329    
  3.8287      3.5217      3.4205      3.5214      3.8282      4.3328      5.5113      8.2301      12.768      18.580    
  38.117      42.535      42.537      38.122      30.581      21.940      14.177      8.5932      5.5100      4.3037    
  3.8233      3.5761      3.5761      3.8233      4.3042      5.5113      8.5947      14.178      21.938      30.577    
  53.210      56.212      53.209      45.114      34.217      23.196      14.179      8.2301      5.2603      4.2351    
  3.8242      3.6815      3.8241      4.2354      5.2608      8.2301      14.178      23.195      34.216      45.114    
  66.454      66.452      59.512      47.717      34.215      21.940      12.769      7.2836      4.8829      4.1493    
  3.8438      3.8436      4.1492      4.8829      7.2832      12.768      21.938      34.216      47.720      59.516    
  74.277      70.273      59.516      45.114      30.577      18.580      10.435      6.1180      4.5334      4.0506    
  3.8879      4.0506      4.5334      6.1180      10.435      18.580      30.577      45.114      59.516      70.273    
  62.868      53.218      40.297      27.279      16.600      9.4450      5.7428      4.4228      3.9773      3.8232    
  3.9774      4.4227      5.7431      9.4470      16.603      27.280      40.291      53.209      62.859      66.454    
  53.218      42.544      30.401      19.473      11.433      6.7329      4.7402      4.1100      3.8222      3.8223    
  4.1097      4.7396      6.7336      11.436      19.477      30.401      42.537      53.209      59.512      59.516    
  40.297      30.401      20.538      12.622      7.5282      5.0650      4.2211      3.8382      3.7062      3.8382    
  4.2204      5.0637      7.5282      12.625      20.542      30.404      40.296      47.719      50.485      47.720    
  27.279      19.473      12.622      7.8324      5.2760      4.2981      3.8616      3.6352      3.6354      3.8617    
  4.2971      5.2739      7.8307      12.623      19.477      27.286      34.222      38.329      38.326      34.216    
  16.600      11.433      7.5282      5.2760      4.3275      3.8788      3.6014      3.5108      3.6018      3.8792    
  4.3271      5.2739      7.5253      11.432      16.603      21.945      26.000      27.515      25.995      21.938    
  9.4450      6.7329      5.0650      4.2981      3.8788      3.5922      3.4545      3.4544      3.5926      3.8800    
  4.2993      5.0645      6.7305      9.4424      12.767      15.832      17.677      17.676      15.831      12.768    
  5.7428      4.7402      4.2211      3.8616      3.6014      3.4545      3.4080      3.4539      3.6014      3.8631    
  4.2237      4.7422      5.7428      7.2810      9.0244      10.416      10.948      10.418      9.0276      7.2832    
  4.4228      4.1100      3.8382      3.6352      3.5108      3.4544      3.4539      3.5095      3.6338      3.8381    
  4.1122      4.4263      4.8855      5.5419      6.2247      6.6644      6.6653      6.2262      5.5417      4.8829    
  3.9773      3.8222      3.7062      3.6354      3.6018      3.5926      3.6014      3.6338      3.7033      3.8198    
  3.9773      4.1519      4.3191      4.5013      4.6662      4.7342      4.6652      4.4988      4.3156      4.1492    
  3.8232      3.8223      3.8382      3.8617      3.8792      3.8800      3.8631      3.8381      3.8198      3.8196    
  3.8411      3.8799      3.9263      3.9675      3.9913      3.9902      3.9651      3.9243      3.8800      3.8436    
  3.9774      4.1097      4.2204      4.2971      4.3271      4.2993      4.2237      4.1122      3.9773      3.8411    
  3.7254      3.6447      3.6002      3.5817      3.5768      3.5808      3.6002      3.6469      3.7290      3.8438    
  4.4227      4.7396      5.0637      5.2739      5.2739      5.0645      4.7422      4.4263      4.1519      3.8799    
  3.6447      3.4748      3.3733      3.3282      3.3284      3.3744      3.4770      3.6468      3.8800      4.1493    
  5.7431      6.7336      7.5282      7.8307      7.5253      6.7305      5.7428      4.8855      4.3191      3.9263    
  3.6002      3.3733      3.2477      3.2088      3.2486      3.3744      3.6001      3.9243      4.3156      4.8829    
  9.4470      11.436      12.625      12.623      11.432      9.4424      7.2810      5.5419      4.5013      3.9675    
  3.5817      3.3282      3.2088      3.2090      3.3282      3.5806      3.9653      4.4992      5.5417      7.2836    
  16.603      19.477      20.542      19.477      16.603      12.767      9.0244      6.2247      4.6662      3.9913    
  3.5768      3.3284      3.2486      3.3282      3.5760      3.9902      4.6662      6.2268      9.0276      12.769    
  27.280      30.401      30.404      27.286      21.945      15.832      10.416      6.6644      4.7342      3.9902    
  3.5808      3.3744      3.3744      3.5806      3.9902      4.7351      6.6669      10.418      15.831      21.940    
  40.291      42.537      40.296      34.222      26.000      17.677      10.948      6.6653      4.6652      3.9651    
  3.6002      3.4770      3.6001      3.9653      4.6662      6.6669      10.949      17.675      25.995      34.215    
  53.209      53.209      47.719      38.329      27.515      17.676      10.418      6.2262      4.4988      3.9243    
  3.6469      3.6468      3.9243      4.4992      6.2268      10.418      17.675      27.512      38.326      47.717    
  62.859      59.512      50.485      38.326      25.995      15.831      9.0276      5.5417      4.3156      3.8800    
  3.7290      3.8800      4.3156      5.5417      9.0276      15.831      25.995      38.326      50.485      59.512    
  66.454      59.516      47.720      34.216      21.938      12.768      7.2832      4.8829      4.1492      3.8436    
  3.8438      4.1493      4.8829      7.2836      12.769      21.940      34.215      47.717      59.512      66.452    
  47.620      38.121      27.279      17.514      10.371      6.2663      4.5751      4.0093      3.7346      3.7347    
  4.0092      4.5745      6.2659      10.372      17.516      27.280      38.120      47.618      53.209      53.210    
  38.121      28.785      19.473      12.010      7.2369      4.9575      4.1739      3.7986      3.6701      3.7987    
  4.1735      4.9563      7.2362      12.011      19.476      28.788      38.122      45.114      47.717      45.114    
  27.279      19.473      12.622      7.8324      5.2760      4.2981      3.8616      3.6352      3.6354      3.8617    
  4.2971      5.2739      7.8307      12.623      19.477      27.286      34.222      38.329      38.326      34.216    
  17.514      12.010      7.8324      5.4006      4.3704      3.9086      3.6237      3.5303      3.6240      3.9087    
  4.3693      5.3977      7.8291      12.010      17.519      23.204      27.520      29.132      27.512      23.195    
  10.371      7.2369      5.2760      4.3704      3.9261      3.6230      3.4763      3.4764      3.6235      3.9268    
  4.3700      5.2731      7.2329      10.370      14.181      17.680      19.783      19.781      17.675      14.178    
  6.2663      4.9575      4.2981      3.9086      3.6230      3.4604      3.4091      3.4603      3.6237      3.9102    
  4.2991      4.9565      6.2634      8.2272      10.417      12.149      12.808      12.149      10.418      8.2301    
  4.5751      4.1739      3.8616      3.6237      3.4763      3.4091      3.4087      3.4756      3.6238      3.8632    
  4.1762      4.5766      5.2603      6.2243      7.2009      7.8195      7.8207      7.2036      6.2268      5.2608    
  4.0093      3.7986      3.6352      3.5303      3.4764      3.4603      3.4756      3.5288      3.6338      3.7986    
  4.0113      4.2381      4.5010      4.8293      5.1224      5.2414      5.1231      4.8293      4.4992      4.2354    
  3.7346      3.6701      3.6354      3.6240      3.6235      3.6237      3.6238      3.6338      3.6675      3.7325    
  3.8242      3.9263      4.0192      4.0910      4.1361      4.1356      4.0893      4.0166      3.9243      3.8241    
  3.7347      3.7987      3.8617      3.9087      3.9268      3.9102      3.8632      3.7986      3.7325      3.6785    
  3.6448      3.6324      3.6356      3.6440      3.6476      3.6427      3.6342      3.6324      3.6468      3.6815    
  4.0092      4.1735      4.2971      4.3693      4.3700      4.2991      4.1762      4.0113      3.8242      3.6448    
  3.4990      3.3993      3.3429      3.3189      3.3187      3.3429      3.4007      3.5016      3.6469      3.8242    
  4.5745      4.9563      5.2739      5.3977      5.2731      4.9565      4.5766      4.2381      3.9263      3.6324    
  3.3993      3.2438      3.1597      3.1338      3.1602      3.2450      3.4006      3.6324      3.9243      4.2351    
  6.2659      7.2362      7.8307      7.8291      7.2329      6.2634      5.2603      4.5010      4.0192      3.6356    
  3.3429      3.1597      3.0753      3.0756      3.1603      3.3428      3.6342      4.0166      4.4988      5.2603    
  10.372      12.011      12.623      12.010      10.370      8.2272      6.2243      4.8293      4.0910      3.6440    
  3.3189      3.1338      3.0756      3.1340      3.3184      3.6426      4.0896      4.8293      6.2262      8.2301    
  17.516      19.476      19.477      17.519      14.181      10.417      7.2009      5.1224      4.1361      3.6476    
  3.3187      3.1602      3.1603      3.3184      3.6469      4.1361      5.1241      7.2036      10.418      14.179    
  27.280      28.788      27.286      23.204      17.680      12.149      7.8195      5.2414      4.1356      3.6427    
  3.3429      3.2450      3.3428      3.6426      4.1361      5.2432      7.8218      12.149      17.676      23.196    
  38.120      38.122      34.222      27.520      19.783      12.808      7.8207      5.1231      4.0893      3.6342    
  3.4007      3.4006      3.6342      4.0896      5.1241      7.8218      12.808      19.781      27.515      34.217    
  47.618      45.114      38.329      29.132      19.781      12.149      7.2036      4.8293      4.0166      3.6324    
  3.5016      3.6324      4.0166      4.8293      7.2036      12.149      19.781      29.132      38.329      45.114    
  53.209      47.717      38.326      27.512      17.675      10.418      6.2268      4.4992      3.9243      3.6468    
  3.6469      3.9243      4.4988      6.2262      10.418      17.676      27.515      38.329      47.719      53.209    
  53.210      45.114      34.216      23.195      14.178      8.2301      5.2608      4.2354      3.8241      3.6815    
  3.8242      4.2351      5.2603      8.2301      14.179      23.196      34.217      45.114      53.209      56.212    
  32.265      24.426      16.600      10.371      6.4716      4.6796      4.0375      3.6868      3.5689      3.6871    
  4.0374      4.6788      6.4700      10.370      16.600      24.428      32.268      38.120      40.291      38.117    
  24.426      17.498      11.433      7.2369      5.0454      4.2108      3.7936      3.5793      3.5796      3.7940    
  4.2106      5.0439      7.2348      11.432      17.499      24.430      30.581      34.217      34.215      30.577    
  16.600      11.433      7.5282      5.2760      4.3275      3.8788      3.6014      3.5108      3.6018      3.8792    
  4.3271      5.2739      7.5253      11.432      16.603      21.945      26.000      27.515      25.995      21.938    
  10.371      7.2369      5.2760      4.3704      3.9261      3.6230      3.4763      3.4764      3.6235      3.9268    
  4.3700      5.2731      7.2329      10.370      14.181      17.680      19.783      19.781      17.675      14.178    
  6.4716      5.0454      4.3275      3.9261      3.6319      3.4638      3.4109      3.4640      3.6329      3.9275    
  4.3275      5.0426      6.4674      8.5919      10.949      12.809      13.516      12.808      10.949      8.5947    
  4.6796      4.2108      3.8788      3.6230      3.4638      3.3912      3.3910      3.4638      3.6241      3.8807    
  4.2120      4.6787      5.5083      6.6633      7.8191      8.5464      8.5473      7.8218      6.6669      5.5113    
  4.0375      3.7936      3.6014      3.4763      3.4109      3.3910      3.4103      3.4758      3.6018      3.7952    
  4.0396      4.3053      4.6653      5.1217      5.5215      5.6821      5.5235      5.1241      4.6662      4.3042    
  3.6868      3.5793      3.5108      3.4764      3.4640      3.4638      3.4758      3.5096      3.5782      3.6869    
  3.8249      3.9673      4.0907      4.2019      4.2773      4.2775      4.2019      4.0896      3.9653      3.8233    
  3.5689      3.5796      3.6018      3.6235      3.6329      3.6241      3.6018      3.5782      3.5667      3.5745    
  3.6002      3.6355      3.6700      3.6943      3.7027      3.6933      3.6683      3.6342      3.6001      3.5761    
  3.6871      3.7940      3.8792      3.9268      3.9275      3.8807      3.7952      3.6869      3.5745      3.4748    
  3.3991      3.3508      3.3255      3.3155      3.3150      3.3247      3.3508      3.4006      3.4770      3.5761    
  4.0374      4.2106      4.3271      4.3700      4.3275      4.2120      4.0396      3.8249      3.6002      3.3991    
  3.2449      3.1436      3.0891      3.0722      3.0892      3.1444      3.2465      3.4007      3.6002      3.8233    
  4.6788      5.0439      5.2739      5.2731      5.0426      4.6787      4.3053      3.9673      3.6355      3.3508    
  3.1436      3.0170      2.9590      2.9592      3.0175      3.1444      3.3508      3.6342      3.9651      4.3037    
  6.4700      7.2348      7.5253      7.2329      6.4674      5.5083      4.6653      4.0907      3.6700      3.3255    
  3.0891      2.9590      2.9186      2.9593      3.0892      3.3246      3.6683      4.0893      4.6652      5.5100    
  10.370      11.432      11.432      10.370      8.5919      6.6633      5.1217      4.2019      3.6943      3.3155    
  3.0722      2.9592      2.9593      3.0722      3.3148      3.6934      4.2019      5.1231      6.6653      8.5932    
  16.600      17.499      16.603      14.181      10.949      7.8191      5.5215      4.2773      3.7027      3.3150    
  3.0892      3.0175      3.0892      3.3148      3.7026      4.2782      5.5235      7.8207      10.948      14.177    
  24.428      24.430      21.945      17.680      12.809      8.5464      5.6821      4.2775      3.6933      3.3247    
  3.1444      3.1444      3.3246      3.6934      4.2782      5.6835      8.5473      12.808      17.677      21.940    
  32.268      30.581      26.000      19.783      13.516      8.5473      5.5235      4.2019      3.6683      3.3508    
  3.2465      3.3508      3.6683      4.2019      5.5235      8.5473      13.516      19.783      26.000      30.581    
  38.120      34.217      27.515      19.781      12.808      7.8218      5.1241      4.0896      3.6342      3.4006    
  3.4007      3.6342      4.0893      5.1231      7.8207      12.808      19.783      27.520      34.222      38.122    
  40.291      34.215      25.995      17.675      10.949      6.6669      4.6662      3.9653      3.6001      3.4770    
  3.6002      3.9651      4.6652      6.6653      10.948      17.677      26.000      34.222      40.296      42.537    
  38.117      30.577      21.938      14.178      8.5947      5.5113      4.3042      3.8233      3.5761      3.5761    
  3.8233      4.3037      5.5100      8.5932      14.177      21.940      30.581      38.122      42.537      42.535    
  19.596      14.159      9.4450      6.2663      4.6796      4.0488      3.6683      3.4781      3.4783      3.6690    
  4.0497      4.6798      6.2648      9.4421      14.157      19.596      24.428      27.280      27.280      24.428    
  14.159      9.9021      6.7329      4.9575      4.2108      3.7941      3.5394      3.4570      3.5398      3.7950    
  4.2119      4.9576      6.7310      9.8992      14.157      18.580      21.940      23.196      21.940      18.580    
  9.4450      6.7329      5.0650      4.2981      3.8788      3.5922      3.4545      3.4544      3.5926      3.8800    
  4.2993      5.0645      6.7305      9.4424      12.767      15.832      17.677      17.676      15.831      12.768    
  6.2663      4.9575      4.2981      3.9086      3.6230      3.4604      3.4091      3.4603      3.6237      3.9102    
  4.2991      4.9565      6.2634      8.2272      10.417      12.149      12.808      12.149      10.418      8.2301    
  4.6796      4.2108      3.8788      3.6230      3.4638      3.3912      3.3910      3.4638      3.6241      3.8807    
  4.2120      4.6787      5.5083      6.6633      7.8191      8.5464      8.5473      7.8218      6.6669      5.5113    
  4.0488      3.7941      3.5922      3.4604      3.3912      3.3701      3.3908      3.4603      3.5933      3.7961    
  4.0506      4.3329      4.7330      5.2398      5.6810      5.8577      5.6835      5.2432      4.7351      4.3328    
  3.6683      3.5394      3.4545      3.4091      3.3910      3.3908      3.4085      3.4540      3.5398      3.6699    
  3.8303      3.9914      4.1354      4.2766      4.3732      4.3741      4.2782      4.1361      3.9902      3.8282    
  3.4781      3.4570      3.4544      3.4603      3.4638      3.4603      3.4540      3.4559      3.4773      3.5217    
  3.5820      3.6440      3.6941      3.7249      3.7351      3.7248      3.6934      3.6426      3.5806      3.5214    
  3.4783      3.5398      3.5926      3.6237      3.6241      3.5933      3.5398      3.4773      3.4190      3.3734    
  3.3429      3.3255      3.3170      3.3137      3.3134      3.3161      3.3246      3.3428      3.3744      3.4205    
  3.6690      3.7950      3.8800      3.9102      3.8807      3.7961      3.6699      3.5217      3.3734      3.2436    
  3.1435      3.0760      3.0382      3.0261      3.0379      3.0760      3.1444      3.2450      3.3744      3.5217    
  4.0497      4.2119      4.2993      4.2991      4.2120      4.0506      3.8303      3.5820      3.3429      3.1435    
  2.9987      2.9087      2.8666      2.8666      2.9091      2.9996      3.1444      3.3429      3.5808      3.8287    
  4.6798      4.9576      5.0645      4.9565      4.6787      4.3329      3.9914      3.6440      3.3255      3.0760    
  2.9087      2.8167      2.7879      2.8170      2.9091      3.0760      3.3247      3.6427      3.9902      4.3329    
  6.2648      6.7310      6.7305      6.2634      5.5083      4.7330      4.1354      3.6941      3.3170      3.0382    
  2.8666      2.7879      2.7881      2.8667      3.0378      3.3161      3.6933      4.1356      4.7342      5.5100    
  9.4421      9.8992      9.4424      8.2272      6.6633      5.2398      4.2766      3.7249      3.3137      3.0261    
  2.8666      2.8170      2.8667      3.0259      3.3133      3.7248      4.2775      5.2414      6.6644      8.2273    
  14.157      14.157      12.767      10.417      7.8191      5.6810      4.3732      3.7351      3.3134      3.0379    
  2.9091      2.9091      3.0378      3.3133      3.7353      4.3741      5.6821      7.8195      10.416      12.765    
  19.596      18.580      15.832      12.149      8.5464      5.8577      4.3741      3.7248      3.3161      3.0760    
  2.9996      3.0760      3.3161      3.7248      4.3741      5.8577      8.5464      12.149      15.832      18.580    
  24.428      21.940      17.677      12.808      8.5473      5.6835      4.2782      3.6934      3.3246      3.1444    
  3.1444      3.3247      3.6933      4.2775      5.6821      8.5464      12.809      17.680      21.945      24.430    
  27.280      23.196      17.676      12.149      7.8218      5.2432      4.1361      3.6426      3.3428      3.2450    
  3.3429      3.6427      4.1356      5.2414      7.8195      12.149      17.680      23.204      27.286      28.788    
  27.280      21.940      15.831      10.418      6.6669      4.7351      3.9902      3.5806      3.3744      3.3744    
  3.5808      3.9902      4.7342      6.6644      10.416      15.832      21.945      27.286      30.404      30.401    
  24.428      18.580      12.768      8.2301      5.5113      4.3328      3.8282      3.5214      3.4205      3.5217    
  3.8287      4.3329      5.5100      8.2273      12.765      18.580      24.430      28.788      30.401      28.785    
  10.964      7.9292      5.7428      4.5751      4.0375      3.6683      3.4500      3.3800      3.4500      3.6692    
  4.0396      4.5773      5.7431      7.9265      10.959      14.157      16.600      17.516      16.603      14.162    
  7.9292      5.9285      4.7402      4.1739      3.7936      3.5394      3.4185      3.4183      3.5394      3.7949    
  4.1765      4.7425      5.9288      7.9266      10.431      12.765      14.177      14.179      12.769      10.435    
  5.7428      4.7402      4.2211      3.8616      3.6014      3.4545      3.4080      3.4539      3.6014      3.8631    