fcc Fe                                  
   3.35000000000000     
     0.000000    0.500849    0.500849
     0.500849    0.000000    0.500849
     0.500849    0.500849    0.000000
   Fe
     1
Direct
 -0.000000  0.000000 -0.000000
 
   20   20   20
 0.78937237035E+02 0.74647469756E+02 0.63141555233E+02 0.47781147208E+02 0.32327698261E+02
 0.19597922199E+02 0.10942800930E+02 0.63231632692E+01 0.46087964305E+01 0.41037628546E+01
 0.39362511684E+01 0.41037628546E+01 0.46087964305E+01 0.63231632692E+01 0.10942800930E+02
 0.19597922199E+02 0.32327698261E+02 0.47781147208E+02 0.63141555233E+02 0.74647469756E+02
 0.74647469756E+02 0.66766699651E+02 0.53419298044E+02 0.38218317560E+02 0.24447975042E+02
 0.14143582400E+02 0.79086950478E+01 0.51117737045E+01 0.42657626207E+01 0.39449145691E+01
 0.39450320341E+01 0.42659092867E+01 0.51119992623E+01 0.79098582063E+01 0.14145970855E+02
 0.24449412998E+02 0.38215140969E+02 0.53410456754E+02 0.66756515600E+02 0.74642934100E+02
 0.63141555233E+02 0.53419298044E+02 0.40408043196E+02 0.27314347986E+02 0.16590694662E+02
 0.94231754059E+01 0.57286358448E+01 0.44170669383E+01 0.39691939932E+01 0.38142948527E+01
 0.39692830267E+01 0.44169438366E+01 0.57289373585E+01 0.94251962129E+01 0.16593896846E+02
 0.27315123171E+02 0.40402782191E+02 0.53409228015E+02 0.63133304524E+02 0.66756515600E+02
 0.47781147208E+02 0.38218317560E+02 0.27314347986E+02 0.17507361543E+02 0.10349566068E+02
 0.62496738071E+01 0.45683431183E+01 0.40020723743E+01 0.37258788874E+01 0.37259478776E+01
 0.40019377267E+01 0.45677104902E+01 0.62492531632E+01 0.10350446881E+02 0.17509333166E+02
 0.27315588850E+02 0.38217350129E+02 0.47778809330E+02 0.53409228015E+02 0.53410456754E+02
 0.32327698261E+02 0.24447975042E+02 0.16590694662E+02 0.10349566068E+02 0.64541284151E+01
 0.46720190388E+01 0.40309612352E+01 0.36784987137E+01 0.35603231206E+01 0.36787779307E+01
 0.40309448054E+01 0.46711320350E+01 0.64524821261E+01 0.10348138579E+02 0.16590720884E+02
 0.24449922934E+02 0.32330675829E+02 0.38217350129E+02 0.40402782191E+02 0.38215140969E+02
 0.19597922199E+02 0.14143582400E+02 0.94231754059E+01 0.62496738071E+01 0.46720190388E+01
 0.40425877383E+01 0.36603156506E+01 0.34699023051E+01 0.34701362261E+01 0.36610381982E+01
 0.40434929904E+01 0.46721269636E+01 0.62480416025E+01 0.94201362370E+01 0.14140826205E+02
 0.19596925927E+02 0.24449922934E+02 0.27315588850E+02 0.27315123171E+02 0.24449412998E+02
 0.10942800930E+02 0.79086950478E+01 0.57286358448E+01 0.45683431183E+01 0.40309612352E+01
 0.36603156506E+01 0.34419326462E+01 0.33720626310E+01 0.34420075898E+01 0.36612976854E+01
 0.40331721189E+01 0.45706077779E+01 0.57289607601E+01 0.79059755852E+01 0.10937813942E+02
 0.14140826205E+02 0.16590720884E+02 0.17509333166E+02 0.16593896846E+02 0.14145970855E+02
 0.63231632692E+01 0.51117737045E+01 0.44170669383E+01 0.40020723743E+01 0.36784987137E+01
 0.34699023051E+01 0.33720626310E+01 0.33715554833E+01 0.34689751581E+01 0.36785592420E+01
 0.40042551118E+01 0.44209341783E+01 0.51150050984E+01 0.63230986859E+01 0.79059755852E+01
 0.94201362370E+01 0.10348138579E+02 0.10350446881E+02 0.94251962129E+01 0.79098582063E+01
 0.46087964305E+01 0.42657626207E+01 0.39691939932E+01 0.37258788874E+01 0.35603231206E+01
 0.34701362261E+01 0.34420075898E+01 0.34689751581E+01 0.35580754782E+01 0.37237055295E+01
 0.39692074666E+01 0.42689677276E+01 0.46134648968E+01 0.51150050984E+01 0.57289607601E+01
 0.62480416025E+01 0.64524821261E+01 0.62492531632E+01 0.57289373585E+01 0.51119992623E+01
 0.41037628546E+01 0.39449145691E+01 0.38142948527E+01 0.37259478776E+01 0.36787779307E+01
 0.36610381982E+01 0.36612976854E+01 0.36785592420E+01 0.37237055295E+01 0.38103845661E+01
 0.39418378493E+01 0.41038027075E+01 0.42689677276E+01 0.44209341783E+01 0.45706077779E+01
 0.46721269636E+01 0.46711320350E+01 0.45677104902E+01 0.44169438366E+01 0.42659092867E+01
 0.39362511684E+01 0.39450320341E+01 0.39692830267E+01 0.40019377267E+01 0.40309448054E+01
 0.40434929904E+01 0.40331721189E+01 0.40042551118E+01 0.39692074666E+01 0.39418378493E+01
 0.39316454209E+01 0.39418378493E+01 0.39692074666E+01 0.40042551118E+01 0.40331721189E+01
 0.40434929904E+01 0.40309448054E+01 0.40019377267E+01 0.39692830267E+01 0.39450320341E+01
 0.41037628546E+01 0.42659092867E+01 0.44169438366E+01 0.45677104902E+01 0.46711320350E+01
 0.46721269636E+01 0.45706077779E+01 0.44209341783E+01 0.42689677276E+01 0.41038027075E+01
 0.39418378493E+01 0.38103845661E+01 0.37237055295E+01 0.36785592420E+01 0.36612976854E+01
 0.36610381982E+01 0.36787779307E+01 0.37259478776E+01 0.38142948527E+01 0.39449145691E+01
 0.46087964305E+01 0.51119992623E+01 0.57289373585E+01 0.62492531632E+01 0.64524821261E+01
 0.62480416025E+01 0.57289607601E+01 0.51150050984E+01 0.46134648968E+01 0.42689677276E+01
 0.39692074666E+01 0.37237055295E+01 0.35580754782E+01 0.34689751581E+01 0.34420075898E+01
 0.34701362261E+01 0.35603231206E+01 0.37258788874E+01 0.39691939932E+01 0.42657626207E+01
 0.63231632692E+01 0.79098582063E+01 0.94251962129E+01 0.10350446881E+02 0.10348138579E+02
 0.94201362370E+01 0.79059755852E+01 0.63230986859E+01 0.51150050984E+01 0.44209341783E+01
 0.40042551118E+01 0.36785592420E+01 0.34689751581E+01 0.33715554833E+01 0.33720626310E+01
 0.34699023051E+01 0.36784987137E+01 0.40020723743E+01 0.44170669383E+01 0.51117737045E+01
 0.10942800930E+02 0.14145970855E+02 0.16593896846E+02 0.17509333166E+02 0.16590720884E+02
 0.14140826205E+02 0.10937813942E+02 0.79059755852E+01 0.57289607601E+01 0.45706077779E+01
 0.40331721189E+01 0.36612976854E+01 0.34420075898E+01 0.33720626310E+01 0.34419326462E+01
 0.36603156506E+01 0.40309612352E+01 0.45683431183E+01 0.57286358448E+01 0.79086950478E+01
 0.19597922199E+02 0.24449412998E+02 0.27315123171E+02 0.27315588850E+02 0.24449922934E+02
 0.19596925927E+02 0.14140826205E+02 0.94201362370E+01 0.62480416025E+01 0.46721269636E+01
 0.40434929904E+01 0.36610381982E+01 0.34701362261E+01 0.34699023051E+01 0.36603156506E+01
 0.40425877383E+01 0.46720190388E+01 0.62496738071E+01 0.94231754059E+01 0.14143582400E+02
 0.32327698261E+02 0.38215140969E+02 0.40402782191E+02 0.38217350129E+02 0.32330675829E+02
 0.24449922934E+02 0.16590720884E+02 0.10348138579E+02 0.64524821261E+01 0.46711320350E+01
 0.40309448054E+01 0.36787779307E+01 0.35603231206E+01 0.36784987137E+01 0.40309612352E+01
 0.46720190388E+01 0.64541284151E+01 0.10349566068E+02 0.16590694662E+02 0.24447975042E+02
 0.47781147208E+02 0.53410456754E+02 0.53409228015E+02 0.47778809330E+02 0.38217350129E+02
 0.27315588850E+02 0.17509333166E+02 0.10350446881E+02 0.62492531632E+01 0.45677104902E+01
 0.40019377267E+01 0.37259478776E+01 0.37258788874E+01 0.40020723743E+01 0.45683431183E+01
 0.62496738071E+01 0.10349566068E+02 0.17507361543E+02 0.27314347986E+02 0.38218317560E+02
 0.63141555233E+02 0.66756515600E+02 0.63133304524E+02 0.53409228015E+02 0.40402782191E+02
 0.27315123171E+02 0.16593896846E+02 0.94251962129E+01 0.57289373585E+01 0.44169438366E+01
 0.39692830267E+01 0.38142948527E+01 0.39691939932E+01 0.44170669383E+01 0.57286358448E+01
 0.94231754059E+01 0.16590694662E+02 0.27314347986E+02 0.40408043196E+02 0.53419298044E+02
 0.74647469756E+02 0.74642934100E+02 0.66756515600E+02 0.53410456754E+02 0.38215140969E+02
 0.24449412998E+02 0.14145970855E+02 0.79098582063E+01 0.51119992623E+01 0.42659092867E+01
 0.39450320341E+01 0.39449145691E+01 0.42657626207E+01 0.51117737045E+01 0.79086950478E+01
 0.14143582400E+02 0.24447975042E+02 0.38218317560E+02 0.53419298044E+02 0.66766699651E+02
 0.74647469756E+02 0.66766699651E+02 0.53419298044E+02 0.38218317560E+02 0.24447975042E+02
 0.14143582400E+02 0.79086950478E+01 0.51117737045E+01 0.42657626207E+01 0.39449145691E+01
 0.39450320341E+01 0.42659092867E+01 0.51119992623E+01 0.79098582063E+01 0.14145970855E+02
 0.24449412998E+02 0.38215140969E+02 0.53410456754E+02 0.66756515600E+02 0.74642934100E+02
 0.66766699651E+02 0.56449411201E+02 0.42669822301E+02 0.28828403720E+02 0.17491062143E+02
 0.98803203848E+01 0.59135945743E+01 0.44860894494E+01 0.40237599916E+01 0.38650635476E+01
 0.40237867241E+01 0.44859585940E+01 0.59142998765E+01 0.98833902385E+01 0.17495291050E+02
 0.28828570461E+02 0.42661164280E+02 0.56434149543E+02 0.66754491294E+02 0.70606440950E+02
 0.53419298044E+02 0.42669822301E+02 0.30452682307E+02 0.19472900588E+02 0.11412206449E+02
 0.67146641189E+01 0.47323579896E+01 0.41029394244E+01 0.38134277599E+01 0.38134316864E+01
 0.41026247910E+01 0.47318009563E+01 0.67153991856E+01 0.11415466347E+02 0.19476688715E+02
 0.30452355600E+02 0.42663063455E+02 0.53410010440E+02 0.59760401788E+02 0.59764759021E+02
 0.38218317560E+02 0.28828403720E+02 0.19472900588E+02 0.11989551380E+02 0.72171888282E+01
 0.49479925019E+01 0.41679363190E+01 0.37902203717E+01 0.36613199774E+01 0.37903530791E+01
 0.41674366275E+01 0.49467600611E+01 0.72164864218E+01 0.11990734387E+02 0.19475711288E+02
 0.28831113519E+02 0.38219606773E+02 0.45257660807E+02 0.47878586531E+02 0.45257499164E+02
 0.24447975042E+02 0.17491062143E+02 0.11412206449E+02 0.72171888282E+01 0.50351662848E+01
 0.42053929607E+01 0.37856635391E+01 0.35708504375E+01 0.35711171754E+01 0.37860949944E+01
 0.42051562361E+01 0.50337048315E+01 0.72150145867E+01 0.11410958748E+02 0.17492376908E+02
 0.24451870920E+02 0.30634832130E+02 0.34291565555E+02 0.34289671269E+02 0.30630490202E+02
 0.14143582400E+02 0.98803203848E+01 0.67146641189E+01 0.49479925019E+01 0.42053929607E+01
 0.37863520718E+01 0.35312250858E+01 0.34488304756E+01 0.35315845279E+01 0.37873190295E+01
 0.42065332553E+01 0.49480156808E+01 0.67127566018E+01 0.98774048885E+01 0.14141620839E+02
 0.18577657386E+02 0.21951384194E+02 0.23212830600E+02 0.21950657385E+02 0.18577749037E+02
 0.79086950478E+01 0.59135945743E+01 0.47323579896E+01 0.41679363190E+01 0.37856635391E+01
 0.35312250858E+01 0.34105775068E+01 0.34103589688E+01 0.35312284751E+01 0.37870048226E+01
 0.41706111686E+01 0.47347833942E+01 0.59138277188E+01 0.79060814724E+01 0.10409856815E+02
 0.12746709306E+02 0.14161266435E+02 0.14162775260E+02 0.12750534920E+02 0.10414150412E+02
 0.51117737045E+01 0.44860894494E+01 0.41029394244E+01 0.37902203717E+01 0.35708504375E+01
 0.34488304756E+01 0.34103589688E+01 0.34478131210E+01 0.35696574788E+01 0.37902811448E+01
 0.41052913879E+01 0.44900786188E+01 0.51149690771E+01 0.61023695314E+01 0.72612618926E+01
 0.82059158947E+01 0.85713769174E+01 0.82087131570E+01 0.72640231440E+01 0.61022557521E+01
 0.42657626207E+01 0.40237599916E+01 0.38134277599E+01 0.36613199774E+01 0.35711171754E+01
 0.35315845279E+01 0.35312284751E+01 0.35696574788E+01 0.36586009799E+01 0.38109185282E+01
 0.40237733790E+01 0.42689708273E+01 0.45315924695E+01 0.48768061002E+01 0.52491736025E+01
 0.54964861507E+01 0.54965501053E+01 0.52484172154E+01 0.48738831468E+01 0.45271889164E+01
 0.39449145691E+01 0.38650635476E+01 0.38134316864E+01 0.37903530791E+01 0.37860949944E+01
 0.37873190295E+01 0.37870048226E+01 0.37902811448E+01 0.38109185282E+01 0.38610062386E+01
 0.39419173297E+01 0.40427127199E+01 0.41454087842E+01 0.42330179270E+01 0.43004141700E+01
 0.43272808070E+01 0.42981613468E+01 0.42295668386E+01 0.41427302139E+01 0.40427270113E+01
 0.39450320341E+01 0.40237867241E+01 0.41026247910E+01 0.41674366275E+01 0.42051562361E+01
 0.42065332553E+01 0.41706111686E+01 0.41052913879E+01 0.40237733790E+01 0.39419173297E+01
 0.38746335407E+01 0.38321331612E+01 0.38159081584E+01 0.38173783721E+01 0.38225940547E+01
 0.38216269425E+01 0.38157076747E+01 0.38159618009E+01 0.38350441027E+01 0.38790195385E+01
 0.42659092867E+01 0.44859585940E+01 0.47318009563E+01 0.49467600611E+01 0.50337048315E+01
 0.49480156808E+01 0.47347833942E+01 0.44900786188E+01 0.42689708273E+01 0.40427127199E+01
 0.38321331612E+01 0.36694736118E+01 0.35658657371E+01 0.35132323890E+01 0.34977353265E+01
 0.35135684913E+01 0.35675872114E+01 0.36726884106E+01 0.38349202466E+01 0.40427270113E+01
 0.51119992623E+01 0.59142998765E+01 0.67153991856E+01 0.72164864218E+01 0.72150145867E+01
 0.67127566018E+01 0.59138277188E+01 0.51149690771E+01 0.45315924695E+01 0.41454087842E+01
 0.38159081584E+01 0.35658657371E+01 0.34107132418E+01 0.33399964352E+01 0.33406162703E+01
 0.34123484292E+01 0.35675390213E+01 0.38158892034E+01 0.41425995681E+01 0.45271889164E+01
 0.79098582063E+01 0.98833902385E+01 0.11415466347E+02 0.11990734387E+02 0.11410958748E+02
 0.98774048885E+01 0.79060814724E+01 0.61023695314E+01 0.48768061002E+01 0.42330179270E+01
 0.38173783721E+01 0.35132323890E+01 0.33399964352E+01 0.32856304608E+01 0.33405394556E+01
 0.35132586604E+01 0.38157593587E+01 0.42298510582E+01 0.48739132011E+01 0.61022557521E+01
 0.14145970855E+02 0.17495291050E+02 0.19476688715E+02 0.19475711288E+02 0.17492376908E+02
 0.14141620839E+02 0.10409856815E+02 0.72612618926E+01 0.52491736025E+01 0.43004141700E+01
 0.38225940547E+01 0.34977353265E+01 0.33406162703E+01 0.33405394556E+01 0.34971337042E+01
 0.38210869030E+01 0.42987464346E+01 0.52490185563E+01 0.72636725330E+01 0.10414150412E+02
 0.24449412998E+02 0.28828570461E+02 0.30452355600E+02 0.28831113519E+02 0.24451870920E+02
 0.18577657386E+02 0.12746709306E+02 0.82059158947E+01 0.54964861507E+01 0.43272808070E+01
 0.38216269425E+01 0.35135684913E+01 0.34123484292E+01 0.35132586604E+01 0.38210869030E+01
 0.43271945204E+01 0.54978751054E+01 0.82087741480E+01 0.12749256143E+02 0.18577749037E+02
 0.38215140969E+02 0.42661164280E+02 0.42663063455E+02 0.38219606773E+02 0.30634832130E+02
 0.21951384194E+02 0.14161266435E+02 0.85713769174E+01 0.54965501053E+01 0.42981613468E+01
 0.38157076747E+01 0.35675872114E+01 0.35675390213E+01 0.38157593587E+01 0.42987464346E+01
 0.54978751054E+01 0.85728739840E+01 0.14161569423E+02 0.21949254603E+02 0.30630490202E+02
 0.53410456754E+02 0.56434149543E+02 0.53410010440E+02 0.45257660807E+02 0.34291565555E+02
 0.23212830600E+02 0.14162775260E+02 0.82087131570E+01 0.52484172154E+01 0.42295668386E+01
 0.38159618009E+01 0.36726884106E+01 0.38158892034E+01 0.42298510582E+01 0.52490185563E+01
 0.82087741480E+01 0.14161569423E+02 0.23210839543E+02 0.34290132094E+02 0.45257499164E+02
 0.66756515600E+02 0.66754491294E+02 0.59760401788E+02 0.47878586531E+02 0.34289671269E+02
 0.21950657385E+02 0.12750534920E+02 0.72640231440E+01 0.48738831468E+01 0.41427302139E+01
 0.38350441027E+01 0.38349202466E+01 0.41425995681E+01 0.48739132011E+01 0.72636725330E+01
 0.12749256143E+02 0.21949254603E+02 0.34290132094E+02 0.47881891742E+02 0.59764759021E+02
 0.74642934100E+02 0.70606440950E+02 0.59764759021E+02 0.45257499164E+02 0.30630490202E+02
 0.18577749037E+02 0.10414150412E+02 0.61022557521E+01 0.45271889164E+01 0.40427270113E+01
 0.38790195385E+01 0.40427270113E+01 0.45271889164E+01 0.61022557521E+01 0.10414150412E+02
 0.18577749037E+02 0.30630490202E+02 0.45257499164E+02 0.59764759021E+02 0.70606440950E+02
 0.63141555233E+02 0.53419298044E+02 0.40408043196E+02 0.27314347986E+02 0.16590694662E+02
 0.94231754059E+01 0.57286358448E+01 0.44170669383E+01 0.39691939932E+01 0.38142948527E+01
 0.39692830267E+01 0.44169438366E+01 0.57289373585E+01 0.94251962129E+01 0.16593896846E+02
 0.27315123171E+02 0.40402782191E+02 0.53409228015E+02 0.63133304524E+02 0.66756515600E+02
 0.53419298044E+02 0.42669822301E+02 0.30452682307E+02 0.19472900588E+02 0.11412206449E+02
 0.67146641189E+01 0.47323579896E+01 0.41029394244E+01 0.38134277599E+01 0.38134316864E+01
 0.41026247910E+01 0.47318009563E+01 0.67153991856E+01 0.11415466347E+02 0.19476688715E+02
 0.30452355600E+02 0.42663063455E+02 0.53410010440E+02 0.59760401788E+02 0.59764759021E+02
 0.40408043196E+02 0.30452682307E+02 0.20542174597E+02 0.12602687840E+02 0.75078331746E+01
 0.50546867190E+01 0.42152992734E+01 0.38297746257E+01 0.36972812499E+01 0.38297604215E+01
 0.42145382877E+01 0.50534204986E+01 0.75078432057E+01 0.12605320902E+02 0.20546251271E+02
 0.30455372282E+02 0.40407995246E+02 0.47880696639E+02 0.50667009400E+02 0.47881891742E+02
 0.27314347986E+02 0.19472900588E+02 0.12602687840E+02 0.78113942164E+01 0.52642614136E+01
 0.42926850328E+01 0.38536990776E+01 0.36265350684E+01 0.36267370823E+01 0.38537587605E+01
 0.42916360174E+01 0.52620660424E+01 0.78095895901E+01 0.12603535207E+02 0.19477585790E+02
 0.27321678956E+02 0.34296870305E+02 0.38429047239E+02 0.38426318102E+02 0.34290132094E+02
 0.16590694662E+02 0.11412206449E+02 0.75078331746E+01 0.52642614136E+01 0.43221155634E+01
 0.38712596184E+01 0.35931175025E+01 0.35025219825E+01 0.35934848658E+01 0.38716547417E+01
 0.43216268368E+01 0.52620845248E+01 0.75047945408E+01 0.11411071236E+02 0.16593861648E+02
 0.21955740796E+02 0.26029861041E+02 0.27552285963E+02 0.26024511511E+02 0.21949254603E+02
 0.94231754059E+01 0.67146641189E+01 0.50546867190E+01 0.42926850328E+01 0.38712596184E+01
 0.35840800791E+01 0.34464553535E+01 0.34464361946E+01 0.35844746801E+01 0.38724998223E+01
 0.42938865999E+01 0.50542283433E+01 0.67122307493E+01 0.94205104626E+01 0.12748325259E+02
 0.15820530409E+02 0.17671029812E+02 0.17670415783E+02 0.15819782191E+02 0.12749256143E+02
 0.57286358448E+01 0.47323579896E+01 0.42152992734E+01 0.38536990776E+01 0.35931175025E+01
 0.34464553535E+01 0.34002181071E+01 0.34459031537E+01 0.35931254260E+01 0.38552162690E+01
 0.42179144854E+01 0.47344266043E+01 0.57286010970E+01 0.72613344019E+01 0.90024087166E+01
 0.10393855156E+02 0.10926671685E+02 0.10396192511E+02 0.90057216368E+01 0.72636725330E+01
 0.44170669383E+01 0.41029394244E+01 0.38297746257E+01 0.36265350684E+01 0.35025219825E+01
 0.34464361946E+01 0.34459031537E+01 0.35011263128E+01 0.36251024665E+01 0.38297181235E+01
 0.41051739077E+01 0.44207211916E+01 0.48766562944E+01 0.55283705364E+01 0.62076289257E+01
 0.66456378729E+01 0.66465859652E+01 0.62091938034E+01 0.55281774694E+01 0.48739132011E+01
 0.39691939932E+01 0.38134277599E+01 0.36972812499E+01 0.36267370823E+01 0.35934848658E+01
 0.35844746801E+01 0.35931254260E+01 0.36251024665E+01 0.36943281604E+01 0.38109312325E+01
 0.39692502500E+01 0.41453971622E+01 0.43136097082E+01 0.44944185835E+01 0.46578006024E+01
 0.47251071279E+01 0.46568091390E+01 0.44918957829E+01 0.43099683383E+01 0.41425995681E+01
 0.38142948527E+01 0.38134316864E+01 0.38297604215E+01 0.38537587605E+01 0.38716547417E+01
 0.38724998223E+01 0.38552162690E+01 0.38297181235E+01 0.38109312325E+01 0.38105553224E+01
 0.38322781214E+01 0.38717904208E+01 0.39191111244E+01 0.39612448016E+01 0.39856008714E+01
 0.39845135396E+01 0.39587254940E+01 0.39169858127E+01 0.38718454076E+01 0.38349202466E+01
 0.39692830267E+01 0.41026247910E+01 0.42145382877E+01 0.42916360174E+01 0.43216268368E+01
 0.42938865999E+01 0.42179144854E+01 0.41051739077E+01 0.39692502500E+01 0.38322781214E+01
 0.37164203414E+01 0.36359442024E+01 0.35918794822E+01 0.35738619019E+01 0.35691847797E+01
 0.35729989165E+01 0.35918689431E+01 0.36381457326E+01 0.37200816736E+01 0.38350441027E+01
 0.44169438366E+01 0.47318009563E+01 0.50534204986E+01 0.52620660424E+01 0.52620845248E+01
 0.50542283433E+01 0.47344266043E+01 0.44207211916E+01 0.41453971622E+01 0.38717904208E+01
 0.36359442024E+01 0.34661852775E+01 0.33651221946E+01 0.33202953012E+01 0.33205437956E+01
 0.33662407833E+01 0.34683957905E+01 0.36380654868E+01 0.38718454076E+01 0.41427302139E+01
 0.57289373585E+01 0.67153991856E+01 0.75078432057E+01 0.78095895901E+01 0.75047945408E+01
 0.67122307493E+01 0.57286010970E+01 0.48766562944E+01 0.43136097082E+01 0.39191111244E+01
 0.35918794822E+01 0.33651221946E+01 0.32399141587E+01 0.32012094922E+01 0.32408140218E+01
 0.33662052882E+01 0.35918503789E+01 0.39169721580E+01 0.43099683383E+01 0.48738831468E+01
 0.94251962129E+01 0.11415466347E+02 0.12605320902E+02 0.12603535207E+02 0.11411071236E+02
 0.94205104626E+01 0.72613344019E+01 0.55283705364E+01 0.44944185835E+01 0.39612448016E+01
 0.35738619019E+01 0.33202953012E+01 0.32012094922E+01 0.32014055301E+01 0.33203478306E+01
 0.35728183176E+01 0.39590058672E+01 0.44922742505E+01 0.55281774694E+01 0.72640231440E+01
 0.16593896846E+02 0.19476688715E+02 0.20546251271E+02 0.19477585790E+02 0.16593861648E+02
 0.12748325259E+02 0.90024087166E+01 0.62076289257E+01 0.46578006024E+01 0.39856008714E+01
 0.35691847797E+01 0.33205437956E+01 0.32408140218E+01 0.33203478306E+01 0.35683446280E+01
 0.39844509701E+01 0.46577950929E+01 0.62097817249E+01 0.90057216368E+01 0.12750534920E+02
 0.27315123171E+02 0.30452355600E+02 0.30455372282E+02 0.27321678956E+02 0.21955740796E+02
 0.15820530409E+02 0.10393855156E+02 0.66456378729E+01 0.47251071279E+01 0.39845135396E+01
 0.35729989165E+01 0.33662407833E+01 0.33662052882E+01 0.35728183176E+01 0.39844509701E+01
 0.47261076161E+01 0.66481462302E+01 0.10396241649E+02 0.15819782191E+02 0.21950657385E+02
 0.40402782191E+02 0.42663063455E+02 0.40407995246E+02 0.34296870305E+02 0.26029861041E+02
 0.17671029812E+02 0.10926671685E+02 0.66465859652E+01 0.46568091390E+01 0.39587254940E+01
 0.35918689431E+01 0.34683957905E+01 0.35918503789E+01 0.39590058672E+01 0.46577950929E+01
 0.66481462302E+01 0.10927539730E+02 0.17669246496E+02 0.26024511511E+02 0.34289671269E+02
 0.53409228015E+02 0.53410010440E+02 0.47880696639E+02 0.38429047239E+02 0.27552285963E+02
 0.17670415783E+02 0.10396192511E+02 0.62091938034E+01 0.44918957829E+01 0.39169858127E+01
 0.36381457326E+01 0.36380654868E+01 0.39169721580E+01 0.44922742505E+01 0.62097817249E+01
 0.10396241649E+02 0.17669246496E+02 0.27549942128E+02 0.38426318102E+02 0.47878586531E+02
 0.63133304524E+02 0.59760401788E+02 0.50667009400E+02 0.38426318102E+02 0.26024511511E+02
 0.15819782191E+02 0.90057216368E+01 0.55281774694E+01 0.43099683383E+01 0.38718454076E+01
 0.37200816736E+01 0.38718454076E+01 0.43099683383E+01 0.55281774694E+01 0.90057216368E+01
 0.15819782191E+02 0.26024511511E+02 0.38426318102E+02 0.50667009400E+02 0.59760401788E+02
 0.66756515600E+02 0.59764759021E+02 0.47881891742E+02 0.34290132094E+02 0.21949254603E+02
 0.12749256143E+02 0.72636725330E+01 0.48739132011E+01 0.41425995681E+01 0.38349202466E+01
 0.38350441027E+01 0.41427302139E+01 0.48738831468E+01 0.72640231440E+01 0.12750534920E+02
 0.21950657385E+02 0.34289671269E+02 0.47878586531E+02 0.59760401788E+02 0.66754491294E+02
 0.47781147208E+02 0.38218317560E+02 0.27314347986E+02 0.17507361543E+02 0.10349566068E+02
 0.62496738071E+01 0.45683431183E+01 0.40020723743E+01 0.37258788874E+01 0.37259478776E+01
 0.40019377267E+01 0.45677104902E+01 0.62492531632E+01 0.10350446881E+02 0.17509333166E+02
 0.27315588850E+02 0.38217350129E+02 0.47778809330E+02 0.53409228015E+02 0.53410456754E+02
 0.38218317560E+02 0.28828403720E+02 0.19472900588E+02 0.11989551380E+02 0.72171888282E+01
 0.49479925019E+01 0.41679363190E+01 0.37902203717E+01 0.36613199774E+01 0.37903530791E+01
 0.41674366275E+01 0.49467600611E+01 0.72164864218E+01 0.11990734387E+02 0.19475711288E+02
 0.28831113519E+02 0.38219606773E+02 0.45257660807E+02 0.47878586531E+02 0.45257499164E+02
 0.27314347986E+02 0.19472900588E+02 0.12602687840E+02 0.78113942164E+01 0.52642614136E+01
 0.42926850328E+01 0.38536990776E+01 0.36265350684E+01 0.36267370823E+01 0.38537587605E+01
 0.42916360174E+01 0.52620660424E+01 0.78095895901E+01 0.12603535207E+02 0.19477585790E+02
 0.27321678956E+02 0.34296870305E+02 0.38429047239E+02 0.38426318102E+02 0.34290132094E+02
 0.17507361543E+02 0.11989551380E+02 0.78113942164E+01 0.53880766862E+01 0.43648897970E+01
 0.39011525301E+01 0.36153576643E+01 0.35219443400E+01 0.36156831019E+01 0.39012592404E+01
 0.43637105259E+01 0.53850336879E+01 0.78080188207E+01 0.11989407332E+02 0.17513030501E+02
 0.23220461458E+02 0.27557481773E+02 0.29178036189E+02 0.27549942128E+02 0.23210839543E+02
 0.10349566068E+02 0.72171888282E+01 0.52642614136E+01 0.43648897970E+01 0.39188147203E+01
 0.36149117502E+01 0.34683198544E+01 0.34684278929E+01 0.36154516210E+01 0.39195903358E+01
 0.43644470699E+01 0.52613125556E+01 0.72130551197E+01 0.10347922922E+02 0.14164664356E+02
 0.17674739522E+02 0.19785573255E+02 0.19782846949E+02 0.17669246496E+02 0.14161569423E+02
 0.62496738071E+01 0.49479925019E+01 0.42926850328E+01 0.39011525301E+01 0.36149117502E+01
 0.34524863423E+01 0.34013985465E+01 0.34524036923E+01 0.36156284086E+01 0.39027794240E+01
 0.42937475175E+01 0.49468883149E+01 0.62466485203E+01 0.82057837816E+01 0.10394809343E+02
 0.12128714731E+02 0.12789131622E+02 0.12128891366E+02 0.10396241649E+02 0.82087741480E+01
 0.45683431183E+01 0.41679363190E+01 0.38536990776E+01 0.36153576643E+01 0.34683198544E+01
 0.34013985465E+01 0.34009691743E+01 0.34676016381E+01 0.36155077427E+01 0.38553011161E+01
 0.41702825159E+01 0.45698380452E+01 0.52484193352E+01 0.62072656856E+01 0.71804302178E+01
 0.77977188498E+01 0.77989447032E+01 0.71832610433E+01 0.62097817249E+01 0.52490185563E+01
 0.40020723743E+01 0.37902203717E+01 0.36265350684E+01 0.35219443400E+01 0.34684278929E+01
 0.34524036923E+01 0.34676016381E+01 0.35204269912E+01 0.36251272578E+01 0.37902287150E+01
 0.40040621421E+01 0.42327216763E+01 0.44941138017E+01 0.48194137486E+01 0.51100007316E+01
 0.52280683500E+01 0.51107325040E+01 0.48193943255E+01 0.44922742505E+01 0.42298510582E+01
 0.37258788874E+01 0.36613199774E+01 0.36267370823E+01 0.36156831019E+01 0.36154516210E+01
 0.36156284086E+01 0.36155077427E+01 0.36251272578E+01 0.36585555516E+01 0.37237392523E+01
 0.38159384982E+01 0.39190552142E+01 0.40131980986E+01 0.40855395461E+01 0.41304572492E+01
 0.41298579530E+01 0.40837255528E+01 0.40105825270E+01 0.39169721580E+01 0.38158892034E+01
 0.37259478776E+01 0.37903530791E+01 0.38537587605E+01 0.39012592404E+01 0.39195903358E+01
 0.39027794240E+01 0.38553011161E+01 0.37902287150E+01 0.37237392523E+01 0.36696129963E+01
 0.36359814147E+01 0.36239955623E+01 0.36277877499E+01 0.36366808441E+01 0.36404413493E+01
 0.36353095136E+01 0.36263495405E+01 0.36240550983E+01 0.36380654868E+01 0.36726884106E+01
 0.40019377267E+01 0.41674366275E+01 0.42916360174E+01 0.43637105259E+01 0.43644470699E+01
 0.42937475175E+01 0.41702825159E+01 0.40040621421E+01 0.38159384982E+01 0.36359814147E+01
 0.34901109900E+01 0.33906732612E+01 0.33347135896E+01 0.33110025395E+01 0.33107623260E+01
 0.33347238418E+01 0.33920946875E+01 0.34927694827E+01 0.36381457326E+01 0.38159618009E+01
 0.45677104902E+01 0.49467600611E+01 0.52620660424E+01 0.53850336879E+01 0.52613125556E+01
 0.49468883149E+01 0.45698380452E+01 0.42327216763E+01 0.39190552142E+01 0.36239955623E+01
 0.33906732612E+01 0.32355411237E+01 0.31518801778E+01 0.31261850109E+01 0.31524358584E+01
 0.32367989027E+01 0.33920405823E+01 0.36240550983E+01 0.39169858127E+01 0.42295668386E+01
 0.62492531632E+01 0.72164864218E+01 0.78095895901E+01 0.78080188207E+01 0.72130551197E+01
 0.62466485203E+01 0.52484193352E+01 0.44941138017E+01 0.40131980986E+01 0.36277877499E+01
 0.33347135896E+01 0.31518801778E+01 0.30678872024E+01 0.30682059575E+01 0.31524608945E+01
 0.33346491768E+01 0.36263175926E+01 0.40105825270E+01 0.44918957829E+01 0.52484172154E+01
 0.10350446881E+02 0.11990734387E+02 0.12603535207E+02 0.11989407332E+02 0.10347922922E+02
 0.82057837816E+01 0.62072656856E+01 0.48194137486E+01 0.40855395461E+01 0.36366808441E+01
 0.33110025395E+01 0.31261850109E+01 0.30682059575E+01 0.31263409723E+01 0.33105134667E+01
 0.36352150625E+01 0.40840602451E+01 0.48193943255E+01 0.62091938034E+01 0.82087131570E+01
 0.17509333166E+02 0.19475711288E+02 0.19477585790E+02 0.17513030501E+02 0.14164664356E+02
 0.10394809343E+02 0.71804302178E+01 0.51100007316E+01 0.41304572492E+01 0.36404413493E+01
 0.33107623260E+01 0.31524358584E+01 0.31524608945E+01 0.33105134667E+01 0.36397656457E+01
 0.41303552516E+01 0.51116819370E+01 0.71832610433E+01 0.10396192511E+02 0.14162775260E+02
 0.27315588850E+02 0.28831113519E+02 0.27321678956E+02 0.23220461458E+02 0.17674739522E+02
 0.12128714731E+02 0.77977188498E+01 0.52280683500E+01 0.41298579530E+01 0.36353095136E+01
 0.33347238418E+01 0.32367989027E+01 0.33346491768E+01 0.36352150625E+01 0.41303552516E+01
 0.52298668653E+01 0.78000571808E+01 0.12128891366E+02 0.17670415783E+02 0.23212830600E+02
 0.38217350129E+02 0.38219606773E+02 0.34296870305E+02 0.27557481773E+02 0.19785573255E+02
 0.12789131622E+02 0.77989447032E+01 0.51107325040E+01 0.40837255528E+01 0.36263495405E+01
 0.33920946875E+01 0.33920405823E+01 0.36263175926E+01 0.40840602451E+01 0.51116819370E+01
 0.78000571808E+01 0.12789028600E+02 0.19782846949E+02 0.27552285963E+02 0.34291565555E+02
 0.47778809330E+02 0.45257660807E+02 0.38429047239E+02 0.29178036189E+02 0.19782846949E+02
 0.12128891366E+02 0.71832610433E+01 0.48193943255E+01 0.40105825270E+01 0.36240550983E+01
 0.34927694827E+01 0.36240550983E+01 0.40105825270E+01 0.48193943255E+01 0.71832610433E+01
 0.12128891366E+02 0.19782846949E+02 0.29178036189E+02 0.38429047239E+02 0.45257660807E+02
 0.53409228015E+02 0.47878586531E+02 0.38426318102E+02 0.27549942128E+02 0.17669246496E+02
 0.10396241649E+02 0.62097817249E+01 0.44922742505E+01 0.39169721580E+01 0.36380654868E+01
 0.36381457326E+01 0.39169858127E+01 0.44918957829E+01 0.62091938034E+01 0.10396192511E+02
 0.17670415783E+02 0.27552285963E+02 0.38429047239E+02 0.47880696639E+02 0.53410010440E+02
 0.53410456754E+02 0.45257499164E+02 0.34290132094E+02 0.23210839543E+02 0.14161569423E+02
 0.82087741480E+01 0.52490185563E+01 0.42298510582E+01 0.38158892034E+01 0.36726884106E+01
 0.38159618009E+01 0.42295668386E+01 0.52484172154E+01 0.82087131570E+01 0.14162775260E+02
 0.23212830600E+02 0.34291565555E+02 0.45257660807E+02 0.53410010440E+02 0.56434149543E+02
 0.32327698261E+02 0.24447975042E+02 0.16590694662E+02 0.10349566068E+02 0.64541284151E+01
 0.46720190388E+01 0.40309612352E+01 0.36784987137E+01 0.35603231206E+01 0.36787779307E+01
 0.40309448054E+01 0.46711320350E+01 0.64524821261E+01 0.10348138579E+02 0.16590720884E+02
 0.24449922934E+02 0.32330675829E+02 0.38217350129E+02 0.40402782191E+02 0.38215140969E+02
 0.24447975042E+02 0.17491062143E+02 0.11412206449E+02 0.72171888282E+01 0.50351662848E+01
 0.42053929607E+01 0.37856635391E+01 0.35708504375E+01 0.35711171754E+01 0.37860949944E+01